<event>
 8    1  0.6684013E-009  0.1230429E+03  0.7561462E-02  0.1238160E+00
         -1   -1    0    0    0  501 -0.00000000000E+00  0.00000000000E+00  0.17617278202E+03  0.17617278202E+03  0.00000000000E+00 0.  1.
          1   -1    0    0  501    0  0.00000000000E+00 -0.00000000000E+00 -0.98943469221E+02  0.98943469221E+02  0.00000000000E+00 0. -1.
         25    2    1    2    0    0 -0.52655600704E+02  0.42112401787E+02  0.19037190581E+02  0.14337711786E+03  0.12509403116E+03 0.  0.
         23    2    1    2    0    0  0.52655600704E+02 -0.42112401787E+02  0.58192122213E+02  0.13173913337E+03  0.97071156913E+02 0.  0.
          5    1    3    3  502    0 -0.70681099024E+02 -0.17775388723E+02  0.31433957501E+02  0.79481748141E+02  0.41800000000E+01 0. -1.
         -5    1    3    3    0  502  0.18025498319E+02  0.59887790510E+02 -0.12396766920E+02  0.63895369722E+02  0.41800000000E+01 0. -1.
        -11    1    4    4    0    0  0.51265966400E+02  0.14889153996E+02  0.47575181173E+01  0.53595897197E+02  0.00000000000E+00 0.  1.
         11    1    4    4    0    0  0.13896343037E+01 -0.57001555784E+02  0.53434604095E+02  0.78143236176E+02  0.00000000000E+00 0. -1.
</event>
<event>
 8    1  0.6684013E-009  0.1129771E+03  0.7561462E-02  0.1255154E+00
         -2   -1    0    0    0  501 -0.00000000000E+00  0.00000000000E+00  0.60333338708E+02  0.60333338708E+02  0.00000000000E+00 0. -1.
          2   -1    0    0  501    0  0.00000000000E+00 -0.00000000000E+00 -0.31968057062E+03  0.31968057062E+03  0.00000000000E+00 0.  1.
         25    2    1    2    0    0 -0.84165793022E+02  0.75262637618E+01 -0.11610908787E+03  0.19044468538E+03  0.12508929826E+03 0.  0.
         23    2    1    2    0    0  0.84165793022E+02 -0.75262637618E+01 -0.14323814404E+03  0.18956922395E+03  0.90987907991E+02 0.  0.
          5    1    3    3  502    0 -0.36417409579E+02 -0.26053825212E+02  0.14558420729E+02  0.47269964489E+02  0.41800000000E+01 0.  1.
         -5    1    3    3    0  502 -0.47748383442E+02  0.33580088974E+02 -0.13066750860E+03  0.14317472089E+03  0.41800000000E+01 0.  1.
        -11    1    4    4    0    0 -0.15779042441E+02 -0.15599036369E+02 -0.14995673898E+02  0.26780185803E+02  0.00000000000E+00 0. -1.
         11    1    4    4    0    0  0.99944835463E+02  0.80727726074E+01 -0.12824247014E+03  0.16278903815E+03  0.00000000000E+00 0.  1.
</event>
<event>
 8    1  0.6684013E-009  0.1470209E+03  0.7561462E-02  0.1204182E+00
         -2   -1    0    0    0  501 -0.00000000000E+00  0.00000000000E+00  0.28547316379E+02  0.28547316379E+02  0.00000000000E+00 0.  1.
          2   -1    0    0  501    0  0.00000000000E+00 -0.00000000000E+00 -0.14886951464E+04  0.14886951464E+04  0.00000000000E+00 0. -1.
         25    2    1    2    0    0  0.99809386513E+02 -0.20613208830E+02 -0.12839062237E+04  0.12940055576E+04  0.12509345968E+03 0.  0.
         23    2    1    2    0    0 -0.99809386513E+02  0.20613208830E+02 -0.17624160624E+03  0.22323690516E+03  0.91579441160E+02 0.  0.
          5    1    3    3  502    0  0.10276820607E+03 -0.61461339033E+02 -0.91598122184E+03  0.92378453740E+03  0.41800000000E+01 0.  1.
         -5    1    3    3    0  502 -0.29588195600E+01  0.40848130203E+02 -0.36792500190E+03  0.37022102017E+03  0.41800000000E+01 0.  1.
        -11    1    4    4    0    0  0.88360536843E+01 -0.16108370926E+02 -0.90194432079E+01  0.20467188727E+02  0.00000000000E+00 0.  1.
         11    1    4    4    0    0 -0.10864544020E+03  0.36721579755E+02 -0.16722216303E+03  0.20276971644E+03  0.00000000000E+00 0. -1.
</event>
<event>
 8    1  0.6684013E-009  0.1326234E+03  0.7561462E-02  0.1223614E+00
         -2   -1    0    0    0  501 -0.00000000000E+00  0.00000000000E+00  0.42437226371E+02  0.42437226371E+02  0.00000000000E+00 0.  1.
          2   -1    0    0  501    0  0.00000000000E+00 -0.00000000000E+00 -0.48791507646E+03  0.48791507646E+03  0.00000000000E+00 0. -1.
         25    2    1    2    0    0  0.60397664076E+02 -0.45909612253E+02 -0.34237134742E+03  0.37231864576E+03  0.12508982421E+03 0.  0.
         23    2    1    2    0    0 -0.60397664076E+02  0.45909612253E+02 -0.10310650267E+03  0.15803365707E+03  0.92672086152E+02 0.  0.
          5    1    3    3  502    0  0.89159617485E+02 -0.65305155078E+02 -0.24303892264E+03  0.26701983258E+03  0.41800000000E+01 0. -1.
         -5    1    3    3    0  502 -0.28761953409E+02  0.19395542825E+02 -0.99332424778E+02  0.10529881318E+03  0.41800000000E+01 0. -1.
        -11    1    4    4    0    0 -0.85145655459E+02  0.40895444711E+02 -0.83314947595E+02  0.12595078616E+03  0.00000000000E+00 0. -1.
         11    1    4    4    0    0  0.24747991383E+02  0.50141675418E+01 -0.19791555072E+02  0.32082870909E+02  0.00000000000E+00 0.  1.
</event>
<event>
 8    1  0.6684013E-009  0.1507894E+03  0.7561462E-02  0.1199506E+00
          2   -1    0    0  501    0  0.00000000000E+00  0.00000000000E+00  0.13505755624E+04  0.13505755624E+04  0.00000000000E+00 0. -1.
         -2   -1    0    0    0  501 -0.00000000000E+00 -0.00000000000E+00 -0.36473121355E+02  0.36473121355E+02  0.00000000000E+00 0.  1.
         25    2    1    2    0    0  0.86585865477E+02 -0.60386469152E+02  0.11632712001E+04  0.11747300061E+04  0.12508822681E+03 0.  0.
         23    2    1    2    0    0 -0.86585865477E+02  0.60386469152E+02  0.15083124095E+03  0.21231867766E+03  0.10576161819E+03 0.  0.
          5    1    3    3  502    0  0.11504821989E+03 -0.61552861636E+02  0.82837859018E+03  0.83860205625E+03  0.41800000000E+01 0. -1.
         -5    1    3    3    0  502 -0.28462354416E+02  0.11663924842E+01  0.33489260992E+03  0.33612794985E+03  0.41800000000E+01 0. -1.
        -11    1    4    4    0    0  0.80039128541E+00  0.54661885868E+02  0.27876319423E+02  0.61364905096E+02  0.00000000000E+00 0.  1.
         11    1    4    4    0    0 -0.87386256762E+02  0.57245832838E+01  0.12295492153E+03  0.15095377257E+03  0.00000000000E+00 0. -1.
</event>
<event>
 8    1  0.6684013E-009  0.1150626E+03  0.7561462E-02  0.1251472E+00
          1   -1    0    0  501    0  0.00000000000E+00  0.00000000000E+00  0.69043301602E+03  0.69043301602E+03  0.00000000000E+00 0. -1.
         -1   -1    0    0    0  501 -0.00000000000E+00 -0.00000000000E+00 -0.37480728190E+02  0.37480728190E+02  0.00000000000E+00 0.  1.
         25    2    1    2    0    0 -0.72593137489E+02 -0.78497816406E+02  0.47141931048E+03  0.49931476512E+03  0.12508955824E+03 0.  0.
         23    2    1    2    0    0  0.72593137489E+02  0.78497816406E+02  0.18153297735E+03  0.22859897909E+03  0.88722041147E+02 0.  0.
          5    1    3    3  502    0  0.61447319584E+00 -0.23399888353E+02  0.54375726256E+01  0.24392046824E+02  0.41800000000E+01 0. -1.
         -5    1    3    3    0  502 -0.73207610684E+02 -0.55097928053E+02  0.46598173786E+03  0.47492271830E+03  0.41800000000E+01 0. -1.
        -11    1    4    4    0    0  0.37694890112E+02  0.68728247121E+02  0.17502885226E+03  0.19178001934E+03  0.00000000000E+00 0. -1.
         11    1    4    4    0    0  0.34898247377E+02  0.97695692850E+01  0.65041250825E+01  0.36818959750E+02  0.00000000000E+00 0.  1.
</event>
<event>
 8    1  0.6684013E-009  0.1186736E+03  0.7561462E-02  0.1245301E+00
         -1   -1    0    0    0  501 -0.00000000000E+00  0.00000000000E+00  0.47516309398E+03  0.47516309398E+03  0.00000000000E+00 0.  1.
          1   -1    0    0  501    0  0.00000000000E+00 -0.00000000000E+00 -0.34152504881E+02  0.34152504881E+02  0.00000000000E+00 0. -1.
         25    2    1    2    0    0  0.55087952984E+02  0.38122740356E+02  0.24673294464E+03  0.28462803295E+03  0.12509174743E+03 0.  0.
         23    2    1    2    0    0 -0.55087952984E+02 -0.38122740356E+02  0.19427764446E+03  0.22468756591E+03  0.90844225135E+02 0.  0.
          5    1    3    3  502    0 -0.14150890097E+02 -0.28046620825E+02  0.12883113114E+03  0.13267175050E+03  0.41800000000E+01 0.  1.
         -5    1    3    3    0  502  0.69238843081E+02  0.66169361181E+02  0.11790181350E+03  0.15195628245E+03  0.41800000000E+01 0.  1.
        -11    1    4    4    0    0 -0.78998223544E+02 -0.30734884930E+02  0.12502278075E+03  0.15104982019E+03  0.00000000000E+00 0. -1.
         11    1    4    4    0    0  0.23910270560E+02 -0.73878554260E+01  0.69254863710E+02  0.73637745712E+02  0.00000000000E+00 0.  1.
</event>
<event>
 8    1  0.6684013E-009  0.7230397E+02  0.7561462E-02  0.1352429E+00
          1   -1    0    0  501    0  0.00000000000E+00  0.00000000000E+00  0.22760303593E+02  0.22760303593E+02  0.00000000000E+00 0. -1.
         -1   -1    0    0    0  501 -0.00000000000E+00 -0.00000000000E+00 -0.56715688870E+03  0.56715688870E+03  0.00000000000E+00 0.  1.
         25    2    1    2    0    0 -0.14503155935E+02 -0.31067012418E+02 -0.32793454029E+03  0.35265533036E+03  0.12509683656E+03 0.  0.
         23    2    1    2    0    0  0.14503155935E+02  0.31067012418E+02 -0.21646204481E+03  0.23726186194E+03  0.90894848548E+02 0.  0.
          5    1    3    3  502    0 -0.18509610851E+00  0.13277647291E+02 -0.29526258273E+03  0.29559058736E+03  0.41800000000E+01 0.  1.
         -5    1    3    3    0  502 -0.14318059827E+02 -0.44344659708E+02 -0.32671957567E+02  0.57064742995E+02  0.41800000000E+01 0.  1.
        -11    1    4    4    0    0  0.43797401935E+02  0.39381014466E+01 -0.17187371474E+03  0.17740996274E+03  0.00000000000E+00 0. -1.
         11    1    4    4    0    0 -0.29294246000E+02  0.27128910971E+02 -0.44588330066E+02  0.59851899195E+02  0.00000000000E+00 0.  1.
</event>
<event>
 8    1  0.6684013E-009  0.1265467E+03  0.7561462E-02  0.1232672E+00
          1   -1    0    0  501    0  0.00000000000E+00  0.00000000000E+00  0.57354378850E+03  0.57354378850E+03  0.00000000000E+00 0. -1.
         -1   -1    0    0    0  501 -0.00000000000E+00 -0.00000000000E+00 -0.39756485225E+02  0.39756485225E+02  0.00000000000E+00 0.  1.
         25    2    1    2    0    0 -0.75200480217E+02  0.73437923477E+02  0.20127700206E+03  0.25925155601E+03  0.12510274540E+03 0.  0.
         23    2    1    2    0    0  0.75200480217E+02 -0.73437923477E+02  0.33251030122E+03  0.35404871772E+03  0.61148616270E+02 0.  0.
          5    1    3    3  502    0 -0.39154317199E+02  0.84827657077E+02  0.20046818234E+03  0.22120975677E+03  0.41800000000E+01 0. -1.
         -5    1    3    3    0  502 -0.36046163018E+02 -0.11389733600E+02  0.80881971813E+00  0.38041799236E+02  0.41800000000E+01 0. -1.
        -11    1    4    4    0    0  0.44027650526E+02 -0.25523409533E+01  0.11514986308E+03  0.12330628298E+03  0.00000000000E+00 0.  1.
         11    1    4    4    0    0  0.31172829691E+02 -0.70885582524E+02  0.21736043814E+03  0.23074243474E+03  0.00000000000E+00 0. -1.
</event>
<event>
 8    1  0.6684013E-009  0.9121421E+02  0.7561462E-02  0.1299938E+00
          1   -1    0    0  501    0  0.00000000000E+00  0.00000000000E+00  0.12809706648E+04  0.12809706648E+04  0.00000000000E+00 0. -1.
         -1   -1    0    0    0  501 -0.00000000000E+00 -0.00000000000E+00 -0.15142776299E+02  0.15142776299E+02  0.00000000000E+00 0.  1.
         25    2    1    2    0    0 -0.61684050266E+01 -0.37836685245E+02  0.10571792521E+04  0.10652442747E+04  0.12509088575E+03 0.  0.
         23    2    1    2    0    0  0.61684050266E+01  0.37836685245E+02  0.20864863640E+03  0.23086916642E+03  0.91085973452E+02 0.  0.
          5    1    3    3  502    0  0.42915370454E+02  0.15606134504E+02  0.65101323118E+03  0.65262621770E+03  0.41800000000E+01 0.  1.
         -5    1    3    3    0  502 -0.49083775480E+02 -0.53442819750E+02  0.40616602091E+03  0.41261805697E+03  0.41800000000E+01 0.  1.
        -11    1    4    4    0    0  0.20981523342E+02  0.43288331487E+02  0.20960640057E+03  0.21505568378E+03  0.00000000000E+00 0. -1.
         11    1    4    4    0    0 -0.14813118316E+02 -0.54516462414E+01 -0.95776417121E+00  0.15813482639E+02  0.00000000000E+00 0.  1.
</event>
<event>
 8    1  0.6684013E-009  0.1465043E+03  0.7561462E-02  0.1204835E+00
          1   -1    0    0  501    0  0.00000000000E+00  0.00000000000E+00  0.36753391104E+03  0.36753391104E+03  0.00000000000E+00 0. -1.
         -1   -1    0    0    0  501 -0.00000000000E+00 -0.00000000000E+00 -0.60070375852E+02  0.60070375852E+02  0.00000000000E+00 0.  1.
         25    2    1    2    0    0 -0.37131197246E+02 -0.90707049036E+02  0.14002772452E+03  0.21180699776E+03  0.12509175078E+03 0.  0.
         23    2    1    2    0    0  0.37131197246E+02  0.90707049036E+02  0.16743581067E+03  0.21579728913E+03  0.94483992014E+02 0.  0.
          5    1    3    3  502    0 -0.51949702283E+02  0.13018670303E+02  0.54038793025E+02  0.76196593726E+02  0.41800000000E+01 0. -1.
         -5    1    3    3    0  502  0.14818505037E+02 -0.10372571934E+03  0.85988931493E+02  0.13561040404E+03  0.41800000000E+01 0. -1.
        -11    1    4    4    0    0  0.67640979181E+02  0.53054981299E+02  0.90097522043E+02  0.12452990237E+03  0.00000000000E+00 0.  1.
         11    1    4    4    0    0 -0.30509781935E+02  0.37652067737E+02  0.77338288632E+02  0.91267386766E+02  0.00000000000E+00 0. -1.
</event>
<event>
 8    1  0.6684013E-009  0.9185549E+02  0.7561462E-02  0.1298420E+00
          3   -1    0    0  501    0  0.00000000000E+00  0.00000000000E+00  0.12508345246E+03  0.12508345246E+03  0.00000000000E+00 0. -1.
         -3   -1    0    0    0  501 -0.00000000000E+00 -0.00000000000E+00 -0.94179081324E+02  0.94179081324E+02  0.00000000000E+00 0.  1.
         25    2    1    2    0    0 -0.66663823739E+01 -0.27835178950E+02  0.48664564408E+02  0.13723919529E+03  0.12508844493E+03 0.  0.
         23    2    1    2    0    0  0.66663823739E+01  0.27835178950E+02 -0.17760193268E+02  0.82023338498E+02  0.74787470557E+02 0.  0.
          5    1    3    3  502    0  0.38862623213E+02  0.17145669850E+02  0.58433584111E+02  0.72361824394E+02  0.41800000000E+01 0. -1.
         -5    1    3    3    0  502 -0.45529005587E+02 -0.44980848801E+02 -0.97690197031E+01  0.64877370897E+02  0.41800000000E+01 0. -1.
        -11    1    4    4    0    0 -0.24711728704E+02  0.36736962661E+02 -0.21452918754E+02  0.49198594331E+02  0.00000000000E+00 0. -1.
         11    1    4    4    0    0  0.31378111078E+02 -0.89017837108E+01  0.36927254863E+01  0.32824744166E+02  0.00000000000E+00 0.  1.
</event>
<event>
 8    1  0.6684013E-009  0.1069383E+03  0.7561462E-02  0.1266347E+00
         -1   -1    0    0    0  501 -0.00000000000E+00  0.00000000000E+00  0.34975184141E+02  0.34975184141E+02  0.00000000000E+00 0.  1.
          1   -1    0    0  501    0  0.00000000000E+00 -0.00000000000E+00 -0.55776660864E+03  0.55776660864E+03  0.00000000000E+00 0. -1.
         25    2    1    2    0    0  0.48234778423E+01  0.18620235216E+02 -0.10523485659E+03  0.16456838801E+03  0.12505358928E+03 0.  0.
         23    2    1    2    0    0 -0.48234778423E+01 -0.18620235216E+02 -0.41755656791E+03  0.42817340477E+03  0.92784686512E+02 0.  0.
          5    1    3    3  502    0  0.48594969762E+02  0.46251150831E+02 -0.86084588009E+02  0.10921844502E+03  0.41800000000E+01 0. -1.
         -5    1    3    3    0  502 -0.43771491920E+02 -0.27630915615E+02 -0.19150268584E+02  0.55349942994E+02  0.41800000000E+01 0. -1.
        -11    1    4    4    0    0 -0.27117777759E+02 -0.49618562941E+02 -0.24400588329E+03  0.25047204782E+03  0.00000000000E+00 0. -1.
         11    1    4    4    0    0  0.22294299916E+02  0.30998327725E+02 -0.17355068462E+03  0.17770135695E+03  0.00000000000E+00 0.  1.
</event>
<event>
 8    1  0.6684013E-009  0.5438518E+02  0.7561462E-02  0.1423029E+00
         -1   -1    0    0    0  501 -0.00000000000E+00  0.00000000000E+00  0.34395843578E+02  0.34395843578E+02  0.00000000000E+00 0.  1.
          1   -1    0    0  501    0  0.00000000000E+00 -0.00000000000E+00 -0.38677871266E+03  0.38677871266E+03  0.00000000000E+00 0. -1.
         25    2    1    2    0    0 -0.95080260570E+01  0.12185374129E+02 -0.27055513073E+03  0.29847336553E+03  0.12508950900E+03 0.  0.
         23    2    1    2    0    0  0.95080260570E+01 -0.12185374129E+02 -0.81827738353E+02  0.12270119071E+03  0.90116133604E+02 0.  0.
          5    1    3    3  502    0  0.13101805952E+02  0.10688066654E+02  0.78583321833E+01  0.19108057795E+02  0.41800000000E+01 0.  1.
         -5    1    3    3    0  502 -0.22609832009E+02  0.14973074751E+01 -0.27841346291E+03  0.27936530773E+03  0.41800000000E+01 0.  1.
        -11    1    4    4    0    0  0.28958328877E+02  0.16744472061E+02 -0.81216337642E+02  0.87835389541E+02  0.00000000000E+00 0. -1.
         11    1    4    4    0    0 -0.19450302820E+02 -0.28929846190E+02 -0.61140071165E+00  0.34865801170E+02  0.00000000000E+00 0.  1.
</event>
<event>
 8    1  0.6684013E-009  0.9628972E+02  0.7561462E-02  0.1288297E+00
         -1   -1    0    0    0  501 -0.00000000000E+00  0.00000000000E+00  0.31833567999E+03  0.31833567999E+03  0.00000000000E+00 0.  1.
          1   -1    0    0  501    0  0.00000000000E+00 -0.00000000000E+00 -0.57642143549E+02  0.57642143549E+02  0.00000000000E+00 0. -1.
         25    2    1    2    0    0  0.52789723888E+01 -0.41226429502E+02  0.24088518945E+03  0.27459204238E+03  0.12509048406E+03 0.  0.
         23    2    1    2    0    0 -0.52789723888E+01  0.41226429502E+02  0.19808346985E+02  0.10138578115E+03  0.90328400688E+02 0.  0.
          5    1    3    3  502    0  0.61690307267E+02 -0.15985252639E+02  0.81145930672E+02  0.10326353072E+03  0.41800000000E+01 0.  1.
         -5    1    3    3    0  502 -0.56411334878E+02 -0.25241176862E+02  0.15973925878E+03  0.17132851166E+03  0.41800000000E+01 0.  1.
        -11    1    4    4    0    0 -0.13770293837E+02  0.51577642580E+02  0.46968548241E+02  0.71104983865E+02  0.00000000000E+00 0.  1.
         11    1    4    4    0    0  0.84913214487E+01 -0.10351213079E+02 -0.27160201256E+02  0.30280797288E+02  0.00000000000E+00 0. -1.
</event>
<event>
 8    1  0.6684013E-009  0.2296036E+03  0.7561462E-02  0.1126919E+00
          2   -1    0    0  501    0  0.00000000000E+00  0.00000000000E+00  0.52021454205E+03  0.52021454205E+03  0.00000000000E+00 0. -1.
         -2   -1    0    0    0  501 -0.00000000000E+00 -0.00000000000E+00 -0.12040846379E+03  0.12040846379E+03  0.00000000000E+00 0.  1.
         25    2    1    2    0    0  0.19567796529E+03 -0.74967653796E+02  0.31096945400E+03  0.39529694372E+03  0.12509059589E+03 0.  0.
         23    2    1    2    0    0 -0.19567796529E+03  0.74967653796E+02  0.88836624257E+02  0.24532606211E+03  0.91558264117E+02 0.  0.
          5    1    3    3  502    0  0.84537623615E+02  0.20470890245E+02  0.17459559613E+03  0.19510705200E+03  0.41800000000E+01 0.  1.
         -5    1    3    3    0  502  0.11114034167E+03 -0.95438544041E+02  0.13637385787E+03  0.20018989172E+03  0.41800000000E+01 0.  1.
        -11    1    4    4    0    0 -0.43488465548E+02  0.57921712660E+02  0.10105593123E+02  0.73132034332E+02  0.00000000000E+00 0.  1.
         11    1    4    4    0    0 -0.15218949974E+03  0.17045941136E+02  0.78731031134E+02  0.17219402778E+03  0.00000000000E+00 0. -1.
</event>
<event>
 8    1  0.6684013E-009  0.7756027E+02  0.7561462E-02  0.1336121E+00
          1   -1    0    0  501    0  0.00000000000E+00  0.00000000000E+00  0.31587598288E+03  0.31587598288E+03  0.00000000000E+00 0. -1.
         -1   -1    0    0    0  501 -0.00000000000E+00 -0.00000000000E+00 -0.49269671753E+02  0.49269671753E+02  0.00000000000E+00 0.  1.
         25    2    1    2    0    0 -0.38325127929E+02  0.48350051933E+02  0.12938638951E+03  0.19024976937E+03  0.12509034336E+03 0.  0.
         23    2    1    2    0    0  0.38325127929E+02 -0.48350051933E+02  0.13721992161E+03  0.17489588526E+03  0.89178028919E+02 0.  0.
          5    1    3    3  502    0  0.41954951745E+01  0.35460012529E+02  0.13986234982E+03  0.14440901622E+03  0.41800000000E+01 0.  1.
         -5    1    3    3    0  502 -0.42520623103E+02  0.12890039405E+02 -0.10475960307E+02  0.45840753149E+02  0.41800000000E+01 0.  1.
        -11    1    4    4    0    0  0.38553871663E+01 -0.38499505127E+02  0.13333600712E+03  0.13883647467E+03  0.00000000000E+00 0. -1.
         11    1    4    4    0    0  0.34469740762E+02 -0.98505468065E+01  0.38839144991E+01  0.36059410595E+02  0.00000000000E+00 0.  1.
</event>
<event>
 7    1  0.6684013E-009  0.7407534E+02  0.7561462E-02  0.1346759E+00
         -1   -1    0    0    0  501 -0.00000000000E+00  0.00000000000E+00  0.25036746696E+03  0.25036746696E+03  0.00000000000E+00 0.  1.
          1   -1    0    0  501    0  0.00000000000E+00 -0.00000000000E+00 -0.56539431372E+02  0.56539431372E+02  0.00000000000E+00 0. -1.
         23    2    1    2    0    0 -0.25172270197E+02 -0.14264982584E+02  0.32579821186E+02  0.10073276288E+03  0.90821318281E+02 0.  0.
          5    1    1    2  502    0  0.69602323788E+02  0.21424066322E+02  0.57079645520E+02  0.92623066388E+02  0.41800000000E+01 0.  1.
         -5    1    1    2    0  502 -0.44430053592E+02 -0.71590837381E+01  0.10416856889E+03  0.11355106906E+03  0.41800000000E+01 0.  1.
        -11    1    3    3    0    0 -0.12921051564E+02 -0.11829003548E+02  0.64299034193E+02  0.66642664237E+02  0.00000000000E+00 0.  1.
         11    1    3    3    0    0 -0.12251218632E+02 -0.24359790354E+01 -0.31719213007E+02  0.34090098645E+02  0.00000000000E+00 0. -1.
</event>
<event>
 8    1  0.6684013E-009  0.1374152E+03  0.7561462E-02  0.1216850E+00
         -2   -1    0    0    0  501 -0.00000000000E+00  0.00000000000E+00  0.18517998207E+02  0.18517998207E+02  0.00000000000E+00 0. -1.
          2   -1    0    0  501    0  0.00000000000E+00 -0.00000000000E+00 -0.11675273931E+04  0.11675273931E+04  0.00000000000E+00 0.  1.
         25    2    1    2    0    0 -0.18526889162E+02 -0.96321175375E+02 -0.59897211511E+03  0.61970735802E+03  0.12509436621E+03 0.  0.
         23    2    1    2    0    0  0.18526889162E+02  0.96321175375E+02 -0.55003727980E+03  0.56633803331E+03  0.92610714009E+02 0.  0.
          5    1    3    3  502    0 -0.40280285575E+02 -0.10993111010E+03 -0.34376241079E+03  0.36317684101E+03  0.41800000000E+01 0.  1.
         -5    1    3    3    0  502  0.21753396412E+02  0.13609934723E+02 -0.25520970431E+03  0.25653051700E+03  0.41800000000E+01 0.  1.
        -11    1    4    4    0    0 -0.30459100166E+02  0.69384060296E+02 -0.37539227013E+03  0.38296378560E+03  0.00000000000E+00 0.  1.
         11    1    4    4    0    0  0.48985989328E+02  0.26937115079E+02 -0.17464500967E+03  0.18337424771E+03  0.00000000000E+00 0. -1.
</event>
<event>
 8    1  0.6684013E-009  0.1166558E+03  0.7561462E-02  0.1248718E+00
          2   -1    0    0  501    0  0.00000000000E+00  0.00000000000E+00  0.28666135433E+04  0.28666135433E+04  0.00000000000E+00 0. -1.
         -2   -1    0    0    0  501 -0.00000000000E+00 -0.00000000000E+00 -0.85668352670E+01  0.85668352670E+01  0.00000000000E+00 0.  1.
         25    2    1    2    0    0 -0.63342064099E+02  0.64973867257E+01  0.24186625417E+04  0.24227320185E+04  0.12509000728E+03 0.  0.
         23    2    1    2    0    0  0.63342064099E+02 -0.64973867257E+01  0.43938416632E+03  0.45244836001E+03  0.87158704369E+02 0.  0.
          5    1    3    3  502    0 -0.81367379611E+02  0.39767764382E+02  0.11772389878E+04  0.11807248758E+04  0.41800000000E+01 0.  1.
         -5    1    3    3    0  502  0.18025315512E+02 -0.33270377657E+02  0.12414235540E+04  0.12420071428E+04  0.41800000000E+01 0.  1.
        -11    1    4    4    0    0  0.48397815503E+02  0.35487806052E+02  0.19472703228E+03  0.20376542892E+03  0.00000000000E+00 0.  1.
         11    1    4    4    0    0  0.14944248596E+02 -0.41985192777E+02  0.24465713404E+03  0.24868293109E+03  0.00000000000E+00 0. -1.
</event>
<event>
 8    1  0.6684013E-009  0.2060524E+03  0.7561462E-02  0.1144731E+00
         -3   -1    0    0    0  501 -0.00000000000E+00  0.00000000000E+00  0.97959450317E+03  0.97959450317E+03  0.00000000000E+00 0.  1.
          3   -1    0    0  501    0  0.00000000000E+00 -0.00000000000E+00 -0.45859999533E+02  0.45859999533E+02  0.00000000000E+00 0. -1.
         25    2    1    2    0    0  0.25514898224E+02  0.17776181631E+03  0.42109740291E+03  0.47457173440E+03  0.12508011427E+03 0.  0.
         23    2    1    2    0    0 -0.25514898224E+02 -0.17776181631E+03  0.51263710072E+03  0.55088276830E+03  0.91786458685E+02 0.  0.
          5    1    3    3  502    0  0.31454242121E+02 -0.24310461603E+01  0.11478625892E+03  0.11911606512E+03  0.41800000000E+01 0. -1.
         -5    1    3    3    0  502 -0.59393438970E+01  0.18019286247E+03  0.30631114399E+03  0.35545566928E+03  0.41800000000E+01 0. -1.
        -11    1    4    4    0    0 -0.56441235649E+02 -0.14115051853E+03  0.41838008495E+03  0.44514152519E+03  0.00000000000E+00 0.  1.
         11    1    4    4    0    0  0.30926337425E+02 -0.36611297787E+02  0.94257015774E+02  0.10574124311E+03  0.00000000000E+00 0. -1.
</event>
<event>
 8    1  0.6684013E-009  0.1203941E+03  0.7561462E-02  0.1242448E+00
          1   -1    0    0  501    0  0.00000000000E+00  0.00000000000E+00  0.21531828697E+03  0.21531828697E+03  0.00000000000E+00 0. -1.
         -1   -1    0    0    0  501 -0.00000000000E+00 -0.00000000000E+00 -0.77970618372E+02  0.77970618372E+02  0.00000000000E+00 0.  1.
         25    2    1    2    0    0 -0.67094540010E+02 -0.19165801428E+02  0.94114346911E+02  0.17138807363E+03  0.12508939302E+03 0.  0.
         23    2    1    2    0    0  0.67094540010E+02  0.19165801428E+02  0.43233321688E+02  0.12190083171E+03  0.90120405150E+02 0.  0.
          5    1    3    3  502    0 -0.62542571207E+02  0.45988369830E+02  0.53252503429E+02  0.94232716688E+02  0.41800000000E+01 0.  1.
         -5    1    3    3    0  502 -0.45519688029E+01 -0.65154171258E+02  0.40861843482E+02  0.77155356943E+02  0.41800000000E+01 0.  1.
        -11    1    4    4    0    0  0.54834209564E+02 -0.18591865489E+02  0.55647998150E+02  0.80306585651E+02  0.00000000000E+00 0. -1.
         11    1    4    4    0    0  0.12260330447E+02  0.37757666917E+02 -0.12414676463E+02  0.41594246061E+02  0.00000000000E+00 0.  1.
</event>
<event>
 8    1  0.6684013E-009  0.1537229E+03  0.7561462E-02  0.1195972E+00
          2   -1    0    0  501    0  0.00000000000E+00  0.00000000000E+00  0.98474055335E+03  0.98474055335E+03  0.00000000000E+00 0. -1.
         -2   -1    0    0    0  501 -0.00000000000E+00 -0.00000000000E+00 -0.29170259803E+02  0.29170259803E+02  0.00000000000E+00 0.  1.
         25    2    1    2    0    0  0.79202271076E+01  0.11865621531E+03  0.62360107699E+03  0.64704561299E+03  0.12509074559E+03 0.  0.
         23    2    1    2    0    0 -0.79202271076E+01 -0.11865621531E+03  0.33196921655E+03  0.36686520016E+03  0.10121505284E+03 0.  0.
          5    1    3    3  502    0 -0.19027809160E+02  0.12605110862E+03  0.35985879988E+03  0.38179414317E+03  0.41800000000E+01 0.  1.
         -5    1    3    3    0  502  0.26948036268E+02 -0.73948933066E+01  0.26374227711E+03  0.26525146982E+03  0.41800000000E+01 0.  1.
        -11    1    4    4    0    0  0.29841968389E+02 -0.30168589425E+01  0.35914669525E+02  0.46792178858E+02  0.00000000000E+00 0.  1.
         11    1    4    4    0    0 -0.37762195497E+02 -0.11563935637E+03  0.29605454703E+03  0.32007302131E+03  0.00000000000E+00 0. -1.
</event>
<event>
 8    1  0.6684013E-009  0.1198552E+03  0.7561462E-02  0.1243336E+00
         -1   -1    0    0    0  501 -0.00000000000E+00  0.00000000000E+00  0.33583397951E+02  0.33583397951E+02  0.00000000000E+00 0.  1.
          1   -1    0    0  501    0  0.00000000000E+00 -0.00000000000E+00 -0.46664954400E+03  0.46664954400E+03  0.00000000000E+00 0. -1.
         25    2    1    2    0    0 -0.16394297312E+02  0.55794520530E+02 -0.28492198130E+03  0.31655964745E+03  0.12509066095E+03 0.  0.
         23    2    1    2    0    0  0.16394297312E+02 -0.55794520530E+02 -0.14814416475E+03  0.18367329450E+03  0.91691788396E+02 0.  0.
          5    1    3    3  502    0 -0.40593487728E+02 -0.25167049312E+02 -0.63813580948E+02  0.79817649242E+02  0.41800000000E+01 0.  1.
         -5    1    3    3    0  502  0.24199190416E+02  0.80961569842E+02 -0.22110840035E+03  0.23674199820E+03  0.41800000000E+01 0.  1.
        -11    1    4    4    0    0 -0.11809391080E+02  0.21694047104E+02 -0.47700104253E+02  0.53715857465E+02  0.00000000000E+00 0.  1.
         11    1    4    4    0    0  0.28203688392E+02 -0.77488567634E+02 -0.10044406049E+03  0.12995743704E+03  0.00000000000E+00 0. -1.
</event>
<event>
 8    1  0.6684013E-009  0.1132547E+03  0.7561462E-02  0.1254659E+00
          1   -1    0    0  501    0  0.00000000000E+00  0.00000000000E+00  0.32078905544E+03  0.32078905544E+03  0.00000000000E+00 0. -1.
         -1   -1    0    0    0  501 -0.00000000000E+00 -0.00000000000E+00 -0.50942917719E+02  0.50942917719E+02  0.00000000000E+00 0.  1.
         25    2    1    2    0    0  0.44257672100E+02 -0.45308594107E+02  0.15279433561E+03  0.20738616531E+03  0.12510516508E+03 0.  0.
         23    2    1    2    0    0 -0.44257672100E+02  0.45308594107E+02  0.11705180212E+03  0.16434580785E+03  0.96419966500E+02 0.  0.
          5    1    3    3  502    0  0.23390842021E+02  0.40855921010E+02  0.78552564412E+02  0.91675054118E+02  0.41800000000E+01 0.  1.
         -5    1    3    3    0  502  0.20866830080E+02 -0.86164515117E+02  0.74241771194E+02  0.11571111119E+03  0.41800000000E+01 0.  1.
        -11    1    4    4    0    0 -0.58812320665E+02  0.21561884636E+02  0.23776521973E+02  0.67000947219E+02  0.00000000000E+00 0.  1.
         11    1    4    4    0    0  0.14554648565E+02  0.23746709472E+02  0.93275280146E+02  0.97344860634E+02  0.00000000000E+00 0. -1.
</event>
<event>
 7    1  0.6684013E-009  0.4224520E+02  0.7561462E-02  0.1492311E+00
          1   -1    0    0  501    0  0.00000000000E+00  0.00000000000E+00  0.21860011487E+03  0.21860011487E+03  0.00000000000E+00 0. -1.
         -1   -1    0    0    0  501 -0.00000000000E+00 -0.00000000000E+00 -0.53722832222E+02  0.53722832222E+02  0.00000000000E+00 0.  1.
         23    2    1    2    0    0  0.34307679454E+01 -0.20781677980E+02  0.77243327963E+02  0.11820996801E+03  0.86967905076E+02 0.  0.
          5    1    1    2  502    0  0.84989114693E+01  0.24011379491E+02 -0.27805047026E+02  0.37939041651E+02  0.41800000000E+01 0. -1.
         -5    1    1    2    0  502 -0.11929679415E+02 -0.32297015113E+01  0.11543900171E+03  0.11617393743E+03  0.41800000000E+01 0. -1.
        -11    1    3    3    0    0  0.16354042991E+02 -0.26784333954E+02 -0.75088942375E+01  0.32268231439E+02  0.00000000000E+00 0.  1.
         11    1    3    3    0    0 -0.12923275046E+02  0.60026559742E+01  0.84752222201E+02  0.85941736570E+02  0.00000000000E+00 0. -1.
</event>
<event>
 8    1  0.6684013E-009  0.1697142E+03  0.7561462E-02  0.1178146E+00
          1   -1    0    0  501    0  0.00000000000E+00  0.00000000000E+00  0.25658012401E+03  0.25658012401E+03  0.00000000000E+00 0. -1.
         -1   -1    0    0    0  501 -0.00000000000E+00 -0.00000000000E+00 -0.12954575210E+03  0.12954575210E+03  0.00000000000E+00 0.  1.
         25    2    1    2    0    0  0.12251242095E+03 -0.36673813181E+02  0.64743394535E+01  0.17900302341E+03  0.12508358589E+03 0.  0.
         23    2    1    2    0    0 -0.12251242095E+03  0.36673813181E+02  0.12056003246E+03  0.20712285270E+03  0.10959421893E+03 0.  0.
          5    1    3    3  502    0  0.11195696099E+03 -0.77562573894E+02  0.84132276273E+01  0.13652314376E+03  0.41800000000E+01 0. -1.
         -5    1    3    3    0  502  0.10555459959E+02  0.40888760713E+02 -0.19388881738E+01  0.42479879649E+02  0.41800000000E+01 0. -1.
        -11    1    4    4    0    0 -0.10932352036E+03 -0.12297445098E+02  0.51578197500E+02  0.12150378478E+03  0.00000000000E+00 0.  1.
         11    1    4    4    0    0 -0.13188900588E+02  0.48971258279E+02  0.68981834959E+02  0.85619067914E+02  0.00000000000E+00 0. -1.
</event>
<event>
 8    1  0.6684013E-009  0.9313244E+02  0.7561462E-02  0.1295439E+00
         -2   -1    0    0    0  501 -0.00000000000E+00  0.00000000000E+00  0.37039259595E+02  0.37039259595E+02  0.00000000000E+00 0.  1.
          2   -1    0    0  501    0  0.00000000000E+00 -0.00000000000E+00 -0.37460366005E+03  0.37460366005E+03  0.00000000000E+00 0. -1.
         25    2    1    2    0    0 -0.22466609704E+02  0.24661691301E+02 -0.13892625508E+03  0.18990299221E+03  0.12509873913E+03 0.  0.
         23    2    1    2    0    0  0.22466609704E+02 -0.24661691301E+02 -0.19863814538E+03  0.22173992744E+03  0.92728286129E+02 0.  0.
          5    1    3    3  502    0  0.51446324927E+02  0.92402832164E+01 -0.43391929269E+02  0.68062023979E+02  0.41800000000E+01 0.  1.
         -5    1    3    3    0  502 -0.73912934630E+02  0.15421408084E+02 -0.95534325808E+02  0.12184096824E+03  0.41800000000E+01 0.  1.
        -11    1    4    4    0    0 -0.10576904431E+02  0.68067059082E+01  0.46376711638E+01  0.13405601310E+02  0.00000000000E+00 0.  1.
         11    1    4    4    0    0  0.33043514135E+02 -0.31468397209E+02 -0.20327581655E+03  0.20833432613E+03  0.00000000000E+00 0. -1.
</event>
<event>
 8    1  0.6684013E-009  0.8164201E+02  0.7561462E-02  0.1324455E+00
          2   -1    0    0  501    0  0.00000000000E+00  0.00000000000E+00  0.52714878607E+02  0.52714878607E+02  0.00000000000E+00 0. -1.
         -2   -1    0    0    0  501 -0.00000000000E+00 -0.00000000000E+00 -0.24128186068E+03  0.24128186068E+03  0.00000000000E+00 0.  1.
         25    2    1    2    0    0 -0.10073350470E+02 -0.18773042281E+02 -0.80571416293E+02  0.15029711243E+03  0.12507425545E+03 0.  0.
         23    2    1    2    0    0  0.10073350470E+02  0.18773042281E+02 -0.10799556578E+03  0.14369962686E+03  0.92372295761E+02 0.  0.
          5    1    3    3  502    0 -0.50939547919E+02 -0.70097212366E+01 -0.92516851725E+02  0.10592834364E+03  0.41800000000E+01 0. -1.
         -5    1    3    3    0  502  0.40866197449E+02 -0.11763321045E+02  0.11945435433E+02  0.44368768786E+02  0.41800000000E+01 0. -1.
        -11    1    4    4    0    0  0.30205341575E+02 -0.11741400293E+02 -0.30280052220E+01  0.32548301893E+02  0.00000000000E+00 0. -1.
         11    1    4    4    0    0 -0.20131991105E+02  0.30514442575E+02 -0.10496756056E+03  0.11115132496E+03  0.00000000000E+00 0.  1.
</event>
<event>
 8    1  0.6684013E-009  0.1519183E+03  0.7561462E-02  0.1198135E+00
         -2   -1    0    0    0  501 -0.00000000000E+00  0.00000000000E+00  0.48571670737E+03  0.48571670737E+03  0.00000000000E+00 0. -1.
          2   -1    0    0  501    0  0.00000000000E+00 -0.00000000000E+00 -0.64044582996E+02  0.64044582996E+02  0.00000000000E+00 0.  1.
         25    2    1    2    0    0 -0.13702901999E+03  0.86686419978E+01  0.18728960308E+03  0.26377982076E+03  0.12510116205E+03 0.  0.
         23    2    1    2    0    0  0.13702901999E+03 -0.86686419978E+01  0.23438252129E+03  0.28598146960E+03  0.89432303975E+02 0.  0.
          5    1    3    3  502    0 -0.13201020724E+03 -0.79512525062E+01  0.79163395050E+02  0.15418895145E+03  0.41800000000E+01 0.  1.
         -5    1    3    3    0  502 -0.50188127524E+01  0.16619894504E+02  0.10812620803E+03  0.10959086932E+03  0.41800000000E+01 0.  1.
        -11    1    4    4    0    0  0.70688514912E+02  0.30095312034E+02  0.67533153004E+02  0.10229037443E+03  0.00000000000E+00 0.  1.
         11    1    4    4    0    0  0.66340505081E+02 -0.38763954031E+02  0.16684936829E+03  0.18369109517E+03  0.00000000000E+00 0. -1.
</event>
<event>
 8    1  0.6684013E-009  0.1297651E+03  0.7561462E-02  0.1227805E+00
          1   -1    0    0  501    0  0.00000000000E+00  0.00000000000E+00  0.12255907153E+03  0.12255907153E+03  0.00000000000E+00 0. -1.
         -1   -1    0    0    0  501 -0.00000000000E+00 -0.00000000000E+00 -0.18974880929E+03  0.18974880929E+03  0.00000000000E+00 0.  1.
         25    2    1    2    0    0 -0.74162811605E+02 -0.64458110078E+02 -0.77272490008E+02  0.17684301226E+03  0.12508973857E+03 0.  0.
         23    2    1    2    0    0  0.74162811605E+02  0.64458110078E+02  0.10082752249E+02  0.13546486856E+03  0.92704358802E+02 0.  0.
          5    1    3    3  502    0  0.31281923713E+02 -0.39237093056E+02 -0.20272728918E+02  0.54282263774E+02  0.41800000000E+01 0. -1.
         -5    1    3    3    0  502 -0.10544473532E+03 -0.25221017022E+02 -0.56999761090E+02  0.12256074849E+03  0.41800000000E+01 0. -1.
        -11    1    4    4    0    0  0.37341811446E+02  0.18166559724E+02 -0.40225276827E+02  0.57814424411E+02  0.00000000000E+00 0.  1.
         11    1    4    4    0    0  0.36821000160E+02  0.46291550354E+02  0.50308029076E+02  0.77650444148E+02  0.00000000000E+00 0. -1.
</event>
<event>
 8    1  0.6684013E-009  0.8100577E+02  0.7561462E-02  0.1326221E+00
          2   -1    0    0  501    0  0.00000000000E+00  0.00000000000E+00  0.40977538489E+03  0.40977538489E+03  0.00000000000E+00 0. -1.
         -2   -1    0    0    0  501 -0.00000000000E+00 -0.00000000000E+00 -0.29309928660E+02  0.29309928660E+02  0.00000000000E+00 0.  1.
         25    2    1    2    0    0  0.80387526446E+01 -0.41413043569E+01  0.26151480578E+03  0.29003269884E+03  0.12508877170E+03 0.  0.
         23    2    1    2    0    0 -0.80387526446E+01  0.41413043569E+01  0.11895065044E+03  0.14905261471E+03  0.89362479623E+02 0.  0.
          5    1    3    3  502    0 -0.25973279516E+02  0.32581768021E+02  0.26156146129E+02  0.49374074538E+02  0.41800000000E+01 0.  1.
         -5    1    3    3    0  502  0.34012032160E+02 -0.36723072378E+02  0.23535865965E+03  0.24065862430E+03  0.41800000000E+01 0.  1.
        -11    1    4    4    0    0  0.30729781057E+02 -0.13047327890E+01  0.10173964796E+03  0.10628724165E+03  0.00000000000E+00 0. -1.
         11    1    4    4    0    0 -0.38768533702E+02  0.54460371459E+01  0.17211002485E+02  0.42765373055E+02  0.00000000000E+00 0.  1.
</event>
<event>
 8    1  0.6684013E-009  0.1189133E+03  0.7561462E-02  0.1244901E+00
          2   -1    0    0  501    0  0.00000000000E+00  0.00000000000E+00  0.89928840715E+02  0.89928840715E+02  0.00000000000E+00 0.  1.
         -2   -1    0    0    0  501 -0.00000000000E+00 -0.00000000000E+00 -0.20419480711E+03  0.20419480711E+03  0.00000000000E+00 0. -1.
         25    2    1    2    0    0  0.10178123651E+02 -0.78089816345E+02 -0.45833797492E+02  0.15476377946E+03  0.12509786897E+03 0.  0.
         23    2    1    2    0    0 -0.10178123651E+02  0.78089816345E+02 -0.68432168904E+02  0.13935986837E+03  0.92393709488E+02 0.  0.
          5    1    3    3  502    0  0.65455118918E+02 -0.24373136989E+02 -0.29093256787E+02  0.75778046886E+02  0.41800000000E+01 0.  1.
         -5    1    3    3    0  502 -0.55276995268E+02 -0.53716679356E+02 -0.16740540705E+02  0.78985732572E+02  0.41800000000E+01 0.  1.
        -11    1    4    4    0    0  0.11200937802E+02  0.64199658423E+02  0.12277320844E+01  0.65181013151E+02  0.00000000000E+00 0.  1.
         11    1    4    4    0    0 -0.21379061453E+02  0.13890157922E+02 -0.69659900989E+02  0.74178855218E+02  0.00000000000E+00 0. -1.
</event>
<event>
 8    1  0.6684013E-009  0.1508197E+03  0.7561462E-02  0.1199469E+00
         -2   -1    0    0    0  501 -0.00000000000E+00  0.00000000000E+00  0.44217499499E+02  0.44217499499E+02  0.00000000000E+00 0.  1.
          2   -1    0    0  501    0  0.00000000000E+00 -0.00000000000E+00 -0.56829096227E+03  0.56829096227E+03  0.00000000000E+00 0. -1.
         25    2    1    2    0    0 -0.47230110570E+02 -0.99432533613E+02 -0.31883568919E+03  0.35975117534E+03  0.12508876598E+03 0.  0.
         23    2    1    2    0    0  0.47230110570E+02  0.99432533613E+02 -0.20523777359E+03  0.25275728643E+03  0.98215019481E+02 0.  0.
          5    1    3    3  502    0 -0.33880655078E+02  0.21458274352E+02 -0.47055449351E+02  0.61968088887E+02  0.41800000000E+01 0. -1.
         -5    1    3    3    0  502 -0.13349455492E+02 -0.12089080797E+03 -0.27178023984E+03  0.29778308645E+03  0.41800000000E+01 0. -1.
        -11    1    4    4    0    0  0.42258409668E+02  0.11540150463E+03 -0.14417670154E+03  0.18944709479E+03  0.00000000000E+00 0.  1.
         11    1    4    4    0    0  0.49717009015E+01 -0.15968971021E+02 -0.61061072049E+02  0.63310191637E+02  0.00000000000E+00 0. -1.
</event>
<event>
 8    1  0.6684013E-009  0.2154774E+03  0.7561462E-02  0.1137300E+00
          2   -1    0    0  501    0  0.00000000000E+00  0.00000000000E+00  0.84779601461E+03  0.84779601461E+03  0.00000000000E+00 0. -1.
         -2   -1    0    0    0  501 -0.00000000000E+00 -0.00000000000E+00 -0.66645095681E+02  0.66645095681E+02  0.00000000000E+00 0.  1.
         25    2    1    2    0    0  0.31719850235E+02 -0.20727730345E+03  0.34961450904E+03  0.42643585331E+03  0.12508877900E+03 0.  0.
         23    2    1    2    0    0 -0.31719850235E+02  0.20727730345E+03  0.43153640988E+03  0.48800525698E+03  0.89193208041E+02 0.  0.
          5    1    3    3  502    0 -0.88854339967E+01 -0.85761792972E+02  0.24881238409E+03  0.26336117966E+03  0.41800000000E+01 0. -1.
         -5    1    3    3    0  502  0.40605284232E+02 -0.12151551047E+03  0.10080212495E+03  0.16307467365E+03  0.41800000000E+01 0. -1.
        -11    1    4    4    0    0  0.15134149628E+02  0.60823165981E+02  0.20378184033E+03  0.21320304513E+03  0.00000000000E+00 0. -1.
         11    1    4    4    0    0 -0.46853999863E+02  0.14645413746E+03  0.22775456956E+03  0.27480221185E+03  0.00000000000E+00 0.  1.
</event>
<event>
 8    1  0.6684013E-009  0.9788563E+02  0.7561462E-02  0.1284806E+00
          1   -1    0    0  501    0  0.00000000000E+00  0.00000000000E+00  0.11156017002E+03  0.11156017002E+03  0.00000000000E+00 0. -1.
         -1   -1    0    0    0  501 -0.00000000000E+00 -0.00000000000E+00 -0.14331412697E+03  0.14331412697E+03  0.00000000000E+00 0.  1.
         25    2    1    2    0    0  0.15124447813E+02 -0.59281728891E+02  0.56851133349E+01  0.13936520911E+03  0.12508904307E+03 0.  0.
         23    2    1    2    0    0 -0.15124447813E+02  0.59281728891E+02 -0.37439070282E+02  0.11550908788E+03  0.90540560509E+02 0.  0.
          5    1    3    3  502    0  0.41086289106E+02 -0.62014454248E+02 -0.41494791008E+02  0.85282857416E+02  0.41800000000E+01 0.  1.
         -5    1    3    3    0  502 -0.25961841293E+02  0.27327253573E+01  0.47179904343E+02  0.54082351696E+02  0.41800000000E+01 0.  1.
        -11    1    4    4    0    0  0.27077833458E+02  0.76430076032E+01 -0.39842545216E+02  0.48775537304E+02  0.00000000000E+00 0.  1.
         11    1    4    4    0    0 -0.42202281271E+02  0.51638721288E+02  0.24034749345E+01  0.66733550576E+02  0.00000000000E+00 0. -1.
</event>
<event>
 8    1  0.6684013E-009  0.9130095E+02  0.7561462E-02  0.1299731E+00
          2   -1    0    0  501    0  0.00000000000E+00  0.00000000000E+00  0.90884867592E+03  0.90884867592E+03  0.00000000000E+00 0. -1.
         -2   -1    0    0    0  501 -0.00000000000E+00 -0.00000000000E+00 -0.14177071379E+02  0.14177071379E+02  0.00000000000E+00 0.  1.
         25    2    1    2    0    0  0.27486038340E+02  0.60484154161E+01  0.59884741433E+03  0.61241884676E+03  0.12508618064E+03 0.  0.
         23    2    1    2    0    0 -0.27486038340E+02 -0.60484154161E+01  0.29582419021E+03  0.31060690054E+03  0.90402596834E+02 0.  0.
          5    1    3    3  502    0  0.46009590190E+02  0.43813522763E+02  0.17066866155E+03  0.18215864404E+03  0.41800000000E+01 0. -1.
         -5    1    3    3    0  502 -0.18523551850E+02 -0.37765107347E+02  0.42817875278E+03  0.43026020272E+03  0.41800000000E+01 0. -1.
        -11    1    4    4    0    0  0.19395290520E+02  0.15725612955E+02  0.26671449179E+02  0.36535440308E+02  0.00000000000E+00 0.  1.
         11    1    4    4    0    0 -0.46881328860E+02 -0.21774028371E+02  0.26915274103E+03  0.27407146023E+03  0.00000000000E+00 0. -1.
</event>
<event>
 8    1  0.6684013E-009  0.1347217E+03  0.7561462E-02  0.1220613E+00
         -2   -1    0    0    0  501 -0.00000000000E+00  0.00000000000E+00  0.56897439380E+02  0.56897439380E+02  0.00000000000E+00 0.  1.
          2   -1    0    0  501    0  0.00000000000E+00 -0.00000000000E+00 -0.43615851025E+03  0.43615851025E+03  0.00000000000E+00 0. -1.
         25    2    1    2    0    0  0.10043603553E+03 -0.29932431927E+02 -0.13357594091E+03  0.21088856972E+03  0.12509240239E+03 0.  0.
         23    2    1    2    0    0 -0.10043603553E+03  0.29932431927E+02 -0.24568512996E+03  0.28216737990E+03  0.90960977806E+02 0.  0.
          5    1    3    3  502    0  0.35267487222E+02  0.35138652548E+02 -0.17047278035E+01  0.49988989335E+02  0.41800000000E+01 0.  1.
         -5    1    3    3    0  502  0.65168548311E+02 -0.65071084475E+02 -0.13187121310E+03  0.16089958039E+03  0.41800000000E+01 0.  1.
        -11    1    4    4    0    0 -0.98131465836E+02  0.47887890678E+02 -0.23918920842E+03  0.26293442545E+03  0.00000000000E+00 0. -1.
         11    1    4    4    0    0 -0.23045696972E+01 -0.17955458751E+02 -0.64959215399E+01  0.19232954456E+02  0.00000000000E+00 0.  1.
</event>
<event>
 8    1  0.6684013E-009  0.7444343E+02  0.7561462E-02  0.1345603E+00
          1   -1    0    0  501    0  0.00000000000E+00  0.00000000000E+00  0.44562800137E+03  0.44562800137E+03  0.00000000000E+00 0. -1.
         -1   -1    0    0    0  501 -0.00000000000E+00 -0.00000000000E+00 -0.31574641559E+02  0.31574641559E+02  0.00000000000E+00 0.  1.
         25    2    1    2    0    0 -0.28813280906E+02  0.36007558699E+02  0.25922370236E+03  0.29149573613E+03  0.12508431908E+03 0.  0.
         23    2    1    2    0    0  0.28813280906E+02 -0.36007558699E+02  0.15482965746E+03  0.18570690680E+03  0.91586478065E+02 0.  0.
          5    1    3    3  502    0 -0.73800734738E+01  0.33678684858E+02  0.35842426199E+01  0.34914731754E+02  0.41800000000E+01 0.  1.
         -5    1    3    3    0  502 -0.21433207432E+02  0.23288738404E+01  0.25563945974E+03  0.25658100438E+03  0.41800000000E+01 0.  1.
        -11    1    4    4    0    0 -0.23195676146E+02  0.75108697386E+01  0.84752396743E+02  0.88189689362E+02  0.00000000000E+00 0. -1.
         11    1    4    4    0    0  0.52008957052E+02 -0.43518428437E+02  0.70077260714E+02  0.97517217436E+02  0.00000000000E+00 0.  1.
</event>
<event>
 8    1  0.6684013E-009  0.1543456E+03  0.7561462E-02  0.1195233E+00
         -1   -1    0    0    0  501 -0.00000000000E+00  0.00000000000E+00  0.77020740575E+02  0.77020740575E+02  0.00000000000E+00 0.  1.
          1   -1    0    0  501    0  0.00000000000E+00 -0.00000000000E+00 -0.38237907062E+03  0.38237907062E+03  0.00000000000E+00 0. -1.
         25    2    1    2    0    0 -0.11403499267E+03 -0.61924286192E+02 -0.20438467148E+03  0.27249384618E+03  0.12506480519E+03 0.  0.
         23    2    1    2    0    0  0.11403499267E+03  0.61924286192E+02 -0.10097365856E+03  0.18690596501E+03  0.88879487283E+02 0.  0.
          5    1    3    3  502    0 -0.11815750591E+03 -0.22455486709E+02 -0.86962728337E+02  0.14847704740E+03  0.41800000000E+01 0. -1.
         -5    1    3    3    0  502  0.41225132385E+01 -0.39468799483E+02 -0.11742194314E+03  0.12401679878E+03  0.41800000000E+01 0. -1.
        -11    1    4    4    0    0  0.75583675164E+02  0.37297860966E-01 -0.20426934014E+02  0.78295293445E+02  0.00000000000E+00 0.  1.
         11    1    4    4    0    0  0.38451317506E+02  0.61886988331E+02 -0.80546724550E+02  0.10861067157E+03  0.00000000000E+00 0. -1.
</event>
<event>
 8    1  0.6684013E-009  0.1040992E+03  0.7561462E-02  0.1271905E+00
          1   -1    0    0  501    0  0.00000000000E+00  0.00000000000E+00  0.64166342528E+03  0.64166342528E+03  0.00000000000E+00 0. -1.
         -1   -1    0    0    0  501 -0.00000000000E+00 -0.00000000000E+00 -0.23380673216E+02  0.23380673216E+02  0.00000000000E+00 0.  1.
         25    2    1    2    0    0 -0.14846801764E+01  0.48443539191E+02  0.27065234438E+03  0.30207530606E+03  0.12509123971E+03 0.  0.
         23    2    1    2    0    0  0.14846801764E+01 -0.48443539191E+02  0.34763040769E+03  0.36296879243E+03  0.92468714531E+02 0.  0.
          5    1    3    3  502    0  0.41714808309E+02  0.45976499723E+01  0.21465057735E+03  0.21875467166E+03  0.41800000000E+01 0.  1.
         -5    1    3    3    0  502 -0.43199488486E+02  0.43845889218E+02  0.56001767030E+02  0.83320634403E+02  0.41800000000E+01 0.  1.
        -11    1    4    4    0    0 -0.42113696360E+02 -0.43775882975E+01  0.14769185427E+03  0.15364117455E+03  0.00000000000E+00 0.  1.
         11    1    4    4    0    0  0.43598376536E+02 -0.44065950893E+02  0.19993855342E+03  0.20932761788E+03  0.00000000000E+00 0. -1.
</event>
<event>
 8    1  0.6684013E-009  0.1012637E+03  0.7561462E-02  0.1277661E+00
          1   -1    0    0  501    0  0.00000000000E+00  0.00000000000E+00  0.22446251475E+03  0.22446251475E+03  0.00000000000E+00 0. -1.
         -1   -1    0    0    0  501 -0.00000000000E+00 -0.00000000000E+00 -0.63841328834E+02  0.63841328834E+02  0.00000000000E+00 0.  1.
         25    2    1    2    0    0  0.43350424696E+02 -0.22156614828E+02  0.11998444601E+03  0.18003947807E+03  0.12509105275E+03 0.  0.
         23    2    1    2    0    0 -0.43350424696E+02  0.22156614828E+02  0.40636739902E+02  0.10826436551E+03  0.87747668390E+02 0.  0.
          5    1    3    3  502    0  0.30444001365E+02 -0.60995118226E+02  0.12093540747E+03  0.13888875709E+03  0.41800000000E+01 0.  1.
         -5    1    3    3    0  502  0.12906423331E+02  0.38838503398E+02 -0.95096145781E+00  0.41150720979E+02  0.41800000000E+01 0.  1.
        -11    1    4    4    0    0 -0.28475608389E+01  0.46000703765E+02 -0.66797399547E-01  0.46088803538E+02  0.00000000000E+00 0. -1.
         11    1    4    4    0    0 -0.40502863857E+02 -0.23844088938E+02  0.40703537302E+02  0.62175561974E+02  0.00000000000E+00 0.  1.
</event>
<event>
 8    1  0.6684013E-009  0.1074813E+03  0.7561462E-02  0.1265306E+00
          1   -1    0    0  501    0  0.00000000000E+00  0.00000000000E+00  0.48444443830E+03  0.48444443830E+03  0.00000000000E+00 0. -1.
         -1   -1    0    0    0  501 -0.00000000000E+00 -0.00000000000E+00 -0.44708485917E+02  0.44708485917E+02  0.00000000000E+00 0.  1.
         25    2    1    2    0    0  0.25448581472E+02  0.90645491474E+02  0.20638504313E+03  0.25904767673E+03  0.12508667941E+03 0.  0.
         23    2    1    2    0    0 -0.25448581472E+02 -0.90645491474E+02  0.23335090925E+03  0.27010524749E+03  0.98183310441E+02 0.  0.
          5    1    3    3  502    0  0.27656669467E+02  0.73375132661E+02  0.22188171123E+03  0.23536730367E+03  0.41800000000E+01 0. -1.
         -5    1    3    3    0  502 -0.22080879943E+01  0.17270358813E+02 -0.15496668096E+02  0.23680373059E+02  0.41800000000E+01 0. -1.
        -11    1    4    4    0    0 -0.47649597927E+02 -0.36537042853E+02  0.18409918678E+03  0.19364387482E+03  0.00000000000E+00 0.  1.
         11    1    4    4    0    0  0.22201016455E+02 -0.54108448621E+02  0.49251722474E+02  0.76461372669E+02  0.00000000000E+00 0. -1.
</event>
<event>
 8    1  0.6684013E-009  0.1112467E+03  0.7561462E-02  0.1258278E+00
          2   -1    0    0  501    0  0.00000000000E+00  0.00000000000E+00  0.69123318447E+03  0.69123318447E+03  0.00000000000E+00 0.  1.
         -2   -1    0    0    0  501 -0.00000000000E+00 -0.00000000000E+00 -0.28045473730E+02  0.28045473730E+02  0.00000000000E+00 0. -1.
         25    2    1    2    0    0  0.18776960654E+02 -0.70834424650E+02  0.47653391127E+03  0.49809836711E+03  0.12508926716E+03 0.  0.
         23    2    1    2    0    0 -0.18776960654E+02  0.70834424650E+02  0.18665379947E+03  0.22118029109E+03  0.93332686363E+02 0.  0.
          5    1    3    3  502    0 -0.52562897285E+02 -0.19031236688E+02  0.16256576516E+03  0.17195972361E+03  0.41800000000E+01 0. -1.
         -5    1    3    3    0  502  0.71339857939E+02 -0.51803187962E+02  0.31396814610E+03  0.32613864349E+03  0.41800000000E+01 0. -1.
        -11    1    4    4    0    0  0.58160025227E+01  0.29556103542E+02  0.17920547710E+01  0.30176159501E+02  0.00000000000E+00 0. -1.
         11    1    4    4    0    0 -0.24592963177E+02  0.41278321108E+02  0.18486174470E+03  0.19100413159E+03  0.00000000000E+00 0.  1.
</event>
<event>
 8    1  0.6684013E-009  0.9709338E+02  0.7561462E-02  0.1286530E+00
          2   -1    0    0  501    0  0.00000000000E+00  0.00000000000E+00  0.57410854436E+02  0.57410854436E+02  0.00000000000E+00 0. -1.
         -2   -1    0    0    0  501 -0.00000000000E+00 -0.00000000000E+00 -0.17922910122E+03  0.17922910122E+03  0.00000000000E+00 0.  1.
         25    2    1    2    0    0 -0.20072928014E+02 -0.26123312646E+02 -0.10544748118E+03  0.16689169184E+03  0.12509322769E+03 0.  0.
         23    2    1    2    0    0  0.20072928014E+02  0.26123312646E+02 -0.16370765599E+02  0.69748263815E+02  0.59257644539E+02 0.  0.
          5    1    3    3  502    0  0.39536538548E+02  0.27566274388E+02 -0.47843748858E+02  0.68040679515E+02  0.41800000000E+01 0. -1.
         -5    1    3    3    0  502 -0.59609466562E+02 -0.53689587034E+02 -0.57603732322E+02  0.98851012323E+02  0.41800000000E+01 0. -1.
        -11    1    4    4    0    0  0.51881110470E+01  0.42805007289E+02 -0.19224550038E+02  0.47209834457E+02  0.00000000000E+00 0. -1.
         11    1    4    4    0    0  0.14884816967E+02 -0.16681694643E+02  0.28537844388E+01  0.22538429358E+02  0.00000000000E+00 0.  1.
</event>
<event>
 8    1  0.6684013E-009  0.1714281E+03  0.7561462E-02  0.1176367E+00
         -3   -1    0    0    0  501 -0.00000000000E+00  0.00000000000E+00  0.10663036132E+03  0.10663036132E+03  0.00000000000E+00 0.  1.
          3   -1    0    0  501    0  0.00000000000E+00 -0.00000000000E+00 -0.33049397784E+03  0.33049397784E+03  0.00000000000E+00 0. -1.
         25    2    1    2    0    0 -0.11890940922E+03 -0.62094692419E+02 -0.20503996872E+03  0.27510354035E+03  0.12508145631E+03 0.  0.
         23    2    1    2    0    0  0.11890940922E+03  0.62094692419E+02 -0.18823647794E+02  0.16202079881E+03  0.88888756894E+02 0.  0.
          5    1    3    3  502    0  0.42790807877E+01  0.28403214360E+02 -0.46658312317E+02  0.54950192235E+02  0.41800000000E+01 0. -1.
         -5    1    3    3    0  502 -0.12318849001E+03 -0.90497906778E+02 -0.15838165641E+03  0.22015334812E+03  0.41800000000E+01 0. -1.
        -11    1    4    4    0    0  0.68523193855E+02  0.81892837621E+02 -0.11736170658E+02  0.10742254257E+03  0.00000000000E+00 0.  1.
         11    1    4    4    0    0  0.50386215366E+02 -0.19798145203E+02 -0.70874771360E+01  0.54598256241E+02  0.00000000000E+00 0. -1.
</event>
<event>
 8    1  0.6684013E-009  0.2797961E+03  0.7561462E-02  0.1095800E+00
          1   -1    0    0  501    0  0.00000000000E+00  0.00000000000E+00  0.29360990889E+03  0.29360990889E+03  0.00000000000E+00 0. -1.
         -1   -1    0    0    0  501 -0.00000000000E+00 -0.00000000000E+00 -0.38104865631E+03  0.38104865631E+03  0.00000000000E+00 0.  1.
         25    2    1    2    0    0  0.25676264511E+03  0.44321556014E+02 -0.22278455489E+03  0.36492743336E+03  0.12509043715E+03 0.  0.
         23    2    1    2    0    0 -0.25676264511E+03 -0.44321556014E+02  0.13534580747E+03  0.30973113184E+03  0.98607454982E+02 0.  0.
          5    1    3    3  502    0  0.15671704838E+02  0.38091901524E+02 -0.63737101658E+02  0.76003196130E+02  0.41800000000E+01 0. -1.
         -5    1    3    3    0  502  0.24109094028E+03  0.62296544901E+01 -0.15904745324E+03  0.28892423723E+03  0.41800000000E+01 0. -1.
        -11    1    4    4    0    0 -0.20389031720E+03 -0.73329804772E+02  0.91671972671E+02  0.23527063626E+03  0.00000000000E+00 0. -1.
         11    1    4    4    0    0 -0.52872327918E+02  0.29008248758E+02  0.43673834804E+02  0.74460495579E+02  0.00000000000E+00 0.  1.
</event>
<event>
 8    1  0.6684013E-009  0.8536702E+02  0.7561462E-02  0.1314476E+00
          2   -1    0    0  501    0  0.00000000000E+00  0.00000000000E+00  0.43167134383E+03  0.43167134383E+03  0.00000000000E+00 0.  1.
         -2   -1    0    0    0  501 -0.00000000000E+00 -0.00000000000E+00 -0.38642799479E+02  0.38642799479E+02  0.00000000000E+00 0. -1.
         25    2    1    2    0    0 -0.54207055732E+02 -0.37284102309E+02  0.24847033141E+03  0.28585651974E+03  0.12509170679E+03 0.  0.
         23    2    1    2    0    0  0.54207055732E+02  0.37284102309E+02  0.14455821294E+03  0.18445762357E+03  0.93803138483E+02 0.  0.
          5    1    3    3  502    0 -0.32630964707E+02 -0.27049491534E+02  0.69872969241E+01  0.43159582578E+02  0.41800000000E+01 0. -1.
         -5    1    3    3    0  502 -0.21576091025E+02 -0.10234610775E+02  0.24148303449E+03  0.24269693716E+03  0.41800000000E+01 0. -1.
        -11    1    4    4    0    0  0.64032162724E+02 -0.13399621058E+01  0.12411654944E+03  0.13966685794E+03  0.00000000000E+00 0.  1.
         11    1    4    4    0    0 -0.98251069917E+01  0.38624064414E+02  0.20441663499E+02  0.44790765632E+02  0.00000000000E+00 0. -1.
</event>
<event>
 8    1  0.6684013E-009  0.1167545E+03  0.7561462E-02  0.1248549E+00
          2   -1    0    0  501    0  0.00000000000E+00  0.00000000000E+00  0.39768243294E+02  0.39768243294E+02  0.00000000000E+00 0. -1.
         -2   -1    0    0    0  501 -0.00000000000E+00 -0.00000000000E+00 -0.39746770317E+03  0.39746770317E+03  0.00000000000E+00 0.  1.
         25    2    1    2    0    0 -0.39381343098E+02 -0.48422756168E+02 -0.17375628622E+03  0.22301177637E+03  0.12508937565E+03 0.  0.
         23    2    1    2    0    0  0.39381343098E+02  0.48422756168E+02 -0.18394317366E+03  0.21422417010E+03  0.90339639234E+02 0.  0.
          5    1    3    3  502    0  0.39590218257E+01 -0.81461571910E+02 -0.79005940173E+02  0.11362690058E+03  0.41800000000E+01 0.  1.
         -5    1    3    3    0  502 -0.43340364924E+02  0.33038815741E+02 -0.94750346044E+02  0.10938487580E+03  0.41800000000E+01 0.  1.
        -11    1    4    4    0    0 -0.22379536523E+02  0.10580820286E+02 -0.11719180930E+02  0.27388621991E+02  0.00000000000E+00 0. -1.
         11    1    4    4    0    0  0.61760879621E+02  0.37841935883E+02 -0.17222399273E+03  0.18683554810E+03  0.00000000000E+00 0.  1.
</event>
<event>
 8    1  0.6684013E-009  0.1300635E+03  0.7561462E-02  0.1227362E+00
          3   -1    0    0  501    0  0.00000000000E+00  0.00000000000E+00  0.13007741180E+03  0.13007741180E+03  0.00000000000E+00 0. -1.
         -3   -1    0    0    0  501 -0.00000000000E+00 -0.00000000000E+00 -0.19932757043E+03  0.19932757043E+03  0.00000000000E+00 0.  1.
         25    2    1    2    0    0  0.23791211901E+02 -0.10458779002E+03 -0.85591114776E+02  0.18568056654E+03  0.12508719470E+03 0.  0.
         23    2    1    2    0    0 -0.23791211901E+02  0.10458779002E+03  0.16340956149E+02  0.14372441568E+03  0.94260560314E+02 0.  0.
          5    1    3    3  502    0 -0.59879383174E+01 -0.84461039209E+02 -0.11229965461E+03  0.14070610283E+03  0.41800000000E+01 0.  1.
         -5    1    3    3    0  502  0.29779150219E+02 -0.20126750807E+02  0.26708539833E+02  0.44974463708E+02  0.41800000000E+01 0.  1.
        -11    1    4    4    0    0 -0.82626329635E+01  0.11821642940E+03  0.19056431121E+01  0.11852015339E+03  0.00000000000E+00 0.  1.
         11    1    4    4    0    0 -0.15528578938E+02 -0.13628639383E+02  0.14435313037E+02  0.25204262293E+02  0.00000000000E+00 0. -1.
</event>
<event>
 8    1  0.6684013E-009  0.9976634E+02  0.7561462E-02  0.1280788E+00
         -1   -1    0    0    0  501 -0.00000000000E+00  0.00000000000E+00  0.21169460221E+03  0.21169460221E+03  0.00000000000E+00 0.  1.
          1   -1    0    0  501    0  0.00000000000E+00 -0.00000000000E+00 -0.78802734294E+02  0.78802734294E+02  0.00000000000E+00 0. -1.
         25    2    1    2    0    0  0.27137792213E+02 -0.51408442982E+02  0.11938895219E+03  0.18242830853E+03  0.12508828112E+03 0.  0.
         23    2    1    2    0    0 -0.27137792213E+02  0.51408442982E+02  0.13502915730E+02  0.10806902797E+03  0.90096050403E+02 0.  0.
          5    1    3    3  502    0  0.40232599021E+02  0.16450757948E+02  0.10212829310E+03  0.11107182411E+03  0.41800000000E+01 0. -1.
         -5    1    3    3    0  502 -0.13094806808E+02 -0.67859200930E+02  0.17260659092E+02  0.71356484418E+02  0.41800000000E+01 0. -1.
        -11    1    4    4    0    0 -0.43216320240E+02  0.13219275192E+02  0.38763854952E+02  0.59540205092E+02  0.00000000000E+00 0.  1.
         11    1    4    4    0    0  0.16078528027E+02  0.38189167790E+02 -0.25260939222E+02  0.48528822883E+02  0.00000000000E+00 0. -1.
</event>
<event>
 8    1  0.6684013E-009  0.2846704E+03  0.7561462E-02  0.1093165E+00
          2   -1    0    0  501    0  0.00000000000E+00  0.00000000000E+00  0.18226797206E+04  0.18226797206E+04  0.00000000000E+00 0. -1.
         -2   -1    0    0    0  501 -0.00000000000E+00 -0.00000000000E+00 -0.56995229897E+02  0.56995229897E+02  0.00000000000E+00 0.  1.
         25    2    1    2    0    0 -0.91962133590E+01 -0.26911197496E+03  0.13033077920E+04  0.13366989529E+04  0.12508822722E+03 0.  0.
         23    2    1    2    0    0  0.91962133590E+01  0.26911197496E+03  0.46237669871E+03  0.54297599760E+03  0.92330369092E+02 0.  0.
          5    1    3    3  502    0  0.31414344117E+02 -0.81828033252E+01  0.13477479613E+03  0.13869223972E+03  0.41800000000E+01 0. -1.
         -5    1    3    3    0  502 -0.40610557476E+02 -0.26092917163E+03  0.11685329959E+04  0.11980067132E+04  0.41800000000E+01 0. -1.
        -11    1    4    4    0    0 -0.16356740030E+02  0.13448009443E+03  0.15149519877E+03  0.20323197089E+03  0.00000000000E+00 0.  1.
         11    1    4    4    0    0  0.25552953389E+02  0.13463188053E+03  0.31088149994E+03  0.33974402671E+03  0.00000000000E+00 0. -1.
</event>
<event>
 8    1  0.6684013E-009  0.7361323E+02  0.7561462E-02  0.1348220E+00
          1   -1    0    0  501    0  0.00000000000E+00  0.00000000000E+00  0.59451236743E+02  0.59451236743E+02  0.00000000000E+00 0. -1.
         -1   -1    0    0    0  501 -0.00000000000E+00 -0.00000000000E+00 -0.23674599246E+03  0.23674599246E+03  0.00000000000E+00 0.  1.
         25    2    1    2    0    0  0.42777896816E+02  0.73279399789E+01 -0.99641988961E+02  0.16571036866E+03  0.12509097952E+03 0.  0.
         23    2    1    2    0    0 -0.42777896816E+02 -0.73279399789E+01 -0.77652766760E+02  0.13048686054E+03  0.95463194103E+02 0.  0.
          5    1    3    3  502    0  0.23464832896E+01  0.71499578274E+00 -0.11977365040E+03  0.11987166860E+03  0.41800000000E+01 0. -1.
         -5    1    3    3    0  502  0.40431413527E+02  0.66129441962E+01  0.20131661444E+02  0.45838700060E+02  0.41800000000E+01 0. -1.
        -11    1    4    4    0    0 -0.67329764215E+02 -0.24046415467E+02 -0.69445063690E+02  0.99670176668E+02  0.00000000000E+00 0.  1.
         11    1    4    4    0    0  0.24551867398E+02  0.16718475488E+02 -0.82077030699E+01  0.30816683875E+02  0.00000000000E+00 0. -1.
</event>
<event>
 8    1  0.6684013E-009  0.1639050E+03  0.7561462E-02  0.1184357E+00
         -2   -1    0    0    0  501 -0.00000000000E+00  0.00000000000E+00  0.71951846980E+02  0.71951846980E+02  0.00000000000E+00 0.  1.
          2   -1    0    0  501    0  0.00000000000E+00 -0.00000000000E+00 -0.54906312892E+03  0.54906312892E+03  0.00000000000E+00 0. -1.
         25    2    1    2    0    0  0.10624253407E+03  0.71253309142E+02 -0.88687262041E+02  0.19969772943E+03  0.12509693274E+03 0.  0.
         23    2    1    2    0    0 -0.10624253407E+03 -0.71253309142E+02 -0.38842401990E+03  0.42131724647E+03  0.10134343999E+03 0.  0.
          5    1    3    3  502    0  0.13222842796E+03  0.74873423151E+02 -0.79782933823E+02  0.17167753372E+03  0.41800000000E+01 0. -1.
         -5    1    3    3    0  502 -0.25985893888E+02 -0.36201140086E+01 -0.89043282172E+01  0.28020195709E+02  0.41800000000E+01 0. -1.
        -11    1    4    4    0    0 -0.10679076946E+03 -0.34144123038E+02 -0.20008004964E+03  0.22935151154E+03  0.00000000000E+00 0.  1.
         11    1    4    4    0    0  0.54823539166E+00 -0.37109186104E+02 -0.18834397026E+03  0.19196573493E+03  0.00000000000E+00 0. -1.
</event>
<event>
 8    1  0.6684013E-009  0.9406245E+02  0.7561462E-02  0.1293302E+00
         -2   -1    0    0    0  501 -0.00000000000E+00  0.00000000000E+00  0.45373656112E+02  0.45373656112E+02  0.00000000000E+00 0.  1.
          2   -1    0    0  501    0  0.00000000000E+00 -0.00000000000E+00 -0.42180161636E+03  0.42180161636E+03  0.00000000000E+00 0. -1.
         25    2    1    2    0    0  0.17729277572E+02 -0.81708471964E+02 -0.16663309295E+03  0.22450845186E+03  0.12508739193E+03 0.  0.
         23    2    1    2    0    0 -0.17729277572E+02  0.81708471964E+02 -0.20979486730E+03  0.24266682061E+03  0.88784558365E+02 0.  0.
          5    1    3    3  502    0 -0.68413125677E+01 -0.48962049393E+02  0.32419309068E+01  0.49719898978E+02  0.41800000000E+01 0. -1.
         -5    1    3    3    0  502  0.24570590140E+02 -0.32746422572E+02 -0.16987502385E+03  0.17478855289E+03  0.41800000000E+01 0. -1.
        -11    1    4    4    0    0 -0.20294557340E+02  0.53916384740E+01 -0.17736114628E+01  0.21073312998E+02  0.00000000000E+00 0.  1.
         11    1    4    4    0    0  0.25652797685E+01  0.76316833490E+02 -0.20802125584E+03  0.22159350761E+03  0.00000000000E+00 0. -1.
</event>
<event>
 8    1  0.6684013E-009  0.1692006E+03  0.7561462E-02  0.1178684E+00
         -2   -1    0    0    0  501 -0.00000000000E+00  0.00000000000E+00  0.25124899174E+02  0.25124899174E+02  0.00000000000E+00 0.  1.
          2   -1    0    0  501    0  0.00000000000E+00 -0.00000000000E+00 -0.12178539948E+04  0.12178539948E+04  0.00000000000E+00 0. -1.
         25    2    1    2    0    0  0.63706515689E+02  0.11734624086E+03 -0.73392530000E+03  0.75638778145E+03  0.12508984592E+03 0.  0.
         23    2    1    2    0    0 -0.63706515689E+02 -0.11734624086E+03 -0.45880379565E+03  0.48659111256E+03  0.91876697410E+02 0.  0.
          5    1    3    3  502    0 -0.99300559670E+01  0.10517426668E+03 -0.36698409971E+03  0.38190971999E+03  0.41800000000E+01 0.  1.
         -5    1    3    3    0  502  0.73636571656E+02  0.12171974185E+02 -0.36694120029E+03  0.37447806146E+03  0.41800000000E+01 0.  1.
        -11    1    4    4    0    0  0.15804773953E+02 -0.53995018597E+02 -0.11423630699E+03  0.12733886582E+03  0.00000000000E+00 0.  1.
         11    1    4    4    0    0 -0.79511289641E+02 -0.63351222267E+02 -0.34456748867E+03  0.35925224674E+03  0.00000000000E+00 0. -1.
</event>
<event>
 8    1  0.6684013E-009  0.1827529E+03  0.7561462E-02  0.1165165E+00
         -2   -1    0    0    0  501 -0.00000000000E+00  0.00000000000E+00  0.27012385696E+02  0.27012385696E+02  0.00000000000E+00 0.  1.
          2   -1    0    0  501    0  0.00000000000E+00 -0.00000000000E+00 -0.13604244658E+04  0.13604244658E+04  0.00000000000E+00 0. -1.
         25    2    1    2    0    0  0.36739648185E+02  0.14492964390E+03 -0.77646094480E+03  0.80055785191E+03  0.12508745752E+03 0.  0.
         23    2    1    2    0    0 -0.36739648185E+02 -0.14492964390E+03 -0.55695113536E+03  0.58687899964E+03  0.10898618999E+03 0.  0.
          5    1    3    3  502    0  0.39443859488E+02  0.24309327457E+01 -0.76327967203E+02  0.86053230402E+02  0.41800000000E+01 0. -1.
         -5    1    3    3    0  502 -0.27042113032E+01  0.14249871116E+03 -0.70013297759E+03  0.71450462151E+03  0.41800000000E+01 0. -1.
        -11    1    4    4    0    0 -0.55726453064E+02 -0.15278709434E+03 -0.46376769732E+03  0.49145682501E+03  0.00000000000E+00 0.  1.
         11    1    4    4    0    0  0.18986804879E+02  0.78574504353E+01 -0.93183438032E+02  0.95422174626E+02  0.00000000000E+00 0. -1.
</event>
<event>
 8    1  0.6684013E-009  0.6658978E+02  0.7561462E-02  0.1372089E+00
         -1   -1    0    0    0  501 -0.00000000000E+00  0.00000000000E+00  0.31071403029E+02  0.31071403029E+02  0.00000000000E+00 0.  1.
          1   -1    0    0  501    0  0.00000000000E+00 -0.00000000000E+00 -0.45759181770E+03  0.45759181770E+03  0.00000000000E+00 0. -1.
         25    2    1    2    0    0  0.24768707796E+02 -0.17957669532E+02 -0.32246691687E+03  0.34722903366E+03  0.12508845896E+03 0.  0.
         23    2    1    2    0    0 -0.24768707796E+02  0.17957669532E+02 -0.10405349780E+03  0.14143418707E+03  0.90777376503E+02 0.  0.
          5    1    3    3  502    0 -0.93369114157E+01 -0.41133855312E+02 -0.30217162982E+02  0.52054983491E+02  0.41800000000E+01 0.  1.
         -5    1    3    3    0  502  0.34105619211E+02  0.23176185779E+02 -0.29224975389E+03  0.29517405017E+03  0.41800000000E+01 0.  1.
        -11    1    4    4    0    0 -0.41270627209E+01  0.26636551797E+02 -0.11384688740E+03  0.11699424049E+03  0.00000000000E+00 0. -1.
         11    1    4    4    0    0 -0.20641645075E+02 -0.86788822645E+01  0.97933895938E+01  0.24439946573E+02  0.00000000000E+00 0.  1.
</event>
<event>
 8    1  0.6684013E-009  0.1429882E+03  0.7561462E-02  0.1209364E+00
         -1   -1    0    0    0  501 -0.00000000000E+00  0.00000000000E+00  0.99729397822E+02  0.99729397822E+02  0.00000000000E+00 0.  1.
          1   -1    0    0  501    0  0.00000000000E+00 -0.00000000000E+00 -0.44336163970E+03  0.44336163970E+03  0.00000000000E+00 0. -1.
         25    2    1    2    0    0  0.85744075986E+02  0.98550135064E+02 -0.19742468943E+02  0.18193794282E+03  0.12508986478E+03 0.  0.
         23    2    1    2    0    0 -0.85744075986E+02 -0.98550135064E+02 -0.32388977294E+03  0.36115309470E+03  0.91993462328E+02 0.  0.
          5    1    3    3  502    0  0.29814585161E+02  0.57280355633E+02 -0.70555192203E+02  0.95736388989E+02  0.41800000000E+01 0.  1.
         -5    1    3    3    0  502  0.55929490825E+02  0.41269779431E+02  0.50812723260E+02  0.86201553834E+02  0.41800000000E+01 0.  1.
        -11    1    4    4    0    0  0.11242652164E+02 -0.32241935316E+02 -0.33228703641E+02  0.47645423351E+02  0.00000000000E+00 0.  1.
         11    1    4    4    0    0 -0.96986728150E+02 -0.66308199748E+02 -0.29066106930E+03  0.31350767135E+03  0.00000000000E+00 0. -1.
</event>
<event>
 8    1  0.6684013E-009  0.1134268E+03  0.7561462E-02  0.1254352E+00
         -3   -1    0    0    0  501 -0.00000000000E+00  0.00000000000E+00  0.59719153489E+02  0.59719153489E+02  0.00000000000E+00 0.  1.
          3   -1    0    0  501    0  0.00000000000E+00 -0.00000000000E+00 -0.29521613359E+03  0.29521613359E+03  0.00000000000E+00 0. -1.
         25    2    1    2    0    0 -0.41408212807E+02  0.15964617455E+02 -0.49344692947E+02  0.14160620628E+03  0.12509160578E+03 0.  0.
         23    2    1    2    0    0  0.41408212807E+02 -0.15964617455E+02 -0.18615228715E+03  0.21332908080E+03  0.94271488818E+02 0.  0.
          5    1    3    3  502    0  0.34544852410E+02 -0.26205055180E+02 -0.46174261919E+01  0.43804620414E+02  0.41800000000E+01 0. -1.
         -5    1    3    3    0  502 -0.75953065217E+02  0.42169672635E+02 -0.44727266755E+02  0.97801585863E+02  0.41800000000E+01 0. -1.
        -11    1    4    4    0    0 -0.16406703909E+02  0.21783709591E+02 -0.21308503691E+02  0.34608702175E+02  0.00000000000E+00 0.  1.
         11    1    4    4    0    0  0.57814916715E+02 -0.37748327046E+02 -0.16484378346E+03  0.17872037862E+03  0.00000000000E+00 0. -1.
</event>
<event>
 8    1  0.6684013E-009  0.9638257E+02  0.7561462E-02  0.1288092E+00
         -2   -1    0    0    0  501 -0.00000000000E+00  0.00000000000E+00  0.17415421594E+02  0.17415421594E+02  0.00000000000E+00 0.  1.
          2   -1    0    0  501    0  0.00000000000E+00 -0.00000000000E+00 -0.83600183728E+03  0.83600183728E+03  0.00000000000E+00 0. -1.
         25    2    1    2    0    0 -0.50899695907E+02  0.88974770991E+01 -0.42702392417E+03  0.44795643376E+03  0.12508233523E+03 0.  0.
         23    2    1    2    0    0  0.50899695907E+02 -0.88974770991E+01 -0.39156249152E+03  0.40546082512E+03  0.91691612495E+02 0.  0.
          5    1    3    3  502    0 -0.38823694233E+02  0.42439528945E+02 -0.77544525948E+02  0.96638598684E+02  0.41800000000E+01 0.  1.
         -5    1    3    3    0  502 -0.12076001674E+02 -0.33542051846E+02 -0.34947939823E+03  0.35131783508E+03  0.41800000000E+01 0.  1.
        -11    1    4    4    0    0 -0.23909569795E+02 -0.38934180791E+01 -0.47461498718E+02  0.53286209216E+02  0.00000000000E+00 0.  1.
         11    1    4    4    0    0  0.74809265702E+02 -0.50040590200E+01 -0.34410099280E+03  0.35217461590E+03  0.00000000000E+00 0. -1.
</event>
<event>
 8    1  0.6684013E-009  0.1801967E+03  0.7561462E-02  0.1167613E+00
         -1   -1    0    0    0  501 -0.00000000000E+00  0.00000000000E+00  0.41263432956E+03  0.41263432956E+03  0.00000000000E+00 0.  1.
          1   -1    0    0  501    0  0.00000000000E+00 -0.00000000000E+00 -0.11509863944E+03  0.11509863944E+03  0.00000000000E+00 0. -1.
         25    2    1    2    0    0 -0.16024317497E+03  0.20258269355E+02  0.35835881293E+02  0.20741520519E+03  0.12509430185E+03 0.  0.
         23    2    1    2    0    0  0.16024317497E+03 -0.20258269355E+02  0.26169980883E+03  0.32031776381E+03  0.89601379834E+02 0.  0.
          5    1    3    3  502    0 -0.23771627909E+02 -0.24548945068E+02  0.52469827648E+02  0.62755846029E+02  0.41800000000E+01 0.  1.
         -5    1    3    3    0  502 -0.13647154706E+03  0.44807214423E+02 -0.16633946355E+02  0.14465935916E+03  0.41800000000E+01 0.  1.
        -11    1    4    4    0    0  0.15939392366E+03  0.25777976998E+01  0.20884361719E+03  0.26273318097E+03  0.00000000000E+00 0.  1.
         11    1    4    4    0    0  0.84925131087E+00 -0.22836067054E+02  0.52856191640E+02  0.57584582841E+02  0.00000000000E+00 0. -1.
</event>
<event>
 8    1  0.6684013E-009  0.7742359E+02  0.7561462E-02  0.1336526E+00
          1   -1    0    0  501    0  0.00000000000E+00  0.00000000000E+00  0.38450806757E+03  0.38450806757E+03  0.00000000000E+00 0. -1.
         -1   -1    0    0    0  501 -0.00000000000E+00 -0.00000000000E+00 -0.34061550384E+02  0.34061550384E+02  0.00000000000E+00 0.  1.
         25    2    1    2    0    0 -0.25991583032E+02 -0.21894343813E+02  0.18178017109E+03  0.22326244692E+03  0.12508862827E+03 0.  0.
         23    2    1    2    0    0  0.25991583032E+02  0.21894343813E+02  0.16866634610E+03  0.19530717104E+03  0.92420939583E+02 0.  0.
          5    1    3    3  502    0  0.26678633399E+02 -0.28575801234E+02  0.62241840932E+01  0.39806265384E+02  0.41800000000E+01 0.  1.
         -5    1    3    3    0  502 -0.52670216431E+02  0.66814574216E+01  0.17555598699E+03  0.18345618153E+03  0.41800000000E+01 0.  1.
        -11    1    4    4    0    0 -0.29661388497E+01  0.31595499766E+02  0.16062067928E+03  0.16372561253E+03  0.00000000000E+00 0. -1.
         11    1    4    4    0    0  0.28957721881E+02 -0.97011559530E+01  0.80456668171E+01  0.31581558510E+02  0.00000000000E+00 0.  1.
</event>
<event>
 8    1  0.6684013E-009  0.2552264E+03  0.7561462E-02  0.1110046E+00
          1   -1    0    0  501    0  0.00000000000E+00  0.00000000000E+00  0.49518165298E+02  0.49518165298E+02  0.00000000000E+00 0. -1.
         -1   -1    0    0    0  501 -0.00000000000E+00 -0.00000000000E+00 -0.14333164615E+04  0.14333164615E+04  0.00000000000E+00 0.  1.
         25    2    1    2    0    0 -0.18359679804E+03  0.15002912038E+03 -0.84546379838E+03  0.88694547215E+03  0.12508682978E+03 0.  0.
         23    2    1    2    0    0  0.18359679804E+03 -0.15002912038E+03 -0.53833449783E+03  0.59588915466E+03  0.95201532900E+02 0.  0.
          5    1    3    3  502    0 -0.56886051341E+02  0.12032316335E+03 -0.34460891344E+03  0.36944074233E+03  0.41800000000E+01 0.  1.
         -5    1    3    3    0  502 -0.12671074670E+03  0.29705957035E+02 -0.50085488494E+03  0.51750472982E+03  0.41800000000E+01 0.  1.
        -11    1    4    4    0    0  0.10644964216E+03 -0.12874180373E+03 -0.28650706688E+03  0.33165083705E+03  0.00000000000E+00 0. -1.
         11    1    4    4    0    0  0.77147155882E+02 -0.21287316650E+02 -0.25182743095E+03  0.26423831761E+03  0.00000000000E+00 0.  1.
</event>
<event>
 8    1  0.6684013E-009  0.2221621E+03  0.7561462E-02  0.1132281E+00
         -1   -1    0    0    0  501 -0.00000000000E+00  0.00000000000E+00  0.30012646980E+03  0.30012646980E+03  0.00000000000E+00 0.  1.
          1   -1    0    0  501    0  0.00000000000E+00 -0.00000000000E+00 -0.19851000522E+03  0.19851000522E+03  0.00000000000E+00 0. -1.
         25    2    1    2    0    0 -0.19337447246E+03  0.71951948635E+02  0.13012059853E+03  0.27413962983E+03  0.12510154664E+03 0.  0.
         23    2    1    2    0    0  0.19337447246E+03 -0.71951948635E+02 -0.28504133942E+02  0.22449684518E+03  0.83759049257E+02 0.  0.
          5    1    3    3  502    0 -0.41539082838E-01  0.42105036502E+02  0.68075556112E+01  0.42856166857E+02  0.41800000000E+01 0. -1.
         -5    1    3    3    0  502 -0.19333293338E+03  0.29846912134E+02  0.12331304292E+03  0.23128346298E+03  0.41800000000E+01 0. -1.
        -11    1    4    4    0    0  0.60782816175E+02 -0.23944020479E+02 -0.49450683128E+02  0.81934345184E+02  0.00000000000E+00 0.  1.
         11    1    4    4    0    0  0.13259165629E+03 -0.48007928157E+02  0.20946549187E+02  0.14256250000E+03  0.00000000000E+00 0. -1.
</event>
<event>
 8    1  0.6684013E-009  0.1534312E+03  0.7561462E-02  0.1196319E+00
          2   -1    0    0  501    0  0.00000000000E+00  0.00000000000E+00  0.11112295599E+04  0.11112295599E+04  0.00000000000E+00 0. -1.
         -2   -1    0    0    0  501 -0.00000000000E+00 -0.00000000000E+00 -0.26299888022E+02  0.26299888022E+02  0.00000000000E+00 0.  1.
         25    2    1    2    0    0  0.13077266088E+03  0.11988950298E+02  0.59225784267E+03  0.61940408988E+03  0.12508737185E+03 0.  0.
         23    2    1    2    0    0 -0.13077266088E+03 -0.11988950298E+02  0.49267182918E+03  0.51812535801E+03  0.92103917308E+02 0.  0.
          5    1    3    3  502    0  0.55514860678E+02  0.44505914506E+02  0.11618001597E+03  0.13630093431E+03  0.41800000000E+01 0.  1.
         -5    1    3    3    0  502  0.75257800200E+02 -0.32516964208E+02  0.47607782670E+03  0.48310315557E+03  0.41800000000E+01 0.  1.
        -11    1    4    4    0    0 -0.38235005738E+02  0.33089476829E+02  0.98314278789E+02  0.11055553606E+03  0.00000000000E+00 0.  1.
         11    1    4    4    0    0 -0.92537655139E+02 -0.45078427127E+02  0.39435755039E+03  0.40756982194E+03  0.00000000000E+00 0. -1.
</event>
<event>
 8    1  0.6684013E-009  0.9833933E+02  0.7561462E-02  0.1283827E+00
          1   -1    0    0  501    0  0.00000000000E+00  0.00000000000E+00  0.50347146446E+03  0.50347146446E+03  0.00000000000E+00 0. -1.
         -1   -1    0    0    0  501 -0.00000000000E+00 -0.00000000000E+00 -0.24901095709E+02  0.24901095709E+02  0.00000000000E+00 0.  1.
         25    2    1    2    0    0 -0.18457201708E+02  0.16797150067E+02  0.31483561492E+03  0.33969356667E+03  0.12508973688E+03 0.  0.
         23    2    1    2    0    0  0.18457201708E+02 -0.16797150067E+02  0.16373475384E+03  0.18867899350E+03  0.90376326705E+02 0.  0.
          5    1    3    3  502    0 -0.73185112800E+01 -0.53993359148E+02  0.15875486039E+03  0.16789705637E+03  0.41800000000E+01 0. -1.
         -5    1    3    3    0  502 -0.11138690428E+02  0.70790509215E+02  0.15608075453E+03  0.17179651031E+03  0.41800000000E+01 0. -1.
        -11    1    4    4    0    0  0.25897855139E+02  0.19990422403E+02  0.16318195317E+02  0.36559532096E+02  0.00000000000E+00 0.  1.
         11    1    4    4    0    0 -0.74406534318E+01 -0.36787572470E+02  0.14741655852E+03  0.15211946140E+03  0.00000000000E+00 0. -1.
</event>
<event>
 8    1  0.6684013E-009  0.1068815E+03  0.7561462E-02  0.1266456E+00
          1   -1    0    0  501    0  0.00000000000E+00  0.00000000000E+00  0.37930362412E+03  0.37930362412E+03  0.00000000000E+00 0. -1.
         -1   -1    0    0    0  501 -0.00000000000E+00 -0.00000000000E+00 -0.47265998686E+02  0.47265998686E+02  0.00000000000E+00 0.  1.
         25    2    1    2    0    0  0.24625852119E+02  0.16378715615E+02  0.67279214935E+02  0.14508416030E+03  0.12509286906E+03 0.  0.
         23    2    1    2    0    0 -0.24625852119E+02 -0.16378715615E+02  0.26475841050E+03  0.28148546251E+03  0.90897495865E+02 0.  0.
          5    1    3    3  502    0  0.54271992583E+02 -0.32848038149E+02  0.59261187414E+02  0.86912620043E+02  0.41800000000E+01 0.  1.
         -5    1    3    3    0  502 -0.29646140463E+02  0.49226753764E+02  0.80180275217E+01  0.58171540257E+02  0.41800000000E+01 0.  1.
        -11    1    4    4    0    0 -0.56092202966E+02  0.20041709204E+01  0.12444987678E+03  0.13652151392E+03  0.00000000000E+00 0.  1.
         11    1    4    4    0    0  0.31466350846E+02 -0.18382886535E+02  0.14030853372E+03  0.14496394858E+03  0.00000000000E+00 0. -1.
</event>
<event>
 8    1  0.6684013E-009  0.1119611E+03  0.7561462E-02  0.1256981E+00
         -2   -1    0    0    0  501 -0.00000000000E+00  0.00000000000E+00  0.22011231761E+02  0.22011231761E+02  0.00000000000E+00 0. -1.
          2   -1    0    0  501    0  0.00000000000E+00 -0.00000000000E+00 -0.98659406643E+03  0.98659406643E+03  0.00000000000E+00 0.  1.
         25    2    1    2    0    0 -0.35775337191E+02 -0.33320311718E+02 -0.81836139043E+03  0.82930870690E+03  0.12508976007E+03 0.  0.
         23    2    1    2    0    0  0.35775337191E+02  0.33320311718E+02 -0.14622144424E+03  0.17929659129E+03  0.91522887674E+02 0.  0.
          5    1    3    3  502    0  0.18161902019E+02 -0.61552008220E+02 -0.26957942077E+03  0.27714444051E+03  0.41800000000E+01 0.  1.
         -5    1    3    3    0  502 -0.53937239210E+02  0.28231696502E+02 -0.54878196966E+03  0.55216426639E+03  0.41800000000E+01 0.  1.
        -11    1    4    4    0    0  0.25530290289E+02 -0.27143007752E+02 -0.84194901695E+02  0.92072363190E+02  0.00000000000E+00 0.  1.
         11    1    4    4    0    0  0.10245046902E+02  0.60463319470E+02 -0.62026542544E+02  0.87224228098E+02  0.00000000000E+00 0. -1.
</event>
<event>
 8    1  0.6684013E-009  0.1823964E+03  0.7561462E-02  0.1165504E+00
         -2   -1    0    0    0  501 -0.00000000000E+00  0.00000000000E+00  0.69217176703E+02  0.69217176703E+02  0.00000000000E+00 0.  1.
          2   -1    0    0  501    0  0.00000000000E+00 -0.00000000000E+00 -0.54626004631E+03  0.54626004631E+03  0.00000000000E+00 0. -1.
         25    2    1    2    0    0  0.16004646229E+03  0.87841408551E+01 -0.27654729912E+03  0.34324720015E+03  0.12509276772E+03 0.  0.
         23    2    1    2    0    0 -0.16004646229E+03 -0.87841408551E+01 -0.20049557048E+03  0.27223002287E+03  0.90656937660E+02 0.  0.
          5    1    3    3  502    0  0.13929967146E+03 -0.44219794301E+02 -0.20195557201E+03  0.24932571897E+03  0.41800000000E+01 0. -1.
         -5    1    3    3    0  502  0.20746790829E+02  0.53003935156E+02 -0.74591727115E+02  0.93921481173E+02  0.41800000000E+01 0. -1.
        -11    1    4    4    0    0 -0.20371947845E+02  0.55159588944E+01 -0.93096568868E+02  0.95458960798E+02  0.00000000000E+00 0. -1.
         11    1    4    4    0    0 -0.13967451444E+03 -0.14300099750E+02 -0.10739900162E+03  0.17677106207E+03  0.00000000000E+00 0.  1.
</event>
<event>
 8    1  0.6684013E-009  0.1116526E+03  0.7561462E-02  0.1257540E+00
          1   -1    0    0  501    0  0.00000000000E+00  0.00000000000E+00  0.20528906208E+03  0.20528906208E+03  0.00000000000E+00 0. -1.
         -1   -1    0    0    0  501 -0.00000000000E+00 -0.00000000000E+00 -0.84791401584E+02  0.84791401584E+02  0.00000000000E+00 0.  1.
         25    2    1    2    0    0  0.25559235216E+02  0.65295408700E+02  0.96800503686E+02  0.17301697154E+03  0.12509104694E+03 0.  0.
         23    2    1    2    0    0 -0.25559235216E+02 -0.65295408700E+02  0.23697156806E+02  0.11706349212E+03  0.90694768568E+02 0.  0.
          5    1    3    3  502    0 -0.13891269476E+02  0.76199280732E+02  0.11636661362E+02  0.78435846648E+02  0.41800000000E+01 0. -1.
         -5    1    3    3    0  502  0.39450504691E+02 -0.10903872032E+02  0.85163842324E+02  0.94581124888E+02  0.41800000000E+01 0. -1.
        -11    1    4    4    0    0  0.24655048570E+02 -0.43186632479E+02  0.35300143726E+02  0.60984069985E+02  0.00000000000E+00 0.  1.
         11    1    4    4    0    0 -0.50214283786E+02 -0.22108776221E+02 -0.11602986919E+02  0.56079422140E+02  0.00000000000E+00 0. -1.
</event>
<event>
 8    1  0.6684013E-009  0.1175110E+03  0.7561462E-02  0.1247261E+00
          1   -1    0    0  501    0  0.00000000000E+00  0.00000000000E+00  0.48584935898E+03  0.48584935898E+03  0.00000000000E+00 0. -1.
         -1   -1    0    0    0  501 -0.00000000000E+00 -0.00000000000E+00 -0.39221905980E+02  0.39221905980E+02  0.00000000000E+00 0.  1.
         25    2    1    2    0    0 -0.29918567293E+02 -0.58420390496E+02  0.33470577850E+03  0.36329494099E+03  0.12508874167E+03 0.  0.
         23    2    1    2    0    0  0.29918567293E+02  0.58420390496E+02  0.11192167450E+03  0.16177632397E+03  0.96628438259E+02 0.  0.
          5    1    3    3  502    0  0.81214972657E+01 -0.85563976596E+02  0.26991924143E+03  0.28330376295E+03  0.41800000000E+01 0.  1.
         -5    1    3    3    0  502 -0.38040064558E+02  0.27143586100E+02  0.64786537067E+02  0.79991178033E+02  0.41800000000E+01 0.  1.
        -11    1    4    4    0    0  0.17806946895E+01 -0.19307641882E+02 -0.36038341236E+01  0.19721651275E+02  0.00000000000E+00 0.  1.
         11    1    4    4    0    0  0.28137872603E+02  0.77728032379E+02  0.11552550862E+03  0.14205467270E+03  0.00000000000E+00 0. -1.
</event>
<event>
 8    1  0.6684013E-009  0.7779521E+02  0.7561462E-02  0.1335427E+00
         -2   -1    0    0    0  501 -0.00000000000E+00  0.00000000000E+00  0.18563106013E+02  0.18563106013E+02  0.00000000000E+00 0.  1.
          2   -1    0    0  501    0  0.00000000000E+00 -0.00000000000E+00 -0.98226153148E+03  0.98226153148E+03  0.00000000000E+00 0. -1.
         25    2    1    2    0    0 -0.24981350464E+02  0.33471126922E+02 -0.78317452365E+03  0.79420054389E+03  0.12509110766E+03 0.  0.
         23    2    1    2    0    0  0.24981350464E+02 -0.33471126922E+02 -0.18052390182E+03  0.20662409360E+03  0.91434417596E+02 0.  0.
          5    1    3    3  502    0  0.63563123538E+01  0.19185893781E+02 -0.15673612156E+02  0.25915936119E+02  0.41800000000E+01 0. -1.
         -5    1    3    3    0  502 -0.31337662818E+02  0.14285233141E+02 -0.76750091149E+03  0.76828460777E+03  0.41800000000E+01 0. -1.
        -11    1    4    4    0    0  0.41159409807E+02 -0.57851207769E+02 -0.13444139833E+03  0.15203732713E+03  0.00000000000E+00 0. -1.
         11    1    4    4    0    0 -0.16178059343E+02  0.24380080847E+02 -0.46082503493E+02  0.54586766477E+02  0.00000000000E+00 0.  1.
</event>
<event>
 8    1  0.6684013E-009  0.1712052E+03  0.7561462E-02  0.1176597E+00
         -2   -1    0    0    0  501 -0.00000000000E+00  0.00000000000E+00  0.90385845559E+02  0.90385845559E+02  0.00000000000E+00 0.  1.
          2   -1    0    0  501    0  0.00000000000E+00 -0.00000000000E+00 -0.47116797166E+03  0.47116797166E+03  0.00000000000E+00 0. -1.
         25    2    1    2    0    0  0.64580150209E+02  0.14661299193E+03 -0.10039363493E+03  0.22669992095E+03  0.12509199424E+03 0.  0.
         23    2    1    2    0    0 -0.64580150209E+02 -0.14661299193E+03 -0.28038849117E+03  0.33485389626E+03  0.88563314421E+02 0.  0.
          5    1    3    3  502    0 -0.14682637079E+01  0.29688077125E+01  0.24563965000E+02  0.25136236673E+02  0.41800000000E+01 0. -1.
         -5    1    3    3    0  502  0.66048413917E+02  0.14364418422E+03 -0.12495759993E+03  0.20156368428E+03  0.41800000000E+01 0. -1.
        -11    1    4    4    0    0 -0.32894594232E+02 -0.43609393945E+01 -0.83846370931E+02  0.90173643823E+02  0.00000000000E+00 0. -1.
         11    1    4    4    0    0 -0.31685555978E+02 -0.14225205253E+03 -0.19654212024E+03  0.24468025244E+03  0.00000000000E+00 0.  1.
</event>
<event>
 8    1  0.6684013E-009  0.1306706E+03  0.7561462E-02  0.1226464E+00
          1   -1    0    0  501    0  0.00000000000E+00  0.00000000000E+00  0.77346982993E+03  0.77346982993E+03  0.00000000000E+00 0. -1.
         -1   -1    0    0    0  501 -0.00000000000E+00 -0.00000000000E+00 -0.38916762008E+02  0.38916762008E+02  0.00000000000E+00 0.  1.
         25    2    1    2    0    0  0.75002115169E+02  0.73121681327E+02  0.59334434768E+03  0.61536741823E+03  0.12508975551E+03 0.  0.
         23    2    1    2    0    0 -0.75002115169E+02 -0.73121681327E+02  0.14120872024E+03  0.19701917371E+03  0.88907561979E+02 0.  0.
          5    1    3    3  502    0  0.52042726581E+02 -0.10467700387E+02  0.89814313679E+02  0.10441312888E+03  0.41800000000E+01 0.  1.
         -5    1    3    3    0  502  0.22959388588E+02  0.83589381714E+02  0.50353003400E+03  0.51095428935E+03  0.41800000000E+01 0.  1.
        -11    1    4    4    0    0 -0.28637826831E+02 -0.69062161667E+02  0.38142817534E+02  0.83932007179E+02  0.00000000000E+00 0.  1.
         11    1    4    4    0    0 -0.46364288338E+02 -0.40595196602E+01  0.10306590271E+03  0.11308716653E+03  0.00000000000E+00 0. -1.
</event>
<event>
 8    1  0.6684013E-009  0.1707975E+03  0.7561462E-02  0.1177019E+00
         -2   -1    0    0    0  501 -0.00000000000E+00  0.00000000000E+00  0.44605407766E+03  0.44605407766E+03  0.00000000000E+00 0.  1.
          2   -1    0    0  501    0  0.00000000000E+00 -0.00000000000E+00 -0.88206046849E+02  0.88206046849E+02  0.00000000000E+00 0. -1.
         25    2    1    2    0    0 -0.54179650508E+02 -0.15216817571E+03  0.13928633561E+03  0.24725525565E+03  0.12507553690E+03 0.  0.
         23    2    1    2    0    0  0.54179650508E+02  0.15216817571E+03  0.21856169520E+03  0.28700486886E+03  0.92260456927E+02 0.  0.
          5    1    3    3  502    0 -0.49673849944E+02 -0.38458205485E+02 -0.53301931702E+01  0.63185507014E+02  0.41800000000E+01 0.  1.
         -5    1    3    3    0  502 -0.45058005634E+01 -0.11370997022E+03  0.14461652878E+03  0.18406974864E+03  0.41800000000E+01 0.  1.
        -11    1    4    4    0    0  0.17453179924E+02  0.15837300521E+02 -0.35320431525E+01  0.23830839391E+02  0.00000000000E+00 0. -1.
         11    1    4    4    0    0  0.36726470584E+02  0.13633087518E+03  0.22209373835E+03  0.26317402947E+03  0.00000000000E+00 0.  1.
</event>
<event>
 8    1  0.6684013E-009  0.9002750E+02  0.7561462E-02  0.1302785E+00
         -2   -1    0    0    0  501 -0.00000000000E+00  0.00000000000E+00  0.28797686780E+02  0.28797686780E+02  0.00000000000E+00 0. -1.
          2   -1    0    0  501    0  0.00000000000E+00 -0.00000000000E+00 -0.79790842051E+03  0.79790842051E+03  0.00000000000E+00 0.  1.
         25    2    1    2    0    0 -0.11623419004E+02  0.71412735385E+02 -0.61655247031E+03  0.63326106463E+03  0.12509094566E+03 0.  0.
         23    2    1    2    0    0  0.11623419004E+02 -0.71412735385E+02 -0.15255826342E+03  0.19344504266E+03  0.94403803668E+02 0.  0.
          5    1    3    3  502    0 -0.16444707770E+02  0.25454766445E+02 -0.23967588446E+02  0.38862465752E+02  0.41800000000E+01 0.  1.
         -5    1    3    3    0  502  0.48212887663E+01  0.45957968940E+02 -0.59258488186E+03  0.59439859888E+03  0.41800000000E+01 0.  1.
        -11    1    4    4    0    0 -0.29265670808E+02 -0.13645685763E+02 -0.10057512694E+03  0.10563162588E+03  0.00000000000E+00 0.  1.
         11    1    4    4    0    0  0.40889089812E+02 -0.57767049622E+02 -0.51983136483E+02  0.87813416778E+02  0.00000000000E+00 0. -1.
</event>
<event>
 8    1  0.6684013E-009  0.1222632E+03  0.7561462E-02  0.1239409E+00
          2   -1    0    0  501    0  0.00000000000E+00  0.00000000000E+00  0.12907147516E+03  0.12907147516E+03  0.00000000000E+00 0. -1.
         -2   -1    0    0    0  501 -0.00000000000E+00 -0.00000000000E+00 -0.20585864592E+03  0.20585864592E+03  0.00000000000E+00 0.  1.
         25    2    1    2    0    0 -0.66260752601E+02 -0.14038066787E+02  0.63208760867E+02  0.15566762190E+03  0.12509798721E+03 0.  0.
         23    2    1    2    0    0  0.66260752601E+02  0.14038066787E+02 -0.13999593163E+03  0.17926249918E+03  0.89155078851E+02 0.  0.
          5    1    3    3  502    0  0.17181576688E+02  0.32462186851E+02  0.45165527678E+02  0.58364350789E+02  0.41800000000E+01 0.  1.
         -5    1    3    3    0  502 -0.83442329288E+02 -0.46500253638E+02  0.18043233189E+02  0.97303271114E+02  0.41800000000E+01 0.  1.
        -11    1    4    4    0    0 -0.71852016721E+01 -0.26911774067E+02 -0.33373752899E+02  0.43470427753E+02  0.00000000000E+00 0.  1.
         11    1    4    4    0    0  0.73445954273E+02  0.40949840854E+02 -0.10662217873E+03  0.13579207142E+03  0.00000000000E+00 0. -1.
</event>
<event>
 8    1  0.6684013E-009  0.2714692E+03  0.7561462E-02  0.1100442E+00
         -2   -1    0    0    0  501 -0.00000000000E+00  0.00000000000E+00  0.32218623925E+02  0.32218623925E+02  0.00000000000E+00 0.  1.
          2   -1    0    0  501    0  0.00000000000E+00 -0.00000000000E+00 -0.25029802040E+04  0.25029802040E+04  0.00000000000E+00 0. -1.
         25    2    1    2    0    0 -0.26047898824E+03 -0.26164567108E+02 -0.13067345445E+04  0.13385590539E+04  0.12510508809E+03 0.  0.
         23    2    1    2    0    0  0.26047898824E+03  0.26164567108E+02 -0.11640270356E+04  0.11966397741E+04  0.91945208565E+02 0.  0.
          5    1    3    3  502    0 -0.60242799946E+02 -0.48658763376E+02 -0.21936499559E+03  0.23267003221E+03  0.41800000000E+01 0.  1.
         -5    1    3    3    0  502 -0.20023618829E+03  0.22494196268E+02 -0.10873695489E+04  0.11058890217E+04  0.41800000000E+01 0.  1.
        -11    1    4    4    0    0  0.16924955381E+03  0.11619484650E+01 -0.90925709145E+03  0.92487578622E+03  0.00000000000E+00 0. -1.
         11    1    4    4    0    0  0.91229434427E+02  0.25002618643E+02 -0.25476994415E+03  0.27176398784E+03  0.00000000000E+00 0.  1.
</event>
<event>
 8    1  0.6684013E-009  0.9198837E+02  0.7561462E-02  0.1298107E+00
          2   -1    0    0  501    0  0.00000000000E+00  0.00000000000E+00  0.22123172896E+03  0.22123172896E+03  0.00000000000E+00 0. -1.
         -2   -1    0    0    0  501 -0.00000000000E+00 -0.00000000000E+00 -0.58105143574E+02  0.58105143574E+02  0.00000000000E+00 0.  1.
         25    2    1    2    0    0 -0.34858538162E+02 -0.12369429255E+02  0.11775251069E+03  0.17573188925E+03  0.12509165704E+03 0.  0.
         23    2    1    2    0    0  0.34858538162E+02  0.12369429255E+02  0.45374074699E+02  0.10360498329E+03  0.85481374841E+02 0.  0.
          5    1    3    3  502    0 -0.18143052556E+02 -0.68679749637E+02  0.71238575437E+02  0.10069004616E+03  0.41800000000E+01 0.  1.
         -5    1    3    3    0  502 -0.16715485607E+02  0.56310320382E+02  0.46513935250E+02  0.75041843082E+02  0.41800000000E+01 0.  1.
        -11    1    4    4    0    0  0.22867638848E+01 -0.12652408280E+02  0.58958048186E+02  0.60343716908E+02  0.00000000000E+00 0. -1.
         11    1    4    4    0    0  0.32571774278E+02  0.25021837535E+02 -0.13583973487E+02  0.43261266381E+02  0.00000000000E+00 0.  1.
</event>
<event>
 8    1  0.6684013E-009  0.9262788E+02  0.7561462E-02  0.1296610E+00
         -3   -1    0    0    0  501 -0.00000000000E+00  0.00000000000E+00  0.24078904336E+03  0.24078904336E+03  0.00000000000E+00 0.  1.
          3   -1    0    0  501    0  0.00000000000E+00 -0.00000000000E+00 -0.65024471053E+02  0.65024471053E+02  0.00000000000E+00 0. -1.
         25    2    1    2    0    0 -0.25959599044E+02 -0.35126139050E+02  0.15315483007E+03  0.20251282516E+03  0.12508915202E+03 0.  0.
         23    2    1    2    0    0  0.25959599044E+02  0.35126139050E+02  0.22609742238E+02  0.10330068926E+03  0.90840990361E+02 0.  0.
          5    1    3    3  502    0  0.37450678886E+02 -0.53889700239E+02  0.84874442354E+02  0.10736757660E+03  0.41800000000E+01 0.  1.
         -5    1    3    3    0  502 -0.63410277930E+02  0.18763561189E+02  0.68280387715E+02  0.95145248553E+02  0.41800000000E+01 0.  1.
        -11    1    4    4    0    0 -0.37083796669E+01  0.19220180710E+02 -0.32957438975E+02  0.38332234608E+02  0.00000000000E+00 0. -1.
         11    1    4    4    0    0  0.29667978711E+02  0.15905958340E+02  0.55567181212E+02  0.64968454648E+02  0.00000000000E+00 0.  1.
</event>
<event>
 8    1  0.6684013E-009  0.9912009E+02  0.7561462E-02  0.1282157E+00
         -1   -1    0    0    0  501 -0.00000000000E+00  0.00000000000E+00  0.11233802607E+03  0.11233802607E+03  0.00000000000E+00 0.  1.
          1   -1    0    0  501    0  0.00000000000E+00 -0.00000000000E+00 -0.12705113002E+03  0.12705113002E+03  0.00000000000E+00 0. -1.
         25    2    1    2    0    0 -0.31921978792E+02  0.19778288522E+02 -0.45237724652E+02  0.13821779417E+03  0.12509002145E+03 0.  0.
         23    2    1    2    0    0  0.31921978792E+02 -0.19778288522E+02  0.30524620703E+02  0.10117136193E+03  0.88846488834E+02 0.  0.
          5    1    3    3  502    0  0.11371632533E+02  0.65779243337E+02 -0.17756830748E+02  0.69202603410E+02  0.41800000000E+01 0. -1.
         -5    1    3    3    0  502 -0.43293611325E+02 -0.46000954815E+02 -0.27480893904E+02  0.69015190757E+02  0.41800000000E+01 0. -1.
        -11    1    4    4    0    0  0.87618346812E+01 -0.37736111748E+02 -0.19365302546E+02  0.43310493180E+02  0.00000000000E+00 0. -1.
         11    1    4    4    0    0  0.23160144111E+02  0.17957823226E+02  0.49889923249E+02  0.57860868746E+02  0.00000000000E+00 0.  1.
</event>
<event>
 8    1  0.6684013E-009  0.1611396E+03  0.7561462E-02  0.1187416E+00
         -2   -1    0    0    0  501 -0.00000000000E+00  0.00000000000E+00  0.44334728900E+02  0.44334728900E+02  0.00000000000E+00 0.  1.
          2   -1    0    0  501    0  0.00000000000E+00 -0.00000000000E+00 -0.82202789899E+03  0.82202789899E+03  0.00000000000E+00 0. -1.
         25    2    1    2    0    0  0.12366982140E+03  0.43345871899E+01 -0.19019800037E+03  0.25910411563E+03  0.12508657010E+03 0.  0.
         23    2    1    2    0    0 -0.12366982140E+03 -0.43345871899E+01 -0.58749516972E+03  0.60725851226E+03  0.91100564737E+02 0.  0.
          5    1    3    3  502    0  0.35659854360E+02  0.60679334197E+02 -0.64197661705E+02  0.95354176521E+02  0.41800000000E+01 0.  1.
         -5    1    3    3    0  502  0.88009967045E+02 -0.56344747008E+02 -0.12600033867E+03  0.16374993911E+03  0.41800000000E+01 0.  1.
        -11    1    4    4    0    0  0.76917254083E+01 -0.13468388126E+02 -0.23948979843E+02  0.28532678704E+02  0.00000000000E+00 0.  1.
         11    1    4    4    0    0 -0.13136154681E+03  0.91338009364E+01 -0.56354618987E+03  0.57872583355E+03  0.00000000000E+00 0. -1.
</event>
<event>
 8    1  0.6684013E-009  0.5511350E+02  0.7561462E-02  0.1419563E+00
          1   -1    0    0  501    0  0.00000000000E+00  0.00000000000E+00  0.62578149558E+03  0.62578149558E+03  0.00000000000E+00 0. -1.
         -1   -1    0    0    0  501 -0.00000000000E+00 -0.00000000000E+00 -0.18092021403E+02  0.18092021403E+02  0.00000000000E+00 0.  1.
         25    2    1    2    0    0  0.21903295087E+02  0.15378030950E+02  0.41216276303E+03  0.43155738938E+03  0.12508956362E+03 0.  0.
         23    2    1    2    0    0 -0.21903295087E+02 -0.15378030950E+02  0.19552671114E+03  0.21231612760E+03  0.78302012090E+02 0.  0.
          5    1    3    3  502    0  0.17945061277E+02  0.22265278673E+02  0.41917294478E+03  0.42016805911E+03  0.41800000000E+01 0.  1.
         -5    1    3    3    0  502  0.39582338095E+01 -0.68872477227E+01 -0.70101817430E+01  0.11389330277E+02  0.41800000000E+01 0.  1.
        -11    1    4    4    0    0 -0.34960598626E+02  0.15937131996E+02  0.15385088959E+03  0.15857594982E+03  0.00000000000E+00 0.  1.
         11    1    4    4    0    0  0.13057303540E+02 -0.31315162946E+02  0.41675821548E+02  0.53740177779E+02  0.00000000000E+00 0. -1.
</event>
<event>
 8    1  0.6684013E-009  0.2146063E+03  0.7561462E-02  0.1137969E+00
          1   -1    0    0  501    0  0.00000000000E+00  0.00000000000E+00  0.40022337961E+03  0.40022337961E+03  0.00000000000E+00 0. -1.
         -1   -1    0    0    0  501 -0.00000000000E+00 -0.00000000000E+00 -0.13110270681E+03  0.13110270681E+03  0.00000000000E+00 0.  1.
         25    2    1    2    0    0 -0.74179273025E+02  0.17601865934E+03  0.66032700916E+02  0.23768086447E+03  0.12508694081E+03 0.  0.
         23    2    1    2    0    0  0.74179273025E+02 -0.17601865934E+03  0.20308797189E+03  0.29364522195E+03  0.92182748185E+02 0.  0.
          5    1    3    3  502    0  0.40000962572E+01 -0.16569325838E+02 -0.45531341364E+01  0.18131374996E+02  0.41800000000E+01 0.  1.
         -5    1    3    3    0  502 -0.78179369282E+02  0.19258798518E+03  0.70585835053E+02  0.21954948947E+03  0.41800000000E+01 0.  1.
        -11    1    4    4    0    0  0.79326096315E+02 -0.10030987170E+03  0.85981607781E+02  0.15410235817E+03  0.00000000000E+00 0.  1.
         11    1    4    4    0    0 -0.51468232903E+01 -0.75708787644E+02  0.11710636411E+03  0.13954286378E+03  0.00000000000E+00 0. -1.
</event>
<event>
 8    1  0.6684013E-009  0.9838992E+02  0.7561462E-02  0.1283719E+00
          1   -1    0    0  501    0  0.00000000000E+00  0.00000000000E+00  0.10407065342E+03  0.10407065342E+03  0.00000000000E+00 0. -1.
         -1   -1    0    0    0  501 -0.00000000000E+00 -0.00000000000E+00 -0.14251555457E+03  0.14251555457E+03  0.00000000000E+00 0.  1.
         25    2    1    2    0    0 -0.70151919435E+02  0.22780005605E+01 -0.14158610208E+02  0.14413076111E+03  0.12508688568E+03 0.  0.
         23    2    1    2    0    0  0.70151919435E+02 -0.22780005605E+01 -0.24286290938E+02  0.10245544687E+03  0.70574879239E+02 0.  0.
          5    1    3    3  502    0  0.15526689475E+02 -0.12042427077E+02 -0.47043579455E+02  0.51153386045E+02  0.41800000000E+01 0. -1.
         -5    1    3    3    0  502 -0.85678608910E+02  0.14320427637E+02  0.32884969247E+02  0.92977375069E+02  0.41800000000E+01 0. -1.
        -11    1    4    4    0    0  0.72358325822E+01 -0.22501764964E+02 -0.27535580774E+02  0.36289046670E+02  0.00000000000E+00 0.  1.
         11    1    4    4    0    0  0.62916086852E+02  0.20223764404E+02  0.32492898361E+01  0.66166400204E+02  0.00000000000E+00 0. -1.
</event>
<event>
 8    1  0.6684013E-009  0.1519806E+03  0.7561462E-02  0.1198060E+00
          3   -1    0    0  501    0  0.00000000000E+00  0.00000000000E+00  0.24869764623E+02  0.24869764623E+02  0.00000000000E+00 0. -1.
         -3   -1    0    0    0  501 -0.00000000000E+00 -0.00000000000E+00 -0.99319425883E+03  0.99319425883E+03  0.00000000000E+00 0.  1.
         25    2    1    2    0    0 -0.10272575377E+03  0.49173044294E+02 -0.50891218492E+03  0.53629288117E+03  0.12509146120E+03 0.  0.
         23    2    1    2    0    0  0.10272575377E+03 -0.49173044294E+02 -0.45941230929E+03  0.48177114228E+03  0.89850959006E+02 0.  0.
          5    1    3    3  502    0 -0.12779281437E+03  0.53118345764E+02 -0.37079294568E+03  0.39579975117E+03  0.41800000000E+01 0.  1.
         -5    1    3    3    0  502  0.25067060593E+02 -0.39453014700E+01 -0.13811923924E+03  0.14049313001E+03  0.41800000000E+01 0.  1.
        -11    1    4    4    0    0 -0.77463195976E+01  0.11412339115E+02 -0.17693659424E+02  0.22434628038E+02  0.00000000000E+00 0. -1.
         11    1    4    4    0    0  0.11047207337E+03 -0.60585383409E+02 -0.44171864986E+03  0.45933651424E+03  0.00000000000E+00 0.  1.
</event>
<event>
 8    1  0.6684013E-009  0.1804745E+03  0.7561462E-02  0.1167345E+00
          2   -1    0    0  501    0  0.00000000000E+00  0.00000000000E+00  0.13222095610E+04  0.13222095610E+04  0.00000000000E+00 0. -1.
         -2   -1    0    0    0  501 -0.00000000000E+00 -0.00000000000E+00 -0.30320659900E+02  0.30320659900E+02  0.00000000000E+00 0.  1.
         25    2    1    2    0    0 -0.66500651022E+02  0.15013624547E+03  0.70162445408E+03  0.73136049169E+03  0.12509222779E+03 0.  0.
         23    2    1    2    0    0  0.66500651022E+02 -0.15013624547E+03  0.59026444702E+03  0.62116972920E+03  0.10235470815E+03 0.  0.
          5    1    3    3  502    0 -0.86310670892E+02  0.63978471468E+02  0.26736796634E+03  0.28817681820E+03  0.41800000000E+01 0. -1.
         -5    1    3    3    0  502  0.19810019870E+02  0.86157773998E+02  0.43425648774E+03  0.44318367349E+03  0.41800000000E+01 0. -1.
        -11    1    4    4    0    0  0.29923881264E+02 -0.86459547909E+02  0.48032251384E+03  0.48895849455E+03  0.00000000000E+00 0. -1.
         11    1    4    4    0    0  0.36576769758E+02 -0.63676697557E+02  0.10994193318E+03  0.13221123466E+03  0.00000000000E+00 0.  1.
</event>
<event>
 8    1  0.6684013E-009  0.1465164E+03  0.7561462E-02  0.1204820E+00
          1   -1    0    0  501    0  0.00000000000E+00  0.00000000000E+00  0.11022107573E+04  0.11022107573E+04  0.00000000000E+00 0. -1.
         -1   -1    0    0    0  501 -0.00000000000E+00 -0.00000000000E+00 -0.21274483399E+02  0.21274483399E+02  0.00000000000E+00 0.  1.
         25    2    1    2    0    0  0.10333625218E+03  0.10074435626E+02  0.47478442653E+03  0.50184447633E+03  0.12509097283E+03 0.  0.
         23    2    1    2    0    0 -0.10333625218E+03 -0.10074435626E+02  0.60615184740E+03  0.62164076439E+03  0.90759586712E+02 0.  0.
          5    1    3    3  502    0  0.60557402510E+02  0.67231407788E+02  0.24620468661E+03  0.26233848612E+03  0.41800000000E+01 0. -1.
         -5    1    3    3    0  502  0.42778849675E+02 -0.57156972162E+02  0.22857973992E+03  0.23950599021E+03  0.41800000000E+01 0. -1.
        -11    1    4    4    0    0  0.10295000431E+02  0.11329202347E+02  0.26810474699E+02  0.30872956018E+02  0.00000000000E+00 0.  1.
         11    1    4    4    0    0 -0.11363125262E+03 -0.21403637973E+02  0.57934137270E+03  0.59076780837E+03  0.00000000000E+00 0. -1.
</event>
<event>
 8    1  0.6684013E-009  0.1864767E+03  0.7561462E-02  0.1161678E+00
         -1   -1    0    0    0  501 -0.00000000000E+00  0.00000000000E+00  0.57742389399E+02  0.57742389399E+02  0.00000000000E+00 0.  1.
          1   -1    0    0  501    0  0.00000000000E+00 -0.00000000000E+00 -0.74902643981E+03  0.74902643981E+03  0.00000000000E+00 0. -1.
         25    2    1    2    0    0 -0.96485816475E+02 -0.12160315275E+03 -0.52462605015E+03  0.56122957980E+03  0.12509719904E+03 0.  0.
         23    2    1    2    0    0  0.96485816475E+02  0.12160315275E+03 -0.16665800026E+03  0.24553924941E+03  0.91748539008E+02 0.  0.
          5    1    3    3  502    0  0.25065361824E+02  0.15604433033E+01 -0.85849490875E+02  0.89545043582E+02  0.41800000000E+01 0. -1.
         -5    1    3    3    0  502 -0.12155117830E+03 -0.12316359605E+03 -0.43877655928E+03  0.47168453622E+03  0.41800000000E+01 0. -1.
        -11    1    4    4    0    0  0.89417979077E+02  0.49997426997E+02 -0.12770290528E+03  0.16371728591E+03  0.00000000000E+00 0. -1.
         11    1    4    4    0    0  0.70678373982E+01  0.71605725753E+02 -0.38955094982E+02  0.81821963501E+02  0.00000000000E+00 0.  1.
</event>
<event>
 8    1  0.6684013E-009  0.9199059E+02  0.7561462E-02  0.1298102E+00
          3   -1    0    0  501    0  0.00000000000E+00  0.00000000000E+00  0.22508356747E+03  0.22508356747E+03  0.00000000000E+00 0. -1.
         -3   -1    0    0    0  501 -0.00000000000E+00 -0.00000000000E+00 -0.57178567359E+02  0.57178567359E+02  0.00000000000E+00 0.  1.
         25    2    1    2    0    0 -0.69722327922E+01 -0.13663389389E+02  0.57446901993E+02  0.13850078724E+03  0.12508805410E+03 0.  0.
         23    2    1    2    0    0  0.69722327922E+01  0.13663389389E+02  0.11045809812E+03  0.14376134758E+03  0.90725042736E+02 0.  0.
          5    1    3    3  502    0  0.37470758363E+02 -0.51472255918E+02  0.46587809630E+02  0.79002197866E+02  0.41800000000E+01 0.  1.
         -5    1    3    3    0  502 -0.44442991155E+02  0.37808866529E+02  0.10859092363E+02  0.59498589378E+02  0.41800000000E+01 0.  1.
        -11    1    4    4    0    0  0.32962956713E+02  0.15398039348E+01  0.36853712157E+01  0.33204058071E+02  0.00000000000E+00 0.  1.
         11    1    4    4    0    0 -0.25990723920E+02  0.12123585454E+02  0.10677272690E+03  0.11055728951E+03  0.00000000000E+00 0. -1.
</event>
<event>
 8    1  0.6684013E-009  0.1521304E+03  0.7561462E-02  0.1197879E+00
          2   -1    0    0  501    0  0.00000000000E+00  0.00000000000E+00  0.40062609075E+02  0.40062609075E+02  0.00000000000E+00 0. -1.
         -2   -1    0    0    0  501 -0.00000000000E+00 -0.00000000000E+00 -0.85212046167E+03  0.85212046167E+03  0.00000000000E+00 0.  1.
         25    2    1    2    0    0 -0.78820801824E+02  0.57304443008E+02 -0.63273052480E+03  0.65229767601E+03  0.12509125920E+03 0.  0.
         23    2    1    2    0    0  0.78820801824E+02 -0.57304443008E+02 -0.17932732779E+03  0.23988539473E+03  0.12605631330E+03 0.  0.
          5    1    3    3  502    0 -0.66231833745E+01  0.81831032073E+02 -0.32865343043E+03  0.33877829639E+03  0.41800000000E+01 0.  1.
         -5    1    3    3    0  502 -0.72197618449E+02 -0.24526589065E+02 -0.30407709437E+03  0.31351937963E+03  0.41800000000E+01 0.  1.
        -11    1    4    4    0    0  0.63202292989E+02 -0.89698651355E+02 -0.84581390758E+02  0.13854381818E+03  0.00000000000E+00 0. -1.
         11    1    4    4    0    0  0.15618508835E+02  0.32394208348E+02 -0.94745937030E+02  0.10134157654E+03  0.00000000000E+00 0.  1.
</event>
<event>
 8    1  0.6684013E-009  0.1153448E+03  0.7561462E-02  0.1250980E+00
         -1   -1    0    0    0  501 -0.00000000000E+00  0.00000000000E+00  0.63653389649E+02  0.63653389649E+02  0.00000000000E+00 0.  1.
          1   -1    0    0  501    0  0.00000000000E+00 -0.00000000000E+00 -0.30316649846E+03  0.30316649846E+03  0.00000000000E+00 0. -1.
         25    2    1    2    0    0  0.32896659615E+02  0.76948764912E+02 -0.10511276081E+03  0.18357544908E+03  0.12509176785E+03 0.  0.
         23    2    1    2    0    0 -0.32896659615E+02 -0.76948764912E+02 -0.13440034800E+03  0.18324443903E+03  0.92259244835E+02 0.  0.
          5    1    3    3  502    0 -0.42775558895E+02  0.37658554986E+02 -0.14233059112E+02  0.58889452146E+02  0.41800000000E+01 0. -1.
         -5    1    3    3    0  502  0.75672218510E+02  0.39290209927E+02 -0.90879701699E+02  0.12468599693E+03  0.41800000000E+01 0. -1.
        -11    1    4    4    0    0 -0.15700858362E+02 -0.90188933342E+01  0.11457699374E+02  0.21427465207E+02  0.00000000000E+00 0.  1.
         11    1    4    4    0    0 -0.17195801253E+02 -0.67929871578E+02 -0.14585804738E+03  0.16181697383E+03  0.00000000000E+00 0. -1.
</event>
<event>
 8    1  0.6684013E-009  0.1066022E+03  0.7561462E-02  0.1266995E+00
          2   -1    0    0  501    0  0.00000000000E+00  0.00000000000E+00  0.15931211087E+03  0.15931211087E+03  0.00000000000E+00 0. -1.
         -2   -1    0    0    0  501 -0.00000000000E+00 -0.00000000000E+00 -0.10698255767E+03  0.10698255767E+03  0.00000000000E+00 0.  1.
         25    2    1    2    0    0 -0.23683235699E+02  0.58494910654E+02 -0.83734526910E+01  0.14035797467E+03  0.12509075153E+03 0.  0.
         23    2    1    2    0    0  0.23683235699E+02 -0.58494910654E+02  0.60703005890E+02  0.12593669387E+03  0.90513235011E+02 0.  0.
          5    1    3    3  502    0 -0.34122405573E+02 -0.13183330889E+02  0.39056922081E+02  0.53675453774E+02  0.41800000000E+01 0.  1.
         -5    1    3    3    0  502  0.10439169875E+02  0.71678241543E+02 -0.47430374772E+02  0.86682520898E+02  0.41800000000E+01 0.  1.
        -11    1    4    4    0    0 -0.30697092379E+02 -0.14841135595E+02  0.95963239345E+00  0.34109993852E+02  0.00000000000E+00 0. -1.
         11    1    4    4    0    0  0.54380328077E+02 -0.43653775059E+02  0.59743373497E+02  0.91826700014E+02  0.00000000000E+00 0.  1.
</event>
<event>
 8    1  0.6684013E-009  0.1036017E+03  0.7561462E-02  0.1272899E+00
          2   -1    0    0  501    0  0.00000000000E+00  0.00000000000E+00  0.53789971313E+03  0.53789971313E+03  0.00000000000E+00 0. -1.
         -2   -1    0    0    0  501 -0.00000000000E+00 -0.00000000000E+00 -0.30175600056E+02  0.30175600056E+02  0.00000000000E+00 0.  1.
         25    2    1    2    0    0  0.44336561193E+02  0.24954523607E+02  0.18858269309E+03  0.23194703793E+03  0.12509011697E+03 0.  0.
         23    2    1    2    0    0 -0.44336561193E+02 -0.24954523607E+02  0.31914141998E+03  0.33612827526E+03  0.92425713802E+02 0.  0.
          5    1    3    3  502    0 -0.34167892355E+02  0.40073232656E+02  0.55363031323E+02  0.76523502800E+02  0.41800000000E+01 0.  1.
         -5    1    3    3    0  502  0.78504453548E+02 -0.15118709049E+02  0.13321966177E+03  0.15542353513E+03  0.41800000000E+01 0.  1.
        -11    1    4    4    0    0 -0.56609097041E+02 -0.25382937343E+02  0.31777284022E+03  0.32377223685E+03  0.00000000000E+00 0. -1.
         11    1    4    4    0    0  0.12272535848E+02  0.42841373566E+00  0.13685797636E+01  0.12356038404E+02  0.00000000000E+00 0.  1.
</event>
<event>
 8    1  0.6684013E-009  0.1393611E+03  0.7561462E-02  0.1214191E+00
         -1   -1    0    0    0  501 -0.00000000000E+00  0.00000000000E+00  0.23846539884E+02  0.23846539884E+02  0.00000000000E+00 0.  1.
          1   -1    0    0  501    0  0.00000000000E+00 -0.00000000000E+00 -0.87922324649E+03  0.87922324649E+03  0.00000000000E+00 0. -1.
         25    2    1    2    0    0 -0.61821275350E+02 -0.72212953747E+02 -0.42043290092E+03  0.44882918501E+03  0.12508889785E+03 0.  0.
         23    2    1    2    0    0  0.61821275350E+02  0.72212953747E+02 -0.43494380569E+03  0.45424060137E+03  0.90121190898E+02 0.  0.
          5    1    3    3  502    0 -0.25912101239E+02 -0.10222717112E+03 -0.33619967435E+03  0.35237696426E+03  0.41800000000E+01 0. -1.
         -5    1    3    3    0  502 -0.35909174111E+02  0.30014217372E+02 -0.84233226568E+02  0.96452220751E+02  0.41800000000E+01 0. -1.
        -11    1    4    4    0    0  0.77703484519E+02  0.77211384389E+02 -0.40898637658E+03  0.42340203780E+03  0.00000000000E+00 0. -1.
         11    1    4    4    0    0 -0.15882209169E+02 -0.49984306421E+01 -0.25957429111E+02  0.30838563569E+02  0.00000000000E+00 0.  1.
</event>
<event>
 8    1  0.6684013E-009  0.1474238E+03  0.7561462E-02  0.1203675E+00
         -1   -1    0    0    0  501 -0.00000000000E+00  0.00000000000E+00  0.24165520790E+02  0.24165520790E+02  0.00000000000E+00 0. -1.
          1   -1    0    0  501    0  0.00000000000E+00 -0.00000000000E+00 -0.15148657136E+04  0.15148657136E+04  0.00000000000E+00 0.  1.
         25    2    1    2    0    0 -0.64292490237E+02  0.11921540976E+03 -0.11029370852E+04  0.11182448627E+04  0.12512202324E+03 0.  0.
         23    2    1    2    0    0  0.64292490237E+02 -0.11921540976E+03 -0.38776310760E+03  0.42078637173E+03  0.91406262345E+02 0.  0.
          5    1    3    3  502    0 -0.60870398058E+02  0.89350039958E+02 -0.10608664581E+04  0.10663694244E+04  0.41800000000E+01 0. -1.
         -5    1    3    3    0  502 -0.34220921788E+01  0.29865369803E+02 -0.42070627156E+02  0.51875438289E+02  0.41800000000E+01 0. -1.
        -11    1    4    4    0    0  0.39320577964E+02 -0.12468564314E+03 -0.26629662194E+03  0.29665890904E+03  0.00000000000E+00 0. -1.
         11    1    4    4    0    0  0.24971912273E+02  0.54702333804E+01 -0.12146648566E+03  0.12412746269E+03  0.00000000000E+00 0.  1.
</event>
<event>
 8    1  0.6684013E-009  0.1104009E+03  0.7561462E-02  0.1259829E+00
          1   -1    0    0  501    0  0.00000000000E+00  0.00000000000E+00  0.10867812419E+03  0.10867812419E+03  0.00000000000E+00 0. -1.
         -1   -1    0    0    0  501 -0.00000000000E+00 -0.00000000000E+00 -0.12548838336E+03  0.12548838336E+03  0.00000000000E+00 0.  1.
         25    2    1    2    0    0 -0.89113731102E+01  0.29475012946E+02  0.89447974926E+01  0.12913727386E+03  0.12509291402E+03 0.  0.
         23    2    1    2    0    0  0.89113731102E+01 -0.29475012946E+02 -0.25755056654E+02  0.10502923370E+03  0.97054768191E+02 0.  0.
          5    1    3    3  502    0 -0.65680099519E+02  0.30717084916E+01  0.10342967906E+01  0.65892738870E+02  0.41800000000E+01 0. -1.
         -5    1    3    3    0  502  0.56768726409E+02  0.26403304455E+02  0.79105007020E+01  0.63244534986E+02  0.41800000000E+01 0. -1.
        -11    1    4    4    0    0  0.47771964995E+02 -0.22009189190E+02 -0.36503753766E+02  0.64024128946E+02  0.00000000000E+00 0.  1.
         11    1    4    4    0    0 -0.38860591885E+02 -0.74658237557E+01  0.10748697112E+02  0.41005104750E+02  0.00000000000E+00 0. -1.
</event>
<event>
 8    1  0.6684013E-009  0.9509895E+02  0.7561462E-02  0.1290953E+00
         -4   -1    0    0    0  501 -0.00000000000E+00  0.00000000000E+00  0.15104207876E+03  0.15104207876E+03  0.00000000000E+00 0.  1.
          4   -1    0    0  501    0  0.00000000000E+00 -0.00000000000E+00 -0.10429217311E+03  0.10429217311E+03  0.00000000000E+00 0. -1.
         25    2    1    2    0    0  0.82893120092E+01 -0.34666072047E+02 -0.28257619979E+02  0.13310391561E+03  0.12509080709E+03 0.  0.
         23    2    1    2    0    0 -0.82893120092E+01  0.34666072047E+02  0.75007525629E+02  0.12223033627E+03  0.89686548370E+02 0.  0.
          5    1    3    3  502    0  0.23509596235E+02  0.34094845779E+02  0.21426048502E+02  0.46815676629E+02  0.41800000000E+01 0. -1.
         -5    1    3    3    0  502 -0.15220284226E+02 -0.68760917825E+02 -0.49683668481E+02  0.86288238977E+02  0.41800000000E+01 0. -1.
        -11    1    4    4    0    0 -0.38863892134E+02  0.14932171912E+02  0.75067860404E+02  0.85840290863E+02  0.00000000000E+00 0.  1.
         11    1    4    4    0    0  0.30574580125E+02  0.19733900135E+02 -0.60334775044E-01  0.36390045405E+02  0.00000000000E+00 0. -1.
</event>
<event>
 8    1  0.6684013E-009  0.1472405E+03  0.7561462E-02  0.1203905E+00
          2   -1    0    0  501    0  0.00000000000E+00  0.00000000000E+00  0.20523483228E+03  0.20523483228E+03  0.00000000000E+00 0. -1.
         -2   -1    0    0    0  501 -0.00000000000E+00 -0.00000000000E+00 -0.13979473600E+03  0.13979473600E+03  0.00000000000E+00 0.  1.
         25    2    1    2    0    0 -0.83716120576E+02  0.87147268093E+02 -0.11418459346E+02  0.17429940208E+03  0.12508743011E+03 0.  0.
         23    2    1    2    0    0  0.83716120576E+02 -0.87147268093E+02  0.76858555623E+02  0.17073016621E+03  0.92943622161E+02 0.  0.
          5    1    3    3  502    0 -0.16993654955E+02  0.10304824752E+03 -0.14430749133E+02  0.10551513894E+03  0.41800000000E+01 0.  1.
         -5    1    3    3    0  502 -0.66722465620E+02 -0.15900979427E+02  0.30122897868E+01  0.68784263135E+02  0.41800000000E+01 0.  1.
        -11    1    4    4    0    0  0.62898482081E+02 -0.71282206595E+02  0.60711311821E+01  0.95258756337E+02  0.00000000000E+00 0.  1.
         11    1    4    4    0    0  0.20817638495E+02 -0.15865061498E+02  0.70787424441E+02  0.75471409870E+02  0.00000000000E+00 0. -1.
</event>
<event>
 8    1  0.6684013E-009  0.9152821E+02  0.7561462E-02  0.1299193E+00
         -1   -1    0    0    0  501 -0.00000000000E+00  0.00000000000E+00  0.15646383556E+03  0.15646383556E+03  0.00000000000E+00 0.  1.
          1   -1    0    0  501    0  0.00000000000E+00 -0.00000000000E+00 -0.11809443804E+03  0.11809443804E+03  0.00000000000E+00 0. -1.
         25    2    1    2    0    0 -0.76097614247E+01 -0.13518889245E+02  0.10217666265E+03  0.16226116649E+03  0.12509175402E+03 0.  0.
         23    2    1    2    0    0  0.76097614247E+01  0.13518889245E+02 -0.63807265133E+02  0.11229710711E+03  0.91096675821E+02 0.  0.
          5    1    3    3  502    0 -0.20789594986E+02  0.36021516314E+02  0.10264024808E+03  0.11082531219E+03  0.41800000000E+01 0. -1.
         -5    1    3    3    0  502  0.13179833561E+02 -0.49540405560E+02 -0.46358542507E+00  0.51435854296E+02  0.41800000000E+01 0. -1.
        -11    1    4    4    0    0  0.38438705057E+02  0.35210056217E+02 -0.49773829313E+02  0.72074379565E+02  0.00000000000E+00 0.  1.
         11    1    4    4    0    0 -0.30828943632E+02 -0.21691166972E+02 -0.14033435820E+02  0.40222727542E+02  0.00000000000E+00 0. -1.
</event>
<event>
 8    1  0.6684013E-009  0.1070024E+03  0.7561462E-02  0.1266224E+00
         -3   -1    0    0    0  501 -0.00000000000E+00  0.00000000000E+00  0.14305955067E+02  0.14305955067E+02  0.00000000000E+00 0.  1.
          3   -1    0    0  501    0  0.00000000000E+00 -0.00000000000E+00 -0.83396882891E+03  0.83396882891E+03  0.00000000000E+00 0. -1.
         25    2    1    2    0    0  0.60538572837E+00  0.93168133140E+01 -0.53190841236E+03  0.54649859717E+03  0.12508792135E+03 0.  0.
         23    2    1    2    0    0 -0.60538572837E+00 -0.93168133140E+01 -0.28775446148E+03  0.30177618681E+03  0.90438196121E+02 0.  0.
          5    1    3    3  502    0 -0.37153208926E+02  0.53213691073E+02 -0.22793672012E+03  0.23703307497E+03  0.41800000000E+01 0.  1.
         -5    1    3    3    0  502  0.37758594654E+02 -0.43896877759E+02 -0.30397169224E+03  0.30946552220E+03  0.41800000000E+01 0.  1.
        -11    1    4    4    0    0 -0.15142224712E+02 -0.47608810347E+02 -0.15899118930E+03  0.16665558516E+03  0.00000000000E+00 0. -1.
         11    1    4    4    0    0  0.14536838984E+02  0.38291997033E+02 -0.12876327219E+03  0.13512060164E+03  0.00000000000E+00 0.  1.
</event>
<event>
 8    1  0.6684013E-009  0.8194166E+02  0.7561462E-02  0.1323630E+00
          3   -1    0    0  501    0  0.00000000000E+00  0.00000000000E+00  0.34405183504E+02  0.34405183504E+02  0.00000000000E+00 0. -1.
         -3   -1    0    0    0  501 -0.00000000000E+00 -0.00000000000E+00 -0.43635038195E+03  0.43635038195E+03  0.00000000000E+00 0.  1.
         25    2    1    2    0    0  0.20218796895E+02 -0.47493563708E+02 -0.23879437033E+03  0.27447093537E+03  0.12508838764E+03 0.  0.
         23    2    1    2    0    0 -0.20218796895E+02  0.47493563708E+02 -0.16315082811E+03  0.19628463008E+03  0.96151052773E+02 0.  0.
          5    1    3    3  502    0 -0.26066426809E+02  0.16829849443E+02 -0.10892595673E+02  0.33148506442E+02  0.41800000000E+01 0.  1.
         -5    1    3    3    0  502  0.46285223703E+02 -0.64323413152E+02 -0.22790177466E+03  0.24132242893E+03  0.41800000000E+01 0.  1.
        -11    1    4    4    0    0 -0.61323740023E+01  0.30673816724E+02 -0.17034706810E+03  0.17319530205E+03  0.00000000000E+00 0.  1.
         11    1    4    4    0    0 -0.14086422892E+02  0.16819746984E+02  0.71962399896E+01  0.23089328022E+02  0.00000000000E+00 0. -1.
</event>
<event>
 8    1  0.6684013E-009  0.1148302E+03  0.7561462E-02  0.1251878E+00
         -2   -1    0    0    0  501 -0.00000000000E+00  0.00000000000E+00  0.92213199315E+03  0.92213199315E+03  0.00000000000E+00 0.  1.
          2   -1    0    0  501    0  0.00000000000E+00 -0.00000000000E+00 -0.18333131113E+02  0.18333131113E+02  0.00000000000E+00 0. -1.
         25    2    1    2    0    0 -0.39908038260E+02  0.57897307919E+02  0.47394312450E+03  0.49519039600E+03  0.12508674290E+03 0.  0.
         23    2    1    2    0    0  0.39908038260E+02 -0.57897307919E+02  0.42985573754E+03  0.44527472826E+03  0.92460146832E+02 0.  0.
          5    1    3    3  502    0 -0.36005168047E+02 -0.28316628894E+02  0.83793987181E+02  0.95588222526E+02  0.41800000000E+01 0.  1.
         -5    1    3    3    0  502 -0.39028702135E+01  0.86213936813E+02  0.39014913732E+03  0.39960217348E+03  0.41800000000E+01 0.  1.
        -11    1    4    4    0    0  0.17379091836E+02 -0.69695203759E+02  0.39840597666E+03  0.40482931774E+03  0.00000000000E+00 0. -1.
         11    1    4    4    0    0  0.22528946425E+02  0.11797895840E+02  0.31449760875E+02  0.40445410522E+02  0.00000000000E+00 0.  1.
</event>
<event>
 8    1  0.6684013E-009  0.7130063E+02  0.7561462E-02  0.1355725E+00
          4   -1    0    0  501    0  0.00000000000E+00  0.00000000000E+00  0.17411671080E+02  0.17411671080E+02  0.00000000000E+00 0. -1.
         -4   -1    0    0    0  501 -0.00000000000E+00 -0.00000000000E+00 -0.10187016588E+04  0.10187016588E+04  0.00000000000E+00 0.  1.
         25    2    1    2    0    0  0.33107852023E+02  0.57495755130E+02 -0.70650347216E+03  0.72055398835E+03  0.12509597207E+03 0.  0.
         23    2    1    2    0    0 -0.33107852023E+02 -0.57495755130E+02 -0.29478651552E+03  0.31555934149E+03  0.90976461497E+02 0.  0.
          5    1    3    3  502    0  0.23807728711E+01 -0.18472067510E+01  0.42341707622E+01  0.66693968459E+01  0.41800000000E+01 0.  1.
         -5    1    3    3    0  502  0.30727079152E+02  0.59342961881E+02 -0.71073764292E+03  0.71388459151E+03  0.41800000000E+01 0.  1.
        -11    1    4    4    0    0 -0.34505580565E+02 -0.39529953520E+02 -0.29276067963E+03  0.29742573502E+03  0.00000000000E+00 0.  1.
         11    1    4    4    0    0  0.13977285415E+01 -0.17965801610E+02 -0.20258358899E+01  0.18133606470E+02  0.00000000000E+00 0. -1.
</event>
<event>
 8    1  0.6684013E-009  0.8629811E+02  0.7561462E-02  0.1312072E+00
         -2   -1    0    0    0  501 -0.00000000000E+00  0.00000000000E+00  0.10306627855E+03  0.10306627855E+03  0.00000000000E+00 0.  1.
          2   -1    0    0  501    0  0.00000000000E+00 -0.00000000000E+00 -0.13268043951E+03  0.13268043951E+03  0.00000000000E+00 0. -1.
         25    2    1    2    0    0  0.24624095819E+02 -0.33015619115E+02 -0.20034568984E+02  0.13321696824E+03  0.12509596105E+03 0.  0.
         23    2    1    2    0    0 -0.24624095819E+02  0.33015619115E+02 -0.95795919703E+01  0.10252974982E+03  0.93403446489E+02 0.  0.
          5    1    3    3  502    0  0.19939046286E+02  0.46786030404E+02 -0.15010865769E+01  0.51051188710E+02  0.41800000000E+01 0. -1.
         -5    1    3    3    0  502  0.46850495335E+01 -0.79801649519E+02 -0.18533482408E+02  0.82165779527E+02  0.41800000000E+01 0. -1.
        -11    1    4    4    0    0 -0.12327770975E+02  0.12208673228E+02 -0.51388165883E+02  0.54238079170E+02  0.00000000000E+00 0. -1.
         11    1    4    4    0    0 -0.12296324845E+02  0.20806945887E+02  0.41808573913E+02  0.48291670653E+02  0.00000000000E+00 0.  1.
</event>
<event>
 8    1  0.6684013E-009  0.9692021E+02  0.7561462E-02  0.1286909E+00
          2   -1    0    0  501    0  0.00000000000E+00  0.00000000000E+00  0.41582043906E+03  0.41582043906E+03  0.00000000000E+00 0. -1.
         -2   -1    0    0    0  501 -0.00000000000E+00 -0.00000000000E+00 -0.45711099327E+02  0.45711099327E+02  0.00000000000E+00 0.  1.
         25    2    1    2    0    0  0.19668834290E+02  0.25887200236E+02  0.33717685533E+03  0.36109988990E+03  0.12509152064E+03 0.  0.
         23    2    1    2    0    0 -0.19668834290E+02 -0.25887200236E+02  0.32932484401E+02  0.10043164849E+03  0.89134490018E+02 0.  0.
          5    1    3    3  502    0  0.18973634119E+02 -0.34803517907E+02  0.25895207440E+03  0.26200178031E+03  0.41800000000E+01 0. -1.
         -5    1    3    3    0  502  0.69520017091E+00  0.60690718143E+02  0.78224780933E+02  0.99098109588E+02  0.41800000000E+01 0. -1.
        -11    1    4    4    0    0  0.27212268608E+02  0.14880500152E+02  0.20198639267E+02  0.37012455685E+02  0.00000000000E+00 0.  1.
         11    1    4    4    0    0 -0.46881102898E+02 -0.40767700388E+02  0.12733845134E+02  0.63419192803E+02  0.00000000000E+00 0. -1.
</event>
<event>
 8    1  0.6684013E-009  0.1072218E+03  0.7561462E-02  0.1265803E+00
          2   -1    0    0  501    0  0.00000000000E+00  0.00000000000E+00  0.63828897450E+02  0.63828897450E+02  0.00000000000E+00 0. -1.
         -2   -1    0    0    0  501 -0.00000000000E+00 -0.00000000000E+00 -0.22169006083E+03  0.22169006083E+03  0.00000000000E+00 0.  1.
         25    2    1    2    0    0 -0.29756088941E+02  0.15405793134E+02 -0.45717429881E+02  0.13733105733E+03  0.12508785961E+03 0.  0.
         23    2    1    2    0    0  0.29756088941E+02 -0.15405793134E+02 -0.11214373350E+03  0.14818790095E+03  0.90888248598E+02 0.  0.
          5    1    3    3  502    0 -0.49003969339E+02 -0.37432799728E+02 -0.51760591481E+02  0.80617831384E+02  0.41800000000E+01 0.  1.
         -5    1    3    3    0  502  0.19247880398E+02  0.52838592862E+02  0.60431616006E+01  0.56713225950E+02  0.41800000000E+01 0.  1.
        -11    1    4    4    0    0  0.60025091114E+02 -0.24209258391E+02 -0.67293047068E+02  0.93367306584E+02  0.00000000000E+00 0. -1.
         11    1    4    4    0    0 -0.30269002173E+02  0.88034652568E+01 -0.44850686436E+02  0.54820594367E+02  0.00000000000E+00 0.  1.
</event>
<event>
 8    1  0.6684013E-009  0.1186096E+03  0.7561462E-02  0.1245408E+00
         -1   -1    0    0    0  501 -0.00000000000E+00  0.00000000000E+00  0.13583145437E+03  0.13583145437E+03  0.00000000000E+00 0.  1.
          1   -1    0    0  501    0  0.00000000000E+00 -0.00000000000E+00 -0.16508698501E+03  0.16508698501E+03  0.00000000000E+00 0. -1.
         25    2    1    2    0    0  0.20228554061E+01 -0.63430520471E+02  0.68449263099E+02  0.15608090560E+03  0.12509366332E+03 0.  0.
         23    2    1    2    0    0 -0.20228554061E+01  0.63430520471E+02 -0.97704793737E+02  0.14483753379E+03  0.86047438098E+02 0.  0.
          5    1    3    3  502    0  0.18862934924E+02  0.33148255923E+02  0.37608252242E+01  0.38551697642E+02  0.41800000000E+01 0. -1.
         -5    1    3    3    0  502 -0.16840079518E+02 -0.96578776395E+02  0.64688437875E+02  0.11752920796E+03  0.41800000000E+01 0. -1.
        -11    1    4    4    0    0  0.21191155167E+02 -0.10203603934E+02 -0.47388142570E+01  0.23992393610E+02  0.00000000000E+00 0.  1.
         11    1    4    4    0    0 -0.23214010573E+02  0.73634124406E+02 -0.92965979480E+02  0.12084514018E+03  0.00000000000E+00 0. -1.
</event>
<event>
 8    1  0.6684013E-009  0.1385153E+03  0.7561462E-02  0.1215341E+00
          1   -1    0    0  501    0  0.00000000000E+00  0.00000000000E+00  0.20945746330E+03  0.20945746330E+03  0.00000000000E+00 0. -1.
         -1   -1    0    0    0  501 -0.00000000000E+00 -0.00000000000E+00 -0.26412159057E+03  0.26412159057E+03  0.00000000000E+00 0.  1.
         25    2    1    2    0    0 -0.64432167465E+02  0.83804928333E+02 -0.20892452042E+03  0.26546162473E+03  0.12508256775E+03 0.  0.
         23    2    1    2    0    0  0.64432167465E+02 -0.83804928333E+02  0.15426039315E+03  0.20811742914E+03  0.91333592947E+02 0.  0.
          5    1    3    3  502    0 -0.15974537779E+02 -0.21587353528E+02 -0.83916006218E+00  0.27191474384E+02  0.41800000000E+01 0. -1.
         -5    1    3    3    0  502 -0.48457629687E+02  0.10539228186E+03 -0.20808536036E+03  0.23827015035E+03  0.41800000000E+01 0. -1.
        -11    1    4    4    0    0  0.38613121299E+02 -0.97273717142E+02  0.91846342150E+02  0.13924402949E+03  0.00000000000E+00 0.  1.
         11    1    4    4    0    0  0.25819046166E+02  0.13468788809E+02  0.62414051000E+02  0.68873399649E+02  0.00000000000E+00 0. -1.
</event>
<event>
 7    1  0.6684013E-009  0.1758610E+03  0.7561462E-02  0.1171870E+00
         -1   -1    0    0    0  501 -0.00000000000E+00  0.00000000000E+00  0.15120619072E+03  0.15120619072E+03  0.00000000000E+00 0.  1.
          1   -1    0    0  501    0  0.00000000000E+00 -0.00000000000E+00 -0.26683113828E+03  0.26683113828E+03  0.00000000000E+00 0. -1.
         23    2    1    2    0    0 -0.13418608687E+03  0.85197186144E+02 -0.11482713503E+03  0.21572617048E+03  0.89933549109E+02 0.  0.
          5    1    1    2  502    0  0.85220504928E+02 -0.86001261875E+02  0.50516042520E+02  0.13125583589E+03  0.41800000000E+01 0. -1.
         -5    1    1    2    0  502  0.48965581939E+02  0.80407573085E+00 -0.51313855054E+02  0.71055322622E+02  0.41800000000E+01 0. -1.
        -11    1    3    3    0    0 -0.24807471906E+02  0.65826170345E+02 -0.56727656166E+02  0.90368812866E+02  0.00000000000E+00 0.  1.
         11    1    3    3    0    0 -0.10937861496E+03  0.19371015799E+02 -0.58099478868E+02  0.12535735762E+03  0.00000000000E+00 0. -1.
</event>
<event>
 8    1  0.6684013E-009  0.8409666E+02  0.7561462E-02  0.1317812E+00
         -1   -1    0    0    0  501 -0.00000000000E+00  0.00000000000E+00  0.84817567179E+02  0.84817567179E+02  0.00000000000E+00 0.  1.
          1   -1    0    0  501    0  0.00000000000E+00 -0.00000000000E+00 -0.14866752386E+03  0.14866752386E+03  0.00000000000E+00 0. -1.
         25    2    1    2    0    0  0.50100118810E+01  0.23963951580E+02 -0.43616174494E+02  0.13471981798E+03  0.12509071702E+03 0.  0.
         23    2    1    2    0    0 -0.50100118810E+01 -0.23963951580E+02 -0.20233782188E+02  0.98765273057E+02  0.93518992862E+02 0.  0.
          5    1    3    3  502    0 -0.46178503928E+02  0.22736313853E+02  0.17824328259E+02  0.54631248115E+02  0.41800000000E+01 0. -1.
         -5    1    3    3    0  502  0.51188515809E+02  0.12276377265E+01 -0.61440502753E+02  0.80088569869E+02  0.41800000000E+01 0. -1.
        -11    1    4    4    0    0 -0.74827165852E+01  0.19891794478E+02  0.26935824741E+02  0.34310540502E+02  0.00000000000E+00 0.  1.
         11    1    4    4    0    0  0.24727047042E+01 -0.43855746058E+02 -0.47169606929E+02  0.64454732555E+02  0.00000000000E+00 0. -1.
</event>
<event>
 8    1  0.6684013E-009  0.2177026E+03  0.7561462E-02  0.1135608E+00
         -1   -1    0    0    0  501 -0.00000000000E+00  0.00000000000E+00  0.55302560394E+02  0.55302560394E+02  0.00000000000E+00 0.  1.
          1   -1    0    0  501    0  0.00000000000E+00 -0.00000000000E+00 -0.93758639330E+03  0.93758639330E+03  0.00000000000E+00 0. -1.
         25    2    1    2    0    0 -0.12738993359E+03 -0.14812115873E+03 -0.36519633539E+03  0.43264754440E+03  0.12508981354E+03 0.  0.
         23    2    1    2    0    0  0.12738993359E+03  0.14812115873E+03 -0.51708749752E+03  0.56024140929E+03  0.91229840242E+02 0.  0.
          5    1    3    3  502    0 -0.11961945337E+03 -0.59767959257E+02 -0.27638701595E+03  0.30706396331E+03  0.41800000000E+01 0.  1.
         -5    1    3    3    0  502 -0.77704802213E+01 -0.88353199477E+02 -0.88809319432E+02  0.12558358109E+03  0.41800000000E+01 0.  1.
        -11    1    4    4    0    0  0.50616930448E+02  0.12141236939E+03 -0.36170639593E+03  0.38488251966E+03  0.00000000000E+00 0.  1.
         11    1    4    4    0    0  0.76773003142E+02  0.26708789347E+02 -0.15538110159E+03  0.17535888963E+03  0.00000000000E+00 0. -1.
</event>
<event>
 8    1  0.6684013E-009  0.1003292E+03  0.7561462E-02  0.1279605E+00
          2   -1    0    0  501    0  0.00000000000E+00  0.00000000000E+00  0.86526493776E+02  0.86526493776E+02  0.00000000000E+00 0. -1.
         -2   -1    0    0    0  501 -0.00000000000E+00 -0.00000000000E+00 -0.21211629855E+03  0.21211629855E+03  0.00000000000E+00 0.  1.
         25    2    1    2    0    0 -0.51353450912E+01  0.37903856442E+02 -0.14683104193E+03  0.19664716676E+03  0.12509068399E+03 0.  0.
         23    2    1    2    0    0  0.51353450912E+01 -0.37903856442E+02  0.21241237155E+02  0.10199562556E+03  0.92134919414E+02 0.  0.
          5    1    3    3  502    0  0.57942821534E+01 -0.30597106114E+02  0.29216431969E+01  0.31555744441E+02  0.41800000000E+01 0. -1.
         -5    1    3    3    0  502 -0.10929627245E+02  0.68500962556E+02 -0.14975268512E+03  0.16509142232E+03  0.41800000000E+01 0. -1.
        -11    1    4    4    0    0 -0.22984170214E+02 -0.59826486081E+02  0.12821139416E+02  0.65359483881E+02  0.00000000000E+00 0. -1.
         11    1    4    4    0    0  0.28119515305E+02  0.21922629640E+02  0.84200977388E+01  0.36636141680E+02  0.00000000000E+00 0.  1.
</event>
<event>
 8    1  0.6684013E-009  0.2429182E+03  0.7561462E-02  0.1117864E+00
          1   -1    0    0  501    0  0.00000000000E+00  0.00000000000E+00  0.12204028030E+04  0.12204028030E+04  0.00000000000E+00 0. -1.
         -1   -1    0    0    0  501 -0.00000000000E+00 -0.00000000000E+00 -0.54027897065E+02  0.54027897065E+02  0.00000000000E+00 0.  1.
         25    2    1    2    0    0 -0.27643495572E+02  0.22777429311E+03  0.69117668522E+03  0.73893175910E+03  0.12509853300E+03 0.  0.
         23    2    1    2    0    0  0.27643495572E+02 -0.22777429311E+03  0.47519822073E+03  0.53549894099E+03  0.91106944653E+02 0.  0.
          5    1    3    3  502    0 -0.59324063547E+02  0.21291306774E+03  0.53587504245E+03  0.57968168200E+03  0.41800000000E+01 0. -1.
         -5    1    3    3    0  502  0.31680567975E+02  0.14861225370E+02  0.15530164277E+03  0.15925007710E+03  0.41800000000E+01 0. -1.
        -11    1    4    4    0    0  0.92482403255E+01 -0.10214945565E+03  0.31386107697E+03  0.33019511940E+03  0.00000000000E+00 0. -1.
         11    1    4    4    0    0  0.18395255246E+02 -0.12562483745E+03  0.16133714376E+03  0.20530382159E+03  0.00000000000E+00 0.  1.
</event>
<event>
 8    1  0.6684013E-009  0.1655605E+03  0.7561462E-02  0.1182558E+00
         -2   -1    0    0    0  501 -0.00000000000E+00  0.00000000000E+00  0.20531069911E+02  0.20531069911E+02  0.00000000000E+00 0.  1.
          2   -1    0    0  501    0  0.00000000000E+00 -0.00000000000E+00 -0.19990243886E+04  0.19990243886E+04  0.00000000000E+00 0. -1.
         25    2    1    2    0    0  0.12517975692E+03 -0.80377573782E+02 -0.14340637185E+04  0.14471758982E+04  0.12509518695E+03 0.  0.
         23    2    1    2    0    0 -0.12517975692E+03  0.80377573782E+02 -0.54442960020E+03  0.57237956029E+03  0.95311308631E+02 0.  0.
          5    1    3    3  502    0  0.18437797692E+02  0.41332665193E+01 -0.71866099388E+03  0.71892150671E+03  0.41800000000E+01 0. -1.
         -5    1    3    3    0  502  0.10674195923E+03 -0.84510840301E+02 -0.71540272459E+03  0.72825439150E+03  0.41800000000E+01 0. -1.
        -11    1    4    4    0    0 -0.82240242037E+02 -0.24335290779E+01 -0.28746312297E+03  0.29900572995E+03  0.00000000000E+00 0. -1.
         11    1    4    4    0    0 -0.42939514884E+02  0.82811102860E+02 -0.25696647722E+03  0.27337383033E+03  0.00000000000E+00 0.  1.
</event>
<event>
 8    1  0.6684013E-009  0.1217971E+03  0.7561462E-02  0.1240162E+00
         -1   -1    0    0    0  501 -0.00000000000E+00  0.00000000000E+00  0.30712062583E+03  0.30712062583E+03  0.00000000000E+00 0.  1.
          1   -1    0    0  501    0  0.00000000000E+00 -0.00000000000E+00 -0.88690287427E+02  0.88690287427E+02  0.00000000000E+00 0. -1.
         25    2    1    2    0    0  0.16864771097E+02  0.80252727010E+02  0.22676526262E+03  0.27165285553E+03  0.12509144213E+03 0.  0.
         23    2    1    2    0    0 -0.16864771097E+02 -0.80252727010E+02 -0.83349242097E+01  0.12415805773E+03  0.92848433698E+02 0.  0.
          5    1    3    3  502    0 -0.73902854534E+01  0.99405692199E+02  0.10057057389E+03  0.14166164157E+03  0.41800000000E+01 0. -1.
         -5    1    3    3    0  502  0.24255056551E+02 -0.19152965189E+02  0.12619468873E+03  0.12999121396E+03  0.41800000000E+01 0. -1.
        -11    1    4    4    0    0  0.29410414181E+02 -0.47785439367E+02 -0.29990951839E+02  0.63622935094E+02  0.00000000000E+00 0.  1.
         11    1    4    4    0    0 -0.46275185279E+02 -0.32467287643E+02  0.21656027629E+02  0.60535122633E+02  0.00000000000E+00 0. -1.
</event>
<event>
 8    1  0.6684013E-009  0.1286516E+03  0.7561462E-02  0.1229470E+00
         -1   -1    0    0    0  501 -0.00000000000E+00  0.00000000000E+00  0.26490094795E+02  0.26490094795E+02  0.00000000000E+00 0.  1.
          1   -1    0    0  501    0  0.00000000000E+00 -0.00000000000E+00 -0.66871519829E+03  0.66871519829E+03  0.00000000000E+00 0. -1.
         25    2    1    2    0    0 -0.69046923835E+01 -0.75428279065E+02 -0.32540663340E+03  0.35675312996E+03  0.12508484568E+03 0.  0.
         23    2    1    2    0    0  0.69046923835E+01  0.75428279065E+02 -0.31681847009E+03  0.33845216312E+03  0.91863070211E+02 0.  0.
          5    1    3    3  502    0  0.52556216738E+02 -0.64019350046E+01 -0.93064443898E+02  0.10715224593E+03  0.41800000000E+01 0. -1.
         -5    1    3    3    0  502 -0.59460909122E+02 -0.69026344060E+02 -0.23234218950E+03  0.24960088404E+03  0.41800000000E+01 0. -1.
        -11    1    4    4    0    0 -0.19252135540E+02 -0.11356077003E+02 -0.28487005372E+02  0.36209317624E+02  0.00000000000E+00 0.  1.
         11    1    4    4    0    0  0.26156827923E+02  0.86784356068E+02 -0.28833146472E+03  0.30224284549E+03  0.00000000000E+00 0. -1.
</event>
<event>
 8    1  0.6684013E-009  0.1799557E+03  0.7561462E-02  0.1167846E+00
         -2   -1    0    0    0  501 -0.00000000000E+00  0.00000000000E+00  0.17195276649E+03  0.17195276649E+03  0.00000000000E+00 0.  1.
          2   -1    0    0  501    0  0.00000000000E+00 -0.00000000000E+00 -0.25658576430E+03  0.25658576430E+03  0.00000000000E+00 0. -1.
         25    2    1    2    0    0 -0.13813674597E+03  0.53894950523E+02  0.59674901502E+02  0.20296992489E+03  0.12509704338E+03 0.  0.
         23    2    1    2    0    0  0.13813674597E+03 -0.53894950523E+02 -0.14430789931E+03  0.22556860589E+03  0.89833178076E+02 0.  0.
          5    1    3    3  502    0 -0.15604689732E+03  0.66743697461E+02  0.61239682303E+02  0.18048026597E+03  0.41800000000E+01 0. -1.
         -5    1    3    3    0  502  0.17910151358E+02 -0.12848746938E+02 -0.15647808004E+01  0.22489658923E+02  0.41800000000E+01 0. -1.
        -11    1    4    4    0    0  0.11529423508E+03 -0.74227744516E+02 -0.13760445604E+03  0.19426143472E+03  0.00000000000E+00 0. -1.
         11    1    4    4    0    0  0.22842510886E+02  0.20332793993E+02 -0.67034432753E+01  0.31307171173E+02  0.00000000000E+00 0.  1.
</event>
<event>
 8    1  0.6684013E-009  0.2294555E+03  0.7561462E-02  0.1127024E+00
          2   -1    0    0  501    0  0.00000000000E+00  0.00000000000E+00  0.54881570911E+03  0.54881570911E+03  0.00000000000E+00 0.  1.
         -2   -1    0    0    0  501 -0.00000000000E+00 -0.00000000000E+00 -0.97981205184E+02  0.97981205184E+02  0.00000000000E+00 0. -1.
         25    2    1    2    0    0 -0.44315177330E+02  0.19883494794E+03  0.20575741218E+03  0.31541036344E+03  0.12509361787E+03 0.  0.
         23    2    1    2    0    0  0.44315177330E+02 -0.19883494794E+03  0.24507709174E+03  0.33138655086E+03  0.90857546360E+02 0.  0.
          5    1    3    3  502    0 -0.53767600155E+02  0.16509598701E+02  0.50933150957E+02  0.75994604691E+02  0.41800000000E+01 0.  1.
         -5    1    3    3    0  502  0.94524228254E+01  0.18232534924E+03  0.15482426123E+03  0.23941575875E+03  0.41800000000E+01 0.  1.
        -11    1    4    4    0    0  0.57060599346E+02 -0.69463714713E+02  0.12817636843E+03  0.15655766057E+03  0.00000000000E+00 0.  1.
         11    1    4    4    0    0 -0.12745422017E+02 -0.12937123322E+03  0.11690072331E+03  0.17482889028E+03  0.00000000000E+00 0. -1.
</event>
<event>
 8    1  0.6684013E-009  0.1730860E+03  0.7561462E-02  0.1174667E+00
          1   -1    0    0  501    0  0.00000000000E+00  0.00000000000E+00  0.19092644651E+03  0.19092644651E+03  0.00000000000E+00 0. -1.
         -1   -1    0    0    0  501 -0.00000000000E+00 -0.00000000000E+00 -0.19026085027E+03  0.19026085027E+03  0.00000000000E+00 0.  1.
         25    2    1    2    0    0  0.51288229073E+02 -0.13846818688E+03 -0.51714395032E+02  0.20031724136E+03  0.12509475334E+03 0.  0.
         23    2    1    2    0    0 -0.51288229073E+02  0.13846818688E+03  0.52379991268E+02  0.18087005542E+03  0.90368093063E+02 0.  0.
          5    1    3    3  502    0  0.67039105590E+02 -0.16118679809E+02 -0.87741861476E+01  0.69631259213E+02  0.41800000000E+01 0. -1.
         -5    1    3    3    0  502 -0.15750876517E+02 -0.12234950707E+03 -0.42940208885E+02  0.13068598215E+03  0.41800000000E+01 0. -1.
        -11    1    4    4    0    0 -0.26835402522E+02  0.22123245156E+02 -0.21508957565E+02  0.40892689570E+02  0.00000000000E+00 0.  1.
         11    1    4    4    0    0 -0.24452826552E+02  0.11634494172E+03  0.73888948834E+02  0.13997736585E+03  0.00000000000E+00 0. -1.
</event>
<event>
 8    1  0.6684013E-009  0.9898511E+02  0.7561462E-02  0.1282445E+00
         -2   -1    0    0    0  501 -0.00000000000E+00  0.00000000000E+00  0.18412802098E+03  0.18412802098E+03  0.00000000000E+00 0.  1.
          2   -1    0    0  501    0  0.00000000000E+00 -0.00000000000E+00 -0.94082903582E+02  0.94082903582E+02  0.00000000000E+00 0. -1.
         25    2    1    2    0    0 -0.50413523519E+02 -0.30910137219E+02 -0.10201736890E+02  0.13869805532E+03  0.12504445281E+03 0.  0.
         23    2    1    2    0    0  0.50413523519E+02  0.30910137219E+02  0.10024685428E+03  0.13951286923E+03  0.76924956625E+02 0.  0.
          5    1    3    3  502    0 -0.67036844458E+02 -0.55569199709E+02  0.26652365777E+02  0.91157531080E+02  0.41800000000E+01 0.  1.
         -5    1    3    3    0  502  0.16623320938E+02  0.24659062490E+02 -0.36854102667E+02  0.47540524243E+02  0.41800000000E+01 0.  1.
        -11    1    4    4    0    0 -0.99138667244E+01 -0.44185932133E+01  0.55402016384E+02  0.56455222423E+02  0.00000000000E+00 0.  1.
         11    1    4    4    0    0  0.60327390244E+02  0.35328730432E+02  0.44844837899E+02  0.83057646811E+02  0.00000000000E+00 0. -1.
</event>
<event>
 8    1  0.6684013E-009  0.1022985E+03  0.7561462E-02  0.1275535E+00
          2   -1    0    0  501    0  0.00000000000E+00  0.00000000000E+00  0.18996180764E+03  0.18996180764E+03  0.00000000000E+00 0. -1.
         -2   -1    0    0    0  501 -0.00000000000E+00 -0.00000000000E+00 -0.10195260046E+03  0.10195260046E+03  0.00000000000E+00 0.  1.
         25    2    1    2    0    0  0.10150281828E+02 -0.51819080827E+02  0.12782767215E+03  0.18648239211E+03  0.12509006133E+03 0.  0.
         23    2    1    2    0    0 -0.10150281828E+02  0.51819080827E+02 -0.39818464967E+02  0.10543201599E+03  0.82110623462E+02 0.  0.
          5    1    3    3  502    0 -0.44691562344E+02 -0.44012169550E+02  0.11247011335E+03  0.12884644198E+03  0.41800000000E+01 0.  1.
         -5    1    3    3    0  502  0.54841844172E+02 -0.78069112767E+01  0.15357558794E+02  0.57635950135E+02  0.41800000000E+01 0.  1.
        -11    1    4    4    0    0 -0.37353109216E+02  0.14655850775E+02  0.58774032678E+01  0.40553576898E+02  0.00000000000E+00 0. -1.
         11    1    4    4    0    0  0.27202827388E+02  0.37163230051E+02 -0.45695868235E+02  0.64878439095E+02  0.00000000000E+00 0.  1.
</event>
<event>
 8    1  0.6684013E-009  0.1802690E+03  0.7561462E-02  0.1167543E+00
         -1   -1    0    0    0  501 -0.00000000000E+00  0.00000000000E+00  0.56237210950E+02  0.56237210950E+02  0.00000000000E+00 0.  1.
          1   -1    0    0  501    0  0.00000000000E+00 -0.00000000000E+00 -0.73783714379E+03  0.73783714379E+03  0.00000000000E+00 0. -1.
         25    2    1    2    0    0  0.88524374869E+02  0.13005511456E+03 -0.49122394368E+03  0.53075307643E+03  0.12508783924E+03 0.  0.
         23    2    1    2    0    0 -0.88524374869E+02 -0.13005511456E+03 -0.19037598915E+03  0.26332127831E+03  0.91346486491E+02 0.  0.
          5    1    3    3  502    0  0.92685267172E+02  0.14806145461E+03 -0.38421843357E+03  0.42208296599E+03  0.41800000000E+01 0.  1.
         -5    1    3    3    0  502 -0.41608923034E+01 -0.18006340049E+02 -0.10700551012E+03  0.10867011044E+03  0.41800000000E+01 0.  1.
        -11    1    4    4    0    0 -0.47110720815E+02 -0.23717643586E+02 -0.16357693870E+02  0.55222466277E+02  0.00000000000E+00 0.  1.
         11    1    4    4    0    0 -0.41413654054E+02 -0.10633747097E+03 -0.17401829528E+03  0.20809881203E+03  0.00000000000E+00 0. -1.
</event>
<event>
 8    1  0.6684013E-009  0.1601524E+03  0.7561462E-02  0.1188525E+00
         -1   -1    0    0    0  501 -0.00000000000E+00  0.00000000000E+00  0.61832253557E+02  0.61832253557E+02  0.00000000000E+00 0.  1.
          1   -1    0    0  501    0  0.00000000000E+00 -0.00000000000E+00 -0.51066881545E+03  0.51066881545E+03  0.00000000000E+00 0. -1.
         25    2    1    2    0    0  0.51660133260E+02 -0.12339942929E+03 -0.17024256051E+03  0.25005214547E+03  0.12508939814E+03 0.  0.
         23    2    1    2    0    0 -0.51660133260E+02  0.12339942929E+03 -0.27859400139E+03  0.32244892354E+03  0.91991859245E+02 0.  0.
          5    1    3    3  502    0 -0.22527601650E+02 -0.18073958335E+02 -0.98078614747E+02  0.10232813824E+03  0.41800000000E+01 0. -1.
         -5    1    3    3    0  502  0.74187734909E+02 -0.10532547095E+03 -0.72163945762E+02  0.14772400722E+03  0.41800000000E+01 0. -1.
        -11    1    4    4    0    0 -0.47400185266E+01  0.11433866954E+03 -0.20231223803E+03  0.23243502487E+03  0.00000000000E+00 0. -1.
         11    1    4    4    0    0 -0.46920114733E+02  0.90607597457E+01 -0.76281763358E+02  0.90013898676E+02  0.00000000000E+00 0.  1.
</event>
<event>
 8    1  0.6684013E-009  0.1175866E+03  0.7561462E-02  0.1247132E+00
          1   -1    0    0  501    0  0.00000000000E+00  0.00000000000E+00  0.33390269332E+03  0.33390269332E+03  0.00000000000E+00 0. -1.
         -1   -1    0    0    0  501 -0.00000000000E+00 -0.00000000000E+00 -0.54406337236E+02  0.54406337236E+02  0.00000000000E+00 0.  1.
         25    2    1    2    0    0  0.44958742450E+02 -0.58742303974E+02  0.11013634500E+03  0.18234427681E+03  0.12508986368E+03 0.  0.
         23    2    1    2    0    0 -0.44958742450E+02  0.58742303974E+02  0.16936001108E+03  0.20596475375E+03  0.90921502587E+02 0.  0.
          5    1    3    3  502    0  0.56196235076E+02 -0.93137745570E+02  0.84399843411E+02  0.13774419209E+03  0.41800000000E+01 0.  1.
         -5    1    3    3    0  502 -0.11237492626E+02  0.34395441596E+02  0.25736501588E+02  0.44600084721E+02  0.41800000000E+01 0.  1.
        -11    1    4    4    0    0 -0.16279491872E+02  0.59004551217E+02  0.16619733248E+03  0.17711045210E+03  0.00000000000E+00 0. -1.
         11    1    4    4    0    0 -0.28679250579E+02 -0.26224724379E+00  0.31626786016E+01  0.28854301643E+02  0.00000000000E+00 0.  1.
</event>
<event>
 8    1  0.6684013E-009  0.1006846E+03  0.7561462E-02  0.1278863E+00
         -2   -1    0    0    0  501 -0.00000000000E+00  0.00000000000E+00  0.31311479680E+03  0.31311479680E+03  0.00000000000E+00 0. -1.
          2   -1    0    0  501    0  0.00000000000E+00 -0.00000000000E+00 -0.79854742440E+02  0.79854742440E+02  0.00000000000E+00 0.  1.
         25    2    1    2    0    0  0.34137264894E+02 -0.31521219933E+02  0.25480145309E+03  0.28762824140E+03  0.12508910660E+03 0.  0.
         23    2    1    2    0    0 -0.34137264894E+02  0.31521219933E+02 -0.21541398736E+02  0.10534129784E+03  0.92053337859E+02 0.  0.
          5    1    3    3  502    0 -0.21138682765E+02 -0.41438842217E+02  0.21148712102E+03  0.21658323183E+03  0.41800000000E+01 0.  1.
         -5    1    3    3    0  502  0.55275947659E+02  0.99176222841E+01  0.43314332078E+02  0.71045009569E+02  0.41800000000E+01 0.  1.
        -11    1    4    4    0    0 -0.30103998295E+02  0.61302702989E+02 -0.29280314363E+02  0.74307529338E+02  0.00000000000E+00 0.  1.
         11    1    4    4    0    0 -0.40332665985E+01 -0.29781483056E+02  0.77389156272E+01  0.31033768504E+02  0.00000000000E+00 0. -1.
</event>
<event>
 8    1  0.6684013E-009  0.9744263E+02  0.7561462E-02  0.1285768E+00
          1   -1    0    0  501    0  0.00000000000E+00  0.00000000000E+00  0.78483254759E+02  0.78483254759E+02  0.00000000000E+00 0. -1.
         -1   -1    0    0    0  501 -0.00000000000E+00 -0.00000000000E+00 -0.21302768531E+03  0.21302768531E+03  0.00000000000E+00 0.  1.
         25    2    1    2    0    0  0.44373936059E+02  0.33834392107E+02 -0.12261833460E+03  0.18384201796E+03  0.12509524090E+03 0.  0.
         23    2    1    2    0    0 -0.44373936059E+02 -0.33834392107E+02 -0.11926095956E+02  0.10766892211E+03  0.91304724597E+02 0.  0.
          5    1    3    3  502    0 -0.52231489165E+01 -0.25112927109E+02  0.12044985694E+02  0.28644274697E+02  0.41800000000E+01 0. -1.
         -5    1    3    3    0  502  0.49597084975E+02  0.58947319216E+02 -0.13466332029E+03  0.15519774326E+03  0.41800000000E+01 0. -1.
        -11    1    4    4    0    0  0.19198453107E+02  0.10588548639E+01 -0.27443036379E+02  0.33508536539E+02  0.00000000000E+00 0.  1.
         11    1    4    4    0    0 -0.63572389166E+02 -0.34893246971E+02  0.15516940423E+02  0.74160385574E+02  0.00000000000E+00 0. -1.
</event>
<event>
 8    1  0.6684013E-009  0.1209874E+03  0.7561462E-02  0.1241477E+00
          2   -1    0    0  501    0  0.00000000000E+00  0.00000000000E+00  0.19500085901E+03  0.19500085901E+03  0.00000000000E+00 0. -1.
         -2   -1    0    0    0  501 -0.00000000000E+00 -0.00000000000E+00 -0.12053580976E+03  0.12053580976E+03  0.00000000000E+00 0.  1.
         25    2    1    2    0    0 -0.73400574604E+02 -0.10152873265E+02  0.12060831422E+03  0.18890027672E+03  0.12508486679E+03 0.  0.
         23    2    1    2    0    0  0.73400574604E+02  0.10152873265E+02 -0.46143264966E+02  0.12663639204E+03  0.91743390498E+02 0.  0.
          5    1    3    3  502    0 -0.34248122470E+02  0.57250919871E+02  0.63311937168E+02  0.92067776701E+02  0.41800000000E+01 0. -1.
         -5    1    3    3    0  502 -0.39152452134E+02 -0.67403793136E+02  0.57296377048E+02  0.96832500020E+02  0.41800000000E+01 0. -1.
        -11    1    4    4    0    0  0.50662572665E+02 -0.23983962309E+02 -0.61157101788E+02  0.82958530702E+02  0.00000000000E+00 0.  1.
         11    1    4    4    0    0  0.22738001939E+02  0.34136835574E+02  0.15013836822E+02  0.43677861341E+02  0.00000000000E+00 0. -1.
</event>
<event>
 8    1  0.6684013E-009  0.2264147E+03  0.7561462E-02  0.1129189E+00
         -1   -1    0    0    0  501 -0.00000000000E+00  0.00000000000E+00  0.42639880514E+02  0.42639880514E+02  0.00000000000E+00 0.  1.
          1   -1    0    0  501    0  0.00000000000E+00 -0.00000000000E+00 -0.12328455492E+04  0.12328455492E+04  0.00000000000E+00 0. -1.
         25    2    1    2    0    0  0.13964761223E+03  0.14192990010E+03 -0.69121874264E+03  0.73012153633E+03  0.12509418651E+03 0.  0.
         23    2    1    2    0    0 -0.13964761223E+03 -0.14192990010E+03 -0.49898692610E+03  0.54536389343E+03  0.93745782290E+02 0.  0.
          5    1    3    3  502    0  0.15800670446E+03  0.14478232214E+03 -0.60573236910E+03  0.64253966013E+03  0.41800000000E+01 0.  1.
         -5    1    3    3    0  502 -0.18359092239E+02 -0.28524220321E+01 -0.85486373536E+02  0.87581876206E+02  0.41800000000E+01 0.  1.
        -11    1    4    4    0    0 -0.14211170587E+03 -0.91662048396E+02 -0.40125549992E+03  0.43543500580E+03  0.00000000000E+00 0.  1.
         11    1    4    4    0    0  0.24640936408E+01 -0.50267851708E+02 -0.97731426176E+02  0.10992888763E+03  0.00000000000E+00 0. -1.
</event>
<event>
 8    1  0.6684013E-009  0.6716940E+02  0.7561462E-02  0.1369992E+00
         -1   -1    0    0    0  501 -0.00000000000E+00  0.00000000000E+00  0.14389942451E+02  0.14389942451E+02  0.00000000000E+00 0.  1.
          1   -1    0    0  501    0  0.00000000000E+00 -0.00000000000E+00 -0.88602039443E+03  0.88602039443E+03  0.00000000000E+00 0. -1.
         25    2    1    2    0    0 -0.34871493920E+01  0.28658717929E+02 -0.54001969598E+03  0.55506959014E+03  0.12508994974E+03 0.  0.
         23    2    1    2    0    0  0.34871493920E+01 -0.28658717929E+02 -0.33161075600E+03  0.34534074674E+03  0.91983996121E+02 0.  0.
          5    1    3    3  502    0  0.36253576587E+01 -0.11493907558E+02 -0.49101633642E+03  0.49118201123E+03  0.41800000000E+01 0. -1.
         -5    1    3    3    0  502 -0.71125070506E+01  0.40152625487E+02 -0.49003359561E+02  0.63887578904E+02  0.41800000000E+01 0. -1.
        -11    1    4    4    0    0  0.28965048905E+02  0.13008192263E+02 -0.47973915846E+02  0.57529850735E+02  0.00000000000E+00 0.  1.
         11    1    4    4    0    0 -0.25477899513E+02 -0.41666910192E+02 -0.28363684015E+03  0.28781089600E+03  0.00000000000E+00 0. -1.
</event>
<event>
 8    1  0.6684013E-009  0.1033857E+03  0.7561462E-02  0.1273333E+00
          2   -1    0    0  501    0  0.00000000000E+00  0.00000000000E+00  0.60249995290E+03  0.60249995290E+03  0.00000000000E+00 0. -1.
         -2   -1    0    0    0  501 -0.00000000000E+00 -0.00000000000E+00 -0.21834102181E+02  0.21834102181E+02  0.00000000000E+00 0.  1.
         25    2    1    2    0    0 -0.18811522992E+02  0.20916808853E+02  0.40635879277E+03  0.42610521366E+03  0.12508716304E+03 0.  0.
         23    2    1    2    0    0  0.18811522992E+02 -0.20916808853E+02  0.17430705794E+03  0.19822884142E+03  0.90112911562E+02 0.  0.
          5    1    3    3  502    0 -0.68563038029E+02 -0.95300648314E+01  0.20391437260E+03  0.21538397357E+03  0.41800000000E+01 0. -1.
         -5    1    3    3    0  502  0.49751515037E+02  0.30446873684E+02  0.20244442017E+03  0.21072124009E+03  0.41800000000E+01 0. -1.
        -11    1    4    4    0    0  0.12177325015E+02 -0.48793347617E+02  0.50956328689E+02  0.71593473513E+02  0.00000000000E+00 0.  1.
         11    1    4    4    0    0  0.66341979774E+01  0.27876538764E+02  0.12335072926E+03  0.12663536790E+03  0.00000000000E+00 0. -1.
</event>
<event>
 8    1  0.6684013E-009  0.9459648E+02  0.7561462E-02  0.1292088E+00
         -2   -1    0    0    0  501 -0.00000000000E+00  0.00000000000E+00  0.67935738354E+02  0.67935738354E+02  0.00000000000E+00 0.  1.
          2   -1    0    0  501    0  0.00000000000E+00 -0.00000000000E+00 -0.18572976419E+03  0.18572976419E+03  0.00000000000E+00 0. -1.
         25    2    1    2    0    0 -0.28055101281E+01  0.92119057937E+01 -0.37603477154E+02  0.13099044523E+03  0.12510693487E+03 0.  0.
         23    2    1    2    0    0  0.28055101281E+01 -0.92119057937E+01 -0.80190548683E+02  0.12267505732E+03  0.92335884109E+02 0.  0.
          5    1    3    3  502    0 -0.21006907018E+02 -0.40097284499E+02 -0.58661184295E+02  0.74213808079E+02  0.41800000000E+01 0.  1.
         -5    1    3    3    0  502  0.18201396890E+02  0.49309190292E+02  0.21057707141E+02  0.56776637150E+02  0.41800000000E+01 0.  1.
        -11    1    4    4    0    0 -0.15825364711E+02  0.37507354620E+02 -0.23981145264E+02  0.47247636417E+02  0.00000000000E+00 0.  1.
         11    1    4    4    0    0  0.18630874839E+02 -0.46719260413E+02 -0.56209403420E+02  0.75427420900E+02  0.00000000000E+00 0. -1.
</event>
<event>
 8    1  0.6684013E-009  0.2238451E+03  0.7561462E-02  0.1131048E+00
          1   -1    0    0  501    0  0.00000000000E+00  0.00000000000E+00  0.10519391331E+04  0.10519391331E+04  0.00000000000E+00 0. -1.
         -1   -1    0    0    0  501 -0.00000000000E+00 -0.00000000000E+00 -0.54223511502E+02  0.54223511502E+02  0.00000000000E+00 0.  1.
         25    2    1    2    0    0  0.21154977658E+03  0.34487589069E+02  0.58051896440E+03  0.63134143685E+03  0.12508812930E+03 0.  0.
         23    2    1    2    0    0 -0.21154977658E+03 -0.34487589069E+02  0.41719665722E+03  0.47482120777E+03  0.73887933938E+02 0.  0.
          5    1    3    3  502    0  0.44489525935E+02 -0.15535083646E+02  0.27913535295E+03  0.28311600874E+03  0.41800000000E+01 0. -1.
         -5    1    3    3    0  502  0.16706025064E+03  0.50022672715E+02  0.30138361145E+03  0.34822542811E+03  0.41800000000E+01 0. -1.
        -11    1    4    4    0    0 -0.10090350670E+02 -0.21873432654E+02  0.57798309859E+02  0.62617145059E+02  0.00000000000E+00 0. -1.
         11    1    4    4    0    0 -0.20145942591E+03 -0.12614156415E+02  0.35939834736E+03  0.41220406271E+03  0.00000000000E+00 0.  1.
</event>
<event>
 8    1  0.6684013E-009  0.2371211E+03  0.7561462E-02  0.1121726E+00
         -3   -1    0    0    0  501 -0.00000000000E+00  0.00000000000E+00  0.12022765216E+04  0.12022765216E+04  0.00000000000E+00 0.  1.
          3   -1    0    0  501    0  0.00000000000E+00 -0.00000000000E+00 -0.82947721452E+02  0.82947721452E+02  0.00000000000E+00 0. -1.
         25    2    1    2    0    0 -0.38488440770E+02  0.22314824726E+03  0.17483740057E+03  0.31223739679E+03  0.12509026737E+03 0.  0.
         23    2    1    2    0    0  0.38488440770E+02 -0.22314824726E+03  0.94449139958E+03  0.97298684626E+03  0.57990506029E+02 0.  0.
          5    1    3    3  502    0 -0.72269885582E+02  0.16637766548E+03  0.16512969618E+03  0.24533600000E+03  0.41800000000E+01 0. -1.
         -5    1    3    3    0  502  0.33781444813E+02  0.56770581773E+02  0.97077043888E+01  0.66901396794E+02  0.41800000000E+01 0. -1.
        -11    1    4    4    0    0  0.16713274934E+02 -0.73194262258E+02  0.20971288153E+03  0.22274700058E+03  0.00000000000E+00 0. -1.
         11    1    4    4    0    0  0.21775165836E+02 -0.14995398500E+03  0.73477851804E+03  0.75023984568E+03  0.00000000000E+00 0.  1.
</event>
<event>
 8    1  0.6684013E-009  0.9307129E+02  0.7561462E-02  0.1295580E+00
         -2   -1    0    0    0  501 -0.00000000000E+00  0.00000000000E+00  0.17098267092E+02  0.17098267092E+02  0.00000000000E+00 0.  1.
          2   -1    0    0  501    0  0.00000000000E+00 -0.00000000000E+00 -0.77976778787E+03  0.77976778787E+03  0.00000000000E+00 0. -1.
         25    2    1    2    0    0  0.66440744427E+01 -0.10530737168E+02 -0.56893757666E+03  0.58266076084E+03  0.12509418824E+03 0.  0.
         23    2    1    2    0    0 -0.66440744427E+01  0.10530737168E+02 -0.19373194411E+03  0.21420529412E+03  0.90536190056E+02 0.  0.
          5    1    3    3  502    0 -0.44510804732E+02  0.34058276000E+02 -0.30311219676E+03  0.30827853335E+03  0.41800000000E+01 0.  1.
         -5    1    3    3    0  502  0.51154879175E+02 -0.44589013168E+02 -0.26582537990E+03  0.27438222749E+03  0.41800000000E+01 0. -1.
        -11    1    4    4    0    0  0.18112337844E+02  0.26786657559E+02 -0.20117242247E+02  0.38082610742E+02  0.00000000000E+00 0.  1.
         11    1    4    4    0    0 -0.24756412286E+02 -0.16255920391E+02 -0.17361470186E+03  0.17612268338E+03  0.00000000000E+00 0. -1.
</event>
<event>
 8    1  0.6684013E-009  0.1723936E+03  0.7561462E-02  0.1175374E+00
         -1   -1    0    0    0  501 -0.00000000000E+00  0.00000000000E+00  0.49754189539E+03  0.49754189539E+03  0.00000000000E+00 0.  1.
          1   -1    0    0  501    0  0.00000000000E+00 -0.00000000000E+00 -0.91163211510E+02  0.91163211510E+02  0.00000000000E+00 0. -1.
         25    2    1    2    0    0 -0.11848870152E+03  0.85963319270E+02  0.36312036571E+03  0.41101484952E+03  0.12509013502E+03 0.  0.
         23    2    1    2    0    0  0.11848870152E+03 -0.85963319270E+02  0.43258318164E+02  0.17769025738E+03  0.90957577081E+02 0.  0.
          5    1    3    3  502    0 -0.10752890097E+03  0.12999063843E+02  0.14723264158E+03  0.18282878152E+03  0.41800000000E+01 0.  1.
         -5    1    3    3    0  502 -0.10959800555E+02  0.72964255427E+02  0.21588772413E+03  0.22818606800E+03  0.41800000000E+01 0.  1.
        -11    1    4    4    0    0  0.83196872974E+02 -0.94782440251E+02  0.69717642952E+01  0.12630928766E+03  0.00000000000E+00 0. -1.
         11    1    4    4    0    0  0.35291828550E+02  0.88191209813E+01  0.36286553869E+02  0.51380969716E+02  0.00000000000E+00 0.  1.
</event>
<event>
 8    1  0.6684013E-009  0.1264247E+03  0.7561462E-02  0.1232859E+00
         -2   -1    0    0    0  501 -0.00000000000E+00  0.00000000000E+00  0.30046495276E+02  0.30046495276E+02  0.00000000000E+00 0.  1.
          2   -1    0    0  501    0  0.00000000000E+00 -0.00000000000E+00 -0.61205489053E+03  0.61205489053E+03  0.00000000000E+00 0. -1.
         25    2    1    2    0    0 -0.60683210760E+02  0.46550887404E+02 -0.38393234379E+03  0.41097631009E+03  0.12509214869E+03 0.  0.
         23    2    1    2    0    0  0.60683210760E+02 -0.46550887404E+02 -0.19807605147E+03  0.23112507572E+03  0.91297542537E+02 0.  0.
          5    1    3    3  502    0 -0.92646787870E+02  0.55637953363E+02 -0.24070408977E+03  0.26388433146E+03  0.41800000000E+01 0. -1.
         -5    1    3    3    0  502  0.31963577110E+02 -0.90870659589E+01 -0.14322825401E+03  0.14709197863E+03  0.41800000000E+01 0. -1.
        -11    1    4    4    0    0  0.45617873600E+02  0.14858540811E+02 -0.12822145042E+03  0.13690327598E+03  0.00000000000E+00 0. -1.
         11    1    4    4    0    0  0.15065337160E+02 -0.61409428215E+02 -0.69854601049E+02  0.94221799734E+02  0.00000000000E+00 0.  1.
</event>
<event>
 8    1  0.6684013E-009  0.1855839E+03  0.7561462E-02  0.1162506E+00
          1   -1    0    0  501    0  0.00000000000E+00  0.00000000000E+00  0.77636375028E+02  0.77636375028E+02  0.00000000000E+00 0. -1.
         -1   -1    0    0    0  501 -0.00000000000E+00 -0.00000000000E+00 -0.51613798450E+03  0.51613798450E+03  0.00000000000E+00 0.  1.
         25    2    1    2    0    0 -0.11769724828E+03 -0.11818596844E+03 -0.22063202679E+03  0.30355743359E+03  0.12509220142E+03 0.  0.
         23    2    1    2    0    0  0.11769724828E+03  0.11818596844E+03 -0.21786958268E+03  0.29021692593E+03  0.94541756133E+02 0.  0.
          5    1    3    3  502    0 -0.59208297978E+02  0.10435424093E+02 -0.10441639173E+03  0.12056025833E+03  0.41800000000E+01 0. -1.
         -5    1    3    3    0  502 -0.58488950302E+02 -0.12862139253E+03 -0.11621563506E+03  0.18299717527E+03  0.41800000000E+01 0. -1.
        -11    1    4    4    0    0  0.41443560013E+02  0.22390619829E+02 -0.13338583670E+03  0.14145914589E+03  0.00000000000E+00 0.  1.
         11    1    4    4    0    0  0.76253688267E+02  0.95795348608E+02 -0.84483745979E+02  0.14875778004E+03  0.00000000000E+00 0. -1.
</event>
<event>
 8    1  0.6684013E-009  0.1351781E+03  0.7561462E-02  0.1219969E+00
         -4   -1    0    0    0  501 -0.00000000000E+00  0.00000000000E+00  0.22663968145E+03  0.22663968145E+03  0.00000000000E+00 0.  1.
          4   -1    0    0  501    0  0.00000000000E+00 -0.00000000000E+00 -0.94373061549E+02  0.94373061549E+02  0.00000000000E+00 0. -1.
         25    2    1    2    0    0  0.62235494971E+02  0.75324261944E+02  0.78725246985E+02  0.17717945880E+03  0.12509154582E+03 0.  0.
         23    2    1    2    0    0 -0.62235494971E+02 -0.75324261944E+02  0.53541372918E+02  0.14383328420E+03  0.90963364923E+02 0.  0.
          5    1    3    3  502    0  0.86411051205E+02  0.36549090064E+02  0.89840468047E+02  0.12996725685E+03  0.41800000000E+01 0.  1.
         -5    1    3    3    0  502 -0.24175556234E+02  0.38775171880E+02 -0.11115221062E+02  0.47212201948E+02  0.41800000000E+01 0.  1.
        -11    1    4    4    0    0 -0.65016645034E+02 -0.10723947856E+02  0.42025445151E+02  0.78155647456E+02  0.00000000000E+00 0. -1.
         11    1    4    4    0    0  0.27811500631E+01 -0.64600314088E+02  0.11515927767E+02  0.65677636744E+02  0.00000000000E+00 0.  1.
</event>
<event>
 8    1  0.6684013E-009  0.1087799E+03  0.7561462E-02  0.1262846E+00
          1   -1    0    0  501    0  0.00000000000E+00  0.00000000000E+00  0.77082094645E+03  0.77082094645E+03  0.00000000000E+00 0. -1.
         -1   -1    0    0    0  501 -0.00000000000E+00 -0.00000000000E+00 -0.18999188866E+02  0.18999188866E+02  0.00000000000E+00 0.  1.
         25    2    1    2    0    0  0.32379721965E+02 -0.61058192849E+01  0.56540090205E+03  0.58001081239E+03  0.12509450441E+03 0.  0.
         23    2    1    2    0    0 -0.32379721965E+02  0.61058192849E+01  0.18642085553E+03  0.20980932292E+03  0.90451584739E+02 0.  0.
          5    1    3    3  502    0  0.92339304495E+01  0.59140815632E+02  0.26376586377E+03  0.27050472239E+03  0.41800000000E+01 0. -1.
         -5    1    3    3    0  502  0.23145791515E+02 -0.65246634917E+02  0.30163503828E+03  0.30950609001E+03  0.41800000000E+01 0. -1.
        -11    1    4    4    0    0 -0.37444346706E+02 -0.32306846603E+02  0.14448568085E+03  0.15271517085E+03  0.00000000000E+00 0.  1.
         11    1    4    4    0    0  0.50646247416E+01  0.38412665888E+02  0.41935174685E+02  0.57094152067E+02  0.00000000000E+00 0. -1.
</event>
<event>
 8    1  0.6684013E-009  0.1428632E+03  0.7561462E-02  0.1209527E+00
          4   -1    0    0  501    0  0.00000000000E+00  0.00000000000E+00  0.53092714584E+03  0.53092714584E+03  0.00000000000E+00 0.  1.
         -4   -1    0    0    0  501 -0.00000000000E+00 -0.00000000000E+00 -0.58295658913E+02  0.58295658913E+02  0.00000000000E+00 0. -1.
         25    2    1    2    0    0 -0.61706593397E+02  0.11710089555E+03  0.31930106273E+03  0.36758738794E+03  0.12508795189E+03 0.  0.
         23    2    1    2    0    0  0.61706593397E+02 -0.11710089555E+03  0.15333042420E+03  0.22163541681E+03  0.89953963742E+02 0.  0.
          5    1    3    3  502    0 -0.20795902407E+02  0.11023342930E+02 -0.45494354097E+01  0.24334202449E+02  0.41800000000E+01 0.  1.
         -5    1    3    3    0  502 -0.40910690991E+02  0.10607755262E+03  0.32385049814E+03  0.34325318549E+03  0.41800000000E+01 0.  1.
        -11    1    4    4    0    0  0.75888870063E+02 -0.10399655580E+03  0.94457266134E+02  0.15967648338E+03  0.00000000000E+00 0. -1.
         11    1    4    4    0    0 -0.14182276666E+02 -0.13104339745E+02  0.58873158065E+02  0.61958933433E+02  0.00000000000E+00 0.  1.
</event>
<event>
 8    1  0.6684013E-009  0.1088747E+03  0.7561462E-02  0.1262668E+00
         -2   -1    0    0    0  501 -0.00000000000E+00  0.00000000000E+00  0.46939403030E+02  0.46939403030E+02  0.00000000000E+00 0. -1.
          2   -1    0    0  501    0  0.00000000000E+00 -0.00000000000E+00 -0.28391502781E+03  0.28391502781E+03  0.00000000000E+00 0.  1.
         25    2    1    2    0    0 -0.58098203308E+01 -0.35776946231E+02 -0.10759252558E+03  0.16893097935E+03  0.12509108813E+03 0.  0.
         23    2    1    2    0    0  0.58098203308E+01  0.35776946231E+02 -0.12938309920E+03  0.16192345149E+03  0.90363011732E+02 0.  0.
          5    1    3    3  502    0  0.37555387167E+02  0.26087028094E+02 -0.71801087375E+02  0.85227980665E+02  0.41800000000E+01 0.  1.
         -5    1    3    3    0  502 -0.43365207497E+02 -0.61863974325E+02 -0.35791438205E+02  0.83702998688E+02  0.41800000000E+01 0.  1.
        -11    1    4    4    0    0  0.38110253826E+02 -0.10685706975E+02 -0.41082448476E+02  0.57046852262E+02  0.00000000000E+00 0. -1.
         11    1    4    4    0    0 -0.32300433495E+02  0.46462653206E+02 -0.88300650728E+02  0.10487659923E+03  0.00000000000E+00 0.  1.
</event>
<event>
 8    1  0.6684013E-009  0.1807366E+03  0.7561462E-02  0.1167092E+00
          2   -1    0    0  501    0  0.00000000000E+00  0.00000000000E+00  0.13171783747E+03  0.13171783747E+03  0.00000000000E+00 0. -1.
         -2   -1    0    0    0  501 -0.00000000000E+00 -0.00000000000E+00 -0.31551256975E+03  0.31551256975E+03  0.00000000000E+00 0.  1.
         25    2    1    2    0    0  0.10969673422E+03  0.12967625483E+03 -0.13399640339E+03  0.24990133757E+03  0.12508532222E+03 0.  0.
         23    2    1    2    0    0 -0.10969673422E+03 -0.12967625483E+03 -0.49798328886E+02  0.19732906966E+03  0.87232927318E+02 0.  0.
          5    1    3    3  502    0  0.48393784176E+02  0.33319295709E+02 -0.12139067726E+03  0.13492702746E+03  0.41800000000E+01 0. -1.
         -5    1    3    3    0  502  0.61302950040E+02  0.96356959117E+02 -0.12605726130E+02  0.11497431011E+03  0.41800000000E+01 0. -1.
        -11    1    4    4    0    0 -0.16230951578E+02 -0.81570245606E+02 -0.57936381964E+01  0.83370948183E+02  0.00000000000E+00 0.  1.
         11    1    4    4    0    0 -0.93465782638E+02 -0.48106009220E+02 -0.44004690690E+02  0.11395812147E+03  0.00000000000E+00 0. -1.
</event>
<event>
 8    1  0.6684013E-009  0.2764672E+03  0.7561462E-02  0.1097634E+00
          2   -1    0    0  501    0  0.00000000000E+00  0.00000000000E+00  0.56055377318E+03  0.56055377318E+03  0.00000000000E+00 0.  1.
         -2   -1    0    0    0  501 -0.00000000000E+00 -0.00000000000E+00 -0.15647818474E+03  0.15647818474E+03  0.00000000000E+00 0. -1.
         25    2    1    2    0    0 -0.13685601816E+03  0.22710579383E+03  0.11758037943E+03  0.31588054490E+03  0.12509501077E+03 0.  0.
         23    2    1    2    0    0  0.13685601816E+03 -0.22710579383E+03  0.28649520901E+03  0.40115141301E+03  0.92392316104E+02 0.  0.
          5    1    3    3  502    0  0.26115914332E+01  0.89414364126E+02  0.71284487480E+02  0.11445828706E+03  0.41800000000E+01 0.  1.
         -5    1    3    3    0  502 -0.13946760959E+03  0.13769142971E+03  0.46295891947E+02  0.20142225784E+03  0.41800000000E+01 0.  1.
        -11    1    4    4    0    0  0.10516089010E+03 -0.14322642264E+03  0.24421380268E+03  0.30201490421E+03  0.00000000000E+00 0.  1.
         11    1    4    4    0    0  0.31695128059E+02 -0.83879371199E+02  0.42281406334E+02  0.99136508799E+02  0.00000000000E+00 0. -1.
</event>
<event>
 8    1  0.6684013E-009  0.1065725E+03  0.7561462E-02  0.1267052E+00
         -1   -1    0    0    0  501 -0.00000000000E+00  0.00000000000E+00  0.33917498027E+02  0.33917498027E+02  0.00000000000E+00 0.  1.
          1   -1    0    0  501    0  0.00000000000E+00 -0.00000000000E+00 -0.58411579876E+03  0.58411579876E+03  0.00000000000E+00 0. -1.
         25    2    1    2    0    0  0.66796906754E+02  0.11539823362E+02 -0.16771298412E+03  0.21992732657E+03  0.12508153202E+03 0.  0.
         23    2    1    2    0    0 -0.66796906754E+02 -0.11539823362E+02 -0.38248531661E+03  0.39810597022E+03  0.87168525428E+02 0.  0.
          5    1    3    3  502    0  0.32355001611E+02 -0.36105109173E+02 -0.15102628126E+03  0.15867209921E+03  0.41800000000E+01 0. -1.
         -5    1    3    3    0  502  0.34441905143E+02  0.47644932536E+02 -0.16686702865E+02  0.61255227358E+02  0.41800000000E+01 0. -1.
        -11    1    4    4    0    0 -0.31929056175E+02 -0.46345100569E+02 -0.14446003881E+03  0.15503559523E+03  0.00000000000E+00 0.  1.
         11    1    4    4    0    0 -0.34867850579E+02  0.34805277206E+02 -0.23802527779E+03  0.24307037498E+03  0.00000000000E+00 0. -1.
</event>
<event>
 8    1  0.6684013E-009  0.1625002E+03  0.7561462E-02  0.1185903E+00
          2   -1    0    0  501    0  0.00000000000E+00  0.00000000000E+00  0.15750309341E+03  0.15750309341E+03  0.00000000000E+00 0. -1.
         -2   -1    0    0    0  501 -0.00000000000E+00 -0.00000000000E+00 -0.18434531458E+03  0.18434531458E+03  0.00000000000E+00 0.  1.
         25    2    1    2    0    0  0.78640081396E+02  0.10159343159E+03  0.87900681874E+01  0.17952727879E+03  0.12508913136E+03 0.  0.
         23    2    1    2    0    0 -0.78640081396E+02 -0.10159343159E+03 -0.35632289360E+02  0.16232112921E+03  0.92590502744E+02 0.  0.
          5    1    3    3  502    0 -0.29117232941E+02  0.20160964098E+01  0.14029724948E+02  0.32652465160E+02  0.41800000000E+01 0. -1.
         -5    1    3    3    0  502  0.10775731434E+03  0.99577335180E+02 -0.52396567607E+01  0.14687481363E+03  0.41800000000E+01 0. -1.
        -11    1    4    4    0    0 -0.76293362326E+02 -0.38245427717E+02  0.74624973856E+01  0.85668423258E+02  0.00000000000E+00 0. -1.
         11    1    4    4    0    0 -0.23467190706E+01 -0.63348003873E+02 -0.43094786745E+02  0.76652705951E+02  0.00000000000E+00 0.  1.
</event>
<event>
 8    1  0.6684013E-009  0.2815723E+03  0.7561462E-02  0.1094833E+00
          2   -1    0    0  501    0  0.00000000000E+00  0.00000000000E+00  0.30108632153E+03  0.30108632153E+03  0.00000000000E+00 0. -1.
         -2   -1    0    0    0  501 -0.00000000000E+00 -0.00000000000E+00 -0.27400214024E+03  0.27400214024E+03  0.00000000000E+00 0.  1.
         25    2    1    2    0    0  0.79293046698E+02  0.24833865832E+03 -0.38354413783E+02  0.29168174576E+03  0.12509078018E+03 0.  0.
         23    2    1    2    0    0 -0.79293046698E+02 -0.24833865832E+03  0.65438595069E+02  0.28340671601E+03  0.89875917165E+02 0.  0.
          5    1    3    3  502    0  0.11170998288E+03  0.18399304774E+03 -0.42283738465E+02  0.21940362082E+03  0.41800000000E+01 0.  1.
         -5    1    3    3    0  502 -0.32416936184E+02  0.64345610576E+02  0.39293246821E+01  0.72278124938E+02  0.41800000000E+01 0.  1.
        -11    1    4    4    0    0  0.24082362890E+01 -0.13985011517E+03  0.30109424652E+02  0.14307491663E+03  0.00000000000E+00 0.  1.
         11    1    4    4    0    0 -0.81701282987E+02 -0.10848854315E+03  0.35329170418E+02  0.14033179938E+03  0.00000000000E+00 0. -1.
</event>
<event>
 8    1  0.6684013E-009  0.1035095E+03  0.7561462E-02  0.1273084E+00
         -2   -1    0    0    0  501 -0.00000000000E+00  0.00000000000E+00  0.13651503901E+02  0.13651503901E+02  0.00000000000E+00 0.  1.
          2   -1    0    0  501    0  0.00000000000E+00 -0.00000000000E+00 -0.11530403070E+04  0.11530403070E+04  0.00000000000E+00 0. -1.
         25    2    1    2    0    0  0.13081430957E+02  0.78502130493E+01 -0.93407984649E+03  0.94254190752E+03  0.12508932063E+03 0.  0.
         23    2    1    2    0    0 -0.13081430957E+02 -0.78502130493E+01 -0.20530895658E+03  0.22414990334E+03  0.88649093840E+02 0.  0.
          5    1    3    3  502    0  0.68043996570E+02 -0.75024549752E+01 -0.48181235631E+03  0.48666918065E+03  0.41800000000E+01 0. -1.
         -5    1    3    3    0  502 -0.54962565613E+02  0.15352668025E+02 -0.45226749018E+03  0.45587272687E+03  0.41800000000E+01 0. -1.
        -11    1    4    4    0    0 -0.45841165422E+02  0.48143652558E+01 -0.16177975215E+03  0.16821795019E+03  0.00000000000E+00 0.  1.
         11    1    4    4    0    0  0.32759734465E+02 -0.12664578305E+02 -0.43529204423E+02  0.55931953154E+02  0.00000000000E+00 0. -1.
</event>
<event>
 8    1  0.6684013E-009  0.1094712E+03  0.7561462E-02  0.1261552E+00
         -4   -1    0    0    0  501 -0.00000000000E+00  0.00000000000E+00  0.25286670206E+02  0.25286670206E+02  0.00000000000E+00 0.  1.
          4   -1    0    0  501    0  0.00000000000E+00 -0.00000000000E+00 -0.66292640140E+03  0.66292640140E+03  0.00000000000E+00 0. -1.
         25    2    1    2    0    0 -0.52088467191E+02 -0.46396332369E+02 -0.39024998872E+03  0.41570291611E+03  0.12509209687E+03 0.  0.
         23    2    1    2    0    0  0.52088467191E+02  0.46396332369E+02 -0.24738974248E+03  0.27251015550E+03  0.90522218782E+02 0.  0.
          5    1    3    3  502    0  0.44559935589E+01  0.29886366585E+02 -0.20734275854E+03  0.20957467095E+03  0.41800000000E+01 0.  1.
         -5    1    3    3    0  502 -0.56544460750E+02 -0.76282698955E+02 -0.18290723018E+03  0.20612824516E+03  0.41800000000E+01 0.  1.
        -11    1    4    4    0    0  0.43087885054E+02 -0.29902135179E+01 -0.39114411636E+02  0.58270442018E+02  0.00000000000E+00 0.  1.
         11    1    4    4    0    0  0.90005821364E+01  0.49386545887E+02 -0.20827533084E+03  0.21423971348E+03  0.00000000000E+00 0. -1.
</event>
<event>
 8    1  0.6684013E-009  0.7767154E+02  0.7561462E-02  0.1335792E+00
         -1   -1    0    0    0  501 -0.00000000000E+00  0.00000000000E+00  0.35291614381E+03  0.35291614381E+03  0.00000000000E+00 0.  1.
          1   -1    0    0  501    0  0.00000000000E+00 -0.00000000000E+00 -0.34444295900E+02  0.34444295900E+02  0.00000000000E+00 0. -1.
         25    2    1    2    0    0  0.99041256483E+01  0.84575018344E+00  0.15959739607E+03  0.20302964515E+03  0.12510356102E+03 0.  0.
         23    2    1    2    0    0 -0.99041256483E+01 -0.84575018344E+00  0.15887445184E+03  0.18433079456E+03  0.92940536773E+02 0.  0.
          5    1    3    3  502    0  0.20231046404E+02  0.35929517885E+02  0.23286782926E+01  0.41510488273E+02  0.41800000000E+01 0.  1.
         -5    1    3    3    0  502 -0.10326920756E+02 -0.35083767701E+02  0.15726871777E+03  0.16151915688E+03  0.41800000000E+01 0.  1.
        -11    1    4    4    0    0 -0.38884219794E+02  0.17656242861E+02  0.13718571760E+03  0.14367897053E+03  0.00000000000E+00 0.  1.
         11    1    4    4    0    0  0.28980094146E+02 -0.18501993045E+02  0.21688734247E+02  0.40651824025E+02  0.00000000000E+00 0. -1.
</event>
<event>
 8    1  0.6684013E-009  0.1504449E+03  0.7561462E-02  0.1199927E+00
          2   -1    0    0  501    0  0.00000000000E+00  0.00000000000E+00  0.18692668619E+03  0.18692668619E+03  0.00000000000E+00 0. -1.
         -2   -1    0    0    0  501 -0.00000000000E+00 -0.00000000000E+00 -0.16350783141E+03  0.16350783141E+03  0.00000000000E+00 0.  1.
         25    2    1    2    0    0  0.21631296403E+02  0.10208493805E+03  0.10111790521E+03  0.19173260380E+03  0.12508922034E+03 0.  0.
         23    2    1    2    0    0 -0.21631296403E+02 -0.10208493805E+03 -0.77699050429E+02  0.15870191379E+03  0.90884032937E+02 0.  0.
          5    1    3    3  502    0  0.38301984004E+02  0.12673328271E+03  0.77105436010E+02  0.15326802533E+03  0.41800000000E+01 0.  1.
         -5    1    3    3    0  502 -0.16670687600E+02 -0.24648344664E+02  0.24012469199E+02  0.38464578469E+02  0.41800000000E+01 0.  1.
        -11    1    4    4    0    0 -0.28420384951E+02  0.68498360960E+01 -0.16321016386E+02  0.33481548817E+02  0.00000000000E+00 0. -1.
         11    1    4    4    0    0  0.67890885477E+01 -0.10893477415E+03 -0.61378034043E+02  0.12522036498E+03  0.00000000000E+00 0.  1.
</event>
<event>
 8    1  0.6684013E-009  0.1298284E+03  0.7561462E-02  0.1227711E+00
         -2   -1    0    0    0  501 -0.00000000000E+00  0.00000000000E+00  0.46860671311E+02  0.46860671311E+02  0.00000000000E+00 0.  1.
          2   -1    0    0  501    0  0.00000000000E+00 -0.00000000000E+00 -0.37447432419E+03  0.37447432419E+03  0.00000000000E+00 0. -1.
         25    2    1    2    0    0  0.43170818479E+02 -0.61454050473E+02 -0.19340933566E+03  0.24227051875E+03  0.12509002057E+03 0.  0.
         23    2    1    2    0    0 -0.43170818479E+02  0.61454050473E+02 -0.13420431721E+03  0.17906447675E+03  0.91722233871E+02 0.  0.
          5    1    3    3  502    0 -0.37113688033E+02 -0.48460641172E+02 -0.10889238050E+03  0.12490349280E+03  0.41800000000E+01 0.  1.
         -5    1    3    3    0  502  0.80284506512E+02 -0.12993409300E+02 -0.84516955167E+02  0.11736702596E+03  0.41800000000E+01 0.  1.
        -11    1    4    4    0    0 -0.69314186797E+01 -0.23593650314E+02 -0.17505269111E+02  0.30185084839E+02  0.00000000000E+00 0.  1.
         11    1    4    4    0    0 -0.36239399799E+02  0.85047700787E+02 -0.11669904810E+03  0.14887939191E+03  0.00000000000E+00 0. -1.
</event>
<event>
 8    1  0.6684013E-009  0.2881723E+03  0.7561462E-02  0.1091307E+00
         -2   -1    0    0    0  501 -0.00000000000E+00  0.00000000000E+00  0.67698837973E+03  0.67698837973E+03  0.00000000000E+00 0. -1.
          2   -1    0    0  501    0  0.00000000000E+00 -0.00000000000E+00 -0.19010836904E+03  0.19010836904E+03  0.00000000000E+00 0.  1.
         25    2    1    2    0    0  0.23574821752E+03  0.13100014610E+03  0.50023170458E+03  0.58191011805E+03  0.12509742952E+03 0.  0.
         23    2    1    2    0    0 -0.23574821752E+03 -0.13100014610E+03 -0.13351693902E+02  0.28518663072E+03  0.91732689224E+02 0.  0.
          5    1    3    3  502    0  0.36119101095E+01 -0.18670202228E+02  0.20089491758E+02  0.27976461981E+02  0.41800000000E+01 0. -1.
         -5    1    3    3    0  502  0.23213630741E+03  0.14967034832E+03  0.48014221283E+03  0.55393365607E+03  0.41800000000E+01 0. -1.
        -11    1    4    4    0    0 -0.11360011744E+03 -0.19516522663E+02 -0.29632783227E+02  0.11901253372E+03  0.00000000000E+00 0.  1.
         11    1    4    4    0    0 -0.12214810007E+03 -0.11148362343E+03  0.16281089325E+02  0.16617409700E+03  0.00000000000E+00 0. -1.
</event>
<event>
 8    1  0.6684013E-009  0.1042597E+03  0.7561462E-02  0.1271585E+00
         -3   -1    0    0    0  501 -0.00000000000E+00  0.00000000000E+00  0.60227936703E+02  0.60227936703E+02  0.00000000000E+00 0.  1.
          3   -1    0    0  501    0  0.00000000000E+00 -0.00000000000E+00 -0.20786450426E+03  0.20786450426E+03  0.00000000000E+00 0. -1.
         25    2    1    2    0    0 -0.11701354223E+02 -0.38747921776E+01 -0.54148667550E+02  0.13686152797E+03  0.12508822461E+03 0.  0.
         23    2    1    2    0    0  0.11701354223E+02  0.38747921776E+01 -0.93487900010E+02  0.13123091299E+03  0.91266803231E+02 0.  0.
          5    1    3    3  502    0  0.51698071642E+02  0.20238739300E+02 -0.36749710413E+02  0.66710649790E+02  0.41800000000E+01 0. -1.
         -5    1    3    3    0  502 -0.63399425865E+02 -0.24113531478E+02 -0.17398957137E+02  0.70150878183E+02  0.41800000000E+01 0. -1.
        -11    1    4    4    0    0  0.48137613013E+02 -0.83937812005E+00 -0.26823811946E+02  0.55113076756E+02  0.00000000000E+00 0.  1.
         11    1    4    4    0    0 -0.36436258790E+02  0.47141702976E+01 -0.66664088065E+02  0.76117836239E+02  0.00000000000E+00 0. -1.
</event>
<event>
 8    1  0.6684013E-009  0.1109678E+03  0.7561462E-02  0.1258788E+00
          2   -1    0    0  501    0  0.00000000000E+00  0.00000000000E+00  0.55433074832E+02  0.55433074832E+02  0.00000000000E+00 0. -1.
         -2   -1    0    0    0  501 -0.00000000000E+00 -0.00000000000E+00 -0.60808716468E+03  0.60808716468E+03  0.00000000000E+00 0.  1.
         25    2    1    2    0    0  0.42560088984E+02  0.50282077230E+02 -0.53621285807E+03  0.55452440127E+03  0.12503373133E+03 0.  0.
         23    2    1    2    0    0 -0.42560088984E+02 -0.50282077230E+02 -0.16441231771E+02  0.10899583824E+03  0.85265058417E+02 0.  0.
          5    1    3    3  502    0  0.81283090579E+02  0.29901047282E+02 -0.24240757304E+03  0.25744886349E+03  0.41800000000E+01 0. -1.
         -5    1    3    3    0  502 -0.38723001594E+02  0.20381029948E+02 -0.29380528503E+03  0.29707553778E+03  0.41800000000E+01 0. -1.
        -11    1    4    4    0    0 -0.47600082791E+02 -0.74964969523E+01  0.20383555208E+02  0.52320690661E+02  0.00000000000E+00 0. -1.
         11    1    4    4    0    0  0.50399938071E+01 -0.42785580278E+02 -0.36824786979E+02  0.56675147581E+02  0.00000000000E+00 0.  1.
</event>
<event>
 8    1  0.6684013E-009  0.9746608E+02  0.7561462E-02  0.1285716E+00
          1   -1    0    0  501    0  0.00000000000E+00  0.00000000000E+00  0.20000342464E+03  0.20000342464E+03  0.00000000000E+00 0. -1.
         -1   -1    0    0    0  501 -0.00000000000E+00 -0.00000000000E+00 -0.79899024073E+02  0.79899024073E+02  0.00000000000E+00 0.  1.
         25    2    1    2    0    0 -0.62150803504E+02 -0.16435366985E+01  0.66242468566E+02  0.15460232030E+03  0.12509352187E+03 0.  0.
         23    2    1    2    0    0  0.62150803504E+02  0.16435366985E+01  0.53861931996E+02  0.12530012840E+03  0.94517674911E+02 0.  0.
          5    1    3    3  502    0  0.98824404283E+01 -0.19003976801E+01  0.80346343535E+02  0.81081942870E+02  0.41800000000E+01 0. -1.
         -5    1    3    3    0  502 -0.72033243932E+02  0.25686098160E+00 -0.14103874969E+02  0.73520377435E+02  0.41800000000E+01 0. -1.
        -11    1    4    4    0    0  0.53640430481E+02  0.43565470086E+02  0.42170012299E+02  0.80954035744E+02  0.00000000000E+00 0. -1.
         11    1    4    4    0    0  0.85103730234E+01 -0.41921933388E+02  0.11691919697E+02  0.44346092660E+02  0.00000000000E+00 0.  1.
</event>
<event>
 8    1  0.6684013E-009  0.1552616E+03  0.7561462E-02  0.1194153E+00
          4   -1    0    0  501    0  0.00000000000E+00  0.00000000000E+00  0.41961092103E+02  0.41961092103E+02  0.00000000000E+00 0. -1.
         -4   -1    0    0    0  501 -0.00000000000E+00 -0.00000000000E+00 -0.84645854135E+03  0.84645854135E+03  0.00000000000E+00 0.  1.
         25    2    1    2    0    0  0.11262927494E+02  0.15405966861E+03 -0.41813035774E+03  0.46297068883E+03  0.12509047778E+03 0.  0.
         23    2    1    2    0    0 -0.11262927494E+02 -0.15405966861E+03 -0.38636709151E+03  0.42544894462E+03  0.88690698776E+02 0.  0.
          5    1    3    3  502    0  0.15677383704E+02  0.78728135945E+02 -0.69560168771E+02  0.10630140746E+03  0.41800000000E+01 0.  1.
         -5    1    3    3    0  502 -0.44144562106E+01  0.75331532661E+02 -0.34857018897E+03  0.35666928137E+03  0.41800000000E+01 0.  1.
        -11    1    4    4    0    0 -0.92339087225E+01 -0.90034686994E+02 -0.32262999064E+03  0.33508449799E+03  0.00000000000E+00 0.  1.
         11    1    4    4    0    0 -0.20290187711E+01 -0.64024981612E+02 -0.63737100872E+02  0.90364446632E+02  0.00000000000E+00 0. -1.
</event>
<event>
 8    1  0.6684013E-009  0.9119535E+02  0.7561462E-02  0.1299983E+00
         -2   -1    0    0    0  501 -0.00000000000E+00  0.00000000000E+00  0.22947891973E+02  0.22947891973E+02  0.00000000000E+00 0.  1.
          2   -1    0    0  501    0  0.00000000000E+00 -0.00000000000E+00 -0.54575429996E+03  0.54575429996E+03  0.00000000000E+00 0. -1.
         25    2    1    2    0    0  0.84830622395E+00  0.32626730817E+02 -0.35671556753E+03  0.37941834212E+03  0.12508820503E+03 0.  0.
         23    2    1    2    0    0 -0.84830622395E+00 -0.32626730817E+02 -0.16609084046E+03  0.18928384981E+03  0.84717089931E+02 0.  0.
          5    1    3    3  502    0  0.17320069684E+02 -0.31923259340E+02 -0.25596325328E+03  0.25856089946E+03  0.41800000000E+01 0.  1.
         -5    1    3    3    0  502 -0.16471763460E+02  0.64549990157E+02 -0.10075231424E+03  0.12085744266E+03  0.41800000000E+01 0.  1.
        -11    1    4    4    0    0 -0.12502426748E+02 -0.53626977494E+02 -0.64104492370E+02  0.84507688004E+02  0.00000000000E+00 0.  1.
         11    1    4    4    0    0  0.11654120524E+02  0.21000246678E+02 -0.10198634809E+03  0.10477616181E+03  0.00000000000E+00 0. -1.
</event>
<event>
 8    1  0.6684013E-009  0.1428013E+03  0.7561462E-02  0.1209609E+00
          2   -1    0    0  501    0  0.00000000000E+00  0.00000000000E+00  0.11390434436E+03  0.11390434436E+03  0.00000000000E+00 0. -1.
         -2   -1    0    0    0  501 -0.00000000000E+00 -0.00000000000E+00 -0.26955186315E+03  0.26955186315E+03  0.00000000000E+00 0.  1.
         25    2    1    2    0    0  0.40018931903E+02 -0.93602174093E+02  0.19415518126E+02  0.16244011330E+03  0.12508775383E+03 0.  0.
         23    2    1    2    0    0 -0.40018931903E+02  0.93602174093E+02 -0.17506303692E+03  0.22101609421E+03  0.88533412337E+02 0.  0.
          5    1    3    3  502    0 -0.41928704676E+02 -0.39236638829E+02 -0.12591354132E+02  0.58936785638E+02  0.41800000000E+01 0. -1.
         -5    1    3    3    0  502  0.81947636580E+02 -0.54365535263E+02  0.32006872258E+02  0.10350332766E+03  0.41800000000E+01 0. -1.
        -11    1    4    4    0    0  0.24793100513E+02  0.27320838144E+02 -0.24787000358E+02  0.44446838096E+02  0.00000000000E+00 0.  1.
         11    1    4    4    0    0 -0.64812032417E+02  0.66281335949E+02 -0.15027603656E+03  0.17656925611E+03  0.00000000000E+00 0. -1.
</event>
<event>
 8    1  0.6684013E-009  0.7773566E+02  0.7561462E-02  0.1335603E+00
          2   -1    0    0  501    0  0.00000000000E+00  0.00000000000E+00  0.22486787604E+03  0.22486787604E+03  0.00000000000E+00 0. -1.
         -2   -1    0    0    0  501 -0.00000000000E+00 -0.00000000000E+00 -0.98687911310E+02  0.98687911310E+02  0.00000000000E+00 0.  1.
         25    2    1    2    0    0  0.77591086480E+01 -0.51291683082E+02  0.16305410444E+03  0.21195574601E+03  0.12509019455E+03 0.  0.
         23    2    1    2    0    0 -0.77591086480E+01  0.51291683082E+02 -0.36874139710E+02  0.11160004134E+03  0.91672386941E+02 0.  0.
          5    1    3    3  502    0  0.41425876997E+02 -0.15408924871E+02  0.15585219278E+03  0.16205220346E+03  0.41800000000E+01 0. -1.
         -5    1    3    3    0  502 -0.33666768349E+02 -0.35882758211E+02  0.72019116593E+01  0.49903542554E+02  0.41800000000E+01 0. -1.
        -11    1    4    4    0    0  0.46347503384E+01  0.48840848663E+02  0.20264980085E+02  0.53080870629E+02  0.00000000000E+00 0. -1.
         11    1    4    4    0    0 -0.12393858986E+02  0.24508344191E+01 -0.57139119795E+02  0.58519170712E+02  0.00000000000E+00 0.  1.
</event>
<event>
 8    1  0.6684013E-009  0.4582007E+03  0.7561462E-02  0.1025304E+00
         -2   -1    0    0    0  501 -0.00000000000E+00  0.00000000000E+00  0.26587896859E+03  0.26587896859E+03  0.00000000000E+00 0.  1.
          2   -1    0    0  501    0  0.00000000000E+00 -0.00000000000E+00 -0.84156464475E+03  0.84156464475E+03  0.00000000000E+00 0. -1.
         25    2    1    2    0    0  0.33759907482E+03  0.30041673303E+03 -0.39388861395E+03  0.61238900867E+03  0.12509479979E+03 0.  0.
         23    2    1    2    0    0 -0.33759907482E+03 -0.30041673303E+03 -0.18179706220E+03  0.49505460467E+03  0.88348972704E+02 0.  0.
          5    1    3    3  502    0  0.59179378690E+02  0.66707209126E+01 -0.24883864418E+02  0.64679026647E+02  0.41800000000E+01 0. -1.
         -5    1    3    3    0  502  0.27841969613E+03  0.29374601212E+03 -0.36900474953E+03  0.54770998202E+03  0.41800000000E+01 0. -1.
        -11    1    4    4    0    0 -0.25372295456E+03 -0.22927353053E+03 -0.17677425263E+03  0.38495561545E+03  0.00000000000E+00 0. -1.
         11    1    4    4    0    0 -0.83876120264E+02 -0.71143202499E+02 -0.50228095707E+01  0.11009898923E+03  0.00000000000E+00 0.  1.
</event>
<event>
 8    1  0.6684013E-009  0.9801608E+02  0.7561462E-02  0.1284524E+00
         -1   -1    0    0    0  501 -0.00000000000E+00  0.00000000000E+00  0.78757758015E+02  0.78757758015E+02  0.00000000000E+00 0.  1.
          1   -1    0    0  501    0  0.00000000000E+00 -0.00000000000E+00 -0.17144674879E+03  0.17144674879E+03  0.00000000000E+00 0. -1.
         25    2    1    2    0    0 -0.31536842720E+02  0.29549543737E+02 -0.52442107687E+02  0.14235575945E+03  0.12508892679E+03 0.  0.
         23    2    1    2    0    0  0.31536842720E+02 -0.29549543737E+02 -0.40246883085E+02  0.10784874735E+03  0.90242964955E+02 0.  0.
          5    1    3    3  502    0  0.20496566059E+02 -0.19976228366E+02  0.23845528465E+02  0.37486538220E+02  0.41800000000E+01 0. -1.
         -5    1    3    3    0  502 -0.52033408779E+02  0.49525772102E+02 -0.76287636152E+02  0.10486922123E+03  0.41800000000E+01 0. -1.
        -11    1    4    4    0    0  0.98393782331E+01  0.30105501943E+02 -0.29854627770E+02  0.43525319190E+02  0.00000000000E+00 0.  1.
         11    1    4    4    0    0  0.21697464487E+02 -0.59655045680E+02 -0.10392255315E+02  0.64323428164E+02  0.00000000000E+00 0. -1.
</event>
<event>
 8    1  0.6684013E-009  0.1129307E+03  0.7561462E-02  0.1255237E+00
         -3   -1    0    0    0  501 -0.00000000000E+00  0.00000000000E+00  0.18698013113E+03  0.18698013113E+03  0.00000000000E+00 0.  1.
          3   -1    0    0  501    0  0.00000000000E+00 -0.00000000000E+00 -0.82299016899E+02  0.82299016899E+02  0.00000000000E+00 0. -1.
         25    2    1    2    0    0  0.39729635744E+02  0.35517870689E+02  0.84658376662E+02  0.16016888268E+03  0.12508823744E+03 0.  0.
         23    2    1    2    0    0 -0.39729635744E+02 -0.35517870689E+02  0.20022737568E+02  0.10911026535E+03  0.93081560421E+02 0.  0.
          5    1    3    3  502    0 -0.34655551105E+02  0.28947667045E+02 -0.23800891519E+01  0.45410481985E+02  0.41800000000E+01 0.  1.
         -5    1    3    3    0  502  0.74385186850E+02  0.65702036440E+01  0.87038465814E+02  0.11475840069E+03  0.41800000000E+01 0.  1.
        -11    1    4    4    0    0  0.15071092336E+02  0.21747880101E+02  0.13160123767E+02  0.29551598445E+02  0.00000000000E+00 0. -1.
         11    1    4    4    0    0 -0.54800728080E+02 -0.57265750790E+02  0.68626138013E+01  0.79558666906E+02  0.00000000000E+00 0.  1.
</event>
<event>
 8    1  0.6684013E-009  0.4388190E+03  0.7561462E-02  0.1031110E+00
          1   -1    0    0  501    0  0.00000000000E+00  0.00000000000E+00  0.35230790399E+03  0.35230790399E+03  0.00000000000E+00 0. -1.
         -1   -1    0    0    0  501 -0.00000000000E+00 -0.00000000000E+00 -0.57366703425E+03  0.57366703425E+03  0.00000000000E+00 0.  1.
         25    2    1    2    0    0 -0.42975131838E+03 -0.72107417877E+02 -0.97391095628E+02  0.46370676944E+03  0.12511301750E+03 0.  0.
         23    2    1    2    0    0  0.42975131838E+03  0.72107417877E+02 -0.12396803463E+03  0.46226816880E+03  0.91859190645E+02 0.  0.
          5    1    3    3  502    0 -0.10015107333E+03  0.13656045475E+02 -0.67884655458E+02  0.12182989746E+03  0.41800000000E+01 0.  1.
         -5    1    3    3    0  502 -0.32960024505E+03 -0.85763463352E+02 -0.29506440170E+02  0.34187687198E+03  0.41800000000E+01 0.  1.
        -11    1    4    4    0    0  0.10192257811E+03  0.21408123742E+02  0.97573656461E+01  0.10460270491E+03  0.00000000000E+00 0. -1.
         11    1    4    4    0    0  0.32782874028E+03  0.50699294135E+02 -0.13372540028E+03  0.35766546389E+03  0.00000000000E+00 0.  1.
</event>
<event>
 8    1  0.6684013E-009  0.6605507E+02  0.7561462E-02  0.1374046E+00
         -1   -1    0    0    0  501 -0.00000000000E+00  0.00000000000E+00  0.17666502119E+03  0.17666502119E+03  0.00000000000E+00 0.  1.
          1   -1    0    0  501    0  0.00000000000E+00 -0.00000000000E+00 -0.62837470228E+02  0.62837470228E+02  0.00000000000E+00 0. -1.
         25    2    1    2    0    0 -0.14607971060E+02 -0.14377083127E+02  0.76472255648E+02  0.14803848860E+03  0.12508914775E+03 0.  0.
         23    2    1    2    0    0  0.14607971060E+02  0.14377083127E+02  0.37355295313E+02  0.91464002820E+02  0.80933011720E+02 0.  0.
          5    1    3    3  502    0  0.14993986418E+02 -0.20074149398E+02 -0.28831291808E+02  0.38425341769E+02  0.41800000000E+01 0.  1.
         -5    1    3    3    0  502 -0.29601957478E+02  0.56970662707E+01  0.10530354746E+03  0.10961314683E+03  0.41800000000E+01 0.  1.
        -11    1    4    4    0    0  0.67656100297E+01 -0.30232772642E+02 -0.25679577402E+01  0.31086788635E+02  0.00000000000E+00 0. -1.
         11    1    4    4    0    0  0.78423610301E+01  0.44609855769E+02  0.39923253053E+02  0.60377214184E+02  0.00000000000E+00 0.  1.
</event>
<event>
 8    1  0.6684013E-009  0.1336402E+03  0.7561462E-02  0.1222152E+00
         -2   -1    0    0    0  501 -0.00000000000E+00  0.00000000000E+00  0.11444397990E+03  0.11444397990E+03  0.00000000000E+00 0.  1.
          2   -1    0    0  501    0  0.00000000000E+00 -0.00000000000E+00 -0.29974191221E+03  0.29974191221E+03  0.00000000000E+00 0. -1.
         25    2    1    2    0    0 -0.81086776253E+02 -0.29443452791E+02 -0.23347346050E+03  0.27856875443E+03  0.12509481200E+03 0.  0.
         23    2    1    2    0    0  0.81086776253E+02  0.29443452791E+02  0.48175528187E+02  0.13561713768E+03  0.92893187707E+02 0.  0.
          5    1    3    3  502    0 -0.87324535096E+02  0.28855506646E+02 -0.12570581213E+03  0.15581283098E+03  0.41800000000E+01 0.  1.
         -5    1    3    3    0  502  0.62377588431E+01 -0.58298959437E+02 -0.10776764837E+03  0.12275592345E+03  0.41800000000E+01 0.  1.
        -11    1    4    4    0    0  0.39302554049E+02  0.54892590758E+02  0.53859341402E+02  0.86363857783E+02  0.00000000000E+00 0.  1.
         11    1    4    4    0    0  0.41784222204E+02 -0.25449137967E+02 -0.56838132143E+01  0.49253279902E+02  0.00000000000E+00 0. -1.
</event>
<event>
 8    1  0.6684013E-009  0.1382641E+03  0.7561462E-02  0.1215684E+00
          2   -1    0    0  501    0  0.00000000000E+00  0.00000000000E+00  0.10734533965E+03  0.10734533965E+03  0.00000000000E+00 0. -1.
         -2   -1    0    0    0  501 -0.00000000000E+00 -0.00000000000E+00 -0.22305295023E+03  0.22305295023E+03  0.00000000000E+00 0.  1.
         25    2    1    2    0    0 -0.34787255641E+02 -0.98645222208E+02 -0.29126462783E+02  0.16563935056E+03  0.12508801142E+03 0.  0.
         23    2    1    2    0    0  0.34787255641E+02  0.98645222208E+02 -0.86581147798E+02  0.16475893931E+03  0.93317629151E+02 0.  0.
          5    1    3    3  502    0 -0.68911858555E+02 -0.12320742058E+02 -0.11599176816E+02  0.71082052849E+02  0.41800000000E+01 0.  1.
         -5    1    3    3    0  502  0.34124602914E+02 -0.86324480149E+02 -0.17527285967E+02  0.94557297711E+02  0.41800000000E+01 0.  1.
        -11    1    4    4    0    0 -0.10553098613E+02  0.15058436537E+02 -0.64590914443E+02  0.67157357228E+02  0.00000000000E+00 0.  1.
         11    1    4    4    0    0  0.45340354254E+02  0.83586785670E+02 -0.21990233354E+02  0.97601582085E+02  0.00000000000E+00 0. -1.
</event>
<event>
 8    1  0.6684013E-009  0.1298198E+03  0.7561462E-02  0.1227723E+00
          2   -1    0    0  501    0  0.00000000000E+00  0.00000000000E+00  0.49249743676E+03  0.49249743676E+03  0.00000000000E+00 0.  1.
         -2   -1    0    0    0  501 -0.00000000000E+00 -0.00000000000E+00 -0.35521519578E+02  0.35521519578E+02  0.00000000000E+00 0. -1.
         25    2    1    2    0    0  0.75456834940E+02 -0.94247469934E+01  0.25808787546E+03  0.29671522664E+03  0.12509202398E+03 0.  0.
         23    2    1    2    0    0 -0.75456834940E+02  0.94247469934E+01  0.19888804173E+03  0.23130372970E+03  0.90346015066E+02 0.  0.
          5    1    3    3  502    0  0.82104085898E+02  0.43395820710E+02  0.16679071453E+03  0.19094735670E+03  0.41800000000E+01 0. -1.
         -5    1    3    3    0  502 -0.66472509584E+01 -0.52820567703E+02  0.91297160928E+02  0.10576786994E+03  0.41800000000E+01 0. -1.
        -11    1    4    4    0    0 -0.18902000394E+02  0.43375204939E+02  0.11664564343E+03  0.12587652742E+03  0.00000000000E+00 0. -1.
         11    1    4    4    0    0 -0.56554834546E+02 -0.33950457946E+02  0.82242398293E+02  0.10542720229E+03  0.00000000000E+00 0.  1.
</event>
<event>
 8    1  0.6684013E-009  0.2178523E+03  0.7561462E-02  0.1135494E+00
         -1   -1    0    0    0  501 -0.00000000000E+00  0.00000000000E+00  0.58287352375E+02  0.58287352375E+02  0.00000000000E+00 0.  1.
          1   -1    0    0  501    0  0.00000000000E+00 -0.00000000000E+00 -0.89686202906E+03  0.89686202906E+03  0.00000000000E+00 0. -1.
         25    2    1    2    0    0  0.18410616897E+03  0.76109146598E+02 -0.38745472195E+03  0.45327533580E+03  0.12509870037E+03 0.  0.
         23    2    1    2    0    0 -0.18410616897E+03 -0.76109146598E+02 -0.45111995473E+03  0.50187404563E+03  0.93170062104E+02 0.  0.
          5    1    3    3  502    0  0.19177367283E+03  0.58594571096E+02 -0.28219025593E+03  0.34620698765E+03  0.41800000000E+01 0. -1.
         -5    1    3    3    0  502 -0.76675038561E+01  0.17514575502E+02 -0.10526446602E+03  0.10706834815E+03  0.41800000000E+01 0. -1.
        -11    1    4    4    0    0 -0.79204814102E+02 -0.77275503694E+02 -0.18161764757E+03  0.21267316699E+03  0.00000000000E+00 0.  1.
         11    1    4    4    0    0 -0.10490135487E+03  0.11663570960E+01 -0.26950230717E+03  0.28920087865E+03  0.00000000000E+00 0. -1.
</event>
<event>
 8    1  0.6684013E-009  0.1086440E+03  0.7561462E-02  0.1263102E+00
         -1   -1    0    0    0  501 -0.00000000000E+00  0.00000000000E+00  0.35447759860E+02  0.35447759860E+02  0.00000000000E+00 0.  1.
          1   -1    0    0  501    0  0.00000000000E+00 -0.00000000000E+00 -0.36761364637E+03  0.36761364637E+03  0.00000000000E+00 0. -1.
         25    2    1    2    0    0 -0.92735271953E+01  0.35097971148E+02 -0.20967525352E+03  0.24683839575E+03  0.12509043045E+03 0.  0.
         23    2    1    2    0    0  0.92735271953E+01 -0.35097971148E+02 -0.12249063299E+03  0.15622301048E+03  0.89909999159E+02 0.  0.
          5    1    3    3  502    0  0.38004752705E+02  0.58016290470E+02 -0.15989833276E+03  0.17434219342E+03  0.41800000000E+01 0.  1.
         -5    1    3    3    0  502 -0.47278279900E+02 -0.22918319323E+02 -0.49776920757E+02  0.72496202321E+02  0.41800000000E+01 0.  1.
        -11    1    4    4    0    0 -0.21910717968E+02  0.21361602183E+02 -0.25970132074E+02  0.40135338165E+02  0.00000000000E+00 0.  1.
         11    1    4    4    0    0  0.31184245163E+02 -0.56459573331E+02 -0.96520500912E+02  0.11608767231E+03  0.00000000000E+00 0. -1.
</event>
<event>
 8    1  0.6684013E-009  0.9752752E+02  0.7561462E-02  0.1285583E+00
         -3   -1    0    0    0  501 -0.00000000000E+00  0.00000000000E+00  0.76798362041E+02  0.76798362041E+02  0.00000000000E+00 0.  1.
          3   -1    0    0  501    0  0.00000000000E+00 -0.00000000000E+00 -0.21912732800E+03  0.21912732800E+03  0.00000000000E+00 0. -1.
         25    2    1    2    0    0 -0.50590951361E+01  0.40281439254E+02 -0.10769413552E+03  0.16998354691E+03  0.12509272802E+03 0.  0.
         23    2    1    2    0    0  0.50590951361E+01 -0.40281439254E+02 -0.34634830445E+02  0.12594214313E+03  0.11407744363E+03 0.  0.
          5    1    3    3  502    0  0.77269098849E+01  0.84383967813E+02 -0.77172277663E+02  0.11468823828E+03  0.41800000000E+01 0. -1.
         -5    1    3    3    0  502 -0.12786005021E+02 -0.44102528560E+02 -0.30521857853E+02  0.55295308630E+02  0.41800000000E+01 0. -1.
        -11    1    4    4    0    0 -0.22348996459E+02 -0.20250739608E+02  0.36365037018E+02  0.47243899233E+02  0.00000000000E+00 0.  1.
         11    1    4    4    0    0  0.27408091595E+02 -0.20030699645E+02 -0.70999867463E+02  0.78698243900E+02  0.00000000000E+00 0. -1.
</event>
<event>
 8    1  0.6684013E-009  0.9308666E+02  0.7561462E-02  0.1295544E+00
          2   -1    0    0  501    0  0.00000000000E+00  0.00000000000E+00  0.21423820411E+03  0.21423820411E+03  0.00000000000E+00 0.  1.
         -2   -1    0    0    0  501 -0.00000000000E+00 -0.00000000000E+00 -0.73531112615E+02  0.73531112615E+02  0.00000000000E+00 0. -1.
         25    2    1    2    0    0  0.55294272798E+02 -0.40593382620E+01  0.37381776111E+02  0.14183982519E+03  0.12508878445E+03 0.  0.
         23    2    1    2    0    0 -0.55294272798E+02  0.40593382620E+01  0.10332531539E+03  0.14592949153E+03  0.86864036682E+02 0.  0.
          5    1    3    3  502    0  0.28714203597E+02 -0.40946912586E+02  0.69709608769E+02  0.85895617427E+02  0.41800000000E+01 0. -1.
         -5    1    3    3    0  502  0.26580069201E+02  0.36887574324E+02 -0.32327832657E+02  0.55944207766E+02  0.41800000000E+01 0. -1.
        -11    1    4    4    0    0 -0.61569388108E+02  0.26498239580E+02  0.39080707564E+02  0.77590256840E+02  0.00000000000E+00 0. -1.
         11    1    4    4    0    0  0.62751153102E+01 -0.22438901318E+02  0.64244607821E+02  0.68339234694E+02  0.00000000000E+00 0.  1.
</event>
<event>
 8    1  0.6684013E-009  0.9296331E+02  0.7561462E-02  0.1295830E+00
         -1   -1    0    0    0  501 -0.00000000000E+00  0.00000000000E+00  0.10584597200E+02  0.10584597200E+02  0.00000000000E+00 0.  1.
          1   -1    0    0  501    0  0.00000000000E+00 -0.00000000000E+00 -0.11027143393E+04  0.11027143393E+04  0.00000000000E+00 0. -1.
         25    2    1    2    0    0  0.16587210001E+01  0.32154401067E+01 -0.65167662285E+03  0.66358345950E+03  0.12508995381E+03 0.  0.
         23    2    1    2    0    0 -0.16587210001E+01 -0.32154401067E+01 -0.44045311925E+03  0.44971547700E+03  0.90730202161E+02 0.  0.
          5    1    3    3  502    0 -0.34221535223E+02 -0.30486189571E+02 -0.10454955279E+03  0.11423048024E+03  0.41800000000E+01 0. -1.
         -5    1    3    3    0  502  0.35880256223E+02  0.33701629677E+02 -0.54712707006E+03  0.54935297926E+03  0.41800000000E+01 0. -1.
        -11    1    4    4    0    0 -0.36829918319E+02 -0.29012146941E+02 -0.20985903433E+03  0.21503246695E+03  0.00000000000E+00 0. -1.
         11    1    4    4    0    0  0.35171197319E+02  0.25796706834E+02 -0.23059408492E+03  0.23468301004E+03  0.00000000000E+00 0.  1.
</event>
<event>
 8    1  0.6684013E-009  0.1109376E+03  0.7561462E-02  0.1258843E+00
          1   -1    0    0  501    0  0.00000000000E+00  0.00000000000E+00  0.44530994471E+03  0.44530994471E+03  0.00000000000E+00 0. -1.
         -1   -1    0    0    0  501 -0.00000000000E+00 -0.00000000000E+00 -0.35035848074E+02  0.35035848074E+02  0.00000000000E+00 0.  1.
         25    2    1    2    0    0  0.36791103629E+02 -0.29711856231E+02  0.15643913346E+03  0.20580749384E+03  0.12508853799E+03 0.  0.
         23    2    1    2    0    0 -0.36791103629E+02  0.29711856231E+02  0.25383496318E+03  0.27453829895E+03  0.93288313036E+02 0.  0.
          5    1    3    3  502    0  0.73635960376E+02 -0.54889448993E+01  0.46703596195E+02  0.87470460581E+02  0.41800000000E+01 0.  1.
         -5    1    3    3    0  502 -0.36844856747E+02 -0.24222911331E+02  0.10973553726E+03  0.11833703326E+03  0.41800000000E+01 0.  1.
        -11    1    4    4    0    0  0.25511082168E+02  0.32432183149E+02  0.11977513030E+03  0.12668363610E+03  0.00000000000E+00 0. -1.
         11    1    4    4    0    0 -0.62302185797E+02 -0.27203269182E+01  0.13405983288E+03  0.14785466285E+03  0.00000000000E+00 0.  1.
</event>
<event>
 8    1  0.6684013E-009  0.1050283E+03  0.7561462E-02  0.1270064E+00
         -3   -1    0    0    0  501 -0.00000000000E+00  0.00000000000E+00  0.14476673760E+03  0.14476673760E+03  0.00000000000E+00 0.  1.
          3   -1    0    0  501    0  0.00000000000E+00 -0.00000000000E+00 -0.10272325020E+03  0.10272325020E+03  0.00000000000E+00 0. -1.
         25    2    1    2    0    0 -0.33236247591E+02 -0.36150125397E+02  0.27190735702E+01  0.13441266381E+03  0.12509153093E+03 0.  0.
         23    2    1    2    0    0  0.33236247591E+02  0.36150125397E+02  0.39324413832E+02  0.11307732399E+03  0.93960587259E+02 0.  0.
          5    1    3    3  502    0 -0.50435240677E+02 -0.58115337236E+02  0.40662433403E+02  0.87132151439E+02  0.41800000000E+01 0. -1.
         -5    1    3    3    0  502  0.17198993086E+02  0.21965211839E+02 -0.37943359833E+02  0.47280512367E+02  0.41800000000E+01 0. -1.
        -11    1    4    4    0    0 -0.31160184458E+02  0.46756413950E+00  0.39987072878E+01  0.31419187954E+02  0.00000000000E+00 0.  1.
         11    1    4    4    0    0  0.64396432049E+02  0.35682561258E+02  0.35325706544E+02  0.81658136039E+02  0.00000000000E+00 0. -1.
</event>
<event>
 8    1  0.6684013E-009  0.1140165E+03  0.7561462E-02  0.1253308E+00
         -1   -1    0    0    0  501 -0.00000000000E+00  0.00000000000E+00  0.12180424138E+03  0.12180424138E+03  0.00000000000E+00 0.  1.
          1   -1    0    0  501    0  0.00000000000E+00 -0.00000000000E+00 -0.12854106107E+03  0.12854106107E+03  0.00000000000E+00 0. -1.
         25    2    1    2    0    0 -0.47328327661E+02  0.35422361609E+02  0.52311630472E+01  0.13845507906E+03  0.12509088516E+03 0.  0.
         23    2    1    2    0    0  0.47328327661E+02 -0.35422361609E+02 -0.11967982732E+02  0.11189022339E+03  0.94241578823E+02 0.  0.
          5    1    3    3  502    0 -0.80895100353E+02  0.42205015742E+02 -0.22641617246E+02  0.94103112842E+02  0.41800000000E+01 0. -1.
         -5    1    3    3    0  502  0.33566772692E+02 -0.67826541335E+01  0.27872780293E+02  0.44351966217E+02  0.41800000000E+01 0. -1.
        -11    1    4    4    0    0 -0.14020010446E+02 -0.38293689868E+02  0.16758231702E+02  0.44088611980E+02  0.00000000000E+00 0.  1.
         11    1    4    4    0    0  0.61348338107E+02  0.28713282587E+01 -0.28726214434E+02  0.67801611413E+02  0.00000000000E+00 0. -1.
</event>
<event>
 8    1  0.6684013E-009  0.8903408E+02  0.7561462E-02  0.1305208E+00
         -1   -1    0    0    0  501 -0.00000000000E+00  0.00000000000E+00  0.14595976022E+03  0.14595976022E+03  0.00000000000E+00 0.  1.
          1   -1    0    0  501    0  0.00000000000E+00 -0.00000000000E+00 -0.12928638896E+03  0.12928638896E+03  0.00000000000E+00 0. -1.
         25    2    1    2    0    0 -0.64035112239E+02  0.41385836103E+02  0.46425784956E+02  0.15368171603E+03  0.12509769504E+03 0.  0.
         23    2    1    2    0    0  0.64035112239E+02 -0.41385836103E+02 -0.29752413702E+02  0.12156443315E+03  0.89885606498E+02 0.  0.
          5    1    3    3  502    0 -0.61619743033E+02  0.19284367295E+02 -0.31911309781E+02  0.72143493437E+02  0.41800000000E+01 0.  1.
         -5    1    3    3    0  502 -0.24153692066E+01  0.22101468808E+02  0.78337094737E+02  0.81538222594E+02  0.41800000000E+01 0.  1.
        -11    1    4    4    0    0  0.10729214495E+02  0.11448549998E+02 -0.42619742052E+02  0.45416161807E+02  0.00000000000E+00 0. -1.
         11    1    4    4    0    0  0.53305897745E+02 -0.52834386100E+02  0.12867328351E+02  0.76148271338E+02  0.00000000000E+00 0.  1.
</event>
<event>
 7    1  0.6684013E-009  0.1189216E+03  0.7561462E-02  0.1244887E+00
          2   -1    0    0  501    0  0.00000000000E+00  0.00000000000E+00  0.19322893731E+03  0.19322893731E+03  0.00000000000E+00 0. -1.
         -2   -1    0    0    0  501 -0.00000000000E+00 -0.00000000000E+00 -0.99511441343E+02  0.99511441343E+02  0.00000000000E+00 0.  1.
         23    2    1    2    0    0 -0.71244777509E+02 -0.11136790285E+01 -0.65300174649E+01  0.11724989164E+03  0.92886152673E+02 0.  0.
          5    1    1    2  502    0  0.46877444176E+00  0.43277559558E+02  0.79211654946E+02  0.90361084490E+02  0.41800000000E+01 0.  1.
         -5    1    1    2    0  502  0.70776003067E+02 -0.42163880530E+02  0.21035858485E+02  0.85129402521E+02  0.41800000000E+01 0.  1.
        -11    1    3    3    0    0 -0.90858433338E+02  0.58811260864E+01 -0.18955551866E+02  0.93000836014E+02  0.00000000000E+00 0. -1.
         11    1    3    3    0    0  0.19613655830E+02 -0.69948051149E+01  0.12425534401E+02  0.24249055626E+02  0.00000000000E+00 0.  1.
</event>
<event>
 8    1  0.6684013E-009  0.1173100E+03  0.7561462E-02  0.1247602E+00
          3   -1    0    0  501    0  0.00000000000E+00  0.00000000000E+00  0.98917574481E+02  0.98917574481E+02  0.00000000000E+00 0. -1.
         -3   -1    0    0    0  501 -0.00000000000E+00 -0.00000000000E+00 -0.17777170481E+03  0.17777170481E+03  0.00000000000E+00 0.  1.
         25    2    1    2    0    0  0.73974104298E+02 -0.16624960849E+02 -0.30544251658E+02  0.14947309556E+03  0.12514270876E+03 0.  0.
         23    2    1    2    0    0 -0.73974104298E+02  0.16624960849E+02 -0.48309878673E+02  0.12721618373E+03  0.90008641790E+02 0.  0.
          5    1    3    3  502    0  0.10832147652E+03 -0.24790121431E+01 -0.28100692835E+02  0.11201253999E+03  0.41800000000E+01 0. -1.
         -5    1    3    3    0  502 -0.34347372226E+02 -0.14145948706E+02 -0.24435588225E+01  0.37460555566E+02  0.41800000000E+01 0. -1.
        -11    1    4    4    0    0 -0.10984723656E+02  0.23009042837E+02 -0.57821698644E+02  0.63193583853E+02  0.00000000000E+00 0.  1.
         11    1    4    4    0    0 -0.62989380642E+02 -0.63840819880E+01  0.95118199717E+01  0.64022599882E+02  0.00000000000E+00 0. -1.
</event>
<event>
 8    1  0.6684013E-009  0.1182906E+03  0.7561462E-02  0.1245944E+00
          4   -1    0    0  501    0  0.00000000000E+00  0.00000000000E+00  0.14035781128E+03  0.14035781128E+03  0.00000000000E+00 0.  1.
         -4   -1    0    0    0  501 -0.00000000000E+00 -0.00000000000E+00 -0.13581079193E+03  0.13581079193E+03  0.00000000000E+00 0. -1.
         25    2    1    2    0    0  0.59102823557E+02  0.54403806206E+02 -0.23425200709E+02  0.15049552642E+03  0.12508895060E+03 0.  0.
         23    2    1    2    0    0 -0.59102823557E+02 -0.54403806206E+02  0.27972220062E+02  0.12567307679E+03  0.92511400657E+02 0.  0.
          5    1    3    3  502    0  0.33272999905E+02 -0.35957935725E+02  0.10887256631E+02  0.50359412439E+02  0.41800000000E+01 0. -1.
         -5    1    3    3    0  502  0.25829823652E+02  0.90361741931E+02 -0.34312457340E+02  0.10013611398E+03  0.41800000000E+01 0. -1.
        -11    1    4    4    0    0 -0.37663349514E+02 -0.60306701769E+02  0.55562859070E+02  0.90236674822E+02  0.00000000000E+00 0.  1.
         11    1    4    4    0    0 -0.21439474043E+02  0.59028955632E+01 -0.27590639008E+02  0.35436401964E+02  0.00000000000E+00 0. -1.
</event>
<event>
 8    1  0.6684013E-009  0.1083379E+03  0.7561462E-02  0.1263679E+00
          3   -1    0    0  501    0  0.00000000000E+00  0.00000000000E+00  0.10767898299E+03  0.10767898299E+03  0.00000000000E+00 0. -1.
         -3   -1    0    0    0  501 -0.00000000000E+00 -0.00000000000E+00 -0.11519679226E+03  0.11519679226E+03  0.00000000000E+00 0.  1.
         25    2    1    2    0    0  0.27328785882E+01 -0.28161221822E+02 -0.99553815252E+01  0.12863581885E+03  0.12509013243E+03 0.  0.
         23    2    1    2    0    0 -0.27328785882E+01  0.28161221822E+02  0.24375722532E+01  0.94239956398E+02  0.89859360022E+02 0.  0.
          5    1    3    3  502    0  0.62097047177E+02 -0.17744674713E+02  0.89439088572E+01  0.65332860448E+02  0.41800000000E+01 0.  1.
         -5    1    3    3    0  502 -0.59364168588E+02 -0.10416547109E+02 -0.18899290382E+02  0.63302958405E+02  0.41800000000E+01 0.  1.
        -11    1    4    4    0    0  0.34546200135E+02  0.39596747966E+02  0.12404481023E+02  0.53992717497E+02  0.00000000000E+00 0. -1.
         11    1    4    4    0    0 -0.37279078724E+02 -0.11435526144E+02 -0.99669087695E+01  0.40247238900E+02  0.00000000000E+00 0.  1.
</event>
<event>
 8    1  0.6684013E-009  0.1370191E+03  0.7561462E-02  0.1217397E+00
         -2   -1    0    0    0  501 -0.00000000000E+00  0.00000000000E+00  0.64722184692E+02  0.64722184692E+02  0.00000000000E+00 0.  1.
          2   -1    0    0  501    0  0.00000000000E+00 -0.00000000000E+00 -0.35403508221E+03  0.35403508221E+03  0.00000000000E+00 0. -1.
         25    2    1    2    0    0 -0.44902871106E+01  0.10178453655E+03 -0.19244784601E+03  0.25112407606E+03  0.12508746373E+03 0.  0.
         23    2    1    2    0    0  0.44902871106E+01 -0.10178453655E+03 -0.96865051502E+02  0.16763319084E+03  0.91311521229E+02 0.  0.
          5    1    3    3  502    0 -0.38579832194E+02  0.11629004058E+03 -0.13237846387E+03  0.18042535045E+03  0.41800000000E+01 0.  1.
         -5    1    3    3    0  502  0.34089545084E+02 -0.14505504029E+02 -0.60069382145E+02  0.70698725607E+02  0.41800000000E+01 0.  1.
        -11    1    4    4    0    0  0.98778350641E+01  0.21325088200E+01  0.12898487302E+02  0.16385670389E+02  0.00000000000E+00 0.  1.
         11    1    4    4    0    0 -0.53875479534E+01 -0.10391704537E+03 -0.10976353880E+03  0.15124752045E+03  0.00000000000E+00 0. -1.
</event>
<event>
 8    1  0.6684013E-009  0.1064864E+03  0.7561462E-02  0.1267218E+00
          1   -1    0    0  501    0  0.00000000000E+00  0.00000000000E+00  0.18017773680E+04  0.18017773680E+04  0.00000000000E+00 0. -1.
         -1   -1    0    0    0  501 -0.00000000000E+00 -0.00000000000E+00 -0.26105832352E+02  0.26105832352E+02  0.00000000000E+00 0.  1.
         25    2    1    2    0    0 -0.74821303160E+02 -0.52516254510E+00  0.16477895191E+04  0.16542240505E+04  0.12509359145E+03 0.  0.
         23    2    1    2    0    0  0.74821303160E+02  0.52516254510E+00  0.12788201650E+03  0.17365914986E+03  0.90582487175E+02 0.  0.
          5    1    3    3  502    0 -0.38717135998E+02  0.33951155838E+02  0.14222460613E+04  0.14231841163E+04  0.41800000000E+01 0. -1.
         -5    1    3    3    0  502 -0.36104167161E+02 -0.34476318383E+02  0.22554345786E+03  0.23103993421E+03  0.41800000000E+01 0. -1.
        -11    1    4    4    0    0  0.92909338857E+02 -0.21137789505E+01  0.80778801607E+02  0.12313337524E+03  0.00000000000E+00 0.  1.
         11    1    4    4    0    0 -0.18088035698E+02  0.26389414956E+01  0.47103214896E+02  0.50525774622E+02  0.00000000000E+00 0. -1.
</event>
<event>
 8    1  0.6684013E-009  0.2700239E+03  0.7561462E-02  0.1101266E+00
         -2   -1    0    0    0  501 -0.00000000000E+00  0.00000000000E+00  0.26027867052E+03  0.26027867052E+03  0.00000000000E+00 0.  1.
          2   -1    0    0  501    0  0.00000000000E+00 -0.00000000000E+00 -0.35655573821E+03  0.35655573821E+03  0.00000000000E+00 0. -1.
         25    2    1    2    0    0 -0.20562380628E+03  0.15297303762E+03  0.74703079986E+02  0.29480427999E+03  0.12508842231E+03 0.  0.
         23    2    1    2    0    0  0.20562380628E+03 -0.15297303762E+03 -0.17098014768E+03  0.32203012874E+03  0.93740562036E+02 0.  0.
          5    1    3    3  502    0 -0.56232689569E+02  0.13858347922E+01  0.58584530110E+02  0.81324384304E+02  0.41800000000E+01 0.  1.
         -5    1    3    3    0  502 -0.14939111671E+03  0.15158720282E+03  0.16118549876E+02  0.21347989568E+03  0.41800000000E+01 0.  1.
        -11    1    4    4    0    0  0.13227514650E+03 -0.43976213161E+02 -0.10799525429E+03  0.17633376493E+03  0.00000000000E+00 0.  1.
         11    1    4    4    0    0  0.73348659777E+02 -0.10899682446E+03 -0.62984893398E+02  0.14569636381E+03  0.00000000000E+00 0. -1.
</event>
<event>
 8    1  0.6684013E-009  0.2365715E+03  0.7561462E-02  0.1122098E+00
         -1   -1    0    0    0  501 -0.00000000000E+00  0.00000000000E+00  0.81929631009E+02  0.81929631009E+02  0.00000000000E+00 0.  1.
          1   -1    0    0  501    0  0.00000000000E+00 -0.00000000000E+00 -0.82927767887E+03  0.82927767887E+03  0.00000000000E+00 0. -1.
         25    2    1    2    0    0  0.10799833229E+03 -0.19305091724E+03 -0.53126343099E+03  0.58891457074E+03  0.12508893673E+03 0.  0.
         23    2    1    2    0    0 -0.10799833229E+03  0.19305091724E+03 -0.21608461687E+03  0.32229273914E+03  0.90817132898E+02 0.  0.
          5    1    3    3  502    0  0.11911742953E+03 -0.16347599529E+03 -0.51461870519E+03  0.55295863063E+03  0.41800000000E+01 0.  1.
         -5    1    3    3    0  502 -0.11119097241E+02 -0.29574921958E+02 -0.16644725800E+02  0.35955940110E+02  0.41800000000E+01 0.  1.
        -11    1    4    4    0    0  0.55792729179E+01  0.74761495608E+02 -0.73412712969E+02  0.10492776533E+03  0.00000000000E+00 0. -1.
         11    1    4    4    0    0 -0.11357760521E+03  0.11828942164E+03 -0.14267190390E+03  0.21736497381E+03  0.00000000000E+00 0.  1.
</event>
<event>
 8    1  0.6684013E-009  0.1702903E+03  0.7561462E-02  0.1177545E+00
          3   -1    0    0  501    0  0.00000000000E+00  0.00000000000E+00  0.56820077666E+02  0.56820077666E+02  0.00000000000E+00 0. -1.
         -3   -1    0    0    0  501 -0.00000000000E+00 -0.00000000000E+00 -0.54456534596E+03  0.54456534596E+03  0.00000000000E+00 0.  1.
         25    2    1    2    0    0  0.13351139616E+03  0.74417778949E+01 -0.19915574286E+03  0.27053806674E+03  0.12508861931E+03 0.  0.
         23    2    1    2    0    0 -0.13351139616E+03 -0.74417778949E+01 -0.28858952543E+03  0.33084735689E+03  0.91079011879E+02 0.  0.
          5    1    3    3  502    0 -0.19707291826E+02  0.21153610456E+02 -0.32616577861E+02  0.43785455780E+02  0.41800000000E+01 0.  1.
         -5    1    3    3    0  502  0.15321868798E+03 -0.13711832561E+02 -0.16653916500E+03  0.22675261096E+03  0.41800000000E+01 0.  1.
        -11    1    4    4    0    0 -0.86817402526E+02 -0.44787730007E+02 -0.14032455080E+03  0.17098006228E+03  0.00000000000E+00 0. -1.
         11    1    4    4    0    0 -0.46693993633E+02  0.37345952112E+02 -0.14826497463E+03  0.15986729460E+03  0.00000000000E+00 0.  1.
</event>
<event>
 8    1  0.6684013E-009  0.2412836E+03  0.7561462E-02  0.1118941E+00
          2   -1    0    0  501    0  0.00000000000E+00  0.00000000000E+00  0.98389384430E+03  0.98389384430E+03  0.00000000000E+00 0. -1.
         -2   -1    0    0    0  501 -0.00000000000E+00 -0.00000000000E+00 -0.66937668268E+02  0.66937668268E+02  0.00000000000E+00 0.  1.
         25    2    1    2    0    0  0.18803711072E+03  0.12677183765E+03  0.37191125100E+03  0.45320473058E+03  0.12508994913E+03 0.  0.
         23    2    1    2    0    0 -0.18803711072E+03 -0.12677183765E+03  0.54504492503E+03  0.59762678198E+03  0.93030889536E+02 0.  0.
          5    1    3    3  502    0 -0.15623778443E+02  0.13805988356E+02  0.11779525758E+02  0.24309203903E+02  0.41800000000E+01 0.  1.
         -5    1    3    3    0  502  0.20366088917E+03  0.11296584929E+03  0.36013172524E+03  0.42889552668E+03  0.41800000000E+01 0.  1.
        -11    1    4    4    0    0 -0.59089383656E+02 -0.25259536919E+02  0.69955149769E+02  0.94991170355E+02  0.00000000000E+00 0.  1.
         11    1    4    4    0    0 -0.12894772707E+03 -0.10151230073E+03  0.47508977526E+03  0.50263561163E+03  0.00000000000E+00 0. -1.
</event>
<event>
 8    1  0.6684013E-009  0.1407506E+03  0.7561462E-02  0.1212323E+00
          2   -1    0    0  501    0  0.00000000000E+00  0.00000000000E+00  0.93559854259E+03  0.93559854259E+03  0.00000000000E+00 0. -1.
         -2   -1    0    0    0  501 -0.00000000000E+00 -0.00000000000E+00 -0.22534477464E+02  0.22534477464E+02  0.00000000000E+00 0.  1.
         25    2    1    2    0    0  0.44224216666E+02  0.84462100926E+02  0.53011145428E+03  0.55295130382E+03  0.12508941842E+03 0.  0.
         23    2    1    2    0    0 -0.44224216666E+02 -0.84462100926E+02  0.38295261084E+03  0.40518171623E+03  0.91814449769E+02 0.  0.
          5    1    3    3  502    0 -0.42680387407E+02  0.17009900008E+02  0.12878340759E+03  0.13679762658E+03  0.41800000000E+01 0. -1.
         -5    1    3    3    0  502  0.86904604073E+02  0.67452200918E+02  0.40132804670E+03  0.41615367724E+03  0.41800000000E+01 0. -1.
        -11    1    4    4    0    0 -0.21021253887E+02  0.13249319220E+02  0.34310564879E+02  0.42363338361E+02  0.00000000000E+00 0.  1.
         11    1    4    4    0    0 -0.23202962779E+02 -0.97711420145E+02  0.34864204596E+03  0.36281837787E+03  0.00000000000E+00 0. -1.
</event>
<event>
 8    1  0.6684013E-009  0.9248112E+02  0.7561462E-02  0.1296952E+00
         -1   -1    0    0    0  501 -0.00000000000E+00  0.00000000000E+00  0.29981412473E+02  0.29981412473E+02  0.00000000000E+00 0.  1.
          1   -1    0    0  501    0  0.00000000000E+00 -0.00000000000E+00 -0.57953816579E+03  0.57953816579E+03  0.00000000000E+00 0. -1.
         25    2    1    2    0    0  0.32252620654E+01  0.66199204718E+02 -0.22417843155E+03  0.26513478974E+03  0.12509096904E+03 0.  0.
         23    2    1    2    0    0 -0.32252620654E+01 -0.66199204718E+02 -0.32537832177E+03  0.34438478853E+03  0.91307684630E+02 0.  0.
          5    1    3    3  502    0  0.20831210244E+02 -0.71952046934E+01 -0.17158844796E+03  0.17304848501E+03  0.41800000000E+01 0.  1.
         -5    1    3    3    0  502 -0.17605948178E+02  0.73394409412E+02 -0.52589983591E+02  0.92086304727E+02  0.41800000000E+01 0.  1.
        -11    1    4    4    0    0  0.18365097239E+02 -0.11515694932E+01 -0.86626390541E+01  0.20338245359E+02  0.00000000000E+00 0.  1.
         11    1    4    4    0    0 -0.21590359304E+02 -0.65047635225E+02 -0.31671568271E+03  0.32404654317E+03  0.00000000000E+00 0. -1.
</event>
<event>
 8    1  0.6684013E-009  0.9470987E+02  0.7561462E-02  0.1291831E+00
          1   -1    0    0  501    0  0.00000000000E+00  0.00000000000E+00  0.12417275246E+03  0.12417275246E+03  0.00000000000E+00 0. -1.
         -1   -1    0    0    0  501 -0.00000000000E+00 -0.00000000000E+00 -0.13231003080E+03  0.13231003080E+03  0.00000000000E+00 0.  1.
         25    2    1    2    0    0 -0.20542560274E+02 -0.51992837358E+02 -0.42757045600E+02  0.14353332079E+03  0.12509355422E+03 0.  0.
         23    2    1    2    0    0  0.20542560274E+02  0.51992837358E+02  0.34619767259E+02  0.11294946246E+03  0.91835727616E+02 0.  0.
          5    1    3    3  502    0 -0.35171191519E+02 -0.59617044769E+02  0.24968247942E+02  0.73702717352E+02  0.41800000000E+01 0.  1.
         -5    1    3    3    0  502  0.14628631245E+02  0.76242074104E+01 -0.67725293542E+02  0.69830603435E+02  0.41800000000E+01 0.  1.
        -11    1    4    4    0    0 -0.27908957342E+02 -0.48927440935E+01  0.24665462985E+02  0.37566393345E+02  0.00000000000E+00 0. -1.
         11    1    4    4    0    0  0.48451517615E+02  0.56885581452E+02  0.99543042734E+01  0.75383069120E+02  0.00000000000E+00 0.  1.
</event>
<event>
 8    1  0.6684013E-009  0.7860404E+02  0.7561462E-02  0.1333060E+00
          2   -1    0    0  501    0  0.00000000000E+00  0.00000000000E+00  0.15044139209E+03  0.15044139209E+03  0.00000000000E+00 0. -1.
         -2   -1    0    0    0  501 -0.00000000000E+00 -0.00000000000E+00 -0.95561235623E+02  0.95561235623E+02  0.00000000000E+00 0.  1.
         25    2    1    2    0    0  0.32720258528E+01 -0.41371677984E+02  0.62016362274E+02  0.14565630156E+03  0.12508959630E+03 0.  0.
         23    2    1    2    0    0 -0.32720258528E+01  0.41371677984E+02 -0.71362058036E+01  0.10034632616E+03  0.91083137008E+02 0.  0.
          5    1    3    3  502    0 -0.56642144297E+01 -0.77485225083E+02  0.56748442297E+01  0.78011022864E+02  0.41800000000E+01 0.  1.
         -5    1    3    3    0  502  0.89362402824E+01  0.36113547099E+02  0.56341518044E+02  0.67645278697E+02  0.41800000000E+01 0.  1.
        -11    1    4    4    0    0  0.73136697159E+00  0.27981636515E+02  0.41323653745E+02  0.49911433946E+02  0.00000000000E+00 0. -1.
         11    1    4    4    0    0 -0.40033928243E+01  0.13390041468E+02 -0.48459859549E+02  0.50434892209E+02  0.00000000000E+00 0.  1.
</event>
<event>
 8    1  0.6684013E-009  0.1406354E+03  0.7561462E-02  0.1212477E+00
         -1   -1    0    0    0  501 -0.00000000000E+00  0.00000000000E+00  0.33275573741E+02  0.33275573741E+02  0.00000000000E+00 0.  1.
          1   -1    0    0  501    0  0.00000000000E+00 -0.00000000000E+00 -0.71576035238E+03  0.71576035238E+03  0.00000000000E+00 0. -1.
         25    2    1    2    0    0 -0.39710780262E+02  0.80075208024E+02 -0.21404528756E+03  0.26353632426E+03  0.12508806525E+03 0.  0.
         23    2    1    2    0    0  0.39710780262E+02 -0.80075208024E+02 -0.46843949108E+03  0.48549960186E+03  0.91023741954E+02 0.  0.
          5    1    3    3  502    0 -0.75549194186E+02  0.11923830815E+02 -0.10918697669E+03  0.13337588524E+03  0.41800000000E+01 0. -1.
         -5    1    3    3    0  502  0.35838413924E+02  0.68151377208E+02 -0.10485831087E+03  0.13016043902E+03  0.41800000000E+01 0. -1.
        -11    1    4    4    0    0  0.66990028055E+02 -0.73599433169E+02 -0.36819654870E+03  0.38140954222E+03  0.00000000000E+00 0.  1.
         11    1    4    4    0    0 -0.27279247793E+02 -0.64757748550E+01 -0.10024294237E+03  0.10409005964E+03  0.00000000000E+00 0. -1.
</event>
<event>
 8    1  0.6684013E-009  0.1059759E+03  0.7561462E-02  0.1268209E+00
         -1   -1    0    0    0  501 -0.00000000000E+00  0.00000000000E+00  0.26127651638E+02  0.26127651638E+02  0.00000000000E+00 0.  1.
          1   -1    0    0  501    0  0.00000000000E+00 -0.00000000000E+00 -0.60582406605E+03  0.60582406605E+03  0.00000000000E+00 0. -1.
         25    2    1    2    0    0 -0.23328338441E+02 -0.18949979878E+01 -0.47234661610E+03  0.48918998143E+03  0.12509080620E+03 0.  0.
         23    2    1    2    0    0  0.23328338441E+02  0.18949979878E+01 -0.10734979831E+03  0.14276173626E+03  0.91154439007E+02 0.  0.
          5    1    3    3  502    0 -0.39175214591E+02  0.51444280224E+02 -0.17407844741E+03  0.18574711212E+03  0.41800000000E+01 0. -1.
         -5    1    3    3    0  502  0.15846876150E+02 -0.53339278212E+02 -0.29826816869E+03  0.30344286931E+03  0.41800000000E+01 0. -1.
        -11    1    4    4    0    0 -0.71849910465E+01 -0.39377114961E+02 -0.64446477912E+02  0.75865208061E+02  0.00000000000E+00 0. -1.
         11    1    4    4    0    0  0.30513329488E+02  0.41272112949E+02 -0.42903320401E+02  0.66896528200E+02  0.00000000000E+00 0.  1.
</event>
<event>
 8    1  0.6684013E-009  0.6593559E+02  0.7561462E-02  0.1374486E+00
         -2   -1    0    0    0  501 -0.00000000000E+00  0.00000000000E+00  0.42004213518E+03  0.42004213518E+03  0.00000000000E+00 0.  1.
          2   -1    0    0  501    0  0.00000000000E+00 -0.00000000000E+00 -0.28745822745E+02  0.28745822745E+02  0.00000000000E+00 0. -1.
         25    2    1    2    0    0  0.51203548048E+01 -0.54904520995E+01  0.25586092673E+03  0.28490002052E+03  0.12508734855E+03 0.  0.
         23    2    1    2    0    0 -0.51203548048E+01  0.54904520995E+01  0.13543538570E+03  0.16388793740E+03  0.91979069509E+02 0.  0.
          5    1    3    3  502    0 -0.21957742446E+02  0.48452775201E+01  0.25456238081E+03  0.25558774871E+03  0.41800000000E+01 0. -1.
         -5    1    3    3    0  502  0.27078097251E+02 -0.10335729620E+02  0.12985459263E+01  0.29312271816E+02  0.41800000000E+01 0. -1.
        -11    1    4    4    0    0  0.35889533351E+02  0.12714566269E+02  0.10671154734E+03  0.11330080818E+03  0.00000000000E+00 0.  1.
         11    1    4    4    0    0 -0.41009888156E+02 -0.72241141699E+01  0.28723838362E+02  0.50587129217E+02  0.00000000000E+00 0. -1.
</event>
<event>
 8    1  0.6684013E-009  0.9165152E+02  0.7561462E-02  0.1298901E+00
         -2   -1    0    0    0  501 -0.00000000000E+00  0.00000000000E+00  0.68948347611E+02  0.68948347611E+02  0.00000000000E+00 0. -1.
          2   -1    0    0  501    0  0.00000000000E+00 -0.00000000000E+00 -0.25615878182E+03  0.25615878182E+03  0.00000000000E+00 0.  1.
         25    2    1    2    0    0  0.28588978839E+02  0.45418169581E+02 -0.35268563403E+02  0.14061202657E+03  0.12509088941E+03 0.  0.
         23    2    1    2    0    0 -0.28588978839E+02 -0.45418169581E+02 -0.15194187080E+03  0.18449510285E+03  0.89844148586E+02 0.  0.
          5    1    3    3  502    0  0.64446093512E+02  0.57906776591E+02 -0.49472788071E+02  0.99857513006E+02  0.41800000000E+01 0. -1.
         -5    1    3    3    0  502 -0.35857114673E+02 -0.12488607010E+02  0.14204224668E+02  0.40754513568E+02  0.41800000000E+01 0. -1.
        -11    1    4    4    0    0 -0.13661253434E+01 -0.23156839718E+02  0.49424636284E+01  0.23717788069E+02  0.00000000000E+00 0. -1.
         11    1    4    4    0    0 -0.27222853496E+02 -0.22261329863E+02 -0.15688433443E+03  0.16077731478E+03  0.00000000000E+00 0.  1.
</event>
<event>
 7    1  0.6684013E-009  0.1402546E+03  0.7561462E-02  0.1212987E+00
         -2   -1    0    0    0  501 -0.00000000000E+00  0.00000000000E+00  0.27093952666E+02  0.27093952666E+02  0.00000000000E+00 0.  1.
          2   -1    0    0  501    0  0.00000000000E+00 -0.00000000000E+00 -0.88174902129E+03  0.88174902129E+03  0.00000000000E+00 0. -1.
         23    2    1    2    0    0  0.19954102817E+02  0.10765549467E+03 -0.36617669406E+03  0.39283371465E+03  0.90802446776E+02 0.  0.
          5    1    1    2  502    0 -0.57789563374E+02 -0.20705605666E+02 -0.11241168245E+03  0.12814918842E+03  0.41800000000E+01 0. -1.
         -5    1    1    2    0  502  0.37835460556E+02 -0.86949889001E+02 -0.37606669211E+03  0.38786007089E+03  0.41800000000E+01 0. -1.
        -11    1    3    3    0    0 -0.20119638679E+02  0.49545722054E+02 -0.68494656399E+02  0.86897044769E+02  0.00000000000E+00 0.  1.
         11    1    3    3    0    0  0.40073741496E+02  0.58109772612E+02 -0.29768203766E+03  0.30593666988E+03  0.00000000000E+00 0. -1.
</event>
<event>
 8    1  0.6684013E-009  0.5933092E+02  0.7561462E-02  0.1400661E+00
         -2   -1    0    0    0  501 -0.00000000000E+00  0.00000000000E+00  0.30632099143E+02  0.30632099143E+02  0.00000000000E+00 0.  1.
          2   -1    0    0  501    0  0.00000000000E+00 -0.00000000000E+00 -0.41829996841E+03  0.41829996841E+03  0.00000000000E+00 0. -1.
         25    2    1    2    0    0 -0.34097837635E+01 -0.14953832253E+02 -0.28180576519E+03  0.30870553301E+03  0.12509745438E+03 0.  0.
         23    2    1    2    0    0  0.34097837635E+01  0.14953832253E+02 -0.10586210408E+03  0.14022653454E+03  0.90672223891E+02 0.  0.
          5    1    3    3  502    0  0.91703011920E+01  0.72679801973E+01 -0.28254638669E+03  0.28281946714E+03  0.41800000000E+01 0.  1.
         -5    1    3    3    0  502 -0.12580084956E+02 -0.22221812450E+02  0.74062150312E+00  0.25886065871E+02  0.41800000000E+01 0.  1.
        -11    1    4    4    0    0 -0.18173968577E+02 -0.27368247642E+02 -0.11908629626E+02  0.34944664434E+02  0.00000000000E+00 0. -1.
         11    1    4    4    0    0  0.21583752341E+02  0.42322079895E+02 -0.93953474451E+02  0.10528187011E+03  0.00000000000E+00 0.  1.
</event>
<event>
 8    1  0.6684013E-009  0.1872449E+03  0.7561462E-02  0.1160970E+00
          2   -1    0    0  501    0  0.00000000000E+00  0.00000000000E+00  0.80647476204E+03  0.80647476204E+03  0.00000000000E+00 0. -1.
         -2   -1    0    0    0  501 -0.00000000000E+00 -0.00000000000E+00 -0.50246285518E+02  0.50246285518E+02  0.00000000000E+00 0.  1.
         25    2    1    2    0    0 -0.15617625847E+03 -0.52884859644E+01  0.53419240119E+03  0.57046321742E+03  0.12509104347E+03 0.  0.
         23    2    1    2    0    0  0.15617625847E+03  0.52884859644E+01  0.22203607534E+03  0.28625783013E+03  0.90689220785E+02 0.  0.
          5    1    3    3  502    0 -0.15717206445E+03 -0.37333825499E+02  0.48814572013E+03  0.51419897788E+03  0.41800000000E+01 0.  1.
         -5    1    3    3    0  502  0.99580597958E+00  0.32045339535E+02  0.46046681059E+02  0.56264239548E+02  0.41800000000E+01 0.  1.
        -11    1    4    4    0    0  0.41585882182E+02 -0.39661877944E+02  0.75515915650E+02  0.94895224723E+02  0.00000000000E+00 0.  1.
         11    1    4    4    0    0  0.11459037629E+03  0.44950363909E+02  0.14652015969E+03  0.19136260541E+03  0.00000000000E+00 0. -1.
</event>
<event>
 8    1  0.6684013E-009  0.8308037E+02  0.7561462E-02  0.1320530E+00
          2   -1    0    0  501    0  0.00000000000E+00  0.00000000000E+00  0.34742262014E+03  0.34742262014E+03  0.00000000000E+00 0. -1.
         -2   -1    0    0    0  501 -0.00000000000E+00 -0.00000000000E+00 -0.75969241747E+02  0.75969241747E+02  0.00000000000E+00 0.  1.
         25    2    1    2    0    0  0.56797467866E+02  0.18848265940E+02  0.92142089863E+01  0.13892480686E+03  0.12503595815E+03 0.  0.
         23    2    1    2    0    0 -0.56797467866E+02 -0.18848265940E+02  0.26223916941E+03  0.28446705502E+03  0.92579230595E+02 0.  0.
          5    1    3    3  502    0  0.62367753715E+02  0.76788521767E+01 -0.48651424603E+02  0.79580996413E+02  0.41800000000E+01 0. -1.
         -5    1    3    3    0  502 -0.55702858483E+01  0.11169413763E+02  0.57865633589E+02  0.59343810452E+02  0.41800000000E+01 0. -1.
        -11    1    4    4    0    0 -0.30229789261E+01  0.22177862430E+02  0.12304593945E+02  0.25542102805E+02  0.00000000000E+00 0.  1.
         11    1    4    4    0    0 -0.53774488940E+02 -0.41026128370E+02  0.24993457546E+03  0.25892495222E+03  0.00000000000E+00 0. -1.
</event>
<event>
 8    1  0.6684013E-009  0.1132738E+03  0.7561462E-02  0.1254625E+00
         -3   -1    0    0    0  501 -0.00000000000E+00  0.00000000000E+00  0.18302622412E+03  0.18302622412E+03  0.00000000000E+00 0.  1.
          3   -1    0    0  501    0  0.00000000000E+00 -0.00000000000E+00 -0.11056299928E+03  0.11056299928E+03  0.00000000000E+00 0. -1.
         25    2    1    2    0    0 -0.88176732863E+01  0.84799359054E+02 -0.37083201521E+01  0.15142430608E+03  0.12508751406E+03 0.  0.
         23    2    1    2    0    0  0.88176732863E+01 -0.84799359054E+02  0.76171544990E+02  0.14216491733E+03  0.84498975109E+02 0.  0.
          5    1    3    3  502    0  0.94299025249E+01 -0.90059598746E+01 -0.45147936314E+02  0.47178797444E+02  0.41800000000E+01 0. -1.
         -5    1    3    3    0  502 -0.18247575811E+02  0.93805318928E+02  0.41439616161E+02  0.10424550863E+03  0.41800000000E+01 0. -1.
        -11    1    4    4    0    0  0.44050549538E+02 -0.35342746596E+02  0.21416814353E+02  0.60400667121E+02  0.00000000000E+00 0. -1.
         11    1    4    4    0    0 -0.35232876252E+02 -0.49456612458E+02  0.54754730636E+02  0.81764250206E+02  0.00000000000E+00 0.  1.
</event>
<event>
 8    1  0.6684013E-009  0.6545927E+02  0.7561462E-02  0.1376252E+00
         -2   -1    0    0    0  501 -0.00000000000E+00  0.00000000000E+00  0.31615055330E+02  0.31615055330E+02  0.00000000000E+00 0.  1.
          2   -1    0    0  501    0  0.00000000000E+00 -0.00000000000E+00 -0.39443601940E+03  0.39443601940E+03  0.00000000000E+00 0. -1.
         25    2    1    2    0    0  0.27906585657E+02 -0.68059138409E+01 -0.20067572025E+03  0.23820829883E+03  0.12508937184E+03 0.  0.
         23    2    1    2    0    0 -0.27906585657E+02  0.68059138409E+01 -0.16214524383E+03  0.18784277591E+03  0.90381028857E+02 0.  0.
          5    1    3    3  502    0 -0.95808270786E+01 -0.60217296019E+01 -0.20011293490E+03  0.20047621453E+03  0.41800000000E+01 0.  1.
         -5    1    3    3    0  502  0.37487412735E+02 -0.78418423901E+00 -0.56278534247E+00  0.37732084303E+02  0.41800000000E+01 0.  1.
        -11    1    4    4    0    0 -0.18105632850E+02  0.41392331122E+02 -0.39413414743E+02  0.59954618491E+02  0.00000000000E+00 0. -1.
         11    1    4    4    0    0 -0.98009528069E+01 -0.34586417281E+02 -0.12273182909E+03  0.12788815741E+03  0.00000000000E+00 0.  1.
</event>
<event>
 8    1  0.6684013E-009  0.8357026E+02  0.7561462E-02  0.1319214E+00
          2   -1    0    0  501    0  0.00000000000E+00  0.00000000000E+00  0.10489797370E+04  0.10489797370E+04  0.00000000000E+00 0. -1.
         -2   -1    0    0    0  501 -0.00000000000E+00 -0.00000000000E+00 -0.23116524234E+02  0.23116524234E+02  0.00000000000E+00 0.  1.
         25    2    1    2    0    0  0.15947535005E+02 -0.90915097496E+01  0.93158180875E+03  0.94012152093E+03  0.12508728275E+03 0.  0.
         23    2    1    2    0    0 -0.15947535005E+02  0.90915097496E+01  0.94281404027E+02  0.13197474031E+03  0.90506184941E+02 0.  0.
          5    1    3    3  502    0 -0.47261858844E+02 -0.29639441689E+02  0.54300047164E+03  0.54587467830E+03  0.41800000000E+01 0.  1.
         -5    1    3    3    0  502  0.63209393850E+02  0.20547931939E+02  0.38858133711E+03  0.39424684263E+03  0.41800000000E+01 0.  1.
        -11    1    4    4    0    0  0.82006195521E+01  0.17259305608E+02 -0.12076318915E+02  0.22604673624E+02  0.00000000000E+00 0.  1.
         11    1    4    4    0    0 -0.24148154557E+02 -0.81677958587E+01  0.10635772294E+03  0.10937006669E+03  0.00000000000E+00 0. -1.
</event>
<event>
 8    1  0.6684013E-009  0.1462839E+03  0.7561462E-02  0.1205115E+00
          2   -1    0    0  501    0  0.00000000000E+00  0.00000000000E+00  0.37978589201E+03  0.37978589201E+03  0.00000000000E+00 0. -1.
         -2   -1    0    0    0  501 -0.00000000000E+00 -0.00000000000E+00 -0.67984397909E+02  0.67984397909E+02  0.00000000000E+00 0.  1.
         25    2    1    2    0    0 -0.10411163998E+03 -0.49285448515E+02  0.20405696800E+03  0.26562360102E+03  0.12509341397E+03 0.  0.
         23    2    1    2    0    0  0.10411163998E+03  0.49285448515E+02  0.10774452611E+03  0.18214668890E+03  0.91105676861E+02 0.  0.
          5    1    3    3  502    0 -0.10392672063E+03  0.15088699491E+02  0.11705245719E+03  0.15731237156E+03  0.41800000000E+01 0.  1.
         -5    1    3    3    0  502 -0.18491935399E+00 -0.64374148006E+02  0.87004510813E+02  0.10831122947E+03  0.41800000000E+01 0.  1.
        -11    1    4    4    0    0  0.60413476431E+02  0.51239382136E+02  0.16439154533E+02  0.80904315199E+02  0.00000000000E+00 0.  1.
         11    1    4    4    0    0  0.43698163549E+02 -0.19539336212E+01  0.91305371573E+02  0.10124237370E+03  0.00000000000E+00 0. -1.
</event>
<event>
 8    1  0.6684013E-009  0.1261942E+03  0.7561462E-02  0.1233215E+00
         -1   -1    0    0    0  501 -0.00000000000E+00  0.00000000000E+00  0.12668224231E+03  0.12668224231E+03  0.00000000000E+00 0.  1.
          1   -1    0    0  501    0  0.00000000000E+00 -0.00000000000E+00 -0.17947875157E+03  0.17947875157E+03  0.00000000000E+00 0. -1.
         25    2    1    2    0    0  0.83500302385E+02  0.96338247777E+01  0.34595087811E+02  0.15462363100E+03  0.12508611468E+03 0.  0.
         23    2    1    2    0    0 -0.83500302385E+02 -0.96338247777E+01 -0.87391597067E+02  0.15153736288E+03  0.90890978825E+02 0.  0.
          5    1    3    3  502    0  0.24279146475E+02  0.58708315061E+02  0.43464161549E+02  0.77089227198E+02  0.41800000000E+01 0.  1.
         -5    1    3    3    0  502  0.59221155911E+02 -0.49074490283E+02 -0.88690737384E+01  0.77534403802E+02  0.41800000000E+01 0.  1.
        -11    1    4    4    0    0 -0.64129167083E+02  0.27527602176E+02 -0.84411253863E+02  0.10952432940E+03  0.00000000000E+00 0. -1.
         11    1    4    4    0    0 -0.19371135302E+02 -0.37161426954E+02 -0.29803432033E+01  0.42013033475E+02  0.00000000000E+00 0.  1.
</event>
<event>
 8    1  0.6684013E-009  0.9679938E+02  0.7561462E-02  0.1287174E+00
         -1   -1    0    0    0  501 -0.00000000000E+00  0.00000000000E+00  0.42981731756E+02  0.42981731756E+02  0.00000000000E+00 0.  1.
          1   -1    0    0  501    0  0.00000000000E+00 -0.00000000000E+00 -0.31765164701E+03  0.31765164701E+03  0.00000000000E+00 0. -1.
         25    2    1    2    0    0 -0.17338326559E+02  0.30116925816E+02 -0.19942335241E+03  0.23795783472E+03  0.12508641344E+03 0.  0.
         23    2    1    2    0    0  0.17338326559E+02 -0.30116925816E+02 -0.75246562838E+02  0.12267554404E+03  0.90441125044E+02 0.  0.
          5    1    3    3  502    0 -0.64878523848E+02  0.45849845861E+02 -0.12422404929E+03  0.14751446723E+03  0.41800000000E+01 0. -1.
         -5    1    3    3    0  502  0.47540197289E+02 -0.15732920045E+02 -0.75199303128E+02  0.90443367487E+02  0.41800000000E+01 0. -1.
        -11    1    4    4    0    0 -0.14461479308E+02 -0.28493237396E+02 -0.83816963715E+02  0.89701072276E+02  0.00000000000E+00 0. -1.
         11    1    4    4    0    0  0.31799805866E+02 -0.16236884202E+01  0.85704008766E+01  0.32974471769E+02  0.00000000000E+00 0.  1.
</event>
<event>
 8    1  0.6684013E-009  0.1118046E+03  0.7561462E-02  0.1257264E+00
          1   -1    0    0  501    0  0.00000000000E+00  0.00000000000E+00  0.32676528817E+03  0.32676528817E+03  0.00000000000E+00 0. -1.
         -1   -1    0    0    0  501 -0.00000000000E+00 -0.00000000000E+00 -0.44180612067E+02  0.44180612067E+02  0.00000000000E+00 0.  1.
         25    2    1    2    0    0  0.42188870122E+02  0.26200652030E+02  0.13181215676E+03  0.18838341141E+03  0.12508992803E+03 0.  0.
         23    2    1    2    0    0 -0.42188870122E+02 -0.26200652030E+02  0.15077251935E+03  0.18256248884E+03  0.90168369232E+02 0.  0.
          5    1    3    3  502    0  0.82819908724E+02  0.49342925797E+00  0.62127044464E+02  0.10361767613E+03  0.41800000000E+01 0.  1.
         -5    1    3    3    0  502 -0.40631038602E+02  0.25707222772E+02  0.69685112295E+02  0.84765735271E+02  0.41800000000E+01 0.  1.
        -11    1    4    4    0    0  0.17281378366E+02 -0.28022027236E+02  0.19076276253E+02  0.38049761685E+02  0.00000000000E+00 0.  1.
         11    1    4    4    0    0 -0.59470248488E+02  0.18213752055E+01  0.13169624310E+03  0.14451272715E+03  0.00000000000E+00 0. -1.
</event>
<event>
 7    1  0.6684013E-009  0.9235598E+02  0.7561462E-02  0.1297245E+00
          2   -1    0    0  501    0  0.00000000000E+00  0.00000000000E+00  0.28698494275E+03  0.28698494275E+03  0.00000000000E+00 0. -1.
         -2   -1    0    0    0  501 -0.00000000000E+00 -0.00000000000E+00 -0.46613395618E+02  0.46613395618E+02  0.00000000000E+00 0.  1.
         23    2    1    2    0    0 -0.15042714689E+01  0.25776992973E+02  0.15156183711E+03  0.17780279048E+03  0.89309157632E+02 0.  0.
          5    1    1    2  502    0  0.54149397373E+02 -0.41760258357E+02  0.68827584778E+02  0.97112230127E+02  0.41800000000E+01 0. -1.
         -5    1    1    2    0  502 -0.52645125904E+02  0.15983265384E+02  0.19982125249E+02  0.58683317759E+02  0.41800000000E+01 0. -1.
        -11    1    3    3    0    0 -0.27701445353E+02  0.20087519924E+02  0.14659887166E+03  0.15053938921E+03  0.00000000000E+00 0. -1.
         11    1    3    3    0    0  0.26197173884E+02  0.56894730487E+01  0.49629654488E+01  0.27263401276E+02  0.00000000000E+00 0.  1.
</event>
<event>
 8    1  0.6684013E-009  0.1210868E+03  0.7561462E-02  0.1241315E+00
          2   -1    0    0  501    0  0.00000000000E+00  0.00000000000E+00  0.32368983553E+03  0.32368983553E+03  0.00000000000E+00 0. -1.
         -2   -1    0    0    0  501 -0.00000000000E+00 -0.00000000000E+00 -0.81320258722E+02  0.81320258722E+02  0.00000000000E+00 0.  1.
         25    2    1    2    0    0  0.33003953854E+02  0.98738857347E+02  0.20606729771E+03  0.26258686669E+03  0.12509799539E+03 0.  0.
         23    2    1    2    0    0 -0.33003953854E+02 -0.98738857347E+02  0.36302279101E+02  0.14242322756E+03  0.90154852126E+02 0.  0.
          5    1    3    3  502    0 -0.88413010687E+01  0.90914542563E+02  0.19930601355E+03  0.21928060126E+03  0.41800000000E+01 0. -1.
         -5    1    3    3    0  502  0.41845254923E+02  0.78243147839E+01  0.67612841595E+01  0.43306265423E+02  0.41800000000E+01 0. -1.
        -11    1    4    4    0    0 -0.22506224200E+02 -0.25664865311E+02 -0.28287027028E+02  0.44332508809E+02  0.00000000000E+00 0.  1.
         11    1    4    4    0    0 -0.10497729654E+02 -0.73073992036E+02  0.64589306128E+02  0.98090718756E+02  0.00000000000E+00 0. -1.
</event>
<event>
 8    1  0.6684013E-009  0.1469760E+03  0.7561462E-02  0.1204239E+00
          2   -1    0    0  501    0  0.00000000000E+00  0.00000000000E+00  0.27509075200E+03  0.27509075200E+03  0.00000000000E+00 0.  1.
         -2   -1    0    0    0  501 -0.00000000000E+00 -0.00000000000E+00 -0.84431159858E+02  0.84431159858E+02  0.00000000000E+00 0. -1.
         25    2    1    2    0    0 -0.84766636223E+02  0.47156620228E+02  0.98556646578E+02  0.18647187746E+03  0.12509683869E+03 0.  0.
         23    2    1    2    0    0  0.84766636223E+02 -0.47156620228E+02  0.92102945561E+02  0.17305003440E+03  0.10979176825E+03 0.  0.
          5    1    3    3  502    0 -0.10458198482E+03  0.70750274451E+02  0.86563204236E+02  0.15314585731E+03  0.41800000000E+01 0.  1.
         -5    1    3    3    0  502  0.19815348597E+02 -0.23593654223E+02  0.11993442342E+02  0.33326020147E+02  0.41800000000E+01 0.  1.
        -11    1    4    4    0    0  0.32715036335E+02 -0.71823753707E+02  0.83351247738E+02  0.11478830820E+03  0.00000000000E+00 0.  1.
         11    1    4    4    0    0  0.52051599889E+02  0.24667133479E+02  0.87516978235E+01  0.58261726200E+02  0.00000000000E+00 0. -1.
</event>
<event>
 8    1  0.6684013E-009  0.8600903E+02  0.7561462E-02  0.1312815E+00
         -2   -1    0    0    0  501 -0.00000000000E+00  0.00000000000E+00  0.30378546500E+02  0.30378546500E+02  0.00000000000E+00 0.  1.
          2   -1    0    0  501    0  0.00000000000E+00 -0.00000000000E+00 -0.53000544493E+03  0.53000544493E+03  0.00000000000E+00 0. -1.
         25    2    1    2    0    0  0.31655449614E+02  0.23541810726E+02 -0.16156204467E+03  0.20810666883E+03  0.12509918861E+03 0.  0.
         23    2    1    2    0    0 -0.31655449614E+02 -0.23541810726E+02 -0.33806485375E+03  0.35227732259E+03  0.90858033921E+02 0.  0.
          5    1    3    3  502    0  0.39789079009E+02 -0.85201207866E+01 -0.16905588357E+03  0.17393426182E+03  0.41800000000E+01 0.  1.
         -5    1    3    3    0  502 -0.81336293956E+01  0.32061931512E+02  0.74938388960E+01  0.34172407010E+02  0.41800000000E+01 0.  1.
        -11    1    4    4    0    0  0.22407108271E+02 -0.35896551516E+02 -0.17488051801E+03  0.17992730891E+03  0.00000000000E+00 0.  1.
         11    1    4    4    0    0 -0.54062557885E+02  0.12354740790E+02 -0.16318433574E+03  0.17235001368E+03  0.00000000000E+00 0. -1.
</event>
<event>
 8    1  0.6684013E-009  0.6081402E+02  0.7561462E-02  0.1394447E+00
         -4   -1    0    0    0  501 -0.00000000000E+00  0.00000000000E+00  0.22179162257E+02  0.22179162257E+02  0.00000000000E+00 0.  1.
          4   -1    0    0  501    0  0.00000000000E+00 -0.00000000000E+00 -0.64128337503E+03  0.64128337503E+03  0.00000000000E+00 0. -1.
         25    2    1    2    0    0 -0.53382251397E+00 -0.61384549006E+01 -0.48142649115E+03  0.49745009626E+03  0.12508863374E+03 0.  0.
         23    2    1    2    0    0  0.53382251397E+00  0.61384549006E+01 -0.13767772163E+03  0.16601244103E+03  0.92558143622E+02 0.  0.
          5    1    3    3  502    0  0.76194826396E+01 -0.14937914678E+02 -0.48414964021E+03  0.48445799026E+03  0.41800000000E+01 0.  1.
         -5    1    3    3    0  502 -0.81533051535E+01  0.87994597770E+01  0.27231490654E+01  0.12992105993E+02  0.41800000000E+01 0.  1.
        -11    1    4    4    0    0  0.45237169333E+02  0.11341794484E+02 -0.57174530404E+02  0.73783227892E+02  0.00000000000E+00 0.  1.
         11    1    4    4    0    0 -0.44703346819E+02 -0.52033395833E+01 -0.80503191223E+02  0.92229213141E+02  0.00000000000E+00 0. -1.
</event>
<event>
 8    1  0.6684013E-009  0.1133572E+03  0.7561462E-02  0.1254476E+00
          1   -1    0    0  501    0  0.00000000000E+00  0.00000000000E+00  0.47062968074E+03  0.47062968074E+03  0.00000000000E+00 0. -1.
         -1   -1    0    0    0  501 -0.00000000000E+00 -0.00000000000E+00 -0.29507724511E+02  0.29507724511E+02  0.00000000000E+00 0.  1.
         25    2    1    2    0    0 -0.20017496477E+02  0.43475891274E+02  0.25389210078E+03  0.28705195359E+03  0.12508705743E+03 0.  0.
         23    2    1    2    0    0  0.20017496477E+02 -0.43475891274E+02  0.18722985544E+03  0.21308545165E+03  0.89774927733E+02 0.  0.
          5    1    3    3  502    0 -0.66329076003E+02 -0.43788544776E+01  0.14041392858E+03  0.15540998819E+03  0.41800000000E+01 0. -1.
         -5    1    3    3    0  502  0.46311579527E+02  0.47854745751E+02  0.11347817220E+03  0.13164196540E+03  0.41800000000E+01 0. -1.
        -11    1    4    4    0    0  0.49529796152E+02 -0.40005910253E+02  0.16214622781E+03  0.17419837185E+03  0.00000000000E+00 0.  1.
         11    1    4    4    0    0 -0.29512299676E+02 -0.34699810210E+01  0.25083627636E+02  0.38887079806E+02  0.00000000000E+00 0. -1.
</event>
<event>
 8    1  0.6684013E-009  0.1735170E+03  0.7561462E-02  0.1174229E+00
          1   -1    0    0  501    0  0.00000000000E+00  0.00000000000E+00  0.14386107631E+03  0.14386107631E+03  0.00000000000E+00 0. -1.
         -1   -1    0    0    0  501 -0.00000000000E+00 -0.00000000000E+00 -0.24596072022E+03  0.24596072022E+03  0.00000000000E+00 0.  1.
         25    2    1    2    0    0  0.94820227818E+02 -0.10259145903E+03 -0.11735580838E+03  0.22121357030E+03  0.12508866798E+03 0.  0.
         23    2    1    2    0    0 -0.94820227818E+02  0.10259145903E+03  0.15256164470E+02  0.16860822624E+03  0.93167056044E+02 0.  0.
          5    1    3    3  502    0  0.76084318613E+02 -0.12852032543E+03 -0.72798221264E+02  0.16620274067E+03  0.41800000000E+01 0. -1.
         -5    1    3    3    0  502  0.18735909205E+02  0.25928866406E+02 -0.44557587113E+02  0.55010829626E+02  0.41800000000E+01 0. -1.
        -11    1    4    4    0    0  0.81721571103E+01  0.48200840152E+02 -0.88087205000E+01  0.49675936831E+02  0.00000000000E+00 0.  1.
         11    1    4    4    0    0 -0.10299238493E+03  0.54390618874E+02  0.24064884970E+02  0.11893228941E+03  0.00000000000E+00 0. -1.
</event>
<event>
 8    1  0.6684013E-009  0.1436439E+03  0.7561462E-02  0.1208508E+00
         -1   -1    0    0    0  501 -0.00000000000E+00  0.00000000000E+00  0.12321099314E+03  0.12321099314E+03  0.00000000000E+00 0.  1.
          1   -1    0    0  501    0  0.00000000000E+00 -0.00000000000E+00 -0.17015060594E+03  0.17015060594E+03  0.00000000000E+00 0. -1.
         25    2    1    2    0    0 -0.76348384460E+02  0.57714254790E+02 -0.16084351341E+02  0.15832589038E+03  0.12509344583E+03 0.  0.
         23    2    1    2    0    0  0.76348384460E+02 -0.57714254790E+02 -0.30855261464E+02  0.13503570871E+03  0.90125381830E+02 0.  0.
          5    1    3    3  502    0  0.11586961339E+02 -0.30464528999E+02 -0.48877494938E+01  0.33222096492E+02  0.41800000000E+01 0. -1.
         -5    1    3    3    0  502 -0.87935345799E+02  0.88178783789E+02 -0.11196601847E+02  0.12510379388E+03  0.41800000000E+01 0. -1.
        -11    1    4    4    0    0  0.21383928979E+02 -0.70264504269E+02 -0.68710364389E+01  0.73767093752E+02  0.00000000000E+00 0.  1.
         11    1    4    4    0    0  0.54964455481E+02  0.12550249479E+02 -0.23984225026E+02  0.61268614954E+02  0.00000000000E+00 0. -1.
</event>
<event>
 8    1  0.6684013E-009  0.1779299E+03  0.7561462E-02  0.1169822E+00
          1   -1    0    0  501    0  0.00000000000E+00  0.00000000000E+00  0.67879212812E+03  0.67879212812E+03  0.00000000000E+00 0. -1.
         -1   -1    0    0    0  501 -0.00000000000E+00 -0.00000000000E+00 -0.61895599093E+02  0.61895599093E+02  0.00000000000E+00 0.  1.
         25    2    1    2    0    0  0.16674509738E+03 -0.13009264611E+02  0.41929173989E+03  0.46842803568E+03  0.12508434356E+03 0.  0.
         23    2    1    2    0    0 -0.16674509738E+03  0.13009264611E+02  0.19760478914E+03  0.27225969153E+03  0.84288305688E+02 0.  0.
          5    1    3    3  502    0  0.17260812254E+03 -0.12067474343E+02  0.28155119006E+03  0.33049619200E+03  0.41800000000E+01 0.  1.
         -5    1    3    3    0  502 -0.58630251572E+01 -0.94179026793E+00  0.13774054983E+03  0.13793184368E+03  0.41800000000E+01 0.  1.
        -11    1    4    4    0    0 -0.12026968323E+03 -0.15083425089E+02  0.87511706135E+02  0.14950118771E+03  0.00000000000E+00 0.  1.
         11    1    4    4    0    0 -0.46475414157E+02  0.28092689700E+02  0.11009308300E+03  0.12275850382E+03  0.00000000000E+00 0. -1.
</event>
<event>
 8    1  0.6684013E-009  0.1142307E+03  0.7561462E-02  0.1252930E+00
          1   -1    0    0  501    0  0.00000000000E+00  0.00000000000E+00  0.60385536249E+02  0.60385536249E+02  0.00000000000E+00 0. -1.
         -1   -1    0    0    0  501 -0.00000000000E+00 -0.00000000000E+00 -0.29221191920E+03  0.29221191920E+03  0.00000000000E+00 0.  1.
         25    2    1    2    0    0 -0.52917402913E+02 -0.45486668273E+02 -0.17113749203E+03  0.22316983573E+03  0.12508975130E+03 0.  0.
         23    2    1    2    0    0  0.52917402913E+02  0.45486668273E+02 -0.60688890926E+02  0.12942761972E+03  0.90548764450E+02 0.  0.
          5    1    3    3  502    0  0.23605070315E+02  0.19455599371E+02 -0.86399268346E+02  0.91749799248E+02  0.41800000000E+01 0. -1.
         -5    1    3    3    0  502 -0.76522473228E+02 -0.64942267643E+02 -0.84738223680E+02  0.13142003648E+03  0.41800000000E+01 0. -1.
        -11    1    4    4    0    0  0.40305495307E+02  0.63460442609E+02 -0.72546124901E+02  0.10447344623E+03  0.00000000000E+00 0.  1.
         11    1    4    4    0    0  0.12611907606E+02 -0.17973774336E+02  0.11857233975E+02  0.24954173497E+02  0.00000000000E+00 0. -1.
</event>
<event>
 8    1  0.6684013E-009  0.1132541E+03  0.7561462E-02  0.1254660E+00
         -1   -1    0    0    0  501 -0.00000000000E+00  0.00000000000E+00  0.10169403830E+03  0.10169403830E+03  0.00000000000E+00 0.  1.
          1   -1    0    0  501    0  0.00000000000E+00 -0.00000000000E+00 -0.17411316290E+03  0.17411316290E+03  0.00000000000E+00 0. -1.
         25    2    1    2    0    0 -0.42490789361E+01  0.55667678765E+02 -0.92183867790E+02  0.16511124482E+03  0.12508761951E+03 0.  0.
         23    2    1    2    0    0  0.42490789361E+01 -0.55667678765E+02  0.19764743183E+02  0.11069595638E+03  0.93520075678E+02 0.  0.
          5    1    3    3  502    0 -0.52969260224E+02  0.39260672322E+02 -0.92331318298E+02  0.11353276029E+03  0.41800000000E+01 0. -1.
         -5    1    3    3    0  502  0.48720181288E+02  0.16407006442E+02  0.14745050854E+00  0.51578484534E+02  0.41800000000E+01 0. -1.
        -11    1    4    4    0    0 -0.23406917242E+02 -0.72706314348E+02  0.15437068260E+02  0.77925573449E+02  0.00000000000E+00 0. -1.
         11    1    4    4    0    0  0.27655996179E+02  0.17038635583E+02  0.43276749231E+01  0.32770382930E+02  0.00000000000E+00 0.  1.
</event>
<event>
 8    1  0.6684013E-009  0.1180236E+03  0.7561462E-02  0.1246394E+00
         -2   -1    0    0    0  501 -0.00000000000E+00  0.00000000000E+00  0.89054118813E+02  0.89054118813E+02  0.00000000000E+00 0.  1.
          2   -1    0    0  501    0  0.00000000000E+00 -0.00000000000E+00 -0.22567446548E+03  0.22567446548E+03  0.00000000000E+00 0. -1.
         25    2    1    2    0    0 -0.22462922366E+02 -0.67538305160E+02 -0.15565620026E+02  0.14475833691E+03  0.12508669806E+03 0.  0.
         23    2    1    2    0    0  0.22462922366E+02  0.67538305160E+02 -0.12105472664E+03  0.16997024738E+03  0.95758198653E+02 0.  0.
          5    1    3    3  502    0 -0.52476948582E+02  0.13544745648E+02 -0.20407310819E+02  0.58062216647E+02  0.41800000000E+01 0. -1.
         -5    1    3    3    0  502  0.30014026216E+02 -0.81083050809E+02  0.48416907929E+01  0.86696120258E+02  0.41800000000E+01 0. -1.
        -11    1    4    4    0    0  0.42542098455E+02  0.28431243570E+02 -0.12240826025E+02  0.52611819714E+02  0.00000000000E+00 0.  1.
         11    1    4    4    0    0 -0.20079176089E+02  0.39107061590E+02 -0.10881390061E+03  0.11735842767E+03  0.00000000000E+00 0. -1.
</event>
<event>
 8    1  0.6684013E-009  0.5344154E+02  0.7561462E-02  0.1427616E+00
         -1   -1    0    0    0  501 -0.00000000000E+00  0.00000000000E+00  0.45838994077E+02  0.45838994077E+02  0.00000000000E+00 0.  1.
          1   -1    0    0  501    0  0.00000000000E+00 -0.00000000000E+00 -0.30414000611E+03  0.30414000611E+03  0.00000000000E+00 0. -1.
         25    2    1    2    0    0 -0.30348408557E+01 -0.30739997189E+02 -0.95699251864E+02  0.16049847102E+03  0.12508898714E+03 0.  0.
         23    2    1    2    0    0  0.30348408557E+01  0.30739997189E+02 -0.16260176017E+03  0.18948052918E+03  0.92246305289E+02 0.  0.
          5    1    3    3  502    0  0.11647171493E+01 -0.41731031058E+01 -0.12229476398E+03  0.12244285627E+03  0.41800000000E+01 0.  1.
         -5    1    3    3    0  502 -0.41995580050E+01 -0.26566894083E+02  0.26595512116E+02  0.38055614742E+02  0.41800000000E+01 0.  1.
        -11    1    4    4    0    0 -0.28765478920E+02 -0.90596210179E+00 -0.10074382120E+02  0.30492076347E+02  0.00000000000E+00 0.  1.
         11    1    4    4    0    0  0.31800319776E+02  0.31645959291E+02 -0.15252737805E+03  0.15898845283E+03  0.00000000000E+00 0. -1.
</event>
<event>
 8    1  0.6684013E-009  0.7903480E+02  0.7561462E-02  0.1331813E+00
          3   -1    0    0  501    0  0.00000000000E+00  0.00000000000E+00  0.27659834057E+02  0.27659834057E+02  0.00000000000E+00 0. -1.
         -3   -1    0    0    0  501 -0.00000000000E+00 -0.00000000000E+00 -0.56152159320E+03  0.56152159320E+03  0.00000000000E+00 0.  1.
         25    2    1    2    0    0  0.23792909764E+02 -0.20590052617E+02 -0.17527436192E+03  0.21762121676E+03  0.12509132350E+03 0.  0.
         23    2    1    2    0    0 -0.23792909764E+02  0.20590052617E+02 -0.35858739722E+03  0.37156021049E+03  0.92097859677E+02 0.  0.
          5    1    3    3  502    0  0.29194425264E+02 -0.39317183562E+02 -0.18776925542E+03  0.19409513407E+03  0.41800000000E+01 0.  1.
         -5    1    3    3    0  502 -0.54015155002E+01  0.18727130945E+02  0.12494893498E+02  0.23526082688E+02  0.41800000000E+01 0.  1.
        -11    1    4    4    0    0 -0.11795690060E+01 -0.31853645060E+02 -0.64124435275E+02  0.71609980352E+02  0.00000000000E+00 0. -1.
         11    1    4    4    0    0 -0.22613340758E+02  0.52443697677E+02 -0.29446296194E+03  0.29995023014E+03  0.00000000000E+00 0.  1.
</event>
<event>
 7    1  0.6684013E-009  0.7647761E+02  0.7561462E-02  0.1339355E+00
          2   -1    0    0  501    0  0.00000000000E+00  0.00000000000E+00  0.14052523703E+03  0.14052523703E+03  0.00000000000E+00 0. -1.
         -2   -1    0    0    0  501 -0.00000000000E+00 -0.00000000000E+00 -0.98510074931E+02  0.98510074931E+02  0.00000000000E+00 0.  1.
         23    2    1    2    0    0  0.30765201057E+02  0.28980002768E+02  0.40079007759E+02  0.10706494792E+03  0.89834503695E+02 0.  0.
          5    1    1    2  502    0 -0.43155363137E+02 -0.54376315967E+01 -0.54252341458E+02  0.69661626154E+02  0.41800000000E+01 0.  1.
         -5    1    1    2    0  502  0.12390162080E+02 -0.23542371171E+02  0.56188495794E+02  0.62308737881E+02  0.41800000000E+01 0.  1.
        -11    1    3    3    0    0 -0.15107540958E+01  0.45873486859E+02 -0.81574129379E+01  0.46617620707E+02  0.00000000000E+00 0.  1.
         11    1    3    3    0    0  0.32275955153E+02 -0.16893484091E+02  0.48236420697E+02  0.60447327215E+02  0.00000000000E+00 0. -1.
</event>
<event>
 8    1  0.6684013E-009  0.2096719E+03  0.7561462E-02  0.1141826E+00
         -2   -1    0    0    0  501 -0.00000000000E+00  0.00000000000E+00  0.14797349792E+02  0.14797349792E+02  0.00000000000E+00 0.  1.
          2   -1    0    0  501    0  0.00000000000E+00 -0.00000000000E+00 -0.30839757662E+04  0.30839757662E+04  0.00000000000E+00 0. -1.
         25    2    1    2    0    0 -0.55479984367E+02 -0.16976434734E+03 -0.18722277854E+04  0.18848825013E+04  0.12508877329E+03 0.  0.
         23    2    1    2    0    0  0.55479984367E+02  0.16976434734E+03 -0.11969506311E+04  0.12138906147E+04  0.94560292599E+02 0.  0.
          5    1    3    3  502    0 -0.47480692395E+02 -0.39545163119E+00 -0.48019390819E+03  0.48255386683E+03  0.41800000000E+01 0.  1.
         -5    1    3    3    0  502 -0.79992919719E+01 -0.16936889571E+03 -0.13920338772E+04  0.14023286345E+04  0.41800000000E+01 0.  1.
        -11    1    4    4    0    0 -0.93078546632E+00  0.13665673529E+03 -0.80155389398E+03  0.81312027070E+03  0.00000000000E+00 0.  1.
         11    1    4    4    0    0  0.56410769833E+02  0.33107612044E+02 -0.39539673707E+03  0.40077034398E+03  0.00000000000E+00 0. -1.
</event>
<event>
 8    1  0.6684013E-009  0.6685373E+02  0.7561462E-02  0.1371131E+00
          1   -1    0    0  501    0  0.00000000000E+00  0.00000000000E+00  0.12616914126E+03  0.12616914126E+03  0.00000000000E+00 0. -1.
         -1   -1    0    0    0  501 -0.00000000000E+00 -0.00000000000E+00 -0.10083845431E+03  0.10083845431E+03  0.00000000000E+00 0.  1.
         25    2    1    2    0    0  0.32614382296E+00  0.18586518834E+02  0.35691704209E+02  0.13140503683E+03  0.12509125030E+03 0.  0.
         23    2    1    2    0    0 -0.32614382296E+00 -0.18586518834E+02 -0.10361017263E+02  0.95602558741E+02  0.93203720456E+02 0.  0.
          5    1    3    3  502    0 -0.44156777017E+01  0.27975817981E+02  0.80369208681E+02  0.85316040141E+02  0.41800000000E+01 0. -1.
         -5    1    3    3    0  502  0.47418215247E+01 -0.93892991461E+01 -0.44677504472E+02  0.46088996688E+02  0.41800000000E+01 0. -1.
        -11    1    4    4    0    0  0.26419564291E+02 -0.47512369840E+02 -0.13705989524E+02  0.56064898234E+02  0.00000000000E+00 0.  1.
         11    1    4    4    0    0 -0.26745708114E+02  0.28925851006E+02  0.33449722612E+01  0.39537660507E+02  0.00000000000E+00 0. -1.
</event>
<event>
 8    1  0.6684013E-009  0.1405900E+03  0.7561462E-02  0.1212537E+00
         -2   -1    0    0    0  501 -0.00000000000E+00  0.00000000000E+00  0.13325694574E+03  0.13325694574E+03  0.00000000000E+00 0.  1.
          2   -1    0    0  501    0  0.00000000000E+00 -0.00000000000E+00 -0.15024212129E+03  0.15024212129E+03  0.00000000000E+00 0. -1.
         25    2    1    2    0    0  0.94953977700E+01 -0.61591017447E+02  0.50932186060E+01  0.13984709034E+03  0.12509057435E+03 0.  0.
         23    2    1    2    0    0 -0.94953977700E+01  0.61591017447E+02 -0.22078394150E+02  0.14365197669E+03  0.12753359914E+03 0.  0.
          5    1    3    3  502    0 -0.57702180965E+02 -0.31633828756E+02 -0.55542955421E+00  0.65939530723E+02  0.41800000000E+01 0.  1.
         -5    1    3    3    0  502  0.67197578735E+02 -0.29957188691E+02  0.56486481602E+01  0.73907559615E+02  0.41800000000E+01 0.  1.
        -11    1    4    4    0    0  0.22350596703E+00  0.10098049007E+03 -0.20561694217E+02  0.10305286313E+03  0.00000000000E+00 0. -1.
         11    1    4    4    0    0 -0.97189037370E+01 -0.39389472624E+02 -0.15166999335E+01  0.40599113563E+02  0.00000000000E+00 0.  1.
</event>
<event>
 8    1  0.6684013E-009  0.1394172E+03  0.7561462E-02  0.1214115E+00
          2   -1    0    0  501    0  0.00000000000E+00  0.00000000000E+00  0.20382093582E+03  0.20382093582E+03  0.00000000000E+00 0.  1.
         -2   -1    0    0    0  501 -0.00000000000E+00 -0.00000000000E+00 -0.12274235334E+03  0.12274235334E+03  0.00000000000E+00 0. -1.
         25    2    1    2    0    0  0.17701650467E+02  0.11205151779E+03  0.19209698201E+02  0.16996153126E+03  0.12509603725E+03 0.  0.
         23    2    1    2    0    0 -0.17701650467E+02 -0.11205151779E+03  0.61868884280E+02  0.15660175790E+03  0.88472937480E+02 0.  0.
          5    1    3    3  502    0  0.49043208723E+02  0.65950116671E+02  0.59074128043E+02  0.10130093393E+03  0.41800000000E+01 0. -1.
         -5    1    3    3    0  502 -0.31341558256E+02  0.46101401122E+02 -0.39864429843E+02  0.68660597332E+02  0.41800000000E+01 0. -1.
        -11    1    4    4    0    0  0.56047636315E+01 -0.11673255494E+03  0.63070003538E+02  0.13279957871E+03  0.00000000000E+00 0.  1.
         11    1    4    4    0    0 -0.23306414099E+02  0.46810371472E+01 -0.12011192578E+01  0.23802179194E+02  0.00000000000E+00 0. -1.
</event>
<event>
 8    1  0.6684013E-009  0.1541521E+03  0.7561462E-02  0.1195462E+00
         -1   -1    0    0    0  501 -0.00000000000E+00  0.00000000000E+00  0.81421319603E+02  0.81421319603E+02  0.00000000000E+00 0.  1.
          1   -1    0    0  501    0  0.00000000000E+00 -0.00000000000E+00 -0.39763541460E+03  0.39763541460E+03  0.00000000000E+00 0. -1.
         25    2    1    2    0    0  0.11649839523E+03 -0.35716564381E+02 -0.26484920283E+03  0.31723897715E+03  0.12509164371E+03 0.  0.
         23    2    1    2    0    0 -0.11649839523E+03  0.35716564381E+02 -0.51364892176E+02  0.16181775705E+03  0.93268887029E+02 0.  0.
          5    1    3    3  502    0 -0.10821078534E+02  0.14435930180E+02  0.63879334729E+00  0.18530307007E+02  0.41800000000E+01 0. -1.
         -5    1    3    3    0  502  0.12731947376E+03 -0.50152494562E+02 -0.26548799617E+03  0.29870867015E+03  0.41800000000E+01 0. -1.
        -11    1    4    4    0    0 -0.11077446753E+03  0.61340826941E+02 -0.47684974174E+02  0.13530534531E+03  0.00000000000E+00 0. -1.
         11    1    4    4    0    0 -0.57239276934E+01 -0.25624262560E+02 -0.36799180018E+01  0.26512411744E+02  0.00000000000E+00 0.  1.
</event>
<event>
 8    1  0.6684013E-009  0.1281911E+03  0.7561462E-02  0.1230165E+00
         -1   -1    0    0    0  501 -0.00000000000E+00  0.00000000000E+00  0.33302310250E+03  0.33302310250E+03  0.00000000000E+00 0.  1.
          1   -1    0    0  501    0  0.00000000000E+00 -0.00000000000E+00 -0.74144212426E+02  0.74144212426E+02  0.00000000000E+00 0. -1.
         25    2    1    2    0    0 -0.10579984084E+03  0.43482623708E+02  0.16586602075E+03  0.23715562267E+03  0.12508759985E+03 0.  0.
         23    2    1    2    0    0  0.10579984084E+03 -0.43482623708E+02  0.93012869326E+02  0.17001169226E+03  0.84665440173E+02 0.  0.
          5    1    3    3  502    0 -0.95505721855E+01 -0.20949722139E+00  0.12231200277E+03  0.12275567498E+03  0.41800000000E+01 0. -1.
         -5    1    3    3    0  502 -0.96249268656E+02  0.43692120929E+02  0.43554017983E+02  0.11439994769E+03  0.41800000000E+01 0. -1.
        -11    1    4    4    0    0  0.60826360781E+02  0.18511683705E+02  0.27689601609E+02  0.69348703208E+02  0.00000000000E+00 0.  1.
         11    1    4    4    0    0  0.44973480061E+02 -0.61994307413E+02  0.65323267717E+02  0.10066298906E+03  0.00000000000E+00 0. -1.
</event>
<event>
 8    1  0.6684013E-009  0.1146500E+03  0.7561462E-02  0.1252193E+00
         -1   -1    0    0    0  501 -0.00000000000E+00  0.00000000000E+00  0.18374594272E+02  0.18374594272E+02  0.00000000000E+00 0.  1.
          1   -1    0    0  501    0  0.00000000000E+00 -0.00000000000E+00 -0.76927524174E+03  0.76927524174E+03  0.00000000000E+00 0. -1.
         25    2    1    2    0    0 -0.14246612197E+02 -0.40146527835E+02 -0.38020790982E+03  0.40251743395E+03  0.12509004872E+03 0.  0.
         23    2    1    2    0    0  0.14246612197E+02  0.40146527835E+02 -0.37069273764E+03  0.38513240206E+03  0.95389473828E+02 0.  0.
          5    1    3    3  502    0 -0.32360813685E+02  0.35173735741E+02 -0.88489239384E+02  0.10065898785E+03  0.41800000000E+01 0. -1.
         -5    1    3    3    0  502  0.18114201488E+02 -0.75320263576E+02 -0.29171867044E+03  0.30185844610E+03  0.41800000000E+01 0. -1.
        -11    1    4    4    0    0  0.11204851480E+02 -0.30776777315E+02 -0.96864565894E+02  0.10225215325E+03  0.00000000000E+00 0.  1.
         11    1    4    4    0    0  0.30417607168E+01  0.70923305150E+02 -0.27382817175E+03  0.28288024881E+03  0.00000000000E+00 0. -1.
</event>
<event>
 7    1  0.6684013E-009  0.1825193E+03  0.7561462E-02  0.1165387E+00
          1   -1    0    0  501    0  0.00000000000E+00  0.00000000000E+00  0.22571096265E+03  0.22571096265E+03  0.00000000000E+00 0. -1.
         -1   -1    0    0    0  501 -0.00000000000E+00 -0.00000000000E+00 -0.16062059714E+03  0.16062059714E+03  0.00000000000E+00 0.  1.
         23    2    1    2    0    0  0.12389398156E+03 -0.92589773232E+02  0.10285925372E+02  0.17990388987E+03  0.91307308345E+02 0.  0.
          5    1    1    2  502    0  0.22842187847E+01  0.56620185999E+02  0.48996085597E+02  0.75027674373E+02  0.41800000000E+01 0.  1.
         -5    1    1    2    0  502 -0.12617820034E+03  0.35969587233E+02  0.58083545463E+01  0.13139999555E+03  0.41800000000E+01 0.  1.
        -11    1    3    3    0    0  0.92589836784E+02 -0.15677229890E+02 -0.99539874278E+01  0.94433761327E+02  0.00000000000E+00 0.  1.
         11    1    3    3    0    0  0.31304144773E+02 -0.76912543342E+02  0.20239912800E+02  0.85470128544E+02  0.00000000000E+00 0. -1.
</event>
<event>
 8    1  0.6684013E-009  0.1425635E+03  0.7561462E-02  0.1209921E+00
          1   -1    0    0  501    0  0.00000000000E+00  0.00000000000E+00  0.61980964771E+03  0.61980964771E+03  0.00000000000E+00 0. -1.
         -1   -1    0    0    0  501 -0.00000000000E+00 -0.00000000000E+00 -0.46495932053E+02  0.46495932053E+02  0.00000000000E+00 0.  1.
         25    2    1    2    0    0 -0.10162923256E+03  0.67546187782E+02  0.39158247130E+03  0.42880726728E+03  0.12509137560E+03 0.  0.
         23    2    1    2    0    0  0.10162923256E+03 -0.67546187782E+02  0.18173124436E+03  0.23749831248E+03  0.92131508515E+02 0.  0.
          5    1    3    3  502    0 -0.75633427989E+02  0.92977847275E+02  0.36319659701E+03  0.38248468727E+03  0.41800000000E+01 0.  1.
         -5    1    3    3    0  502 -0.25995804573E+02 -0.25431659493E+02  0.28385874284E+02  0.46322580011E+02  0.41800000000E+01 0.  1.
        -11    1    4    4    0    0  0.85726977400E+02 -0.35439736245E+02  0.59695135030E+02  0.11031137161E+03  0.00000000000E+00 0.  1.
         11    1    4    4    0    0  0.15902255162E+02 -0.32106451537E+02  0.12203610933E+03  0.12718694088E+03  0.00000000000E+00 0. -1.
</event>
<event>
 8    1  0.6684013E-009  0.8889852E+02  0.7561462E-02  0.1305541E+00
          1   -1    0    0  501    0  0.00000000000E+00  0.00000000000E+00  0.23265998852E+02  0.23265998852E+02  0.00000000000E+00 0. -1.
         -1   -1    0    0    0  501 -0.00000000000E+00 -0.00000000000E+00 -0.54213577535E+03  0.54213577535E+03  0.00000000000E+00 0.  1.
         25    2    1    2    0    0  0.29232425059E+02  0.36897975320E+01 -0.27799366908E+03  0.30626060115E+03  0.12508767521E+03 0.  0.
         23    2    1    2    0    0 -0.29232425059E+02 -0.36897975320E+01 -0.24087610742E+03  0.25914117305E+03  0.90910390852E+02 0.  0.
          5    1    3    3  502    0 -0.31158790268E+02 -0.10889305326E+02 -0.15904617157E+02  0.36876502387E+02  0.41800000000E+01 0. -1.
         -5    1    3    3    0  502  0.60391215327E+02  0.14579102858E+02 -0.26208905192E+03  0.26938409876E+03  0.41800000000E+01 0. -1.
        -11    1    4    4    0    0  0.25346154226E+02 -0.10145073285E+02 -0.15356367144E+03  0.15597163598E+03  0.00000000000E+00 0.  1.
         11    1    4    4    0    0 -0.54578579286E+02  0.64552757529E+01 -0.87312435979E+02  0.10316953707E+03  0.00000000000E+00 0. -1.
</event>
<event>
 8    1  0.6684013E-009  0.7375357E+02  0.7561462E-02  0.1347775E+00
          3   -1    0    0  501    0  0.00000000000E+00  0.00000000000E+00  0.28787840742E+02  0.28787840742E+02  0.00000000000E+00 0. -1.
         -3   -1    0    0    0  501 -0.00000000000E+00 -0.00000000000E+00 -0.47319316932E+03  0.47319316932E+03  0.00000000000E+00 0.  1.
         25    2    1    2    0    0  0.43566804611E+02  0.11754679909E+02 -0.23486933594E+03  0.26990359902E+03  0.12509240119E+03 0.  0.
         23    2    1    2    0    0 -0.43566804611E+02 -0.11754679909E+02 -0.20953599264E+03  0.23207741104E+03  0.88985131011E+02 0.  0.
          5    1    3    3  502    0  0.56847858569E+01  0.61413464861E+01 -0.23099703808E+03  0.23118636839E+03  0.41800000000E+01 0. -1.
         -5    1    3    3    0  502  0.37882018754E+02  0.56133334224E+01 -0.38722978575E+01  0.38717230630E+02  0.41800000000E+01 0. -1.
        -11    1    4    4    0    0  0.25321819001E+01  0.34343287998E+02 -0.78427946008E+02  0.85655216366E+02  0.00000000000E+00 0.  1.
         11    1    4    4    0    0 -0.46098986511E+02 -0.46097967906E+02 -0.13110804663E+03  0.14642219467E+03  0.00000000000E+00 0. -1.
</event>
<event>
 8    1  0.6684013E-009  0.1923789E+03  0.7561462E-02  0.1156333E+00
         -3   -1    0    0    0  501 -0.00000000000E+00  0.00000000000E+00  0.13061960939E+03  0.13061960939E+03  0.00000000000E+00 0.  1.
          3   -1    0    0  501    0  0.00000000000E+00 -0.00000000000E+00 -0.35913326452E+03  0.35913326452E+03  0.00000000000E+00 0. -1.
         25    2    1    2    0    0  0.92887751907E+02  0.16202847771E+03 -0.96501259437E+02  0.24462399291E+03  0.12508814008E+03 0.  0.
         23    2    1    2    0    0 -0.92887751907E+02 -0.16202847771E+03 -0.13201239569E+03  0.24512888100E+03  0.88201664618E+02 0.  0.
          5    1    3    3  502    0  0.95654925027E+01  0.20336049320E+02 -0.75469796660E+02  0.78855666611E+02  0.41800000000E+01 0. -1.
         -5    1    3    3    0  502  0.83322259404E+02  0.14169242839E+03 -0.21031462777E+02  0.16576832630E+03  0.41800000000E+01 0. -1.
        -11    1    4    4    0    0 -0.53758914238E+02 -0.14528031354E+03 -0.70180216389E+02  0.17006367376E+03  0.00000000000E+00 0.  1.
         11    1    4    4    0    0 -0.39128837669E+02 -0.16748164176E+02 -0.61832179305E+02  0.75065207241E+02  0.00000000000E+00 0. -1.
</event>
<event>
 8    1  0.6684013E-009  0.1315232E+03  0.7561462E-02  0.1225213E+00
          2   -1    0    0  501    0  0.00000000000E+00  0.00000000000E+00  0.12328568577E+03  0.12328568577E+03  0.00000000000E+00 0. -1.
         -2   -1    0    0    0  501 -0.00000000000E+00 -0.00000000000E+00 -0.15268880786E+03  0.15268880786E+03  0.00000000000E+00 0.  1.
         25    2    1    2    0    0 -0.79370049194E+02  0.27923728242E+02 -0.31641130733E+02  0.15403531325E+03  0.12508547983E+03 0.  0.
         23    2    1    2    0    0  0.79370049194E+02 -0.27923728242E+02  0.22380086421E+01  0.12193918039E+03  0.88231602749E+02 0.  0.
          5    1    3    3  502    0 -0.81217373172E+01  0.64718836404E+02 -0.34058088314E+02  0.73701534463E+02  0.41800000000E+01 0.  1.
         -5    1    3    3    0  502 -0.71248311877E+02 -0.36795108162E+02  0.24169575810E+01  0.80333778785E+02  0.41800000000E+01 0.  1.
        -11    1    4    4    0    0  0.96684123396E+02 -0.22869434471E+02 -0.10430366801E+02  0.99898064553E+02  0.00000000000E+00 0.  1.
         11    1    4    4    0    0 -0.17314074202E+02 -0.50542937719E+01  0.12668375443E+02  0.22041115838E+02  0.00000000000E+00 0. -1.
</event>
<event>
 8    1  0.6684013E-009  0.1156136E+03  0.7561462E-02  0.1250514E+00
          4   -1    0    0  501    0  0.00000000000E+00  0.00000000000E+00  0.45958669970E+02  0.45958669970E+02  0.00000000000E+00 0. -1.
         -4   -1    0    0    0  501 -0.00000000000E+00 -0.00000000000E+00 -0.31034401484E+03  0.31034401484E+03  0.00000000000E+00 0.  1.
         25    2    1    2    0    0 -0.49873375724E+02 -0.35620189523E+00 -0.14750620599E+03  0.19973313068E+03  0.12509101567E+03 0.  0.
         23    2    1    2    0    0  0.49873375724E+02  0.35620189523E+00 -0.11687913888E+03  0.15656955412E+03  0.91464811200E+02 0.  0.
          5    1    3    3  502    0  0.92412528588E+01 -0.53604720553E+02 -0.67974072967E+02  0.87159702935E+02  0.41800000000E+01 0. -1.
         -5    1    3    3    0  502 -0.59114628583E+02  0.53248518658E+02 -0.79532133025E+02  0.11257342775E+03  0.41800000000E+01 0. -1.
        -11    1    4    4    0    0 -0.23324391114E+02 -0.40371214259E+01 -0.57606596920E+02  0.62280378763E+02  0.00000000000E+00 0.  1.
         11    1    4    4    0    0  0.73197766838E+02  0.43933233211E+01 -0.59272541956E+02  0.94289175359E+02  0.00000000000E+00 0. -1.
</event>
<event>
 8    1  0.6684013E-009  0.9583836E+02  0.7561462E-02  0.1289299E+00
          1   -1    0    0  501    0  0.00000000000E+00  0.00000000000E+00  0.18357305911E+04  0.18357305911E+04  0.00000000000E+00 0. -1.
         -1   -1    0    0    0  501 -0.00000000000E+00 -0.00000000000E+00 -0.21295602402E+02  0.21295602402E+02  0.00000000000E+00 0.  1.
         25    2    1    2    0    0  0.25184494643E+02 -0.18772680848E+02  0.17166930590E+04  0.17215315621E+04  0.12509671531E+03 0.  0.
         23    2    1    2    0    0 -0.25184494643E+02  0.18772680848E+02  0.97741929755E+02  0.13549463146E+03  0.88423062628E+02 0.  0.
          5    1    3    3  502    0  0.75336132911E+02 -0.29405034706E+01  0.91991665250E+03  0.92301045467E+03  0.41800000000E+01 0.  1.
         -5    1    3    3    0  502 -0.50151638268E+02 -0.15832177377E+02  0.79677640648E+03  0.79852110742E+03  0.41800000000E+01 0.  1.
        -11    1    4    4    0    0 -0.61248860342E+01  0.36721981994E+02  0.31680954642E+01  0.37363819657E+02  0.00000000000E+00 0.  1.
         11    1    4    4    0    0 -0.19059608609E+02 -0.17949301146E+02  0.94573834290E+02  0.98130811799E+02  0.00000000000E+00 0. -1.
</event>
<event>
 8    1  0.6684013E-009  0.1532259E+03  0.7561462E-02  0.1196564E+00
          1   -1    0    0  501    0  0.00000000000E+00  0.00000000000E+00  0.54564971758E+03  0.54564971758E+03  0.00000000000E+00 0. -1.
         -1   -1    0    0    0  501 -0.00000000000E+00 -0.00000000000E+00 -0.73617202556E+02  0.73617202556E+02  0.00000000000E+00 0.  1.
         25    2    1    2    0    0  0.89093292046E+02 -0.95831884695E+02  0.81755170562E+02  0.19862884724E+03  0.12509255066E+03 0.  0.
         23    2    1    2    0    0 -0.89093292046E+02  0.95831884695E+02  0.39027734446E+03  0.42063807290E+03  0.86594560800E+02 0.  0.
          5    1    3    3  502    0  0.41769105058E+02  0.33322388789E+01  0.77960446160E+02  0.88606238600E+02  0.41800000000E+01 0. -1.
         -5    1    3    3    0  502  0.47324186987E+02 -0.99164123574E+02  0.37947244018E+01  0.11002260864E+03  0.41800000000E+01 0. -1.
        -11    1    4    4    0    0 -0.40854289986E+02  0.97919757218E+02  0.30080582184E+03  0.31896942536E+03  0.00000000000E+00 0. -1.
         11    1    4    4    0    0 -0.48239002060E+02 -0.20878725230E+01  0.89471522622E+02  0.10166864754E+03  0.00000000000E+00 0.  1.
</event>
<event>
 8    1  0.6684013E-009  0.9395150E+02  0.7561462E-02  0.1293555E+00
          1   -1    0    0  501    0  0.00000000000E+00  0.00000000000E+00  0.12771745075E+03  0.12771745075E+03  0.00000000000E+00 0. -1.
         -1   -1    0    0    0  501 -0.00000000000E+00 -0.00000000000E+00 -0.15847426481E+03  0.15847426481E+03  0.00000000000E+00 0.  1.
         25    2    1    2    0    0  0.77003595118E+02 -0.16914086396E+02  0.31578991141E+02  0.15120027047E+03  0.12509456076E+03 0.  0.
         23    2    1    2    0    0 -0.77003595118E+02  0.16914086396E+02 -0.62335805207E+02  0.13499144508E+03  0.90118242633E+02 0.  0.
          5    1    3    3  502    0  0.15307164524E+02 -0.26789253209E+02  0.70776730408E+02  0.77322644422E+02  0.41800000000E+01 0.  1.
         -5    1    3    3    0  502  0.61696430594E+02  0.98751668125E+01 -0.39197739267E+02  0.73877626053E+02  0.41800000000E+01 0.  1.
        -11    1    4    4    0    0 -0.62305163323E+02 -0.10362383211E+02  0.24169828873E+01  0.63207231934E+02  0.00000000000E+00 0. -1.
         11    1    4    4    0    0 -0.14698431795E+02  0.27276469607E+02 -0.64752788095E+02  0.71784213150E+02  0.00000000000E+00 0.  1.
</event>
<event>
 8    1  0.6684013E-009  0.1819614E+03  0.7561462E-02  0.1165918E+00
          1   -1    0    0  501    0  0.00000000000E+00  0.00000000000E+00  0.13723139274E+04  0.13723139274E+04  0.00000000000E+00 0. -1.
         -1   -1    0    0    0  501 -0.00000000000E+00 -0.00000000000E+00 -0.25768447874E+02  0.25768447874E+02  0.00000000000E+00 0.  1.
         25    2    1    2    0    0  0.13464128442E+03 -0.68547634102E+02  0.78508827506E+03  0.80921945491E+03  0.12508186503E+03 0.  0.
         23    2    1    2    0    0 -0.13464128442E+03  0.68547634102E+02  0.56145720444E+03  0.58886292034E+03  0.93264639161E+02 0.  0.
          5    1    3    3  502    0  0.31421508566E+02  0.30602526562E+02  0.99200816622E+02  0.10854538337E+03  0.41800000000E+01 0. -1.
         -5    1    3    3    0  502  0.10321977585E+03 -0.99150160663E+02  0.68588745844E+03  0.70067407154E+03  0.41800000000E+01 0. -1.
        -11    1    4    4    0    0 -0.32680546623E+02  0.67178091216E+02  0.26673745847E+03  0.27700141844E+03  0.00000000000E+00 0.  1.
         11    1    4    4    0    0 -0.10196073780E+03  0.13695428860E+01  0.29471974597E+03  0.31186150189E+03  0.00000000000E+00 0. -1.
</event>
<event>
 8    1  0.6684013E-009  0.1196883E+03  0.7561462E-02  0.1243612E+00
          2   -1    0    0  501    0  0.00000000000E+00  0.00000000000E+00  0.95529284885E+03  0.95529284885E+03  0.00000000000E+00 0. -1.
         -2   -1    0    0    0  501 -0.00000000000E+00 -0.00000000000E+00 -0.16018165986E+02  0.16018165986E+02  0.00000000000E+00 0.  1.
         25    2    1    2    0    0  0.44314113030E+02 -0.31982007912E+02  0.44617108601E+03  0.46658569676E+03  0.12508790904E+03 0.  0.
         23    2    1    2    0    0 -0.44314113030E+02  0.31982007912E+02  0.49310359686E+03  0.50472531808E+03  0.92789546989E+02 0.  0.
          5    1    3    3  502    0  0.43687750499E+02 -0.76556428462E+02  0.34197509594E+03  0.35317693147E+03  0.41800000000E+01 0.  1.
         -5    1    3    3    0  502  0.62636253134E+00  0.44574420550E+02  0.10419599007E+03  0.11340876528E+03  0.41800000000E+01 0.  1.
        -11    1    4    4    0    0 -0.13534906820E+02 -0.32336323614E+02  0.12736868226E+03  0.13210455234E+03  0.00000000000E+00 0. -1.
         11    1    4    4    0    0 -0.30779206210E+02  0.64318331525E+02  0.36573491460E+03  0.37262076574E+03  0.00000000000E+00 0.  1.
</event>
<event>
 8    1  0.6684013E-009  0.9736527E+02  0.7561462E-02  0.1285936E+00
         -1   -1    0    0    0  501 -0.00000000000E+00  0.00000000000E+00  0.33287815981E+02  0.33287815981E+02  0.00000000000E+00 0.  1.
          1   -1    0    0  501    0  0.00000000000E+00 -0.00000000000E+00 -0.42891831919E+03  0.42891831919E+03  0.00000000000E+00 0. -1.
         25    2    1    2    0    0 -0.43130931137E+02 -0.18956054515E+02 -0.28555538345E+03  0.31529224735E+03  0.12509082699E+03 0.  0.
         23    2    1    2    0    0  0.43130931137E+02  0.18956054515E+02 -0.11007511975E+03  0.14691388782E+03  0.85132539144E+02 0.  0.
          5    1    3    3  502    0  0.40262801983E+01 -0.47049419793E+02 -0.35436322128E+02  0.59186689053E+02  0.41800000000E+01 0. -1.
         -5    1    3    3    0  502 -0.47157211335E+02  0.28093365278E+02 -0.25011906133E+03  0.25610555830E+03  0.41800000000E+01 0. -1.
        -11    1    4    4    0    0  0.47339688729E+02 -0.21220326433E+02 -0.38058715078E+02  0.64341387740E+02  0.00000000000E+00 0.  1.
         11    1    4    4    0    0 -0.42087575924E+01  0.40176380948E+02 -0.72016404676E+02  0.82572500077E+02  0.00000000000E+00 0. -1.
</event>
<event>
 8    1  0.6684013E-009  0.9205661E+02  0.7561462E-02  0.1297946E+00
          2   -1    0    0  501    0  0.00000000000E+00  0.00000000000E+00  0.83961556826E+02  0.83961556826E+02  0.00000000000E+00 0. -1.
         -2   -1    0    0    0  501 -0.00000000000E+00 -0.00000000000E+00 -0.23009859620E+03  0.23009859620E+03  0.00000000000E+00 0.  1.
         25    2    1    2    0    0 -0.16403775688E+02  0.12955062302E+02 -0.12360051282E+01  0.12682943347E+03  0.12508900827E+03 0.  0.
         23    2    1    2    0    0  0.16403775688E+02 -0.12955062302E+02 -0.14490103425E+03  0.18723071956E+03  0.11671381720E+03 0.  0.
          5    1    3    3  502    0 -0.40629425908E+02 -0.21276194546E+02  0.44916227166E+02  0.64330137314E+02  0.41800000000E+01 0.  1.
         -5    1    3    3    0  502  0.24225650220E+02  0.34231256848E+02 -0.46152232295E+02  0.62499296154E+02  0.41800000000E+01 0.  1.
        -11    1    4    4    0    0  0.17800754481E+02 -0.52967678165E+02 -0.25737732627E+02  0.61521318834E+02  0.00000000000E+00 0. -1.
         11    1    4    4    0    0 -0.13969787935E+01  0.40012615863E+02 -0.11916330162E+03  0.12570940072E+03  0.00000000000E+00 0.  1.
</event>
<event>
 8    1  0.6684013E-009  0.1720668E+03  0.7561462E-02  0.1175710E+00
         -2   -1    0    0    0  501 -0.00000000000E+00  0.00000000000E+00  0.18310330516E+03  0.18310330516E+03  0.00000000000E+00 0. -1.
          2   -1    0    0  501    0  0.00000000000E+00 -0.00000000000E+00 -0.22136829955E+03  0.22136829955E+03  0.00000000000E+00 0.  1.
         25    2    1    2    0    0 -0.34670527115E+02  0.12868952960E+03 -0.12403720467E+03  0.22089782054E+03  0.12509028138E+03 0.  0.
         23    2    1    2    0    0  0.34670527115E+02 -0.12868952960E+03  0.85772210275E+02  0.18357378417E+03  0.92625167745E+02 0.  0.
          5    1    3    3  502    0 -0.61984270160E+00 -0.24979193881E+02 -0.17139347085E+02  0.30587153356E+02  0.41800000000E+01 0. -1.
         -5    1    3    3    0  502 -0.34050684413E+02  0.15366872348E+03 -0.10689785758E+03  0.19031066718E+03  0.41800000000E+01 0. -1.
        -11    1    4    4    0    0 -0.19862936059E+02  0.17774609974E+01  0.43832185572E+01  0.20418330034E+02  0.00000000000E+00 0.  1.
         11    1    4    4    0    0  0.54533463174E+02 -0.13046699060E+03  0.81388991717E+02  0.16315545414E+03  0.00000000000E+00 0. -1.
</event>
<event>
 8    1  0.6684013E-009  0.1182010E+03  0.7561462E-02  0.1246095E+00
         -1   -1    0    0    0  501 -0.00000000000E+00  0.00000000000E+00  0.45373926082E+02  0.45373926082E+02  0.00000000000E+00 0.  1.
          1   -1    0    0  501    0  0.00000000000E+00 -0.00000000000E+00 -0.54395424041E+03  0.54395424041E+03  0.00000000000E+00 0. -1.
         25    2    1    2    0    0  0.29910437333E+02 -0.11208857324E+03 -0.29707862018E+03  0.34258129681E+03  0.12509099024E+03 0.  0.
         23    2    1    2    0    0 -0.29910437333E+02  0.11208857324E+03 -0.20150169415E+03  0.24674686969E+03  0.82599046256E+02 0.  0.
          5    1    3    3  502    0  0.51277311945E+01 -0.60895717467E+02 -0.27689429668E+02  0.67221714857E+02  0.41800000000E+01 0. -1.
         -5    1    3    3    0  502  0.24782706139E+02 -0.51192855775E+02 -0.26938919051E+03  0.27535958195E+03  0.41800000000E+01 0. -1.
        -11    1    4    4    0    0 -0.29402814425E+02  0.68707491293E+02 -0.51917151820E+02  0.90997997280E+02  0.00000000000E+00 0.  1.
         11    1    4    4    0    0 -0.50762290771E+00  0.43381081948E+02 -0.14958454233E+03  0.15574887241E+03  0.00000000000E+00 0. -1.
</event>
<event>
 8    1  0.6684013E-009  0.1433020E+03  0.7561462E-02  0.1208954E+00
         -1   -1    0    0    0  501 -0.00000000000E+00  0.00000000000E+00  0.14083588471E+03  0.14083588471E+03  0.00000000000E+00 0.  1.
          1   -1    0    0  501    0  0.00000000000E+00 -0.00000000000E+00 -0.15384979416E+03  0.15384979416E+03  0.00000000000E+00 0. -1.
         25    2    1    2    0    0  0.82936034909E+02  0.37464600439E+02 -0.18551847750E+02  0.15580247301E+03  0.12509299488E+03 0.  0.
         23    2    1    2    0    0 -0.82936034909E+02 -0.37464600439E+02  0.55379382957E+01  0.13888320586E+03  0.10476590064E+03 0.  0.
          5    1    3    3  502    0  0.11029646530E+03  0.51075838195E+02 -0.39689770657E+01  0.12168515392E+03  0.41800000000E+01 0. -1.
         -5    1    3    3    0  502 -0.27360430394E+02 -0.13611237756E+02 -0.14582870684E+02  0.34117319091E+02  0.41800000000E+01 0. -1.
        -11    1    4    4    0    0 -0.70704038272E+02 -0.69931109704E+02  0.19755289810E+02  0.10138881895E+03  0.00000000000E+00 0.  1.
         11    1    4    4    0    0 -0.12231996637E+02  0.32466509265E+02 -0.14217351514E+02  0.37494386908E+02  0.00000000000E+00 0. -1.
</event>
<event>
 8    1  0.6684013E-009  0.1258179E+03  0.7561462E-02  0.1233797E+00
          1   -1    0    0  501    0  0.00000000000E+00  0.00000000000E+00  0.94052117042E+03  0.94052117042E+03  0.00000000000E+00 0. -1.
         -1   -1    0    0    0  501 -0.00000000000E+00 -0.00000000000E+00 -0.19943939121E+02  0.19943939121E+02  0.00000000000E+00 0.  1.
         25    2    1    2    0    0 -0.67822574400E+02  0.18446810129E+02  0.34387126615E+03  0.37260597786E+03  0.12509029000E+03 0.  0.
         23    2    1    2    0    0  0.67822574400E+02 -0.18446810129E+02  0.57670596515E+03  0.58785913168E+03  0.89712886805E+02 0.  0.
          5    1    3    3  502    0  0.31066176531E+02  0.22547257708E+02  0.15002482653E+03  0.15491419280E+03  0.41800000000E+01 0.  1.
         -5    1    3    3    0  502 -0.98888750931E+02 -0.41004475784E+01  0.19384643962E+03  0.21769178506E+03  0.41800000000E+01 0.  1.
        -11    1    4    4    0    0  0.64275959251E+02  0.26027315872E+02  0.35398876635E+03  0.36071715624E+03  0.00000000000E+00 0.  1.
         11    1    4    4    0    0  0.35466151498E+01 -0.44474126001E+02  0.22271719881E+03  0.22714197544E+03  0.00000000000E+00 0. -1.
</event>
<event>
 8    1  0.6684013E-009  0.1172409E+03  0.7561462E-02  0.1247719E+00
          2   -1    0    0  501    0  0.00000000000E+00  0.00000000000E+00  0.84326617763E+03  0.84326617763E+03  0.00000000000E+00 0. -1.
         -2   -1    0    0    0  501 -0.00000000000E+00 -0.00000000000E+00 -0.33757941680E+02  0.33757941680E+02  0.00000000000E+00 0.  1.
         25    2    1    2    0    0  0.53382926158E+02  0.22135022324E+02  0.72552001729E+03  0.73849008252E+03  0.12509440622E+03 0.  0.
         23    2    1    2    0    0 -0.53382926158E+02 -0.22135022324E+02  0.83988218656E+02  0.13853403679E+03  0.93797454434E+02 0.  0.
          5    1    3    3  502    0  0.79324346443E+02  0.44075252458E+02  0.63931924111E+03  0.64574108145E+03  0.41800000000E+01 0. -1.
         -5    1    3    3    0  502 -0.25941420285E+02 -0.21940230134E+02  0.86200776179E+02  0.92749001065E+02  0.41800000000E+01 0. -1.
        -11    1    4    4    0    0  0.44327618545E+01  0.30740662650E+02  0.16739059930E+02  0.35282202952E+02  0.00000000000E+00 0. -1.
         11    1    4    4    0    0 -0.57815688013E+02 -0.52875684974E+02  0.67249158727E+02  0.10325183384E+03  0.00000000000E+00 0.  1.
</event>
<event>
 8    1  0.6684013E-009  0.9165373E+02  0.7561462E-02  0.1298896E+00
          2   -1    0    0  501    0  0.00000000000E+00  0.00000000000E+00  0.35229903804E+03  0.35229903804E+03  0.00000000000E+00 0. -1.
         -2   -1    0    0    0  501 -0.00000000000E+00 -0.00000000000E+00 -0.41282246331E+02  0.41282246331E+02  0.00000000000E+00 0.  1.
         25    2    1    2    0    0 -0.28004041584E+02 -0.12534245516E+02  0.23741090871E+03  0.27009783441E+03  0.12509023512E+03 0.  0.
         23    2    1    2    0    0  0.28004041584E+02  0.12534245516E+02  0.73605882997E+02  0.12348344996E+03  0.94281507976E+02 0.  0.
          5    1    3    3  502    0 -0.21472219663E+02 -0.64480672976E+02  0.85112676369E+02  0.10899749301E+03  0.41800000000E+01 0.  1.
         -5    1    3    3    0  502 -0.65318219217E+01  0.51946427460E+02  0.15229823235E+03  0.16110034140E+03  0.41800000000E+01 0.  1.
        -11    1    4    4    0    0 -0.14158728712E+02  0.14786568709E+02  0.78363358685E+02  0.80993383664E+02  0.00000000000E+00 0. -1.
         11    1    4    4    0    0  0.42162770296E+02 -0.22523231932E+01 -0.47574756880E+01  0.42490066295E+02  0.00000000000E+00 0.  1.
</event>
<event>
 8    1  0.6684013E-009  0.9891945E+02  0.7561462E-02  0.1282585E+00
         -2   -1    0    0    0  501 -0.00000000000E+00  0.00000000000E+00  0.36450552354E+02  0.36450552354E+02  0.00000000000E+00 0.  1.
          2   -1    0    0  501    0  0.00000000000E+00 -0.00000000000E+00 -0.35082658442E+03  0.35082658442E+03  0.00000000000E+00 0. -1.
         25    2    1    2    0    0 -0.38837599961E+01 -0.30841552191E+02 -0.15420044102E+03  0.20097383510E+03  0.12508565645E+03 0.  0.
         23    2    1    2    0    0  0.38837599961E+01  0.30841552191E+02 -0.16017559104E+03  0.18630330168E+03  0.89924497867E+02 0.  0.
          5    1    3    3  502    0  0.49723874077E+01 -0.79167243921E+02 -0.99796693367E+02  0.12755010605E+03  0.41800000000E+01 0.  1.
         -5    1    3    3    0  502 -0.88561474038E+01  0.48325691731E+02 -0.54403747655E+02  0.73423729046E+02  0.41800000000E+01 0.  1.
        -11    1    4    4    0    0 -0.14435389068E+02  0.44152991262E+02 -0.32641485695E+02  0.56774410461E+02  0.00000000000E+00 0.  1.
         11    1    4    4    0    0  0.18319149064E+02 -0.13311439071E+02 -0.12753410535E+03  0.12952889122E+03  0.00000000000E+00 0. -1.
</event>
<event>
 8    1  0.6684013E-009  0.1532534E+03  0.7561462E-02  0.1196531E+00
         -2   -1    0    0    0  501 -0.00000000000E+00  0.00000000000E+00  0.23105093259E+02  0.23105093259E+02  0.00000000000E+00 0.  1.
          2   -1    0    0  501    0  0.00000000000E+00 -0.00000000000E+00 -0.11754894185E+04  0.11754894185E+04  0.00000000000E+00 0. -1.
         25    2    1    2    0    0  0.99818475619E+02 -0.63495348869E+02 -0.74989514159E+03  0.76940563100E+03  0.12508762620E+03 0.  0.
         23    2    1    2    0    0 -0.99818475619E+02  0.63495348869E+02 -0.40248918363E+03  0.42918888074E+03  0.90609960874E+02 0.  0.
          5    1    3    3  502    0 -0.28119688067E+00 -0.58879914299E+02 -0.15021957263E+03  0.16140110217E+03  0.41800000000E+01 0.  1.
         -5    1    3    3    0  502  0.10009967250E+03 -0.46154345696E+01 -0.59967556896E+03  0.60800452883E+03  0.41800000000E+01 0.  1.
        -11    1    4    4    0    0 -0.81450462877E+02  0.38034065345E+00 -0.25555583074E+03  0.26822211912E+03  0.00000000000E+00 0. -1.
         11    1    4    4    0    0 -0.18368012742E+02  0.63115008215E+02 -0.14693335289E+03  0.16096676162E+03  0.00000000000E+00 0.  1.
</event>
<event>
 8    1  0.6684013E-009  0.1302245E+03  0.7561462E-02  0.1227123E+00
          1   -1    0    0  501    0  0.00000000000E+00  0.00000000000E+00  0.22407686768E+03  0.22407686768E+03  0.00000000000E+00 0. -1.
         -1   -1    0    0    0  501 -0.00000000000E+00 -0.00000000000E+00 -0.97867326177E+02  0.97867326177E+02  0.00000000000E+00 0.  1.
         25    2    1    2    0    0 -0.58522976741E+02  0.68664921225E+02  0.22620325897E+02  0.15588394218E+03  0.12509322152E+03 0.  0.
         23    2    1    2    0    0  0.58522976741E+02 -0.68664921225E+02  0.10358921561E+03  0.16606025168E+03  0.93303115626E+02 0.  0.
          5    1    3    3  502    0  0.23196463664E+02  0.35008161738E+02  0.47925072699E+02  0.63858690153E+02  0.41800000000E+01 0.  1.
         -5    1    3    3    0  502 -0.81719440405E+02  0.33656759486E+02 -0.25304746802E+02  0.92025252023E+02  0.41800000000E+01 0.  1.
        -11    1    4    4    0    0  0.15586528941E+02 -0.83039060391E+02  0.68881598976E+02  0.10900963312E+03  0.00000000000E+00 0.  1.
         11    1    4    4    0    0  0.42936447800E+02  0.14374139166E+02  0.34707616633E+02  0.57050618566E+02  0.00000000000E+00 0. -1.
</event>
<event>
 8    1  0.6684013E-009  0.7653764E+02  0.7561462E-02  0.1339175E+00
         -1   -1    0    0    0  501 -0.00000000000E+00  0.00000000000E+00  0.51137422275E+03  0.51137422275E+03  0.00000000000E+00 0.  1.
          1   -1    0    0  501    0  0.00000000000E+00 -0.00000000000E+00 -0.29324317502E+02  0.29324317502E+02  0.00000000000E+00 0. -1.
         25    2    1    2    0    0 -0.43476693646E+02  0.31891490372E+02  0.22496572023E+03  0.26298589031E+03  0.12507882785E+03 0.  0.
         23    2    1    2    0    0  0.43476693646E+02 -0.31891490372E+02  0.25708418502E+03  0.27771264995E+03  0.90137382382E+02 0.  0.
          5    1    3    3  502    0 -0.81124589221E+01  0.50563115621E+01  0.21753065556E+03  0.21778070802E+03  0.41800000000E+01 0. -1.
         -5    1    3    3    0  502 -0.35364234724E+02  0.26835178810E+02  0.74350646690E+01  0.45205182292E+02  0.41800000000E+01 0. -1.
        -11    1    4    4    0    0 -0.21036616070E+02 -0.25745587854E+02  0.45009742924E+02  0.55957586328E+02  0.00000000000E+00 0.  1.
         11    1    4    4    0    0  0.64513309717E+02 -0.61459025178E+01  0.21207444210E+03  0.22175506362E+03  0.00000000000E+00 0. -1.
</event>
<event>
 8    1  0.6684013E-009  0.1364535E+03  0.7561462E-02  0.1218182E+00
         -1   -1    0    0    0  501 -0.00000000000E+00  0.00000000000E+00  0.13181349010E+03  0.13181349010E+03  0.00000000000E+00 0.  1.
          1   -1    0    0  501    0  0.00000000000E+00 -0.00000000000E+00 -0.16255131361E+03  0.16255131361E+03  0.00000000000E+00 0. -1.
         25    2    1    2    0    0  0.44168238409E+02  0.83938421336E+02  0.57946232242E+01  0.15709266078E+03  0.12509210428E+03 0.  0.
         23    2    1    2    0    0 -0.44168238409E+02 -0.83938421336E+02 -0.36532446733E+02  0.13727214294E+03  0.92263371397E+02 0.  0.
          5    1    3    3  502    0 -0.21020744118E+01  0.10476492557E+03 -0.52292063501E+01  0.10499964450E+03  0.41800000000E+01 0.  1.
         -5    1    3    3    0  502  0.46270312821E+02 -0.20826504230E+02  0.11023829574E+02  0.52093016284E+02  0.41800000000E+01 0.  1.
        -11    1    4    4    0    0 -0.54938110774E+01  0.12264480921E+02  0.16117345659E+02  0.20984953741E+02  0.00000000000E+00 0.  1.
         11    1    4    4    0    0 -0.38674427332E+02 -0.96202902257E+02 -0.52649792392E+02  0.11628718920E+03  0.00000000000E+00 0. -1.
</event>
<event>
 8    1  0.6684013E-009  0.1243372E+03  0.7561462E-02  0.1236109E+00
         -2   -1    0    0    0  501 -0.00000000000E+00  0.00000000000E+00  0.11824387402E+03  0.11824387402E+03  0.00000000000E+00 0.  1.
          2   -1    0    0  501    0  0.00000000000E+00 -0.00000000000E+00 -0.17242718400E+03  0.17242718400E+03  0.00000000000E+00 0. -1.
         25    2    1    2    0    0 -0.18473864953E+02 -0.90587400649E+02  0.22562344210E+02  0.15717777915E+03  0.12509370104E+03 0.  0.
         23    2    1    2    0    0  0.18473864953E+02  0.90587400649E+02 -0.76745654194E+02  0.13349327887E+03  0.58165275060E+02 0.  0.
          5    1    3    3  502    0 -0.61092034580E+02 -0.25618673585E+02 -0.18889497574E+02  0.69013322220E+02  0.41800000000E+01 0.  1.
         -5    1    3    3    0  502  0.42618169627E+02 -0.64968727065E+02  0.41451841783E+02  0.88164456931E+02  0.41800000000E+01 0.  1.
        -11    1    4    4    0    0  0.29950860173E+02  0.28495289617E+02 -0.50108874904E+02  0.64961026005E+02  0.00000000000E+00 0.  1.
         11    1    4    4    0    0 -0.11476995220E+02  0.62092111032E+02 -0.26636779290E+02  0.68532252864E+02  0.00000000000E+00 0. -1.
</event>
<event>
 8    1  0.6684013E-009  0.1305238E+03  0.7561462E-02  0.1226681E+00
          1   -1    0    0  501    0  0.00000000000E+00  0.00000000000E+00  0.38273741942E+02  0.38273741942E+02  0.00000000000E+00 0.  1.
         -1   -1    0    0    0  501 -0.00000000000E+00 -0.00000000000E+00 -0.62537363811E+03  0.62537363811E+03  0.00000000000E+00 0. -1.
         25    2    1    2    0    0  0.63139697961E+02  0.89514307955E+02 -0.32460109239E+03  0.36470685746E+03  0.12508313199E+03 0.  0.
         23    2    1    2    0    0 -0.63139697961E+02 -0.89514307955E+02 -0.26249880378E+03  0.29894052259E+03  0.91980330922E+02 0.  0.
          5    1    3    3  502    0 -0.22785593356E+02  0.15138312325E+02 -0.17296867776E+03  0.17516845507E+03  0.41800000000E+01 0.  1.
         -5    1    3    3    0  502  0.85925291317E+02  0.74375995631E+02 -0.15163241463E+03  0.18953840239E+03  0.41800000000E+01 0.  1.
        -11    1    4    4    0    0 -0.38591966462E+02 -0.86754362968E+02 -0.11382648870E+03  0.14822998651E+03  0.00000000000E+00 0.  1.
         11    1    4    4    0    0 -0.24547731499E+02 -0.27599449878E+01 -0.14867231507E+03  0.15071053609E+03  0.00000000000E+00 0. -1.
</event>
<event>
 8    1  0.6684013E-009  0.1170007E+03  0.7561462E-02  0.1248129E+00
         -1   -1    0    0    0  501 -0.00000000000E+00  0.00000000000E+00  0.83694510886E+02  0.83694510886E+02  0.00000000000E+00 0.  1.
          1   -1    0    0  501    0  0.00000000000E+00 -0.00000000000E+00 -0.32940538860E+03  0.32940538860E+03  0.00000000000E+00 0. -1.
         25    2    1    2    0    0  0.11436760582E+03  0.11255919896E+02 -0.19557411221E+03  0.25904232915E+03  0.12508816863E+03 0.  0.
         23    2    1    2    0    0 -0.11436760582E+03 -0.11255919896E+02 -0.50136765507E+02  0.15405757034E+03  0.89517566598E+02 0.  0.
          5    1    3    3  502    0  0.16880553205E+02 -0.60422222317E+01 -0.14795656808E+03  0.14909755184E+03  0.41800000000E+01 0. -1.
         -5    1    3    3    0  502  0.97487052615E+02  0.17298142128E+02 -0.47617544127E+02  0.10994477731E+03  0.41800000000E+01 0. -1.
        -11    1    4    4    0    0 -0.96463830857E+02 -0.23400607324E+01  0.37639727519E+01  0.96565594487E+02  0.00000000000E+00 0.  1.
         11    1    4    4    0    0 -0.17903774963E+02 -0.89158591638E+01 -0.53900738259E+02  0.57491975852E+02  0.00000000000E+00 0. -1.
</event>
<event>
 8    1  0.6684013E-009  0.1189802E+03  0.7561462E-02  0.1244789E+00
         -1   -1    0    0    0  501 -0.00000000000E+00  0.00000000000E+00  0.15154295704E+02  0.15154295704E+02  0.00000000000E+00 0.  1.
          1   -1    0    0  501    0  0.00000000000E+00 -0.00000000000E+00 -0.12296808952E+04  0.12296808952E+04  0.00000000000E+00 0. -1.
         25    2    1    2    0    0  0.73038315703E+02  0.67054076428E+01 -0.79589733585E+03  0.80900410865E+03  0.12512202263E+03 0.  0.
         23    2    1    2    0    0 -0.73038315703E+02 -0.67054076428E+01 -0.41862926361E+03  0.43583108222E+03  0.96533485504E+02 0.  0.
          5    1    3    3  502    0  0.39012973572E+01  0.39740988658E+02 -0.85318001821E+02  0.94293160597E+02  0.41800000000E+01 0. -1.
         -5    1    3    3    0  502  0.69137018346E+02 -0.33035581015E+02 -0.71057933403E+03  0.71471094806E+03  0.41800000000E+01 0. -1.
        -11    1    4    4    0    0 -0.82970375872E+02  0.25954621158E+02 -0.29013449026E+03  0.30287909811E+03  0.00000000000E+00 0. -1.
         11    1    4    4    0    0  0.99320601689E+01 -0.32660028801E+02 -0.12849477335E+03  0.13295198411E+03  0.00000000000E+00 0.  1.
</event>
<event>
 8    1  0.6684013E-009  0.1212138E+03  0.7561462E-02  0.1241108E+00
         -2   -1    0    0    0  501 -0.00000000000E+00  0.00000000000E+00  0.30429323006E+02  0.30429323006E+02  0.00000000000E+00 0.  1.
          2   -1    0    0  501    0  0.00000000000E+00 -0.00000000000E+00 -0.54678141138E+03  0.54678141138E+03  0.00000000000E+00 0. -1.
         25    2    1    2    0    0 -0.29273048159E+01 -0.64024485607E+02 -0.22555934389E+03  0.26576957227E+03  0.12509494017E+03 0.  0.
         23    2    1    2    0    0  0.29273048159E+01  0.64024485607E+02 -0.29079274448E+03  0.31144116212E+03  0.91254990812E+02 0.  0.
          5    1    3    3  502    0  0.58532654027E+02 -0.30974490705E+02 -0.77427603265E+02  0.10197056835E+03  0.41800000000E+01 0.  1.
         -5    1    3    3    0  502 -0.61459958843E+02 -0.33049994901E+02 -0.14813174063E+03  0.16379900392E+03  0.41800000000E+01 0.  1.
        -11    1    4    4    0    0  0.41718316181E+02  0.16607896816E+02 -0.77957657243E+02  0.89964640079E+02  0.00000000000E+00 0.  1.
         11    1    4    4    0    0 -0.38791011365E+02  0.47416588790E+02 -0.21283508724E+03  0.22147652204E+03  0.00000000000E+00 0. -1.
</event>
<event>
 8    1  0.6684013E-009  0.2825248E+03  0.7561462E-02  0.1094318E+00
          1   -1    0    0  501    0  0.00000000000E+00  0.00000000000E+00  0.20522383556E+04  0.20522383556E+04  0.00000000000E+00 0. -1.
         -1   -1    0    0    0  501 -0.00000000000E+00 -0.00000000000E+00 -0.42917292296E+02  0.42917292296E+02  0.00000000000E+00 0.  1.
         25    2    1    2    0    0 -0.53604964401E+02 -0.26286240249E+03  0.12855297676E+04  0.13191669751E+04  0.12507833504E+03 0.  0.
         23    2    1    2    0    0  0.53604964401E+02  0.26286240249E+03  0.72379129570E+03  0.77598867281E+03  0.79463486902E+02 0.  0.
          5    1    3    3  502    0 -0.73571749962E+02 -0.97434502716E+02  0.40593144118E+03  0.42391519441E+03  0.41800000000E+01 0. -1.
         -5    1    3    3    0  502  0.19966785561E+02 -0.16542789978E+03  0.87959832645E+03  0.89525178070E+03  0.41800000000E+01 0. -1.
        -11    1    4    4    0    0  0.67391187608E+02  0.17995074101E+03  0.44280308140E+03  0.48269908872E+03  0.00000000000E+00 0.  1.
         11    1    4    4    0    0 -0.13786223208E+02  0.82911661488E+02  0.28098821430E+03  0.29328958409E+03  0.00000000000E+00 0. -1.
</event>
<event>
 8    1  0.6684013E-009  0.1132291E+03  0.7561462E-02  0.1254704E+00
          2   -1    0    0  501    0  0.00000000000E+00  0.00000000000E+00  0.12229016725E+03  0.12229016725E+03  0.00000000000E+00 0. -1.
         -2   -1    0    0    0  501 -0.00000000000E+00 -0.00000000000E+00 -0.12235522610E+03  0.12235522610E+03  0.00000000000E+00 0.  1.
         25    2    1    2    0    0 -0.48934363082E+02  0.11516764395E+02 -0.24571980479E+02  0.13705116806E+03  0.12510808403E+03 0.  0.
         23    2    1    2    0    0  0.48934363082E+02 -0.11516764395E+02  0.24506921621E+02  0.10759422529E+03  0.91916920942E+02 0.  0.
          5    1    3    3  502    0  0.39531400276E+02 -0.10975120335E+02 -0.19276822268E+02  0.45522007325E+02  0.41800000000E+01 0.  1.
         -5    1    3    3    0  502 -0.88465763358E+02  0.22491884730E+02 -0.52951582117E+01  0.91529160739E+02  0.41800000000E+01 0.  1.
        -11    1    4    4    0    0 -0.15622720760E+02 -0.23464835831E+02 -0.14006898752E+02  0.31477946838E+02  0.00000000000E+00 0.  1.
         11    1    4    4    0    0  0.64557083841E+02  0.11948071436E+02  0.38513820373E+02  0.76116278449E+02  0.00000000000E+00 0. -1.
</event>
<event>
 8    1  0.6684013E-009  0.1136970E+03  0.7561462E-02  0.1253873E+00
          2   -1    0    0  501    0  0.00000000000E+00  0.00000000000E+00  0.49146597735E+03  0.49146597735E+03  0.00000000000E+00 0. -1.
         -2   -1    0    0    0  501 -0.00000000000E+00 -0.00000000000E+00 -0.39423200072E+02  0.39423200072E+02  0.00000000000E+00 0.  1.
         25    2    1    2    0    0 -0.38566939702E+02 -0.73206648564E+02  0.23931427922E+03  0.28242888372E+03  0.12509247735E+03 0.  0.
         23    2    1    2    0    0  0.38566939702E+02  0.73206648564E+02  0.21272849805E+03  0.24846029370E+03  0.98145205833E+02 0.  0.
          5    1    3    3  502    0  0.20169618115E+02 -0.30600698118E+02  0.51515838042E+01  0.37245502224E+02  0.41800000000E+01 0. -1.
         -5    1    3    3    0  502 -0.58736557817E+02 -0.42605950446E+02  0.23416269542E+03  0.24518338150E+03  0.41800000000E+01 0. -1.
        -11    1    4    4    0    0 -0.16998830308E+02 -0.85062892849E+01  0.84295968911E+02  0.86412542862E+02  0.00000000000E+00 0.  1.
         11    1    4    4    0    0  0.55565770010E+02  0.81712937849E+02  0.12843252914E+03  0.16204775084E+03  0.00000000000E+00 0. -1.
</event>
<event>
 8    1  0.6684013E-009  0.2460738E+03  0.7561462E-02  0.1115812E+00
          2   -1    0    0  501    0  0.00000000000E+00  0.00000000000E+00  0.42569107908E+03  0.42569107908E+03  0.00000000000E+00 0. -1.
         -2   -1    0    0    0  501 -0.00000000000E+00 -0.00000000000E+00 -0.20655855297E+03  0.20655855297E+03  0.00000000000E+00 0.  1.
         25    2    1    2    0    0  0.19471772577E+03  0.12422343505E+03 -0.46409797022E+02  0.26673558452E+03  0.12509016048E+03 0.  0.
         23    2    1    2    0    0 -0.19471772577E+03 -0.12422343505E+03  0.26554232314E+03  0.36551404752E+03  0.98698221955E+02 0.  0.
          5    1    3    3  502    0  0.68231834599E+02  0.11544196895E+03 -0.38739187026E+02  0.13964465067E+03  0.41800000000E+01 0. -1.
         -5    1    3    3    0  502  0.12648589117E+03  0.87814660922E+01 -0.76706099960E+01  0.12709093386E+03  0.41800000000E+01 0. -1.
        -11    1    4    4    0    0 -0.10486410456E+03 -0.61870535114E+02  0.21025713324E+03  0.24296605857E+03  0.00000000000E+00 0.  1.
         11    1    4    4    0    0 -0.89853621203E+02 -0.62352899932E+02  0.55285189899E+02  0.12254798895E+03  0.00000000000E+00 0. -1.
</event>
<event>
 8    1  0.6684013E-009  0.8167906E+02  0.7561462E-02  0.1324353E+00
         -1   -1    0    0    0  501 -0.00000000000E+00  0.00000000000E+00  0.25584265923E+03  0.25584265923E+03  0.00000000000E+00 0.  1.
          1   -1    0    0  501    0  0.00000000000E+00 -0.00000000000E+00 -0.60815022710E+02  0.60815022710E+02  0.00000000000E+00 0. -1.
         25    2    1    2    0    0  0.39633760677E+02  0.40239846322E+02  0.10345822754E+03  0.17187530305E+03  0.12508970675E+03 0.  0.
         23    2    1    2    0    0 -0.39633760677E+02 -0.40239846322E+02  0.91569408984E+02  0.14478237889E+03  0.96886017354E+02 0.  0.
          5    1    3    3  502    0  0.54841982280E+02  0.67823945304E+01 -0.65609763535E+01  0.55804683555E+02  0.41800000000E+01 0. -1.
         -5    1    3    3    0  502 -0.15208221603E+02  0.33457451792E+02  0.11001920389E+03  0.11607061949E+03  0.41800000000E+01 0. -1.
        -11    1    4    4    0    0 -0.23773469007E+02  0.38616316573E+01  0.94793006694E+02  0.97804929047E+02  0.00000000000E+00 0.  1.
         11    1    4    4    0    0 -0.15860291670E+02 -0.44101477979E+02 -0.32235977101E+01  0.46977449846E+02  0.00000000000E+00 0. -1.
</event>
<event>
 8    1  0.6684013E-009  0.1361005E+03  0.7561462E-02  0.1218675E+00
          1   -1    0    0  501    0  0.00000000000E+00  0.00000000000E+00  0.23160516099E+03  0.23160516099E+03  0.00000000000E+00 0. -1.
         -1   -1    0    0    0  501 -0.00000000000E+00 -0.00000000000E+00 -0.13369364495E+03  0.13369364495E+03  0.00000000000E+00 0.  1.
         25    2    1    2    0    0 -0.37253515432E+02  0.10347105456E+03 -0.34551564716E+02  0.17010931147E+03  0.12509709702E+03 0.  0.
         23    2    1    2    0    0  0.37253515432E+02 -0.10347105456E+03  0.13246308076E+03  0.19518949447E+03  0.91969491919E+02 0.  0.
          5    1    3    3  502    0 -0.21289060454E+02 -0.24711220792E+02  0.83627999466E+01  0.33930478202E+02  0.41800000000E+01 0. -1.
         -5    1    3    3    0  502 -0.15964454977E+02  0.12818227535E+03 -0.42914364663E+02  0.13617883327E+03  0.41800000000E+01 0. -1.
        -11    1    4    4    0    0  0.17634015460E+02 -0.56018563782E+02  0.64078002318E+01  0.59077050479E+02  0.00000000000E+00 0.  1.
         11    1    4    4    0    0  0.19619499972E+02 -0.47452490773E+02  0.12605528053E+03  0.13611244399E+03  0.00000000000E+00 0. -1.
</event>
<event>
 8    1  0.6684013E-009  0.1084192E+03  0.7561462E-02  0.1263526E+00
         -1   -1    0    0    0  501 -0.00000000000E+00  0.00000000000E+00  0.47258508567E+02  0.47258508567E+02  0.00000000000E+00 0.  1.
          1   -1    0    0  501    0  0.00000000000E+00 -0.00000000000E+00 -0.34236931118E+03  0.34236931118E+03  0.00000000000E+00 0. -1.
         25    2    1    2    0    0  0.13786296478E+02 -0.51308336592E+02 -0.22161021413E+03  0.25996311450E+03  0.12508847478E+03 0.  0.
         23    2    1    2    0    0 -0.13786296478E+02  0.51308336592E+02 -0.73500588484E+02  0.12966470524E+03  0.92671419025E+02 0.  0.
          5    1    3    3  502    0  0.68275726124E+02 -0.28058617434E+02 -0.97380738264E+02  0.12226749926E+03  0.41800000000E+01 0. -1.
         -5    1    3    3    0  502 -0.54489429646E+02 -0.23249719158E+02 -0.12422947587E+03  0.13769561525E+03  0.41800000000E+01 0. -1.
        -11    1    4    4    0    0  0.47669184649E+01  0.61945089522E+02 -0.10341397074E+02  0.62983030421E+02  0.00000000000E+00 0.  1.
         11    1    4    4    0    0 -0.18553214943E+02 -0.10636752930E+02 -0.63159191410E+02  0.66681674823E+02  0.00000000000E+00 0. -1.
</event>
<event>
 7    1  0.6684013E-009  0.1388695E+03  0.7561462E-02  0.1214858E+00
         -1   -1    0    0    0  501 -0.00000000000E+00  0.00000000000E+00  0.15933723753E+03  0.15933723753E+03  0.00000000000E+00 0.  1.
          1   -1    0    0  501    0  0.00000000000E+00 -0.00000000000E+00 -0.15728657574E+03  0.15728657574E+03  0.00000000000E+00 0. -1.
         23    2    1    2    0    0 -0.66065174849E+02  0.85135181163E+02 -0.38263122951E+02  0.14657300526E+03  0.91689546262E+02 0.  0.
          5    1    1    2  502    0  0.12233415840E+02  0.24002353677E+02 -0.20342740534E+02  0.34015716038E+02  0.41800000000E+01 0. -1.
         -5    1    1    2    0  502  0.53831759009E+02 -0.10913753484E+03  0.60656525279E+02  0.13603509197E+03  0.41800000000E+01 0. -1.
        -11    1    3    3    0    0 -0.30538182072E+02  0.87924385899E+02 -0.54010612026E+02  0.10761238038E+03  0.00000000000E+00 0. -1.
         11    1    3    3    0    0 -0.35526992777E+02 -0.27892047358E+01  0.15747489075E+02  0.38960624879E+02  0.00000000000E+00 0.  1.
</event>
<event>
 8    1  0.6684013E-009  0.9785534E+02  0.7561462E-02  0.1284872E+00
         -1   -1    0    0    0  501 -0.00000000000E+00  0.00000000000E+00  0.19517764815E+03  0.19517764815E+03  0.00000000000E+00 0.  1.
          1   -1    0    0  501    0  0.00000000000E+00 -0.00000000000E+00 -0.74181280186E+02  0.74181280186E+02  0.00000000000E+00 0. -1.
         25    2    1    2    0    0 -0.16996923809E+02 -0.38898437796E+02  0.98166167951E+02  0.16457585022E+03  0.12508649034E+03 0.  0.
         23    2    1    2    0    0  0.16996923809E+02  0.38898437796E+02  0.22830200018E+02  0.10478307812E+03  0.93039193594E+02 0.  0.
          5    1    3    3  502    0 -0.63754861931E+02 -0.52995792957E+02  0.59167158769E+02  0.10193851857E+03  0.41800000000E+01 0. -1.
         -5    1    3    3    0  502  0.46757938122E+02  0.14097355161E+02  0.38999009182E+02  0.62637331657E+02  0.41800000000E+01 0. -1.
        -11    1    4    4    0    0  0.31260321458E+02  0.38260615448E+02  0.52355163769E+02  0.71987120830E+02  0.00000000000E+00 0.  1.
         11    1    4    4    0    0 -0.14263397648E+02  0.63782234776E+00 -0.29524963751E+02  0.32795957286E+02  0.00000000000E+00 0. -1.
</event>
<event>
 8    1  0.6684013E-009  0.2100813E+03  0.7561462E-02  0.1141502E+00
          1   -1    0    0  501    0  0.00000000000E+00  0.00000000000E+00  0.80187598097E+03  0.80187598097E+03  0.00000000000E+00 0. -1.
         -1   -1    0    0    0  501 -0.00000000000E+00 -0.00000000000E+00 -0.68412793447E+02  0.68412793447E+02  0.00000000000E+00 0.  1.
         25    2    1    2    0    0  0.10366749185E+03  0.14887307046E+03  0.19267903731E+03  0.29270716015E+03  0.12506850208E+03 0.  0.
         23    2    1    2    0    0 -0.10366749185E+03 -0.14887307046E+03  0.54078415022E+03  0.57758161427E+03  0.90790330089E+02 0.  0.
          5    1    3    3  502    0 -0.28891450175E+02  0.31343517708E+02  0.31559931846E+02  0.53203699999E+02  0.41800000000E+01 0.  1.
         -5    1    3    3    0  502  0.13255894202E+03  0.11752955275E+03  0.16111910546E+03  0.23950346015E+03  0.41800000000E+01 0.  1.
        -11    1    4    4    0    0 -0.88200726704E+02 -0.52767078465E+02  0.32482443168E+03  0.34069729112E+03  0.00000000000E+00 0.  1.
         11    1    4    4    0    0 -0.15466765145E+02 -0.96105991995E+02  0.21595971854E+03  0.23688432315E+03  0.00000000000E+00 0. -1.
</event>
<event>
 8    1  0.6684013E-009  0.1156880E+03  0.7561462E-02  0.1250385E+00
          2   -1    0    0  501    0  0.00000000000E+00  0.00000000000E+00  0.82616683517E+03  0.82616683517E+03  0.00000000000E+00 0.  1.
         -2   -1    0    0    0  501 -0.00000000000E+00 -0.00000000000E+00 -0.17540731615E+02  0.17540731615E+02  0.00000000000E+00 0. -1.
         25    2    1    2    0    0 -0.33523200526E+02 -0.43727434349E+02  0.47130592471E+03  0.49072623912E+03  0.12508826325E+03 0.  0.
         23    2    1    2    0    0  0.33523200526E+02  0.43727434349E+02  0.33732017884E+03  0.35298132766E+03  0.88176080306E+02 0.  0.
          5    1    3    3  502    0  0.46296129346E+02 -0.24078729320E+02  0.22584198891E+03  0.23183009544E+03  0.41800000000E+01 0.  1.
         -5    1    3    3    0  502 -0.79819329872E+02 -0.19648705029E+02  0.24546393580E+03  0.25889614368E+03  0.41800000000E+01 0.  1.
        -11    1    4    4    0    0  0.41586338750E+02  0.63192099087E+02  0.30615643526E+03  0.31536396085E+03  0.00000000000E+00 0.  1.
         11    1    4    4    0    0 -0.80631382246E+01 -0.19464664738E+02  0.31163743584E+02  0.37617366808E+02  0.00000000000E+00 0. -1.
</event>
<event>
 8    1  0.6684013E-009  0.2170823E+03  0.7561462E-02  0.1136077E+00
          2   -1    0    0  501    0  0.00000000000E+00  0.00000000000E+00  0.11580245700E+03  0.11580245700E+03  0.00000000000E+00 0. -1.
         -2   -1    0    0    0  501 -0.00000000000E+00 -0.00000000000E+00 -0.72613039122E+03  0.72613039122E+03  0.00000000000E+00 0.  1.
         25    2    1    2    0    0 -0.13998855016E+03  0.14141275628E+03 -0.51633359630E+02  0.24063747302E+03  0.12508408284E+03 0.  0.
         23    2    1    2    0    0  0.13998855016E+03 -0.14141275628E+03 -0.55869457459E+03  0.60129537520E+03  0.99106703807E+02 0.  0.
          5    1    3    3  502    0 -0.78769947116E+02 -0.98579417924E+00 -0.28434564884E+02  0.83855072828E+02  0.41800000000E+01 0.  1.
         -5    1    3    3    0  502 -0.61218603047E+02  0.14239855046E+03 -0.23198794746E+02  0.15678240020E+03  0.41800000000E+01 0.  1.
        -11    1    4    4    0    0  0.20605270090E+02 -0.33302118445E+02 -0.32146591155E+02  0.50665684356E+02  0.00000000000E+00 0. -1.
         11    1    4    4    0    0  0.11938328007E+03 -0.10811063784E+03 -0.52654798343E+03  0.55062969084E+03  0.00000000000E+00 0.  1.
</event>
<event>
 8    1  0.6684013E-009  0.1301087E+03  0.7561462E-02  0.1227295E+00
         -2   -1    0    0    0  501 -0.00000000000E+00  0.00000000000E+00  0.18580603911E+02  0.18580603911E+02  0.00000000000E+00 0.  1.
          2   -1    0    0  501    0  0.00000000000E+00 -0.00000000000E+00 -0.99750005407E+03  0.99750005407E+03  0.00000000000E+00 0. -1.
         25    2    1    2    0    0  0.65655171675E+02  0.31161289490E+02 -0.39164849132E+03  0.41751353118E+03  0.12508948971E+03 0.  0.
         23    2    1    2    0    0 -0.65655171675E+02 -0.31161289490E+02 -0.58727095885E+03  0.59856712681E+03  0.90076626598E+02 0.  0.
          5    1    3    3  502    0 -0.10343220260E+02 -0.39317583052E+02 -0.10508587258E+03  0.11275357004E+03  0.41800000000E+01 0.  1.
         -5    1    3    3    0  502  0.75998391934E+02  0.70478872542E+02 -0.28656261874E+03  0.30475996114E+03  0.41800000000E+01 0.  1.
        -11    1    4    4    0    0 -0.53314583682E+02 -0.62371955884E+02 -0.40396712220E+03  0.41221613449E+03  0.00000000000E+00 0.  1.
         11    1    4    4    0    0 -0.12340587993E+02  0.31210666395E+02 -0.18330383664E+03  0.18635099231E+03  0.00000000000E+00 0. -1.
</event>
<event>
 8    1  0.6684013E-009  0.1155062E+03  0.7561462E-02  0.1250700E+00
          2   -1    0    0  501    0  0.00000000000E+00  0.00000000000E+00  0.96552185413E+02  0.96552185413E+02  0.00000000000E+00 0. -1.
         -2   -1    0    0    0  501 -0.00000000000E+00 -0.00000000000E+00 -0.18721183367E+03  0.18721183367E+03  0.00000000000E+00 0.  1.
         25    2    1    2    0    0  0.12845906419E+01  0.78031534337E+02 -0.36402638841E+02  0.15186688274E+03  0.12509127641E+03 0.  0.
         23    2    1    2    0    0 -0.12845906419E+01 -0.78031534337E+02 -0.54257009413E+02  0.13189713634E+03  0.91446492440E+02 0.  0.
          5    1    3    3  502    0  0.14316212497E+02 -0.12415791823E+02  0.32150803859E+02  0.37553327624E+02  0.41800000000E+01 0.  1.
         -5    1    3    3    0  502 -0.13031621855E+02  0.90447326160E+02 -0.68553442700E+02  0.11431355512E+03  0.41800000000E+01 0.  1.
        -11    1    4    4    0    0  0.43756077349E+02 -0.24419160606E+02 -0.20109563835E+02  0.53993372439E+02  0.00000000000E+00 0. -1.
         11    1    4    4    0    0 -0.45040667991E+02 -0.53612373731E+02 -0.34147445578E+02  0.77903763899E+02  0.00000000000E+00 0.  1.
</event>
<event>
 8    1  0.6684013E-009  0.1135418E+03  0.7561462E-02  0.1254148E+00
         -1   -1    0    0    0  501 -0.00000000000E+00  0.00000000000E+00  0.26223211629E+03  0.26223211629E+03  0.00000000000E+00 0.  1.
          1   -1    0    0  501    0  0.00000000000E+00 -0.00000000000E+00 -0.51962584947E+02  0.51962584947E+02  0.00000000000E+00 0. -1.
         25    2    1    2    0    0 -0.28423215108E+02  0.32738596001E+02  0.12830627044E+03  0.18435920018E+03  0.12508445480E+03 0.  0.
         23    2    1    2    0    0  0.28423215108E+02 -0.32738596001E+02  0.81963260904E+02  0.12983550106E+03  0.90882266540E+02 0.  0.
          5    1    3    3  502    0 -0.65175630037E+02 -0.19674202097E+02  0.64299564152E+02  0.93738163674E+02  0.41800000000E+01 0.  1.
         -5    1    3    3    0  502  0.36752414929E+02  0.52412798099E+02  0.64006706285E+02  0.90621036504E+02  0.41800000000E+01 0.  1.
        -11    1    4    4    0    0  0.39412888804E+02 -0.56300815119E+02  0.77279389560E+02  0.10341789805E+03  0.00000000000E+00 0.  1.
         11    1    4    4    0    0 -0.10989673696E+02  0.23562219118E+02  0.46838713445E+01  0.26417603004E+02  0.00000000000E+00 0. -1.
</event>
<event>
 8    1  0.6684013E-009  0.9381738E+02  0.7561462E-02  0.1293862E+00
         -4   -1    0    0    0  501 -0.00000000000E+00  0.00000000000E+00  0.20761993514E+03  0.20761993514E+03  0.00000000000E+00 0.  1.
          4   -1    0    0  501    0  0.00000000000E+00 -0.00000000000E+00 -0.11365721580E+03  0.11365721580E+03  0.00000000000E+00 0. -1.
         25    2    1    2    0    0  0.69365471374E+02  0.16318454506E+02  0.14189362159E+03  0.20213285706E+03  0.12508409764E+03 0.  0.
         23    2    1    2    0    0 -0.69365471374E+02 -0.16318454506E+02 -0.47930902245E+02  0.11914429388E+03  0.82584083192E+02 0.  0.
          5    1    3    3  502    0  0.69473026631E+02  0.40574493167E+02  0.27508107814E+02  0.85129074473E+02  0.41800000000E+01 0. -1.
         -5    1    3    3    0  502 -0.10755525718E+00 -0.24256038661E+02  0.11438551377E+03  0.11700378259E+03  0.41800000000E+01 0. -1.
        -11    1    4    4    0    0 -0.20716878122E+02  0.14121221626E+02 -0.55844375696E+02  0.61214313982E+02  0.00000000000E+00 0. -1.
         11    1    4    4    0    0 -0.48648593252E+02 -0.30439676132E+02  0.79134734516E+01  0.57929979894E+02  0.00000000000E+00 0.  1.
</event>
<event>
 8    1  0.6684013E-009  0.9642245E+02  0.7561462E-02  0.1288004E+00
         -1   -1    0    0    0  501 -0.00000000000E+00  0.00000000000E+00  0.12242029306E+03  0.12242029306E+03  0.00000000000E+00 0.  1.
          1   -1    0    0  501    0  0.00000000000E+00 -0.00000000000E+00 -0.11653668246E+03  0.11653668246E+03  0.00000000000E+00 0. -1.
         25    2    1    2    0    0  0.65761213165E+00 -0.68515055020E+01 -0.48223576852E+02  0.13424017171E+03  0.12509010654E+03 0.  0.
         23    2    1    2    0    0 -0.65761213165E+00  0.68515055020E+01  0.54107187454E+02  0.10471680381E+03  0.89390411594E+02 0.  0.
          5    1    3    3  502    0  0.47214653789E+02 -0.28457042255E+02  0.10352635821E+02  0.56246566604E+02  0.41800000000E+01 0. -1.
         -5    1    3    3    0  502 -0.46557041657E+02  0.21605536753E+02 -0.58576212672E+02  0.77993605105E+02  0.41800000000E+01 0. -1.
        -11    1    4    4    0    0  0.48205843466E+01  0.46141835071E+02  0.14370918733E+02  0.48567790586E+02  0.00000000000E+00 0.  1.
         11    1    4    4    0    0 -0.54781964783E+01 -0.39290329569E+02  0.39736268721E+02  0.56149013225E+02  0.00000000000E+00 0. -1.
</event>
<event>
 8    1  0.6684013E-009  0.1107049E+03  0.7561462E-02  0.1259270E+00
          2   -1    0    0  501    0  0.00000000000E+00  0.00000000000E+00  0.28515350678E+03  0.28515350678E+03  0.00000000000E+00 0.  1.
         -2   -1    0    0    0  501 -0.00000000000E+00 -0.00000000000E+00 -0.79469399950E+02  0.79469399950E+02  0.00000000000E+00 0. -1.
         25    2    1    2    0    0 -0.17917873968E+02  0.76281855191E+02  0.20700779126E+03  0.25424414602E+03  0.12509152051E+03 0.  0.
         23    2    1    2    0    0  0.17917873968E+02 -0.76281855191E+02 -0.13236844274E+01  0.11037876071E+03  0.77728675774E+02 0.  0.
          5    1    3    3  502    0 -0.21531534494E+02 -0.28245044385E+02  0.92149038211E+02  0.98844864071E+02  0.41800000000E+01 0.  1.
         -5    1    3    3    0  502  0.36136605263E+01  0.10452689958E+03  0.11485875305E+03  0.15539928194E+03  0.41800000000E+01 0.  1.
        -11    1    4    4    0    0 -0.46054108348E+00 -0.42629647178E+02  0.36792459394E+02  0.56313266508E+02  0.00000000000E+00 0.  1.
         11    1    4    4    0    0  0.18378415052E+02 -0.33652208013E+02 -0.38116143821E+02  0.54065494206E+02  0.00000000000E+00 0. -1.
</event>
<event>
 8    1  0.6684013E-009  0.8691937E+02  0.7561462E-02  0.1310488E+00
         -1   -1    0    0    0  501 -0.00000000000E+00  0.00000000000E+00  0.54640317442E+02  0.54640317442E+02  0.00000000000E+00 0.  1.
          1   -1    0    0  501    0  0.00000000000E+00 -0.00000000000E+00 -0.28797471811E+03  0.28797471811E+03  0.00000000000E+00 0. -1.
         25    2    1    2    0    0 -0.15733256607E+02  0.55484278117E+02 -0.94182730515E+02  0.16685326090E+03  0.12507431177E+03 0.  0.
         23    2    1    2    0    0  0.15733256607E+02 -0.55484278117E+02 -0.13915167016E+03  0.17576177465E+03  0.90570269076E+02 0.  0.
          5    1    3    3  502    0 -0.58608931142E+02  0.35445152667E+02 -0.97498696643E+02  0.11922597831E+03  0.41800000000E+01 0.  1.
         -5    1    3    3    0  502  0.42875674535E+02  0.20039125449E+02  0.33159661278E+01  0.47627282590E+02  0.41800000000E+01 0.  1.
        -11    1    4    4    0    0  0.81881360757E+01 -0.25246164626E+02  0.60763004881E+01  0.27227482960E+02  0.00000000000E+00 0.  1.
         11    1    4    4    0    0  0.75451205313E+01 -0.30238113490E+02 -0.14522797065E+03  0.14853429169E+03  0.00000000000E+00 0. -1.
</event>
<event>
 8    1  0.6684013E-009  0.1084261E+03  0.7561462E-02  0.1263513E+00
          2   -1    0    0  501    0  0.00000000000E+00  0.00000000000E+00  0.49480084643E+03  0.49480084643E+03  0.00000000000E+00 0. -1.
         -2   -1    0    0    0  501 -0.00000000000E+00 -0.00000000000E+00 -0.54572436449E+02  0.54572436449E+02  0.00000000000E+00 0.  1.
         25    2    1    2    0    0 -0.40319899295E+02  0.39478831379E+01  0.41252699453E+02  0.13780428505E+03  0.12508779199E+03 0.  0.
         23    2    1    2    0    0  0.40319899295E+02 -0.39478831379E+01  0.39897571053E+03  0.41156899783E+03  0.92553456586E+02 0.  0.
          5    1    3    3  502    0  0.22213967647E+02  0.41313219806E+02  0.44464090237E+02  0.64767045710E+02  0.41800000000E+01 0.  1.
         -5    1    3    3    0  502 -0.62533866942E+02 -0.37365336669E+02 -0.32113907837E+01  0.73037239336E+02  0.41800000000E+01 0.  1.
        -11    1    4    4    0    0 -0.31039722520E+01  0.36986567964E+02  0.99319446573E+02  0.10602826661E+03  0.00000000000E+00 0. -1.
         11    1    4    4    0    0  0.43423871547E+02 -0.40934451102E+02  0.29965626395E+03  0.30554073122E+03  0.00000000000E+00 0.  1.
</event>
<event>
 8    1  0.6684013E-009  0.9602967E+02  0.7561462E-02  0.1288874E+00
          1   -1    0    0  501    0  0.00000000000E+00  0.00000000000E+00  0.30145547451E+03  0.30145547451E+03  0.00000000000E+00 0. -1.
         -1   -1    0    0    0  501 -0.00000000000E+00 -0.00000000000E+00 -0.55684030352E+02  0.55684030352E+02  0.00000000000E+00 0.  1.
         25    2    1    2    0    0  0.64929761655E+02  0.95845256093E+01  0.17263684297E+03  0.22306474682E+03  0.12508662855E+03 0.  0.
         23    2    1    2    0    0 -0.64929761655E+02 -0.95845256093E+01  0.73134601194E+02  0.13407475805E+03  0.91212026480E+02 0.  0.
          5    1    3    3  502    0 -0.76128417840E+01  0.20517924801E+02 -0.11308316608E+02  0.24985816430E+02  0.41800000000E+01 0.  1.
         -5    1    3    3    0  502  0.72542603439E+02 -0.10933399191E+02  0.18394515958E+03  0.19807893039E+03  0.41800000000E+01 0.  1.
        -11    1    4    4    0    0 -0.53625047156E+02  0.25542018861E+02  0.76691134649E+02  0.97002940902E+02  0.00000000000E+00 0.  1.
         11    1    4    4    0    0 -0.11304714500E+02 -0.35126544471E+02 -0.35565334555E+01  0.37071817147E+02  0.00000000000E+00 0. -1.
</event>
<event>
 8    1  0.6684013E-009  0.3731972E+02  0.7561462E-02  0.1528916E+00
         -4   -1    0    0    0  501 -0.00000000000E+00  0.00000000000E+00  0.94525739391E+02  0.94525739391E+02  0.00000000000E+00 0.  1.
          4   -1    0    0  501    0  0.00000000000E+00 -0.00000000000E+00 -0.11128817093E+03  0.11128817093E+03  0.00000000000E+00 0. -1.
         25    2    1    2    0    0 -0.45073938222E+01  0.13659163562E+01 -0.18398999635E+02  0.12652446286E+03  0.12509090370E+03 0.  0.
         23    2    1    2    0    0  0.45073938222E+01 -0.13659163562E+01  0.16365680960E+01  0.79289447458E+02  0.79132520473E+02 0.  0.
          5    1    3    3  502    0  0.20978814274E+02  0.53348069549E+01 -0.67442451262E+02  0.70954403992E+02  0.41800000000E+01 0.  1.
         -5    1    3    3    0  502 -0.25486208096E+02 -0.39688905988E+01  0.49043451627E+02  0.55570058873E+02  0.41800000000E+01 0.  1.
        -11    1    4    4    0    0 -0.98880219200E+01 -0.57205079387E+01 -0.36525781630E+02  0.38270483565E+02  0.00000000000E+00 0. -1.
         11    1    4    4    0    0  0.14395415742E+02  0.43545915826E+01  0.38162349726E+02  0.41018963893E+02  0.00000000000E+00 0.  1.
</event>
<event>
 8    1  0.6684013E-009  0.1197391E+03  0.7561462E-02  0.1243528E+00
          2   -1    0    0  501    0  0.00000000000E+00  0.00000000000E+00  0.91137857815E+03  0.91137857815E+03  0.00000000000E+00 0.  1.
         -2   -1    0    0    0  501 -0.00000000000E+00 -0.00000000000E+00 -0.26936410470E+02  0.26936410470E+02  0.00000000000E+00 0. -1.
         25    2    1    2    0    0  0.48408021060E+02  0.10306677324E+03  0.50547800278E+03  0.53303030360E+03  0.12508875652E+03 0.  0.
         23    2    1    2    0    0 -0.48408021060E+02 -0.10306677324E+03  0.37896416489E+03  0.40528468502E+03  0.87611308557E+02 0.  0.
          5    1    3    3  502    0  0.21330688530E+02  0.12131124073E+02  0.73867021994E+01  0.25965327147E+02  0.41800000000E+01 0.  1.
         -5    1    3    3    0  502  0.27077332530E+02  0.90935649172E+02  0.49809130058E+03  0.50706497645E+03  0.41800000000E+01 0.  1.
        -11    1    4    4    0    0 -0.11693985059E+02 -0.67466088881E+02  0.31995092905E+03  0.32719568982E+03  0.00000000000E+00 0.  1.
         11    1    4    4    0    0 -0.36714036001E+02 -0.35600684364E+02  0.59013235841E+02  0.78088995198E+02  0.00000000000E+00 0. -1.
</event>
<event>
 8    1  0.6684013E-009  0.1933299E+03  0.7561462E-02  0.1155492E+00
         -1   -1    0    0    0  501 -0.00000000000E+00  0.00000000000E+00  0.44739392989E+02  0.44739392989E+02  0.00000000000E+00 0.  1.
          1   -1    0    0  501    0  0.00000000000E+00 -0.00000000000E+00 -0.10467917071E+04  0.10467917071E+04  0.00000000000E+00 0. -1.
         25    2    1    2    0    0  0.41879773487E+02  0.16870746751E+03 -0.70005947964E+03  0.73208364342E+03  0.12508821250E+03 0.  0.
         23    2    1    2    0    0 -0.41879773487E+02 -0.16870746751E+03 -0.30199283449E+03  0.35944745669E+03  0.88242149903E+02 0.  0.
          5    1    3    3  502    0  0.71259722804E+02  0.48127661348E+02 -0.35723333203E+03  0.36746067245E+03  0.41800000000E+01 0.  1.
         -5    1    3    3    0  502 -0.29379949317E+02  0.12057980616E+03 -0.34282614761E+03  0.36462297097E+03  0.41800000000E+01 0.  1.
        -11    1    4    4    0    0 -0.13522648227E+02 -0.11372683754E+03 -0.26158249646E+03  0.28555570043E+03  0.00000000000E+00 0. -1.
         11    1    4    4    0    0 -0.28357125260E+02 -0.54980629964E+02 -0.40410338032E+02  0.73891756267E+02  0.00000000000E+00 0.  1.
</event>
<event>
 8    1  0.6684013E-009  0.1740394E+03  0.7561462E-02  0.1173700E+00
          2   -1    0    0  501    0  0.00000000000E+00  0.00000000000E+00  0.63942136145E+03  0.63942136145E+03  0.00000000000E+00 0. -1.
         -2   -1    0    0    0  501 -0.00000000000E+00 -0.00000000000E+00 -0.75937893444E+02  0.75937893444E+02  0.00000000000E+00 0.  1.
         25    2    1    2    0    0  0.16317185717E+03  0.81175251437E+01  0.13169054501E+03  0.24430573696E+03  0.12510773069E+03 0.  0.
         23    2    1    2    0    0 -0.16317185717E+03 -0.81175251437E+01  0.43179292299E+03  0.47105351793E+03  0.93569969705E+02 0.  0.
          5    1    3    3  502    0  0.13519342029E+03  0.40974244396E+02  0.46611652055E+02  0.14881622257E+03  0.41800000000E+01 0.  1.
         -5    1    3    3    0  502  0.27978436879E+02 -0.32856719252E+02  0.85078892960E+02  0.95489514385E+02  0.41800000000E+01 0.  1.
        -11    1    4    4    0    0 -0.50330344483E+02 -0.13185298050E+01  0.43166564965E+02  0.66319185968E+02  0.00000000000E+00 0. -1.
         11    1    4    4    0    0 -0.11284151268E+03 -0.67989953387E+01  0.38862635802E+03  0.40473433197E+03  0.00000000000E+00 0.  1.
</event>
<event>
 8    1  0.6684013E-009  0.1962700E+03  0.7561462E-02  0.1152925E+00
          1   -1    0    0  501    0  0.00000000000E+00  0.00000000000E+00  0.89941987472E+03  0.89941987472E+03  0.00000000000E+00 0. -1.
         -1   -1    0    0    0  501 -0.00000000000E+00 -0.00000000000E+00 -0.48619502645E+02  0.48619502645E+02  0.00000000000E+00 0.  1.
         25    2    1    2    0    0  0.17065722895E+03 -0.54271917553E+02  0.41614155440E+03  0.46999092701E+03  0.12509335453E+03 0.  0.
         23    2    1    2    0    0 -0.17065722895E+03  0.54271917553E+02  0.43465881767E+03  0.47804845035E+03  0.86791141693E+02 0.  0.
          5    1    3    3  502    0  0.18270391226E+03 -0.28977474117E+02  0.31875539934E+03  0.36856870536E+03  0.41800000000E+01 0.  1.
         -5    1    3    3    0  502 -0.12046683312E+02 -0.25294443436E+02  0.97386155059E+02  0.10142222165E+03  0.41800000000E+01 0.  1.
        -11    1    4    4    0    0 -0.83419569227E+02  0.23401767865E+02  0.31548302371E+03  0.32716357609E+03  0.00000000000E+00 0.  1.
         11    1    4    4    0    0 -0.87237659720E+02  0.30870149688E+02  0.11917579396E+03  0.15088487427E+03  0.00000000000E+00 0. -1.
</event>
<event>
 8    1  0.6684013E-009  0.1620488E+03  0.7561462E-02  0.1186403E+00
          1   -1    0    0  501    0  0.00000000000E+00  0.00000000000E+00  0.15325823956E+03  0.15325823956E+03  0.00000000000E+00 0. -1.
         -1   -1    0    0    0  501 -0.00000000000E+00 -0.00000000000E+00 -0.24209788677E+03  0.24209788677E+03  0.00000000000E+00 0.  1.
         25    2    1    2    0    0  0.91309602079E+02  0.92715400599E+02 -0.13653468209E+03  0.22632300660E+03  0.12508714947E+03 0.  0.
         23    2    1    2    0    0 -0.91309602079E+02 -0.92715400599E+02  0.47695034876E+02  0.16903311973E+03  0.96766679557E+02 0.  0.
          5    1    3    3  502    0  0.13627699206E+02 -0.22733436950E+02 -0.63889057690E+02  0.69295075105E+02  0.41800000000E+01 0.  1.
         -5    1    3    3    0  502  0.77681902873E+02  0.11544883755E+03 -0.72645624404E+02  0.15702793150E+03  0.41800000000E+01 0.  1.
        -11    1    4    4    0    0 -0.97115286842E+02 -0.40021450031E+02  0.13389213792E+02  0.10588846229E+03  0.00000000000E+00 0.  1.
         11    1    4    4    0    0  0.58056847629E+01 -0.52693950568E+02  0.34305821084E+02  0.63144657433E+02  0.00000000000E+00 0. -1.
</event>
<event>
 8    1  0.6684013E-009  0.1014397E+03  0.7561462E-02  0.1277297E+00
         -1   -1    0    0    0  501 -0.00000000000E+00  0.00000000000E+00  0.21322311616E+03  0.21322311616E+03  0.00000000000E+00 0.  1.
          1   -1    0    0  501    0  0.00000000000E+00 -0.00000000000E+00 -0.62996626369E+02  0.62996626369E+02  0.00000000000E+00 0. -1.
         25    2    1    2    0    0  0.14268111687E+02  0.37991228243E+02  0.75157815007E+02  0.15146703442E+03  0.12508658172E+03 0.  0.
         23    2    1    2    0    0 -0.14268111687E+02 -0.37991228243E+02  0.75068674788E+02  0.12475270811E+03  0.91000108855E+02 0.  0.
          5    1    3    3  502    0  0.59011326733E+02  0.52597237409E+01  0.75259540132E+02  0.95872165707E+02  0.41800000000E+01 0.  1.
         -5    1    3    3    0  502 -0.44743215046E+02  0.32731504502E+02 -0.10172512416E+00  0.55594868717E+02  0.41800000000E+01 0.  1.
        -11    1    4    4    0    0 -0.26358679443E+02 -0.58455268793E+02  0.24079031894E+02  0.68495242234E+02  0.00000000000E+00 0.  1.
         11    1    4    4    0    0  0.12090567756E+02  0.20464040550E+02  0.50989642894E+02  0.56257465876E+02  0.00000000000E+00 0. -1.
</event>
<event>
 8    1  0.6684013E-009  0.8669032E+02  0.7561462E-02  0.1311070E+00
          1   -1    0    0  501    0  0.00000000000E+00  0.00000000000E+00  0.15880585891E+03  0.15880585891E+03  0.00000000000E+00 0. -1.
         -1   -1    0    0    0  501 -0.00000000000E+00 -0.00000000000E+00 -0.11774401775E+03  0.11774401775E+03  0.00000000000E+00 0.  1.
         25    2    1    2    0    0 -0.68378639266E+02 -0.32656309749E+02 -0.12919788151E+02  0.14682457319E+03  0.12509381077E+03 0.  0.
         23    2    1    2    0    0  0.68378639266E+02  0.32656309749E+02  0.53981629311E+02  0.12972530346E+03  0.90402241019E+02 0.  0.
          5    1    3    3  502    0 -0.74913503226E+02 -0.15658893137E+02  0.42987058613E+02  0.87878288036E+02  0.41800000000E+01 0. -1.
         -5    1    3    3    0  502  0.65348639603E+01 -0.16997416613E+02 -0.55906846764E+02  0.58946285155E+02  0.41800000000E+01 0. -1.
        -11    1    4    4    0    0  0.60102047624E+02  0.20817872587E+02 -0.97756759839E+01  0.64352185577E+02  0.00000000000E+00 0.  1.
         11    1    4    4    0    0  0.82765916417E+01  0.11838437162E+02  0.63757305295E+02  0.65373117886E+02  0.00000000000E+00 0. -1.
</event>
<event>
 8    1  0.6684013E-009  0.1195122E+03  0.7561462E-02  0.1243904E+00
         -2   -1    0    0    0  501 -0.00000000000E+00  0.00000000000E+00  0.46414263603E+02  0.46414263603E+02  0.00000000000E+00 0. -1.
          2   -1    0    0  501    0  0.00000000000E+00 -0.00000000000E+00 -0.49871924592E+03  0.49871924592E+03  0.00000000000E+00 0.  1.
         25    2    1    2    0    0  0.40016442820E+02 -0.89867917037E+02 -0.31605849474E+03  0.35386205860E+03  0.12509127153E+03 0.  0.
         23    2    1    2    0    0 -0.40016442820E+02  0.89867917037E+02 -0.13624648758E+03  0.19127145092E+03  0.91346069160E+02 0.  0.
          5    1    3    3  502    0  0.48203658074E+02 -0.70349175125E+01 -0.22570936346E+03  0.23094430469E+03  0.41800000000E+01 0.  1.
         -5    1    3    3    0  502 -0.81872152539E+01 -0.82832999524E+02 -0.90349131277E+02  0.12291775391E+03  0.41800000000E+01 0.  1.
        -11    1    4    4    0    0 -0.48582029842E+02  0.70567332787E+02 -0.14499522221E+03  0.16841489407E+03  0.00000000000E+00 0.  1.
         11    1    4    4    0    0  0.85655870220E+01  0.19300584249E+02  0.87487346324E+01  0.22856556850E+02  0.00000000000E+00 0. -1.
</event>
<event>
 8    1  0.6684013E-009  0.1269425E+03  0.7561462E-02  0.1232064E+00
         -2   -1    0    0    0  501 -0.00000000000E+00  0.00000000000E+00  0.19796870545E+03  0.19796870545E+03  0.00000000000E+00 0. -1.
          2   -1    0    0  501    0  0.00000000000E+00 -0.00000000000E+00 -0.11106760328E+03  0.11106760328E+03  0.00000000000E+00 0.  1.
         25    2    1    2    0    0 -0.91626187277E+02 -0.12640870285E+02  0.73855145309E+01  0.15574935317E+03  0.12509262725E+03 0.  0.
         23    2    1    2    0    0  0.91626187277E+02  0.12640870285E+02  0.79515587638E+02  0.15328695556E+03  0.92838635654E+02 0.  0.
          5    1    3    3  502    0  0.10740343921E+02 -0.19242306317E+02 -0.37504530076E+02  0.43699925814E+02  0.41800000000E+01 0.  1.
         -5    1    3    3    0  502 -0.10236653120E+03  0.66014360320E+01  0.44890044607E+02  0.11204942736E+03  0.41800000000E+01 0.  1.
        -11    1    4    4    0    0  0.67456598107E+02 -0.34535787778E+02  0.60502943089E+02  0.96972776531E+02  0.00000000000E+00 0. -1.
         11    1    4    4    0    0  0.24169589170E+02  0.47176658063E+02  0.19012644549E+02  0.56314179026E+02  0.00000000000E+00 0.  1.
</event>
<event>
 8    1  0.6684013E-009  0.8651438E+02  0.7561462E-02  0.1311519E+00
         -1   -1    0    0    0  501 -0.00000000000E+00  0.00000000000E+00  0.15882349828E+03  0.15882349828E+03  0.00000000000E+00 0.  1.
          1   -1    0    0  501    0  0.00000000000E+00 -0.00000000000E+00 -0.11480220164E+03  0.11480220164E+03  0.00000000000E+00 0. -1.
         25    2    1    2    0    0 -0.69089473073E+00 -0.71803195633E+02 -0.14127554588E+02  0.14492602088E+03  0.12509111676E+03 0.  0.
         23    2    1    2    0    0  0.69089473073E+00  0.71803195633E+02  0.58148851231E+02  0.12869967903E+03  0.89588739495E+02 0.  0.
          5    1    3    3  502    0 -0.29109187733E+01 -0.63825303880E+02  0.49309173486E+02  0.80814663603E+02  0.41800000000E+01 0.  1.
         -5    1    3    3    0  502  0.22200240426E+01 -0.79778917537E+01 -0.63436728074E+02  0.64111357280E+02  0.41800000000E+01 0.  1.
        -11    1    4    4    0    0 -0.26641883551E+02  0.44166313244E+01 -0.10233054688E+02  0.28879265912E+02  0.00000000000E+00 0.  1.
         11    1    4    4    0    0  0.27332778281E+02  0.67386564309E+02  0.68381905919E+02  0.99820413118E+02  0.00000000000E+00 0. -1.
</event>
<event>
 8    1  0.6684013E-009  0.1100142E+03  0.7561462E-02  0.1260544E+00
          1   -1    0    0  501    0  0.00000000000E+00  0.00000000000E+00  0.23205487457E+02  0.23205487457E+02  0.00000000000E+00 0. -1.
         -1   -1    0    0    0  501 -0.00000000000E+00 -0.00000000000E+00 -0.54252384851E+03  0.54252384851E+03  0.00000000000E+00 0.  1.
         25    2    1    2    0    0 -0.31801811794E+02  0.21773688982E+02 -0.29709332899E+03  0.32464947304E+03  0.12508950974E+03 0.  0.
         23    2    1    2    0    0  0.31801811794E+02 -0.21773688982E+02 -0.22222503206E+03  0.24107986293E+03  0.85147440768E+02 0.  0.
          5    1    3    3  502    0 -0.11621595670E+02  0.71761967008E+02 -0.20861081668E+03  0.22095426366E+03  0.41800000000E+01 0.  1.
         -5    1    3    3    0  502 -0.20180216124E+02 -0.49988278026E+02 -0.88482512316E+02  0.10369520938E+03  0.41800000000E+01 0.  1.
        -11    1    4    4    0    0 -0.27512799042E+01 -0.49045586969E+02 -0.12714726463E+03  0.13630651505E+03  0.00000000000E+00 0.  1.
         11    1    4    4    0    0  0.34553091698E+02  0.27271897987E+02 -0.95077767430E+02  0.10477334788E+03  0.00000000000E+00 0. -1.
</event>
<event>
 8    1  0.6684013E-009  0.9878410E+02  0.7561462E-02  0.1282874E+00
         -2   -1    0    0    0  501 -0.00000000000E+00  0.00000000000E+00  0.20791016665E+02  0.20791016665E+02  0.00000000000E+00 0.  1.
          2   -1    0    0  501    0  0.00000000000E+00 -0.00000000000E+00 -0.14358951664E+04  0.14358951664E+04  0.00000000000E+00 0. -1.
         25    2    1    2    0    0  0.42677726628E+02  0.34666724674E+02 -0.12699513248E+04  0.12772807593E+04  0.12508637148E+03 0.  0.
         23    2    1    2    0    0 -0.42677726628E+02 -0.34666724674E+02 -0.14515282488E+03  0.17940542380E+03  0.89965512110E+02 0.  0.
          5    1    3    3  502    0  0.19745321788E+02  0.63397197000E+02 -0.11458999092E+04  0.11478297595E+04  0.41800000000E+01 0.  1.
         -5    1    3    3    0  502  0.22932404841E+02 -0.28730472326E+02 -0.12405141560E+03  0.12945099978E+03  0.41800000000E+01 0.  1.
        -11    1    4    4    0    0  0.22139175155E+02 -0.13116332966E+02 -0.93261253071E+01  0.27370748625E+02  0.00000000000E+00 0.  1.
         11    1    4    4    0    0 -0.64816901784E+02 -0.21550391709E+02 -0.13582669957E+03  0.15203467517E+03  0.00000000000E+00 0. -1.
</event>
<event>
 8    1  0.6684013E-009  0.1142904E+03  0.7561462E-02  0.1252825E+00
          1   -1    0    0  501    0  0.00000000000E+00  0.00000000000E+00  0.25110779089E+03  0.25110779089E+03  0.00000000000E+00 0. -1.
         -1   -1    0    0    0  501 -0.00000000000E+00 -0.00000000000E+00 -0.86733860098E+02  0.86733860098E+02  0.00000000000E+00 0.  1.
         25    2    1    2    0    0  0.38808727379E+02 -0.21319866721E+02 -0.13070812320E+02  0.13334168690E+03  0.12509398584E+03 0.  0.
         23    2    1    2    0    0 -0.38808727379E+02  0.21319866721E+02  0.17744474311E+03  0.20449996409E+03  0.91503794554E+02 0.  0.
          5    1    3    3  502    0  0.38979557137E+01 -0.68586753339E+02 -0.25021444082E+02  0.73231699805E+02  0.41800000000E+01 0.  1.
         -5    1    3    3    0  502  0.34910771665E+02  0.47266886618E+02  0.11950631762E+02  0.60109987093E+02  0.41800000000E+01 0.  1.
        -11    1    4    4    0    0 -0.43616736067E+02 -0.27649070620E+02  0.10369521492E+03  0.11584294700E+03  0.00000000000E+00 0. -1.
         11    1    4    4    0    0  0.48080086886E+01  0.48968937341E+02  0.73749528192E+02  0.88657017097E+02  0.00000000000E+00 0.  1.
</event>
<event>
 8    1  0.6684013E-009  0.1143790E+03  0.7561462E-02  0.1252669E+00
         -2   -1    0    0    0  501 -0.00000000000E+00  0.00000000000E+00  0.75008376552E+02  0.75008376552E+02  0.00000000000E+00 0.  1.
          2   -1    0    0  501    0  0.00000000000E+00 -0.00000000000E+00 -0.18711000930E+03  0.18711000930E+03  0.00000000000E+00 0. -1.
         25    2    1    2    0    0 -0.42941844552E+02  0.38448223506E+01 -0.91991891457E+02  0.16114876239E+03  0.12509049067E+03 0.  0.
         23    2    1    2    0    0  0.42941844552E+02 -0.38448223506E+01 -0.20109741290E+02  0.10096962346E+03  0.89059971331E+02 0.  0.
          5    1    3    3  502    0  0.39278659142E+02  0.23120412067E+02 -0.46024151591E+02  0.64908100017E+02  0.41800000000E+01 0. -1.
         -5    1    3    3    0  502 -0.82220503694E+02 -0.19275589716E+02 -0.45967739865E+02  0.96240662378E+02  0.41800000000E+01 0. -1.
        -11    1    4    4    0    0  0.46308554913E+02 -0.40563975068E+02 -0.75873236504E+01  0.62028105014E+02  0.00000000000E+00 0.  1.
         11    1    4    4    0    0 -0.33667103607E+01  0.36719152718E+02 -0.12522417640E+02  0.38941518441E+02  0.00000000000E+00 0. -1.
</event>
<event>
 8    1  0.6684013E-009  0.1114947E+03  0.7561462E-02  0.1257827E+00
         -2   -1    0    0    0  501 -0.00000000000E+00  0.00000000000E+00  0.43445445614E+02  0.43445445614E+02  0.00000000000E+00 0.  1.
          2   -1    0    0  501    0  0.00000000000E+00 -0.00000000000E+00 -0.52124876907E+03  0.52124876907E+03  0.00000000000E+00 0. -1.
         25    2    1    2    0    0  0.62447194571E+01  0.31773507818E+02 -0.44773185421E+03  0.46600514363E+03  0.12509367808E+03 0.  0.
         23    2    1    2    0    0 -0.62447194571E+01 -0.31773507818E+02 -0.30071469244E+02  0.98689071052E+02  0.88242207376E+02 0.  0.
          5    1    3    3  502    0  0.65546407774E+02  0.19441112237E+02 -0.23956365341E+03  0.24916361061E+03  0.41800000000E+01 0. -1.
         -5    1    3    3    0  502 -0.59301688317E+02  0.12332395581E+02 -0.20816820080E+03  0.21684153302E+03  0.41800000000E+01 0. -1.
        -11    1    4    4    0    0  0.30758781344E+02 -0.44977995901E+02 -0.20771601067E+02  0.58314510681E+02  0.00000000000E+00 0.  1.
         11    1    4    4    0    0 -0.37003500801E+02  0.13204488083E+02 -0.92998681771E+01  0.40374560371E+02  0.00000000000E+00 0. -1.
</event>
<event>
 8    1  0.6684013E-009  0.1359129E+03  0.7561462E-02  0.1218937E+00
          1   -1    0    0  501    0  0.00000000000E+00  0.00000000000E+00  0.31788150834E+03  0.31788150834E+03  0.00000000000E+00 0. -1.
         -1   -1    0    0    0  501 -0.00000000000E+00 -0.00000000000E+00 -0.64874657849E+02  0.64874657849E+02  0.00000000000E+00 0.  1.
         25    2    1    2    0    0 -0.77898438625E+01  0.92026077847E+02  0.16588765886E+03  0.22736638896E+03  0.12508908345E+03 0.  0.
         23    2    1    2    0    0  0.77898438625E+01 -0.92026077847E+02  0.87119191631E+02  0.15538977722E+03  0.89592123781E+02 0.  0.
          5    1    3    3  502    0 -0.39457800112E+02  0.10763005636E+03  0.98593259453E+02  0.15125888480E+03  0.41800000000E+01 0.  1.
         -5    1    3    3    0  502  0.31667956250E+02 -0.15603978516E+02  0.67294399405E+02  0.76107504162E+02  0.41800000000E+01 0.  1.
        -11    1    4    4    0    0  0.41219313430E+02 -0.70924281215E+02  0.81186534827E+02  0.11541463903E+03  0.00000000000E+00 0. -1.
         11    1    4    4    0    0 -0.33429469568E+02 -0.21101796631E+02  0.59326568038E+01  0.39975138191E+02  0.00000000000E+00 0.  1.
</event>
<event>
 8    1  0.6684013E-009  0.1262174E+03  0.7561462E-02  0.1233179E+00
         -1   -1    0    0    0  501 -0.00000000000E+00  0.00000000000E+00  0.67580713845E+02  0.67580713845E+02  0.00000000000E+00 0.  1.
          1   -1    0    0  501    0  0.00000000000E+00 -0.00000000000E+00 -0.44622922991E+03  0.44622922991E+03  0.00000000000E+00 0. -1.
         25    2    1    2    0    0  0.43177279453E+02 -0.99010443424E+02 -0.32104524559E+03  0.36109253159E+03  0.12510164382E+03 0.  0.
         23    2    1    2    0    0 -0.43177279453E+02  0.99010443424E+02 -0.57603270475E+02  0.15271741217E+03  0.91307862976E+02 0.  0.
          5    1    3    3  502    0 -0.29218285363E+02 -0.27427341655E+02 -0.19446615531E+03  0.19859638776E+03  0.41800000000E+01 0. -1.
         -5    1    3    3    0  502  0.72395564816E+02 -0.71583101769E+02 -0.12657909028E+03  0.16249614383E+03  0.41800000000E+01 0. -1.
        -11    1    4    4    0    0 -0.31757312120E+02  0.45217492235E+02  0.18989850553E+02  0.58427415664E+02  0.00000000000E+00 0.  1.
         11    1    4    4    0    0 -0.11419967332E+02  0.53792951189E+02 -0.76593121028E+02  0.94289996502E+02  0.00000000000E+00 0. -1.
</event>
<event>
 8    1  0.6684013E-009  0.9383959E+02  0.7561462E-02  0.1293811E+00
         -1   -1    0    0    0  501 -0.00000000000E+00  0.00000000000E+00  0.67156970724E+02  0.67156970724E+02  0.00000000000E+00 0.  1.
          1   -1    0    0  501    0  0.00000000000E+00 -0.00000000000E+00 -0.20061344070E+03  0.20061344070E+03  0.00000000000E+00 0. -1.
         25    2    1    2    0    0 -0.40864963421E+02  0.95249473950E+01 -0.89070391989E+02  0.15918630184E+03  0.12508426802E+03 0.  0.
         23    2    1    2    0    0  0.40864963421E+02 -0.95249473950E+01 -0.44386077991E+02  0.10858410959E+03  0.89775915909E+02 0.  0.
          5    1    3    3  502    0 -0.25359642621E+02  0.54775654613E+02 -0.29412764022E+01  0.60577283853E+02  0.41800000000E+01 0. -1.
         -5    1    3    3    0  502 -0.15505320800E+02 -0.45250707218E+02 -0.86129115586E+02  0.98609017988E+02  0.41800000000E+01 0. -1.
        -11    1    4    4    0    0  0.29339413890E+02 -0.38250039281E+02 -0.57444066435E+02  0.74991249363E+02  0.00000000000E+00 0. -1.
         11    1    4    4    0    0  0.11525549531E+02  0.28725091886E+02  0.13057988445E+02  0.33592860224E+02  0.00000000000E+00 0.  1.
</event>
<event>
 8    1  0.6684013E-009  0.8943166E+02  0.7561462E-02  0.1304234E+00
          1   -1    0    0  501    0  0.00000000000E+00  0.00000000000E+00  0.13636656643E+03  0.13636656643E+03  0.00000000000E+00 0. -1.
         -1   -1    0    0    0  501 -0.00000000000E+00 -0.00000000000E+00 -0.10583482387E+03  0.10583482387E+03  0.00000000000E+00 0.  1.
         25    2    1    2    0    0 -0.44021537097E+01  0.44289771618E+02  0.41323994903E+02  0.13905059311E+03  0.12508569887E+03 0.  0.
         23    2    1    2    0    0  0.44021537097E+01 -0.44289771618E+02 -0.10792252341E+02  0.10315079720E+03  0.92426464960E+02 0.  0.
          5    1    3    3  502    0  0.15498743379E+02  0.70598484263E+02 -0.14722801872E+02  0.73882273392E+02  0.41800000000E+01 0. -1.
         -5    1    3    3    0  502 -0.19900897089E+02 -0.26308712645E+02  0.56046796775E+02  0.65168319717E+02  0.41800000000E+01 0. -1.
        -11    1    4    4    0    0  0.30107123386E+02 -0.13206661546E+02 -0.41148327047E+02  0.52669152324E+02  0.00000000000E+00 0.  1.
         11    1    4    4    0    0 -0.25704969676E+02 -0.31083110072E+02  0.30356074706E+02  0.50481644875E+02  0.00000000000E+00 0. -1.
</event>
<event>
 8    1  0.6684013E-009  0.1331456E+03  0.7561462E-02  0.1222861E+00
         -3   -1    0    0    0  501 -0.00000000000E+00  0.00000000000E+00  0.24012701989E+03  0.24012701989E+03  0.00000000000E+00 0.  1.
          3   -1    0    0  501    0  0.00000000000E+00 -0.00000000000E+00 -0.83516715677E+02  0.83516715677E+02  0.00000000000E+00 0. -1.
         25    2    1    2    0    0 -0.52915063129E+02  0.69878810482E+02  0.57250537402E+02  0.16312038901E+03  0.12509030825E+03 0.  0.
         23    2    1    2    0    0  0.52915063129E+02 -0.69878810482E+02  0.99359766811E+02  0.16052334656E+03  0.90621903913E+02 0.  0.
          5    1    3    3  502    0  0.27368748276E+02 -0.75214889375E+01 -0.12740652284E+02  0.31391365034E+02  0.41800000000E+01 0.  1.
         -5    1    3    3    0  502 -0.80283811405E+02  0.77400299419E+02  0.69991189686E+02  0.13172902398E+03  0.41800000000E+01 0.  1.
        -11    1    4    4    0    0  0.67866425264E+02 -0.15507489379E+02  0.57580110925E+02  0.90342697984E+02  0.00000000000E+00 0.  1.
         11    1    4    4    0    0 -0.14951362135E+02 -0.54371321103E+02  0.41779655886E+02  0.70180648573E+02  0.00000000000E+00 0. -1.
</event>
<event>
 8    1  0.6684013E-009  0.1577317E+03  0.7561462E-02  0.1191282E+00
          2   -1    0    0  501    0  0.00000000000E+00  0.00000000000E+00  0.61030309470E+03  0.61030309470E+03  0.00000000000E+00 0. -1.
         -2   -1    0    0    0  501 -0.00000000000E+00 -0.00000000000E+00 -0.63197362684E+02  0.63197362684E+02  0.00000000000E+00 0.  1.
         25    2    1    2    0    0 -0.11291682066E+03 -0.70502524239E+02  0.12452364406E+03  0.22107487765E+03  0.12508856577E+03 0.  0.
         23    2    1    2    0    0  0.11291682066E+03  0.70502524239E+02  0.42258208796E+03  0.45242557973E+03  0.91610424177E+02 0.  0.
          5    1    3    3  502    0  0.25736095251E+02 -0.22031572104E+01  0.76722192262E+01  0.27267853753E+02  0.41800000000E+01 0.  1.
         -5    1    3    3    0  502 -0.13865291591E+03 -0.68299367028E+02  0.11685142483E+03  0.19380702390E+03  0.41800000000E+01 0.  1.
        -11    1    4    4    0    0  0.56777114433E+02  0.47434057444E+02  0.10118448093E+03  0.12534723655E+03  0.00000000000E+00 0.  1.
         11    1    4    4    0    0  0.56139706231E+02  0.23068466795E+02  0.32139760703E+03  0.32707834318E+03  0.00000000000E+00 0. -1.
</event>
<event>
 8    1  0.6684013E-009  0.1018771E+03  0.7561462E-02  0.1276398E+00
         -2   -1    0    0    0  501 -0.00000000000E+00  0.00000000000E+00  0.60652549673E+02  0.60652549673E+02  0.00000000000E+00 0.  1.
          2   -1    0    0  501    0  0.00000000000E+00 -0.00000000000E+00 -0.20840864119E+03  0.20840864119E+03  0.00000000000E+00 0. -1.
         25    2    1    2    0    0 -0.17861732307E+02 -0.35972810485E+01 -0.65632354390E+02  0.14243486719E+03  0.12509238001E+03 0.  0.
         23    2    1    2    0    0  0.17861732307E+02  0.35972810485E+01 -0.82123737126E+02  0.12662632367E+03  0.94646372008E+02 0.  0.
          5    1    3    3  502    0 -0.48623402769E+02 -0.38100524918E+02 -0.72694055776E+02  0.95487085205E+02  0.41800000000E+01 0. -1.
         -5    1    3    3    0  502  0.30761670463E+02  0.34503243870E+02  0.70617013855E+01  0.46947781988E+02  0.41800000000E+01 0. -1.
        -11    1    4    4    0    0  0.54570115943E+02  0.15684144417E+02 -0.57454474552E+02  0.80776893888E+02  0.00000000000E+00 0.  1.
         11    1    4    4    0    0 -0.36708383636E+02 -0.12086863368E+02 -0.24669262574E+02  0.45849429781E+02  0.00000000000E+00 0. -1.
</event>
<event>
 8    1  0.6684013E-009  0.1329978E+03  0.7561462E-02  0.1223074E+00
         -3   -1    0    0    0  501 -0.00000000000E+00  0.00000000000E+00  0.15099603623E+03  0.15099603623E+03  0.00000000000E+00 0.  1.
          3   -1    0    0  501    0  0.00000000000E+00 -0.00000000000E+00 -0.14805114180E+03  0.14805114180E+03  0.00000000000E+00 0. -1.
         25    2    1    2    0    0  0.39623376134E+02 -0.79506663543E+02 -0.48090959895E+02  0.16078435558E+03  0.12509015585E+03 0.  0.
         23    2    1    2    0    0 -0.39623376134E+02  0.79506663543E+02  0.51035854327E+02  0.13826282245E+03  0.92847337924E+02 0.  0.
          5    1    3    3  502    0 -0.30800356416E+02  0.17354961683E+00 -0.44524980250E+02  0.54301365923E+02  0.41800000000E+01 0.  1.
         -5    1    3    3    0  502  0.70423732550E+02 -0.79680213160E+02 -0.35659796448E+01  0.10648298966E+03  0.41800000000E+01 0.  1.
        -11    1    4    4    0    0 -0.18470145888E+02 -0.19728087538E+02  0.11429026704E+02  0.29342228587E+02  0.00000000000E+00 0.  1.
         11    1    4    4    0    0 -0.21153230246E+02  0.99234751081E+02  0.39606827623E+02  0.10892059386E+03  0.00000000000E+00 0. -1.
</event>
<event>
 8    1  0.6684013E-009  0.2098722E+03  0.7561462E-02  0.1141667E+00
         -1   -1    0    0    0  501 -0.00000000000E+00  0.00000000000E+00  0.10486151216E+03  0.10486151216E+03  0.00000000000E+00 0.  1.
          1   -1    0    0  501    0  0.00000000000E+00 -0.00000000000E+00 -0.42677536508E+03  0.42677536508E+03  0.00000000000E+00 0. -1.
         25    2    1    2    0    0  0.15042355304E+03  0.10112683058E+03 -0.17234235586E+03  0.27964759940E+03  0.12508801325E+03 0.  0.
         23    2    1    2    0    0 -0.15042355304E+03 -0.10112683058E+03 -0.14957149706E+03  0.25198927783E+03  0.90956485395E+02 0.  0.
          5    1    3    3  502    0 -0.16947177928E+02  0.37001197373E+02 -0.33951487334E+02  0.53164568454E+02  0.41800000000E+01 0.  1.
         -5    1    3    3    0  502  0.16737073097E+03  0.64125633208E+02 -0.13839086852E+03  0.22648303095E+03  0.41800000000E+01 0.  1.
        -11    1    4    4    0    0 -0.15941069603E+03 -0.83953536775E+02 -0.14681718616E+03  0.23241181661E+03  0.00000000000E+00 0.  1.
         11    1    4    4    0    0  0.89871429966E+01 -0.17173293806E+02 -0.27543109069E+01  0.19577461224E+02  0.00000000000E+00 0. -1.
</event>
<event>
 8    1  0.6684013E-009  0.1044646E+03  0.7561462E-02  0.1271178E+00
         -2   -1    0    0    0  501 -0.00000000000E+00  0.00000000000E+00  0.23843561978E+02  0.23843561978E+02  0.00000000000E+00 0.  1.
          2   -1    0    0  501    0  0.00000000000E+00 -0.00000000000E+00 -0.69392588549E+03  0.69392588549E+03  0.00000000000E+00 0. -1.
         25    2    1    2    0    0  0.39719573139E+02  0.55098086347E+02 -0.43883590755E+03  0.46134449288E+03  0.12509334013E+03 0.  0.
         23    2    1    2    0    0 -0.39719573139E+02 -0.55098086347E+02 -0.23124641596E+03  0.25642495459E+03  0.87552320536E+02 0.  0.
          5    1    3    3  502    0 -0.21612332565E+02  0.14530188146E+02 -0.32300215278E+03  0.32407727842E+03  0.41800000000E+01 0. -1.
         -5    1    3    3    0  502  0.61331905705E+02  0.40567898200E+02 -0.11583375477E+03  0.13726721446E+03  0.41800000000E+01 0. -1.
        -11    1    4    4    0    0  0.66330460987E+01  0.19765077072E+02 -0.65556421741E+02  0.68791714644E+02  0.00000000000E+00 0. -1.
         11    1    4    4    0    0 -0.46352619238E+02 -0.74863163418E+02 -0.16568999422E+03  0.18763323995E+03  0.00000000000E+00 0.  1.
</event>
<event>
 8    1  0.6684013E-009  0.1213160E+03  0.7561462E-02  0.1240942E+00
         -2   -1    0    0    0  501 -0.00000000000E+00  0.00000000000E+00  0.45953661052E+02  0.45953661052E+02  0.00000000000E+00 0.  1.
          2   -1    0    0  501    0  0.00000000000E+00 -0.00000000000E+00 -0.46121890050E+03  0.46121890050E+03  0.00000000000E+00 0. -1.
         25    2    1    2    0    0  0.29692977401E+02 -0.81223215513E+02 -0.15330398419E+03  0.21593515208E+03  0.12508794783E+03 0.  0.
         23    2    1    2    0    0 -0.29692977401E+02  0.81223215513E+02 -0.26196125526E+03  0.29123740947E+03  0.93362978597E+02 0.  0.
          5    1    3    3  502    0  0.77832494274E+02 -0.56247720082E+02 -0.82646651648E+02  0.12676610197E+03  0.41800000000E+01 0.  1.
         -5    1    3    3    0  502 -0.48139516873E+02 -0.24975495431E+02 -0.70657332542E+02  0.89169050117E+02  0.41800000000E+01 0.  1.
        -11    1    4    4    0    0  0.20678617561E+01  0.40120114912E+02 -0.22170516442E+02  0.45884980899E+02  0.00000000000E+00 0.  1.
         11    1    4    4    0    0 -0.31760839157E+02  0.41103100601E+02 -0.23979073882E+03  0.24535242857E+03  0.00000000000E+00 0. -1.
</event>
<event>
 8    1  0.6684013E-009  0.9399782E+02  0.7561462E-02  0.1293449E+00
          3   -1    0    0  501    0  0.00000000000E+00  0.00000000000E+00  0.14522954704E+03  0.14522954704E+03  0.00000000000E+00 0. -1.
         -3   -1    0    0    0  501 -0.00000000000E+00 -0.00000000000E+00 -0.11504379602E+03  0.11504379602E+03  0.00000000000E+00 0.  1.
         25    2    1    2    0    0  0.19368453686E+02 -0.56941548112E+02 -0.20140585237E+02  0.14025175875E+03  0.12508971084E+03 0.  0.
         23    2    1    2    0    0 -0.19368453686E+02  0.56941548112E+02  0.50326336260E+02  0.12002158432E+03  0.90856830679E+02 0.  0.
          5    1    3    3  502    0  0.34422557881E+02  0.24165894123E+02  0.21864450683E+02  0.47586022460E+02  0.41800000000E+01 0. -1.
         -5    1    3    3    0  502 -0.15054104196E+02 -0.81107442234E+02 -0.42005035921E+02  0.92665736287E+02  0.41800000000E+01 0. -1.
        -11    1    4    4    0    0 -0.20875855581E+01  0.35643963794E+02 -0.22499249775E+02  0.42202682484E+02  0.00000000000E+00 0.  1.
         11    1    4    4    0    0 -0.17280868127E+02  0.21297584317E+02  0.72825586035E+02  0.77818901832E+02  0.00000000000E+00 0. -1.
</event>
<event>
 8    1  0.6684013E-009  0.1878225E+03  0.7561462E-02  0.1160440E+00
          2   -1    0    0  501    0  0.00000000000E+00  0.00000000000E+00  0.12390045824E+04  0.12390045824E+04  0.00000000000E+00 0.  1.
         -2   -1    0    0    0  501 -0.00000000000E+00 -0.00000000000E+00 -0.29890120299E+02  0.29890120299E+02  0.00000000000E+00 0. -1.
         25    2    1    2    0    0 -0.80833955505E+02 -0.13591329589E+03  0.60944723512E+03  0.64193383802E+03  0.12508624078E+03 0.  0.
         23    2    1    2    0    0  0.80833955505E+02  0.13591329589E+03  0.59966722700E+03  0.62696086470E+03  0.92046674935E+02 0.  0.
          5    1    3    3  502    0  0.26478160413E+01 -0.10456449230E+03  0.41457309509E+03  0.42758515825E+03  0.41800000000E+01 0.  1.
         -5    1    3    3    0  502 -0.83481771546E+02 -0.31348803591E+02  0.19487414003E+03  0.21434867977E+03  0.41800000000E+01 0.  1.
        -11    1    4    4    0    0  0.67394805031E+01  0.98421438476E+02  0.36213479920E+03  0.37533160397E+03  0.00000000000E+00 0.  1.
         11    1    4    4    0    0  0.74094475002E+02  0.37491857415E+02  0.23753242780E+03  0.25162926073E+03  0.00000000000E+00 0. -1.
</event>
<event>
 8    1  0.6684013E-009  0.1237924E+03  0.7561462E-02  0.1236969E+00
          2   -1    0    0  501    0  0.00000000000E+00  0.00000000000E+00  0.60692573393E+02  0.60692573393E+02  0.00000000000E+00 0. -1.
         -2   -1    0    0    0  501 -0.00000000000E+00 -0.00000000000E+00 -0.38978251270E+03  0.38978251270E+03  0.00000000000E+00 0.  1.
         25    2    1    2    0    0 -0.16417993445E+02  0.10239028371E+03 -0.13739760383E+03  0.21278758823E+03  0.12508851050E+03 0.  0.
         23    2    1    2    0    0  0.16417993445E+02 -0.10239028371E+03 -0.19169233548E+03  0.23768749786E+03  0.94847638089E+02 0.  0.
          5    1    3    3  502    0 -0.19275059644E+02  0.77158867336E+01  0.19942417148E+02  0.29090122620E+02  0.41800000000E+01 0. -1.
         -5    1    3    3    0  502  0.28570661988E+01  0.94674396980E+02 -0.15734002098E+03  0.18369746561E+03  0.41800000000E+01 0. -1.
        -11    1    4    4    0    0  0.48290111705E+02 -0.76809069768E+02 -0.16667859452E+03  0.18977176280E+03  0.00000000000E+00 0.  1.
         11    1    4    4    0    0 -0.31872118260E+02 -0.25581213945E+02 -0.25013740958E+02  0.47915735056E+02  0.00000000000E+00 0. -1.
</event>
<event>
 8    1  0.6684013E-009  0.8880822E+02  0.7561462E-02  0.1305764E+00
         -2   -1    0    0    0  501 -0.00000000000E+00  0.00000000000E+00  0.15288550261E+02  0.15288550261E+02  0.00000000000E+00 0.  1.
          2   -1    0    0  501    0  0.00000000000E+00 -0.00000000000E+00 -0.81607439590E+03  0.81607439590E+03  0.00000000000E+00 0. -1.
         25    2    1    2    0    0 -0.26987394793E+02 -0.71533012449E+01 -0.46918398031E+03  0.48637290962E+03  0.12508201564E+03 0.  0.
         23    2    1    2    0    0  0.26987394793E+02  0.71533012449E+01 -0.33160186533E+03  0.34499003654E+03  0.90988125742E+02 0.  0.
          5    1    3    3  502    0  0.27920374880E+02 -0.35960378902E+01 -0.38287691209E+03  0.38393317262E+03  0.41800000000E+01 0.  1.
         -5    1    3    3    0  502 -0.54907769673E+02 -0.35572633547E+01 -0.86307068215E+02  0.10243973700E+03  0.41800000000E+01 0.  1.
        -11    1    4    4    0    0  0.26624825840E+02  0.47058610978E+02 -0.21715993580E+03  0.22378970471E+03  0.00000000000E+00 0. -1.
         11    1    4    4    0    0  0.36256895347E+00 -0.39905309733E+02 -0.11444192953E+03  0.12120033183E+03  0.00000000000E+00 0.  1.
</event>
<event>
 8    1  0.6684013E-009  0.8945847E+02  0.7561462E-02  0.1304168E+00
          1   -1    0    0  501    0  0.00000000000E+00  0.00000000000E+00  0.14437047348E+03  0.14437047348E+03  0.00000000000E+00 0. -1.
         -1   -1    0    0    0  501 -0.00000000000E+00 -0.00000000000E+00 -0.10954889732E+03  0.10954889732E+03  0.00000000000E+00 0.  1.
         25    2    1    2    0    0 -0.31517345720E+02  0.29749296152E+02  0.66270058652E+02  0.14804534866E+03  0.12508933161E+03 0.  0.
         23    2    1    2    0    0  0.31517345720E+02 -0.29749296152E+02 -0.31448482490E+02  0.10587402215E+03  0.91334209431E+02 0.  0.
          5    1    3    3  502    0  0.36541093779E+02 -0.10215683031E+01  0.63253525713E+02  0.73176335324E+02  0.41800000000E+01 0. -1.
         -5    1    3    3    0  502 -0.68058439499E+02  0.30770864455E+02  0.30165329384E+01  0.74869013332E+02  0.41800000000E+01 0. -1.
        -11    1    4    4    0    0  0.33881438367E+02 -0.42496921762E+02 -0.56044592162E+02  0.78070074521E+02  0.00000000000E+00 0.  1.
         11    1    4    4    0    0 -0.23640926472E+01  0.12747625611E+02  0.24596109672E+02  0.27803947628E+02  0.00000000000E+00 0. -1.
</event>
<event>
 8    1  0.6684013E-009  0.1142779E+03  0.7561462E-02  0.1252847E+00
         -1   -1    0    0    0  501 -0.00000000000E+00  0.00000000000E+00  0.27417691505E+02  0.27417691505E+02  0.00000000000E+00 0.  1.
          1   -1    0    0  501    0  0.00000000000E+00 -0.00000000000E+00 -0.74071590312E+03  0.74071590312E+03  0.00000000000E+00 0. -1.
         25    2    1    2    0    0 -0.36927776104E+02  0.82557946423E+02 -0.43950512636E+03  0.46582439266E+03  0.12509249989E+03 0.  0.
         23    2    1    2    0    0  0.36927776104E+02 -0.82557946423E+02 -0.27379308526E+03  0.30230920197E+03  0.90822491146E+02 0.  0.
          5    1    3    3  502    0  0.10442981661E+02  0.81372098641E+02 -0.13807006116E+03  0.16065891974E+03  0.41800000000E+01 0. -1.
         -5    1    3    3    0  502 -0.47370757764E+02  0.11858477814E+01 -0.30143506521E+03  0.30516547292E+03  0.41800000000E+01 0. -1.
        -11    1    4    4    0    0  0.42612587386E+02 -0.49580071621E+02 -0.25638298045E+03  0.26458693991E+03  0.00000000000E+00 0. -1.
         11    1    4    4    0    0 -0.56848112829E+01 -0.32977874802E+02 -0.17410104803E+02  0.37722262061E+02  0.00000000000E+00 0.  1.
</event>
<event>
 8    1  0.6684013E-009  0.1189267E+03  0.7561462E-02  0.1244878E+00
          1   -1    0    0  501    0  0.00000000000E+00  0.00000000000E+00  0.66236946157E+03  0.66236946157E+03  0.00000000000E+00 0. -1.
         -1   -1    0    0    0  501 -0.00000000000E+00 -0.00000000000E+00 -0.28558586808E+02  0.28558586808E+02  0.00000000000E+00 0.  1.
         25    2    1    2    0    0 -0.66721149966E+02  0.28921767668E+02  0.45593601981E+03  0.47834663463E+03  0.12509863392E+03 0.  0.
         23    2    1    2    0    0  0.66721149966E+02 -0.28921767668E+02  0.17787485495E+03  0.21258141374E+03  0.90902216400E+02 0.  0.
          5    1    3    3  502    0 -0.87440691839E+02  0.13188858929E+01  0.41724078539E+03  0.42632729146E+03  0.41800000000E+01 0. -1.
         -5    1    3    3    0  502  0.20719541872E+02  0.27602881775E+02  0.38695234415E+02  0.52019343173E+02  0.41800000000E+01 0. -1.
        -11    1    4    4    0    0  0.78799776204E+02  0.55649246495E+01  0.13323250922E+03  0.15489117027E+03  0.00000000000E+00 0.  1.
         11    1    4    4    0    0 -0.12078626238E+02 -0.34486692318E+02  0.44642345736E+02  0.57690243470E+02  0.00000000000E+00 0. -1.
</event>
<event>
 8    1  0.6684013E-009  0.2069740E+03  0.7561462E-02  0.1143985E+00
         -2   -1    0    0    0  501 -0.00000000000E+00  0.00000000000E+00  0.82541083099E+02  0.82541083099E+02  0.00000000000E+00 0.  1.
          2   -1    0    0  501    0  0.00000000000E+00 -0.00000000000E+00 -0.62001156662E+03  0.62001156662E+03  0.00000000000E+00 0. -1.
         25    2    1    2    0    0  0.40197420937E+02 -0.18436272882E+03 -0.36749311788E+03  0.43163114655E+03  0.12509518999E+03 0.  0.
         23    2    1    2    0    0 -0.40197420937E+02  0.18436272882E+03 -0.16997736564E+03  0.27092150316E+03  0.94343561621E+02 0.  0.
          5    1    3    3  502    0  0.79266390245E+02 -0.84988417718E+02 -0.22765502684E+03  0.25563739048E+03  0.41800000000E+01 0. -1.
         -5    1    3    3    0  502 -0.39068969309E+02 -0.99374311099E+02 -0.13983809104E+03  0.17599375607E+03  0.41800000000E+01 0. -1.
        -11    1    4    4    0    0 -0.12783157815E+02  0.12207811140E+03 -0.16073947335E+03  0.20224651467E+03  0.00000000000E+00 0.  1.
         11    1    4    4    0    0 -0.27414263122E+02  0.62284617421E+02 -0.92378922902E+01  0.68674988488E+02  0.00000000000E+00 0. -1.
</event>
<event>
 8    1  0.6684013E-009  0.9986405E+02  0.7561462E-02  0.1280582E+00
         -1   -1    0    0    0  501 -0.00000000000E+00  0.00000000000E+00  0.32871747318E+02  0.32871747318E+02  0.00000000000E+00 0.  1.
          1   -1    0    0  501    0  0.00000000000E+00 -0.00000000000E+00 -0.41736134403E+03  0.41736134403E+03  0.00000000000E+00 0. -1.
         25    2    1    2    0    0  0.60124587030E+01 -0.36364979604E+02 -0.26972707256E+03  0.29959607601E+03  0.12508618504E+03 0.  0.
         23    2    1    2    0    0 -0.60124587030E+01  0.36364979604E+02 -0.11476252415E+03  0.15063701534E+03  0.90346621622E+02 0.  0.
          5    1    3    3  502    0 -0.66492068794E+01 -0.69955384768E+02 -0.24715886455E+03  0.25698821867E+03  0.41800000000E+01 0.  1.
         -5    1    3    3    0  502  0.12661665582E+02  0.33590405163E+02 -0.22568208013E+02  0.42607857342E+02  0.41800000000E+01 0.  1.
        -11    1    4    4    0    0 -0.97090633884E+01 -0.27529698679E+02 -0.58681401914E+02  0.65541262971E+02  0.00000000000E+00 0. -1.
         11    1    4    4    0    0  0.36966046854E+01  0.63894678284E+02 -0.56081122237E+02  0.85095752365E+02  0.00000000000E+00 0.  1.
</event>
<event>
 8    1  0.6684013E-009  0.1023708E+03  0.7561462E-02  0.1275388E+00
         -1   -1    0    0    0  501 -0.00000000000E+00  0.00000000000E+00  0.46876436918E+02  0.46876436918E+02  0.00000000000E+00 0.  1.
          1   -1    0    0  501    0  0.00000000000E+00 -0.00000000000E+00 -0.31425716550E+03  0.31425716550E+03  0.00000000000E+00 0. -1.
         25    2    1    2    0    0 -0.87778601483E+01  0.13702951423E+01 -0.22401175912E+03  0.25672348205E+03  0.12508696764E+03 0.  0.
         23    2    1    2    0    0  0.87778601483E+01 -0.13702951423E+01 -0.43368969459E+02  0.10441012037E+03  0.94560441970E+02 0.  0.
          5    1    3    3  502    0 -0.37906938112E+00  0.55219446077E+02 -0.51008203936E+02  0.75290372475E+02  0.41800000000E+01 0.  1.
         -5    1    3    3    0  502 -0.83987907672E+01 -0.53849150935E+02 -0.17300355518E+03  0.18143310957E+03  0.41800000000E+01 0.  1.
        -11    1    4    4    0    0  0.31416728036E+02 -0.39431927754E+02 -0.19124424235E+02  0.53922456632E+02  0.00000000000E+00 0. -1.
         11    1    4    4    0    0 -0.22638867888E+02  0.38061632612E+02 -0.24244545224E+02  0.50487663735E+02  0.00000000000E+00 0.  1.
</event>
<event>
 8    1  0.6684013E-009  0.1009641E+03  0.7561462E-02  0.1278282E+00
         -2   -1    0    0    0  501 -0.00000000000E+00  0.00000000000E+00  0.54962776930E+02  0.54962776930E+02  0.00000000000E+00 0. -1.
          2   -1    0    0  501    0  0.00000000000E+00 -0.00000000000E+00 -0.33720092669E+03  0.33720092669E+03  0.00000000000E+00 0.  1.
         25    2    1    2    0    0  0.82662591413E+02 -0.56694127252E+01 -0.15801386499E+03  0.21790189274E+03  0.12509039559E+03 0.  0.
         23    2    1    2    0    0 -0.82662591413E+02  0.56694127252E+01 -0.12422428477E+03  0.17426181088E+03  0.89834623313E+02 0.  0.
          5    1    3    3  502    0  0.41576084564E+02 -0.35372601440E+02 -0.30840034649E+01  0.54834069863E+02  0.41800000000E+01 0.  1.
         -5    1    3    3    0  502  0.41086506849E+02  0.29703188715E+02 -0.15492986153E+03  0.16306782288E+03  0.41800000000E+01 0.  1.
        -11    1    4    4    0    0 -0.53039413542E+02  0.27278191701E+02 -0.18633703041E+02  0.62485950584E+02  0.00000000000E+00 0. -1.
         11    1    4    4    0    0 -0.29623177871E+02 -0.21608778976E+02 -0.10559058173E+03  0.11177586030E+03  0.00000000000E+00 0.  1.
</event>
<event>
 8    1  0.6684013E-009  0.1264870E+03  0.7561462E-02  0.1232763E+00
          3   -1    0    0  501    0  0.00000000000E+00  0.00000000000E+00  0.38534752519E+03  0.38534752519E+03  0.00000000000E+00 0. -1.
         -3   -1    0    0    0  501 -0.00000000000E+00 -0.00000000000E+00 -0.58308666230E+02  0.58308666230E+02  0.00000000000E+00 0.  1.
         25    2    1    2    0    0 -0.74215714520E+02  0.47063470747E+00  0.11381146932E+03  0.18468651843E+03  0.12509142961E+03 0.  0.
         23    2    1    2    0    0  0.74215714520E+02 -0.47063470747E+00  0.21322738964E+03  0.25896967299E+03  0.12685100731E+03 0.  0.
          5    1    3    3  502    0  0.12539704791E+02  0.44127329749E+02  0.22297172421E+02  0.51177160189E+02  0.41800000000E+01 0. -1.
         -5    1    3    3    0  502 -0.86755419311E+02 -0.43656695041E+02  0.91514296896E+02  0.13350935824E+03  0.41800000000E+01 0. -1.
        -11    1    4    4    0    0  0.56547642446E+02  0.37477519385E+02  0.20549319038E+03  0.21640159800E+03  0.00000000000E+00 0. -1.
         11    1    4    4    0    0  0.17668072074E+02 -0.37948154093E+02  0.77341992637E+01  0.42568074987E+02  0.00000000000E+00 0.  1.
</event>
<event>
 8    1  0.6684013E-009  0.2587958E+03  0.7561462E-02  0.1107869E+00
          2   -1    0    0  501    0  0.00000000000E+00  0.00000000000E+00  0.11072048682E+04  0.11072048682E+04  0.00000000000E+00 0. -1.
         -2   -1    0    0    0  501 -0.00000000000E+00 -0.00000000000E+00 -0.70698688610E+02  0.70698688610E+02  0.00000000000E+00 0.  1.
         25    2    1    2    0    0  0.17419143256E+03  0.18838582387E+03  0.57299457054E+03  0.64015735710E+03  0.12508713033E+03 0.  0.
         23    2    1    2    0    0 -0.17419143256E+03 -0.18838582387E+03  0.46351160904E+03  0.53774619969E+03  0.92174235862E+02 0.  0.
          5    1    3    3  502    0  0.12747110803E+03  0.15815744211E+03  0.30542351349E+03  0.36682919032E+03  0.41800000000E+01 0. -1.
         -5    1    3    3    0  502  0.46720324538E+02  0.30228381759E+02  0.26757105704E+03  0.27332816678E+03  0.41800000000E+01 0. -1.
        -11    1    4    4    0    0 -0.13076939099E+03 -0.11928374910E+03  0.22894453255E+03  0.28938701664E+03  0.00000000000E+00 0. -1.
         11    1    4    4    0    0 -0.43422041578E+02 -0.69102074775E+02  0.23456707648E+03  0.24835918305E+03  0.00000000000E+00 0.  1.
</event>
<event>
 8    1  0.6684013E-009  0.9653522E+02  0.7561462E-02  0.1287755E+00
         -1   -1    0    0    0  501 -0.00000000000E+00  0.00000000000E+00  0.95132124347E+02  0.95132124347E+02  0.00000000000E+00 0.  1.
          1   -1    0    0  501    0  0.00000000000E+00 -0.00000000000E+00 -0.15553798981E+03  0.15553798981E+03  0.00000000000E+00 0. -1.
         25    2    1    2    0    0  0.53614533981E+02  0.15428593085E+01 -0.45956501521E+02  0.14364823245E+03  0.12508363596E+03 0.  0.
         23    2    1    2    0    0 -0.53614533981E+02 -0.15428593085E+01 -0.14449363943E+02  0.10702188171E+03  0.91476775072E+02 0.  0.
          5    1    3    3  502    0  0.23558584337E+01  0.36892452738E+02 -0.67960008830E+02  0.77476695452E+02  0.41800000000E+01 0. -1.
         -5    1    3    3    0  502  0.51258675547E+02 -0.35349593429E+02  0.22003507309E+02  0.66171536996E+02  0.41800000000E+01 0. -1.
        -11    1    4    4    0    0 -0.99893865556E+01  0.35096894474E+02  0.18810057300E+02  0.41053600343E+02  0.00000000000E+00 0.  1.
         11    1    4    4    0    0 -0.43625147425E+02 -0.36639753783E+02 -0.33259421243E+02  0.65968281367E+02  0.00000000000E+00 0. -1.
</event>
<event>
 8    1  0.6684013E-009  0.1082426E+03  0.7561462E-02  0.1263859E+00
          3   -1    0    0  501    0  0.00000000000E+00  0.00000000000E+00  0.18959580887E+03  0.18959580887E+03  0.00000000000E+00 0. -1.
         -3   -1    0    0    0  501 -0.00000000000E+00 -0.00000000000E+00 -0.65629087100E+02  0.65629087100E+02  0.00000000000E+00 0.  1.
         25    2    1    2    0    0  0.19610997729E+02 -0.63969388817E+01  0.60188407217E+02  0.14034165816E+03  0.12509046563E+03 0.  0.
         23    2    1    2    0    0 -0.19610997729E+02  0.63969388817E+01  0.63778314549E+02  0.11488323781E+03  0.93300444071E+02 0.  0.
          5    1    3    3  502    0 -0.36848435877E+02  0.37490233592E+02  0.12217395979E+02  0.54130047163E+02  0.41800000000E+01 0. -1.
         -5    1    3    3    0  502  0.56459433605E+02 -0.43887172474E+02  0.47971011238E+02  0.86211610993E+02  0.41800000000E+01 0. -1.
        -11    1    4    4    0    0 -0.55675426772E+02  0.12495870312E+01  0.23137469795E+02  0.60304702325E+02  0.00000000000E+00 0.  1.
         11    1    4    4    0    0  0.36064429043E+02  0.51473518505E+01  0.40640844755E+02  0.54578535485E+02  0.00000000000E+00 0. -1.
</event>
<event>
 8    1  0.6684013E-009  0.1752536E+03  0.7561462E-02  0.1172477E+00
         -1   -1    0    0    0  501 -0.00000000000E+00  0.00000000000E+00  0.34445990086E+03  0.34445990086E+03  0.00000000000E+00 0.  1.
          1   -1    0    0  501    0  0.00000000000E+00 -0.00000000000E+00 -0.10480070902E+03  0.10480070902E+03  0.00000000000E+00 0. -1.
         25    2    1    2    0    0  0.13849827026E+03 -0.33010213968E+02  0.19994987846E+03  0.27549949042E+03  0.12509424540E+03 0.  0.
         23    2    1    2    0    0 -0.13849827026E+03  0.33010213968E+02  0.39709313380E+02  0.17376111947E+03  0.91349066648E+02 0.  0.
          5    1    3    3  502    0 -0.22462899897E+02  0.52224157706E+01  0.18052432509E+02  0.29584087239E+02  0.41800000000E+01 0.  1.
         -5    1    3    3    0  502  0.16096117016E+03 -0.38232629738E+02  0.18189744595E+03  0.24591540318E+03  0.41800000000E+01 0.  1.
        -11    1    4    4    0    0 -0.14296670734E+03  0.15847571706E+02  0.51138813177E+02  0.15266238289E+03  0.00000000000E+00 0.  1.
         11    1    4    4    0    0  0.44684370825E+01  0.17162642261E+02 -0.11429499797E+02  0.21098736572E+02  0.00000000000E+00 0. -1.
</event>
<event>
 8    1  0.6684013E-009  0.1113028E+03  0.7561462E-02  0.1258176E+00
         -2   -1    0    0    0  501 -0.00000000000E+00  0.00000000000E+00  0.15685801034E+03  0.15685801034E+03  0.00000000000E+00 0.  1.
          2   -1    0    0  501    0  0.00000000000E+00 -0.00000000000E+00 -0.11378923168E+03  0.11378923168E+03  0.00000000000E+00 0. -1.
         25    2    1    2    0    0  0.70194683342E+02 -0.28450880012E+02  0.40892893805E+02  0.15184415805E+03  0.12509066083E+03 0.  0.
         23    2    1    2    0    0 -0.70194683342E+02  0.28450880012E+02  0.21758848514E+01  0.11880308397E+03  0.91502416054E+02 0.  0.
          5    1    3    3  502    0  0.10432064830E+03 -0.13113597724E+02  0.15322440444E+02  0.10633444263E+03  0.41800000000E+01 0. -1.
         -5    1    3    3    0  502 -0.34125964962E+02 -0.15337282288E+02  0.25570453361E+02  0.45509715420E+02  0.41800000000E+01 0. -1.
        -11    1    4    4    0    0 -0.53862701070E+02  0.32499125515E+02  0.41952831026E+02  0.75613647954E+02  0.00000000000E+00 0.  1.
         11    1    4    4    0    0 -0.16331982272E+02 -0.40482455038E+01 -0.39776946175E+02  0.43189436018E+02  0.00000000000E+00 0. -1.
</event>
<event>
 8    1  0.6684013E-009  0.1138191E+03  0.7561462E-02  0.1253657E+00
          2   -1    0    0  501    0  0.00000000000E+00  0.00000000000E+00  0.65057179600E+02  0.65057179600E+02  0.00000000000E+00 0. -1.
         -2   -1    0    0    0  501 -0.00000000000E+00 -0.00000000000E+00 -0.41584135775E+03  0.41584135775E+03  0.00000000000E+00 0.  1.
         25    2    1    2    0    0  0.80948388023E+02  0.60781886263E+02 -0.83421157800E+02  0.18125343306E+03  0.12508652289E+03 0.  0.
         23    2    1    2    0    0 -0.80948388023E+02 -0.60781886263E+02 -0.26736302035E+03  0.29964510428E+03  0.89761487565E+02 0.  0.
          5    1    3    3  502    0 -0.30206594929E+01  0.33674947448E+02 -0.86394197012E+02  0.92868488449E+02  0.41800000000E+01 0.  1.
         -5    1    3    3    0  502  0.83969047515E+02  0.27106938815E+02  0.29730392117E+01  0.88384944616E+02  0.41800000000E+01 0.  1.
        -11    1    4    4    0    0 -0.28639275252E+02 -0.39437971392E+02 -0.33716523417E+02  0.59265214299E+02  0.00000000000E+00 0. -1.
         11    1    4    4    0    0 -0.52309112770E+02 -0.21343914871E+02 -0.23364649693E+03  0.24037988998E+03  0.00000000000E+00 0.  1.
</event>
<event>
 8    1  0.6684013E-009  0.9287180E+02  0.7561462E-02  0.1296043E+00
          2   -1    0    0  501    0  0.00000000000E+00  0.00000000000E+00  0.34722536261E+03  0.34722536261E+03  0.00000000000E+00 0. -1.
         -2   -1    0    0    0  501 -0.00000000000E+00 -0.00000000000E+00 -0.47471976867E+02  0.47471976867E+02  0.00000000000E+00 0.  1.
         25    2    1    2    0    0 -0.21805005816E+02 -0.17815875430E+02  0.71034171030E+02  0.14658085952E+03  0.12508889330E+03 0.  0.
         23    2    1    2    0    0  0.21805005816E+02  0.17815875430E+02  0.22871921472E+03  0.24811647996E+03  0.91958929697E+02 0.  0.
          5    1    3    3  502    0 -0.68056654959E+02 -0.26349040033E+02  0.67054976780E+02  0.99195879480E+02  0.41800000000E+01 0.  1.
         -5    1    3    3    0  502  0.46251649143E+02  0.85331646034E+01  0.39791942499E+01  0.47384980041E+02  0.41800000000E+01 0.  1.
        -11    1    4    4    0    0 -0.13887413846E+02  0.25390046120E+02  0.17608540398E+02  0.33875882280E+02  0.00000000000E+00 0.  1.
         11    1    4    4    0    0  0.35692419662E+02 -0.75741706898E+01  0.21111067432E+03  0.21424059768E+03  0.00000000000E+00 0. -1.
</event>
<event>
 8    1  0.6684013E-009  0.1272649E+03  0.7561462E-02  0.1231571E+00
         -1   -1    0    0    0  501 -0.00000000000E+00  0.00000000000E+00  0.25390011078E+02  0.25390011078E+02  0.00000000000E+00 0.  1.
          1   -1    0    0  501    0  0.00000000000E+00 -0.00000000000E+00 -0.72297236914E+03  0.72297236914E+03  0.00000000000E+00 0. -1.
         25    2    1    2    0    0 -0.13115021260E+02  0.73104350261E+02 -0.47255458980E+03  0.49444041383E+03  0.12508889910E+03 0.  0.
         23    2    1    2    0    0  0.13115021260E+02 -0.73104350261E+02 -0.22502776826E+03  0.25392196638E+03  0.91228387658E+02 0.  0.
          5    1    3    3  502    0 -0.56686586020E+02  0.78755296621E+02 -0.37487979735E+03  0.38725715053E+03  0.41800000000E+01 0.  1.
         -5    1    3    3    0  502  0.43571564760E+02 -0.56509463608E+01 -0.97674792452E+02  0.10718326330E+03  0.41800000000E+01 0.  1.
        -11    1    4    4    0    0  0.49227205958E+02 -0.32797234100E+02 -0.82903619003E+02  0.10184294976E+03  0.00000000000E+00 0.  1.
         11    1    4    4    0    0 -0.36112184698E+02 -0.40307116161E+02 -0.14212414926E+03  0.15207901663E+03  0.00000000000E+00 0. -1.
</event>
<event>
 8    1  0.6684013E-009  0.7507334E+02  0.7561462E-02  0.1343644E+00
         -2   -1    0    0    0  501 -0.00000000000E+00  0.00000000000E+00  0.46349315249E+02  0.46349315249E+02  0.00000000000E+00 0.  1.
          2   -1    0    0  501    0  0.00000000000E+00 -0.00000000000E+00 -0.28613494430E+03  0.28613494430E+03  0.00000000000E+00 0. -1.
         25    2    1    2    0    0 -0.32729890629E+02 -0.34267237519E+02 -0.14696608376E+03  0.19872636586E+03  0.12509056481E+03 0.  0.
         23    2    1    2    0    0  0.32729890629E+02  0.34267237519E+02 -0.92819545293E+02  0.13375789369E+03  0.83846388289E+02 0.  0.
          5    1    3    3  502    0 -0.27700548814E+02  0.73773147805E+01  0.14111908062E+02  0.32223648569E+02  0.41800000000E+01 0.  1.
         -5    1    3    3    0  502 -0.50293418149E+01 -0.41644552299E+02 -0.16107799182E+03  0.16650271729E+03  0.41800000000E+01 0.  1.
        -11    1    4    4    0    0  0.11600172223E+02  0.50853947576E+02 -0.93300883980E+02  0.10689126686E+03  0.00000000000E+00 0. -1.
         11    1    4    4    0    0  0.21129718406E+02 -0.16586710057E+02  0.48133868676E+00  0.26866626833E+02  0.00000000000E+00 0.  1.
</event>
<event>
 8    1  0.6684013E-009  0.1294215E+03  0.7561462E-02  0.1228317E+00
         -2   -1    0    0    0  501 -0.00000000000E+00  0.00000000000E+00  0.97504179005E+02  0.97504179005E+02  0.00000000000E+00 0.  1.
          2   -1    0    0  501    0  0.00000000000E+00 -0.00000000000E+00 -0.20581349453E+03  0.20581349453E+03  0.00000000000E+00 0. -1.
         25    2    1    2    0    0 -0.78792988152E+02 -0.36394041149E+02 -0.27955327517E+02  0.15479673603E+03  0.12509063888E+03 0.  0.
         23    2    1    2    0    0  0.78792988152E+02  0.36394041149E+02 -0.80353988008E+02  0.14852093750E+03  0.89826745880E+02 0.  0.
          5    1    3    3  502    0 -0.82207682620E+02  0.18154872794E+02 -0.47314251907E+02  0.96663402183E+02  0.41800000000E+01 0.  1.
         -5    1    3    3    0  502  0.34146944681E+01 -0.54548913944E+02  0.19358924390E+02  0.58133333848E+02  0.41800000000E+01 0.  1.
        -11    1    4    4    0    0  0.80820517921E+02 -0.24314503392E+01 -0.73037090789E+02  0.10896001422E+03  0.00000000000E+00 0. -1.
         11    1    4    4    0    0 -0.20275297687E+01  0.38825491488E+02 -0.73168972188E+01  0.39560923285E+02  0.00000000000E+00 0.  1.
</event>
<event>
 8    1  0.6684013E-009  0.3022938E+03  0.7561462E-02  0.1084100E+00
         -1   -1    0    0    0  501 -0.00000000000E+00  0.00000000000E+00  0.10897321715E+03  0.10897321715E+03  0.00000000000E+00 0. -1.
          1   -1    0    0  501    0  0.00000000000E+00 -0.00000000000E+00 -0.14618921866E+04  0.14618921866E+04  0.00000000000E+00 0.  1.
         25    2    1    2    0    0 -0.12243909333E+03  0.26038631252E+03 -0.18340949174E+03  0.36342513416E+03  0.12508566327E+03 0.  0.
         23    2    1    2    0    0  0.12243909333E+03 -0.26038631252E+03 -0.11695094777E+04  0.12074402696E+04  0.85832527813E+02 0.  0.
          5    1    3    3  502    0 -0.14005129876E+03  0.16458187926E+03 -0.13070707869E+03  0.25259329778E+03  0.41800000000E+01 0. -1.
         -5    1    3    3    0  502  0.17612205438E+02  0.95804433266E+02 -0.52702413053E+02  0.11083183638E+03  0.41800000000E+01 0. -1.
        -11    1    4    4    0    0  0.87398748381E+02 -0.22390731204E+03 -0.10585440394E+04  0.10854899857E+04  0.00000000000E+00 0. -1.
         11    1    4    4    0    0  0.35040344944E+02 -0.36479000486E+02 -0.11096543825E+03  0.12195028387E+03  0.00000000000E+00 0.  1.
</event>
<event>
 8    1  0.6684013E-009  0.1539861E+03  0.7561462E-02  0.1195659E+00
         -2   -1    0    0    0  501 -0.00000000000E+00  0.00000000000E+00  0.26861629027E+02  0.26861629027E+02  0.00000000000E+00 0.  1.
          2   -1    0    0  501    0  0.00000000000E+00 -0.00000000000E+00 -0.19305564634E+04  0.19305564634E+04  0.00000000000E+00 0. -1.
         25    2    1    2    0    0 -0.11868135133E+03  0.39390257812E+02 -0.16375117591E+04  0.16470364905E+04  0.12509030486E+03 0.  0.
         23    2    1    2    0    0  0.11868135133E+03 -0.39390257812E+02 -0.26618307529E+03  0.31038160192E+03  0.99229298476E+02 0.  0.
          5    1    3    3  502    0 -0.13267438044E+03  0.63039477243E+02 -0.12695052310E+04  0.12779817960E+04  0.41800000000E+01 0. -1.
         -5    1    3    3    0  502  0.13993029112E+02 -0.23649219430E+02 -0.36800652804E+03  0.36905469449E+03  0.41800000000E+01 0. -1.
        -11    1    4    4    0    0  0.46065303185E+02 -0.39393492445E+02 -0.39489168897E+02  0.72341232121E+02  0.00000000000E+00 0.  1.
         11    1    4    4    0    0  0.72616048140E+02  0.32346330777E-02 -0.22669390639E+03  0.23804036980E+03  0.00000000000E+00 0. -1.
</event>
<event>
 8    1  0.6684013E-009  0.1265493E+03  0.7561462E-02  0.1232668E+00
         -2   -1    0    0    0  501 -0.00000000000E+00  0.00000000000E+00  0.32052919828E+02  0.32052919828E+02  0.00000000000E+00 0.  1.
          2   -1    0    0  501    0  0.00000000000E+00 -0.00000000000E+00 -0.56294632594E+03  0.56294632594E+03  0.00000000000E+00 0. -1.
         25    2    1    2    0    0 -0.51821040087E+02  0.46789079488E+02 -0.20462218545E+03  0.24978370804E+03  0.12508806446E+03 0.  0.
         23    2    1    2    0    0  0.51821040087E+02 -0.46789079488E+02 -0.32627122066E+03  0.34521553772E+03  0.88578890815E+02 0.  0.
          5    1    3    3  502    0 -0.58464252168E+02  0.84335800502E+02 -0.12811898686E+03  0.16420275035E+03  0.41800000000E+01 0.  1.
         -5    1    3    3    0  502  0.66432120806E+01 -0.37546721013E+02 -0.76503198589E+02  0.85580957695E+02  0.41800000000E+01 0.  1.
        -11    1    4    4    0    0  0.45438737222E+02  0.16563231869E+02 -0.16083271480E+03  0.16794696080E+03  0.00000000000E+00 0.  1.
         11    1    4    4    0    0  0.63823028647E+01 -0.63352311358E+02 -0.16543850586E+03  0.17726857692E+03  0.00000000000E+00 0. -1.
</event>
<event>
 8    1  0.6684013E-009  0.1275516E+03  0.7561462E-02  0.1231135E+00
         -1   -1    0    0    0  501 -0.00000000000E+00  0.00000000000E+00  0.13966657851E+03  0.13966657851E+03  0.00000000000E+00 0.  1.
          1   -1    0    0  501    0  0.00000000000E+00 -0.00000000000E+00 -0.13872507892E+03  0.13872507892E+03  0.00000000000E+00 0. -1.
         25    2    1    2    0    0 -0.54986510749E+02  0.53173921330E+02  0.41234238974E+02  0.15231262256E+03  0.12509152751E+03 0.  0.
         23    2    1    2    0    0  0.54986510749E+02 -0.53173921330E+02 -0.40292739382E+02  0.12607903487E+03  0.91768381886E+02 0.  0.
          5    1    3    3  502    0 -0.65703876652E+02 -0.22466661958E+02  0.26227259058E+02  0.74344413538E+02  0.41800000000E+01 0. -1.
         -5    1    3    3    0  502  0.10717365903E+02  0.75640583288E+02  0.15006979916E+02  0.77968209023E+02  0.41800000000E+01 0. -1.
        -11    1    4    4    0    0  0.13677163670E+02 -0.64709063969E+02  0.15538196662E+01  0.66156950665E+02  0.00000000000E+00 0.  1.
         11    1    4    4    0    0  0.41309347079E+02  0.11535142639E+02 -0.41846559048E+02  0.59922084209E+02  0.00000000000E+00 0. -1.
</event>
<event>
 8    1  0.6684013E-009  0.1215163E+03  0.7561462E-02  0.1240616E+00
          3   -1    0    0  501    0  0.00000000000E+00  0.00000000000E+00  0.20765448142E+03  0.20765448142E+03  0.00000000000E+00 0. -1.
         -3   -1    0    0    0  501 -0.00000000000E+00 -0.00000000000E+00 -0.10334298772E+03  0.10334298772E+03  0.00000000000E+00 0.  1.
         25    2    1    2    0    0  0.99213603954E+01  0.10983521507E+03  0.74110535726E+02  0.18248823834E+03  0.12508947904E+03 0.  0.
         23    2    1    2    0    0 -0.99213603954E+01 -0.10983521507E+03  0.30200957977E+02  0.12850923080E+03  0.58654212790E+02 0.  0.
          5    1    3    3  502    0  0.16466727402E+02  0.11088287896E+03  0.43209015512E+01  0.11226000422E+03  0.41800000000E+01 0.  1.
         -5    1    3    3    0  502 -0.65453670071E+01 -0.10476638933E+01  0.69789634175E+02  0.70228234117E+02  0.41800000000E+01 0.  1.
        -11    1    4    4    0    0  0.22715084918E+02 -0.42381211043E+02  0.22781085086E+02  0.53208269752E+02  0.00000000000E+00 0.  1.
         11    1    4    4    0    0 -0.32636445313E+02 -0.67454004022E+02  0.74198728909E+01  0.75300961050E+02  0.00000000000E+00 0. -1.
</event>
<event>
 8    1  0.6684013E-009  0.9575382E+02  0.7561462E-02  0.1289487E+00
          1   -1    0    0  501    0  0.00000000000E+00  0.00000000000E+00  0.44173161569E+02  0.44173161569E+02  0.00000000000E+00 0. -1.
         -1   -1    0    0    0  501 -0.00000000000E+00 -0.00000000000E+00 -0.32550125242E+03  0.32550125242E+03  0.00000000000E+00 0.  1.
         25    2    1    2    0    0 -0.23425955672E+02 -0.45717013990E+02 -0.16595434046E+03  0.21407350192E+03  0.12509116811E+03 0.  0.
         23    2    1    2    0    0  0.23425955672E+02  0.45717013990E+02 -0.11537375039E+03  0.15560091207E+03  0.90894008550E+02 0.  0.
          5    1    3    3  502    0  0.20149509541E+02  0.31830708822E+02 -0.87641432943E+02  0.95486595536E+02  0.41800000000E+01 0. -1.
         -5    1    3    3    0  502 -0.43575465214E+02 -0.77547722812E+02 -0.78312907515E+02  0.11858690638E+03  0.41800000000E+01 0. -1.
        -11    1    4    4    0    0  0.25118677987E+02  0.73810428151E+01  0.72067450316E+01  0.27154464657E+02  0.00000000000E+00 0. -1.
         11    1    4    4    0    0 -0.16927223147E+01  0.38335971174E+02 -0.12258049542E+03  0.12844644741E+03  0.00000000000E+00 0.  1.
</event>
<event>
 8    1  0.6684013E-009  0.1596772E+03  0.7561462E-02  0.1189062E+00
          2   -1    0    0  501    0  0.00000000000E+00  0.00000000000E+00  0.65748586235E+03  0.65748586235E+03  0.00000000000E+00 0. -1.
         -2   -1    0    0    0  501 -0.00000000000E+00 -0.00000000000E+00 -0.47062371659E+02  0.47062371659E+02  0.00000000000E+00 0.  1.
         25    2    1    2    0    0 -0.10291956911E+03  0.60393882362E+02  0.18407111213E+03  0.25252680950E+03  0.12509099273E+03 0.  0.
         23    2    1    2    0    0  0.10291956911E+03 -0.60393882362E+02  0.42635237856E+03  0.45202142451E+03  0.91143616251E+02 0.  0.
          5    1    3    3  502    0  0.41004483036E+01  0.64799428182E+02  0.59287728332E+02  0.88024352879E+02  0.41800000000E+01 0.  1.
         -5    1    3    3    0  502 -0.10702001741E+03 -0.44055458201E+01  0.12478338380E+03  0.16450245662E+03  0.41800000000E+01 0.  1.
        -11    1    4    4    0    0  0.72313205894E+02 -0.82228526013E+02  0.27334306999E+03  0.29446080239E+03  0.00000000000E+00 0.  1.
         11    1    4    4    0    0  0.30606363213E+02  0.21834643651E+02  0.15300930857E+03  0.15756062212E+03  0.00000000000E+00 0. -1.
</event>
<event>
 8    1  0.6684013E-009  0.1498835E+03  0.7561462E-02  0.1200616E+00
         -1   -1    0    0    0  501 -0.00000000000E+00  0.00000000000E+00  0.32717045308E+02  0.32717045308E+02  0.00000000000E+00 0.  1.
          1   -1    0    0  501    0  0.00000000000E+00 -0.00000000000E+00 -0.90974270307E+03  0.90974270307E+03  0.00000000000E+00 0. -1.
         25    2    1    2    0    0 -0.10606758942E+03 -0.34864135226E+02 -0.26351536301E+03  0.31233579398E+03  0.12508980857E+03 0.  0.
         23    2    1    2    0    0  0.10606758942E+03  0.34864135226E+02 -0.61351029476E+03  0.63012395440E+03  0.90528861084E+02 0.  0.
          5    1    3    3  502    0 -0.12591578283E+03 -0.71008609610E+00 -0.21916867667E+03  0.25279966341E+03  0.41800000000E+01 0.  1.
         -5    1    3    3    0  502  0.19848193409E+02 -0.34154049130E+02 -0.44346686336E+02  0.59536130564E+02  0.41800000000E+01 0.  1.
        -11    1    4    4    0    0  0.10888078995E+03  0.10338792829E+02 -0.56716417754E+03  0.57761329741E+03  0.00000000000E+00 0. -1.
         11    1    4    4    0    0 -0.28132005309E+01  0.24525342398E+02 -0.46346117213E+02  0.52510656991E+02  0.00000000000E+00 0.  1.
</event>
<event>
 8    1  0.6684013E-009  0.2248273E+03  0.7561462E-02  0.1130334E+00
          2   -1    0    0  501    0  0.00000000000E+00  0.00000000000E+00  0.16527167061E+03  0.16527167061E+03  0.00000000000E+00 0. -1.
         -2   -1    0    0    0  501 -0.00000000000E+00 -0.00000000000E+00 -0.37851616434E+03  0.37851616434E+03  0.00000000000E+00 0.  1.
         25    2    1    2    0    0  0.35795468053E+02 -0.21205852384E+03 -0.35364726535E+02  0.25127683193E+03  0.12505698426E+03 0.  0.
         23    2    1    2    0    0 -0.35795468053E+02  0.21205852384E+03 -0.17787976720E+03  0.29251100302E+03  0.87586198930E+02 0.  0.
          5    1    3    3  502    0  0.29363637790E+02 -0.79634887381E+02  0.45027525051E+02  0.96171143929E+02  0.41800000000E+01 0. -1.
         -5    1    3    3    0  502  0.64318302636E+01 -0.13242363646E+03 -0.80392251586E+02  0.15510568800E+03  0.41800000000E+01 0. -1.
        -11    1    4    4    0    0 -0.44792648252E+02  0.40964865146E+02 -0.51659483221E+02  0.79706986648E+02  0.00000000000E+00 0. -1.
         11    1    4    4    0    0  0.89971801984E+01  0.17109365870E+03 -0.12622028398E+03  0.21280401637E+03  0.00000000000E+00 0.  1.
</event>
<event>
 8    1  0.6684013E-009  0.1521696E+03  0.7561462E-02  0.1197832E+00
         -2   -1    0    0    0  501 -0.00000000000E+00  0.00000000000E+00  0.75108457811E+02  0.75108457811E+02  0.00000000000E+00 0.  1.
          2   -1    0    0  501    0  0.00000000000E+00 -0.00000000000E+00 -0.38314522990E+03  0.38314522990E+03  0.00000000000E+00 0. -1.
         25    2    1    2    0    0  0.95580275840E+02  0.86599835797E+02 -0.15381020911E+03  0.23651495904E+03  0.12508646902E+03 0.  0.
         23    2    1    2    0    0 -0.95580275840E+02 -0.86599835797E+02 -0.15422656297E+03  0.22173872867E+03  0.93525987698E+02 0.  0.
          5    1    3    3  502    0  0.11328650008E+03  0.93840263361E+02 -0.15859770347E+03  0.21635741280E+03  0.41800000000E+01 0.  1.
         -5    1    3    3    0  502 -0.17706224238E+02 -0.72404275638E+01  0.47874943613E+01  0.20157546238E+02  0.41800000000E+01 0.  1.
        -11    1    4    4    0    0 -0.62103070086E+02 -0.83374629461E+02 -0.15666152530E+03  0.18801849287E+03  0.00000000000E+00 0. -1.
         11    1    4    4    0    0 -0.33477205754E+02 -0.32252063357E+01  0.24349623216E+01  0.33720235801E+02  0.00000000000E+00 0.  1.
</event>
<event>
 8    1  0.6684013E-009  0.1049918E+03  0.7561462E-02  0.1270136E+00
          3   -1    0    0  501    0  0.00000000000E+00  0.00000000000E+00  0.11983743159E+03  0.11983743159E+03  0.00000000000E+00 0. -1.
         -3   -1    0    0    0  501 -0.00000000000E+00 -0.00000000000E+00 -0.11512827778E+03  0.11512827778E+03  0.00000000000E+00 0.  1.
         25    2    1    2    0    0  0.26272564063E+02 -0.31662942220E+02  0.11789549978E+02  0.13222200999E+03  0.12510346480E+03 0.  0.
         23    2    1    2    0    0 -0.26272564063E+02  0.31662942220E+02 -0.70803961638E+01  0.10274369939E+03  0.93879423843E+02 0.  0.
          5    1    3    3  502    0  0.23388709960E+02  0.47034158919E+02  0.17378146259E+01  0.52723204176E+02  0.41800000000E+01 0. -1.
         -5    1    3    3    0  502  0.28838541026E+01 -0.78697101139E+02  0.10051735352E+02  0.79498805814E+02  0.41800000000E+01 0. -1.
        -11    1    4    4    0    0  0.19000065971E+02  0.26860962443E+02  0.29617038901E+02  0.44268304729E+02  0.00000000000E+00 0. -1.
         11    1    4    4    0    0 -0.45272630034E+02  0.48019797764E+01 -0.36697435065E+02  0.58475394657E+02  0.00000000000E+00 0.  1.
</event>
<event>
 8    1  0.6684013E-009  0.1189141E+03  0.7561462E-02  0.1244899E+00
         -2   -1    0    0    0  501 -0.00000000000E+00  0.00000000000E+00  0.22400261346E+02  0.22400261346E+02  0.00000000000E+00 0.  1.
          2   -1    0    0  501    0  0.00000000000E+00 -0.00000000000E+00 -0.70995213625E+03  0.70995213625E+03  0.00000000000E+00 0. -1.
         25    2    1    2    0    0  0.46151358159E+01 -0.57835042449E+02 -0.46881018213E+03  0.48866989185E+03  0.12509630180E+03 0.  0.
         23    2    1    2    0    0 -0.46151358159E+01  0.57835042449E+02 -0.21874169278E+03  0.24368250575E+03  0.90371698179E+02 0.  0.
          5    1    3    3  502    0 -0.52604598780E+02 -0.56780108649E+02 -0.31801644355E+03  0.32732729083E+03  0.41800000000E+01 0. -1.
         -5    1    3    3    0  502  0.57219734596E+02 -0.10549337998E+01 -0.15079373857E+03  0.16134260102E+03  0.41800000000E+01 0. -1.
        -11    1    4    4    0    0 -0.80774913067E-01 -0.22483712219E+02 -0.23533189985E+02  0.32547424946E+02  0.00000000000E+00 0. -1.
         11    1    4    4    0    0 -0.45343609029E+01  0.80318754668E+02 -0.19520850280E+03  0.21113508080E+03  0.00000000000E+00 0.  1.
</event>
<event>
 8    1  0.6684013E-009  0.9912473E+02  0.7561462E-02  0.1282147E+00
         -2   -1    0    0    0  501 -0.00000000000E+00  0.00000000000E+00  0.78329148416E+02  0.78329148416E+02  0.00000000000E+00 0.  1.
          2   -1    0    0  501    0  0.00000000000E+00 -0.00000000000E+00 -0.16416136237E+03  0.16416136237E+03  0.00000000000E+00 0. -1.
         25    2    1    2    0    0  0.50426474754E+02 -0.88265909326E+01 -0.56399430912E+02  0.14645544795E+03  0.12509022489E+03 0.  0.
         23    2    1    2    0    0 -0.50426474754E+02  0.88265909326E+01 -0.29432783046E+02  0.96035062841E+02  0.75734447336E+02 0.  0.
          5    1    3    3  502    0  0.66686173865E+02  0.43106409550E+02 -0.24340847803E+02  0.83157426613E+02  0.41800000000E+01 0.  1.
         -5    1    3    3    0  502 -0.16259699111E+02 -0.51933000483E+02 -0.32058583109E+02  0.63298021338E+02  0.41800000000E+01 0.  1.
        -11    1    4    4    0    0 -0.20627879953E+02  0.23222567437E+02 -0.48684241089E+02  0.57749046746E+02  0.00000000000E+00 0. -1.
         11    1    4    4    0    0 -0.29798594801E+02 -0.14395976504E+02  0.19251458042E+02  0.38286016095E+02  0.00000000000E+00 0.  1.
</event>
<event>
 8    1  0.6684013E-009  0.5218060E+02  0.7561462E-02  0.1433923E+00
          3   -1    0    0  501    0  0.00000000000E+00  0.00000000000E+00  0.67467519908E+02  0.67467519908E+02  0.00000000000E+00 0. -1.
         -3   -1    0    0    0  501 -0.00000000000E+00 -0.00000000000E+00 -0.17852642918E+03  0.17852642918E+03  0.00000000000E+00 0.  1.
         25    2    1    2    0    0 -0.21736926925E+01  0.87631403872E+01 -0.44623732564E+02  0.13311779722E+03  0.12509017891E+03 0.  0.
         23    2    1    2    0    0  0.21736926925E+01 -0.87631403872E+01 -0.66435176705E+02  0.11287615186E+03  0.90806802532E+02 0.  0.
          5    1    3    3  502    0 -0.81737625600E+01 -0.95465289330E+00 -0.87788526377E+02  0.88272416530E+02  0.41800000000E+01 0.  1.
         -5    1    3    3    0  502  0.60000698675E+01  0.97177932805E+01  0.43164793813E+02  0.44845380693E+02  0.41800000000E+01 0.  1.
        -11    1    4    4    0    0 -0.26186328715E+02 -0.35419383040E+02 -0.58374963613E+02  0.73129288820E+02  0.00000000000E+00 0.  1.
         11    1    4    4    0    0  0.28360021407E+02  0.26656242653E+02 -0.80602130920E+01  0.39746863042E+02  0.00000000000E+00 0. -1.
</event>
<event>
 8    1  0.6684013E-009  0.1117505E+03  0.7561462E-02  0.1257362E+00
          4   -1    0    0  501    0  0.00000000000E+00  0.00000000000E+00  0.12651059676E+03  0.12651059676E+03  0.00000000000E+00 0. -1.
         -4   -1    0    0    0  501 -0.00000000000E+00 -0.00000000000E+00 -0.12406102868E+03  0.12406102868E+03  0.00000000000E+00 0.  1.
         25    2    1    2    0    0  0.23311121841E+00 -0.39289963456E+02  0.26430868617E+02  0.13375204673E+03  0.12508902277E+03 0.  0.
         23    2    1    2    0    0 -0.23311121841E+00  0.39289963456E+02 -0.23981300537E+02  0.11681957872E+03  0.10736831762E+03 0.  0.
          5    1    3    3  502    0  0.15766248966E+02 -0.71419289034E+02 -0.19142403709E+02  0.75717854383E+02  0.41800000000E+01 0. -1.
         -5    1    3    3    0  502 -0.15533137747E+02  0.32129325578E+02  0.45573272326E+02  0.58034192343E+02  0.41800000000E+01 0. -1.
        -11    1    4    4    0    0  0.16490676559E+02 -0.34719231095E+02 -0.90932022693E+01  0.39497515728E+02  0.00000000000E+00 0. -1.
         11    1    4    4    0    0 -0.16723787777E+02  0.74009194551E+02 -0.14888098267E+02  0.77322062994E+02  0.00000000000E+00 0.  1.
</event>
<event>
 8    1  0.6684013E-009  0.8930632E+02  0.7561462E-02  0.1304540E+00
         -1   -1    0    0    0  501 -0.00000000000E+00  0.00000000000E+00  0.47341788474E+02  0.47341788474E+02  0.00000000000E+00 0.  1.
          1   -1    0    0  501    0  0.00000000000E+00 -0.00000000000E+00 -0.28461745864E+03  0.28461745864E+03  0.00000000000E+00 0. -1.
         25    2    1    2    0    0  0.10013162763E+02 -0.11514168152E+02 -0.19250803537E+03  0.23008613992E+03  0.12508976220E+03 0.  0.
         23    2    1    2    0    0 -0.10013162763E+02  0.11514168152E+02 -0.44767634796E+02  0.10187310719E+03  0.90228317873E+02 0.  0.
          5    1    3    3  502    0 -0.35776872276E+02 -0.29890629560E+02 -0.20512145117E+02  0.51104352286E+02  0.41800000000E+01 0. -1.
         -5    1    3    3    0  502  0.45790035039E+02  0.18376461408E+02 -0.17199589025E+03  0.17898178764E+03  0.41800000000E+01 0. -1.
        -11    1    4    4    0    0 -0.42711414240E+02  0.21876515181E+02 -0.33624900213E+01  0.48105645844E+02  0.00000000000E+00 0.  1.
         11    1    4    4    0    0  0.32698251477E+02 -0.10362347030E+02 -0.41405144774E+02  0.53767461344E+02  0.00000000000E+00 0. -1.
</event>
<event>
 8    1  0.6684013E-009  0.9978018E+02  0.7561462E-02  0.1280759E+00
          1   -1    0    0  501    0  0.00000000000E+00  0.00000000000E+00  0.58737114904E+03  0.58737114904E+03  0.00000000000E+00 0. -1.
         -1   -1    0    0    0  501 -0.00000000000E+00 -0.00000000000E+00 -0.30642242788E+02  0.30642242788E+02  0.00000000000E+00 0.  1.
         25    2    1    2    0    0 -0.28356525060E+01  0.74958346479E+02  0.35187632630E+03  0.38091021590E+03  0.12509535936E+03 0.  0.
         23    2    1    2    0    0  0.28356525060E+01 -0.74958346479E+02  0.20485257995E+03  0.23710317593E+03  0.92879178993E+02 0.  0.
          5    1    3    3  502    0  0.56030815916E+01 -0.18334586276E+01  0.26290914641E+03  0.26300845569E+03  0.41800000000E+01 0. -1.
         -5    1    3    3    0  502 -0.84387340976E+01  0.76791805107E+02  0.88967179886E+02  0.11790176021E+03  0.41800000000E+01 0. -1.
        -11    1    4    4    0    0  0.41283202302E+02 -0.61817561267E+02  0.99608541441E+02  0.12428827459E+03  0.00000000000E+00 0.  1.
         11    1    4    4    0    0 -0.38447549796E+02 -0.13140785212E+02  0.10524403851E+03  0.11281490133E+03  0.00000000000E+00 0. -1.
</event>
<event>
 8    1  0.6684013E-009  0.1054395E+03  0.7561462E-02  0.1269256E+00
         -1   -1    0    0    0  501 -0.00000000000E+00  0.00000000000E+00  0.21463410731E+03  0.21463410731E+03  0.00000000000E+00 0.  1.
          1   -1    0    0  501    0  0.00000000000E+00 -0.00000000000E+00 -0.60042319444E+02  0.60042319444E+02  0.00000000000E+00 0. -1.
         25    2    1    2    0    0  0.17201952488E+02 -0.23660023861E+01  0.87305495315E+02  0.15352800110E+03  0.12508833868E+03 0.  0.
         23    2    1    2    0    0 -0.17201952488E+02  0.23660023861E+01  0.67286292551E+02  0.12114842565E+03  0.99237043164E+02 0.  0.
          5    1    3    3  502    0 -0.51315689119E+02  0.17757000088E+02  0.42936871223E+02  0.69351700140E+02  0.41800000000E+01 0. -1.
         -5    1    3    3    0  502  0.68517641607E+02 -0.20123002474E+02  0.44368624093E+02  0.84176300963E+02  0.41800000000E+01 0. -1.
        -11    1    4    4    0    0 -0.42488635044E+02 -0.23630222358E+02  0.69497699106E+02  0.84815103004E+02  0.00000000000E+00 0.  1.
         11    1    4    4    0    0  0.25286682556E+02  0.25996224744E+02 -0.22114065552E+01  0.36333322647E+02  0.00000000000E+00 0. -1.
</event>
<event>
 8    1  0.6684013E-009  0.8014672E+02  0.7561462E-02  0.1328636E+00
         -1   -1    0    0    0  501 -0.00000000000E+00  0.00000000000E+00  0.29631965268E+02  0.29631965268E+02  0.00000000000E+00 0.  1.
          1   -1    0    0  501    0  0.00000000000E+00 -0.00000000000E+00 -0.55540117212E+03  0.55540117212E+03  0.00000000000E+00 0. -1.
         25    2    1    2    0    0  0.44321631901E+02  0.45672301959E+02 -0.34618714379E+03  0.37355451678E+03  0.12508825787E+03 0.  0.
         23    2    1    2    0    0 -0.44321631901E+02 -0.45672301959E+02 -0.17958206306E+03  0.21147862061E+03  0.91777575595E+02 0.  0.
          5    1    3    3  502    0 -0.61762006964E+01  0.27354177332E+02 -0.58131328644E+01  0.28942380453E+02  0.41800000000E+01 0.  1.
         -5    1    3    3    0  502  0.50497832598E+02  0.18318124627E+02 -0.34037401093E+03  0.34461213632E+03  0.41800000000E+01 0.  1.
        -11    1    4    4    0    0 -0.54886038777E+01  0.92743846814E+01  0.71910693293E+01  0.12955711553E+02  0.00000000000E+00 0.  1.
         11    1    4    4    0    0 -0.38833028023E+02 -0.54946686641E+02 -0.18677313239E+03  0.19852290906E+03  0.00000000000E+00 0. -1.
</event>
<event>
 8    1  0.6684013E-009  0.1115471E+03  0.7561462E-02  0.1257731E+00
         -1   -1    0    0    0  501 -0.00000000000E+00  0.00000000000E+00  0.59389536230E+02  0.59389536230E+02  0.00000000000E+00 0.  1.
          1   -1    0    0  501    0  0.00000000000E+00 -0.00000000000E+00 -0.24611632860E+03  0.24611632860E+03  0.00000000000E+00 0. -1.
         25    2    1    2    0    0 -0.10459083274E+02 -0.40949878293E+02 -0.68347019060E+02  0.14867482675E+03  0.12508638671E+03 0.  0.
         23    2    1    2    0    0  0.10459083274E+02  0.40949878293E+02 -0.11837977331E+03  0.15683103808E+03  0.93786559920E+02 0.  0.
          5    1    3    3  502    0 -0.15439075343E+02 -0.83921184372E+02 -0.29495175975E+02  0.90380130779E+02  0.41800000000E+01 0. -1.
         -5    1    3    3    0  502  0.49799920694E+01  0.42971306079E+02 -0.38851843086E+02  0.58294695971E+02  0.41800000000E+01 0. -1.
        -11    1    4    4    0    0 -0.18039439427E+02 -0.19990908507E+02 -0.89496801719E+01  0.28375245778E+02  0.00000000000E+00 0.  1.
         11    1    4    4    0    0  0.28498522701E+02  0.60940786800E+02 -0.10943009314E+03  0.12845579231E+03  0.00000000000E+00 0. -1.
</event>
<event>
 8    1  0.6684013E-009  0.1225144E+03  0.7561462E-02  0.1239006E+00
          2   -1    0    0  501    0  0.00000000000E+00  0.00000000000E+00  0.25301756572E+03  0.25301756572E+03  0.00000000000E+00 0. -1.
         -2   -1    0    0    0  501 -0.00000000000E+00 -0.00000000000E+00 -0.11101476074E+03  0.11101476074E+03  0.00000000000E+00 0.  1.
         25    2    1    2    0    0 -0.56450480270E+02 -0.76268607352E+02  0.16860956628E+03  0.23039260731E+03  0.12509200803E+03 0.  0.
         23    2    1    2    0    0  0.56450480270E+02  0.76268607352E+02 -0.26606761304E+02  0.13363971915E+03  0.90266813385E+02 0.  0.
          5    1    3    3  502    0 -0.82733592577E+01  0.21715737422E+02 -0.60460649838E+01  0.24373120994E+02  0.41800000000E+01 0.  1.
         -5    1    3    3    0  502 -0.48177121012E+02 -0.97984344774E+02  0.17465563126E+03  0.20601948631E+03  0.41800000000E+01 0.  1.
        -11    1    4    4    0    0  0.45312039634E+02  0.11933001443E+02 -0.45862985632E+02  0.65566690555E+02  0.00000000000E+00 0.  1.
         11    1    4    4    0    0  0.11138440636E+02  0.64335605908E+02  0.19256224328E+02  0.68073028600E+02  0.00000000000E+00 0. -1.
</event>
<event>
 8    1  0.6684013E-009  0.2268538E+03  0.7561462E-02  0.1128874E+00
         -1   -1    0    0    0  501 -0.00000000000E+00  0.00000000000E+00  0.16121165907E+03  0.16121165907E+03  0.00000000000E+00 0.  1.
          1   -1    0    0  501    0  0.00000000000E+00 -0.00000000000E+00 -0.40074683068E+03  0.40074683068E+03  0.00000000000E+00 0. -1.
         25    2    1    2    0    0 -0.16620428902E+03  0.11598450056E+03 -0.24341856386E+03  0.34055356030E+03  0.12509140713E+03 0.  0.
         23    2    1    2    0    0  0.16620428902E+03 -0.11598450056E+03  0.38833922576E+01  0.22140492946E+03  0.89043764490E+02 0.  0.
          5    1    3    3  502    0 -0.11406337571E+03  0.13569388917E+03 -0.21218981137E+03  0.27652354997E+03  0.41800000000E+01 0.  1.
         -5    1    3    3    0  502 -0.52140913305E+02 -0.19709388616E+02 -0.31228752492E+02  0.64030010324E+02  0.41800000000E+01 0.  1.
        -11    1    4    4    0    0  0.10866183537E+03 -0.22882674715E+02  0.11798381138E+02  0.11167010820E+03  0.00000000000E+00 0. -1.
         11    1    4    4    0    0  0.57542453648E+02 -0.93101825842E+02 -0.79149888800E+01  0.10973482126E+03  0.00000000000E+00 0.  1.
</event>
<event>
 8    1  0.6684013E-009  0.9695460E+02  0.7561462E-02  0.1286834E+00
         -1   -1    0    0    0  501 -0.00000000000E+00  0.00000000000E+00  0.45773408656E+02  0.45773408656E+02  0.00000000000E+00 0.  1.
          1   -1    0    0  501    0  0.00000000000E+00 -0.00000000000E+00 -0.39067627220E+03  0.39067627220E+03  0.00000000000E+00 0. -1.
         25    2    1    2    0    0  0.27232987260E+01 -0.52640910259E+01 -0.30702218387E+03  0.33157805308E+03  0.12508499863E+03 0.  0.
         23    2    1    2    0    0 -0.27232987260E+01  0.52640910259E+01 -0.37880679667E+02  0.10487162777E+03  0.97611399997E+02 0.  0.
          5    1    3    3  502    0  0.53334777733E+02 -0.41027583549E+01 -0.24785733141E+03  0.25359842326E+03  0.41800000000E+01 0.  1.
         -5    1    3    3    0  502 -0.50611479007E+02 -0.11613326711E+01 -0.59164852460E+02  0.77979629823E+02  0.41800000000E+01 0.  1.
        -11    1    4    4    0    0  0.43037760467E+02  0.72901178655E+01  0.26187497264E+01  0.43729309332E+02  0.00000000000E+00 0.  1.
         11    1    4    4    0    0 -0.45761059193E+02 -0.20260268396E+01 -0.40499429394E+02  0.61142318442E+02  0.00000000000E+00 0. -1.
</event>
<event>
 8    1  0.6684013E-009  0.1232517E+03  0.7561462E-02  0.1237827E+00
          2   -1    0    0  501    0  0.00000000000E+00  0.00000000000E+00  0.17813358983E+03  0.17813358983E+03  0.00000000000E+00 0. -1.
         -2   -1    0    0    0  501 -0.00000000000E+00 -0.00000000000E+00 -0.97401826100E+02  0.97401826100E+02  0.00000000000E+00 0.  1.
         25    2    1    2    0    0  0.14746049295E+02 -0.69638569883E+02  0.24871709995E+02  0.14605746712E+03  0.12508878989E+03 0.  0.
         23    2    1    2    0    0 -0.14746049295E+02  0.69638569883E+02  0.55860053735E+02  0.12947794881E+03  0.92613267088E+02 0.  0.
          5    1    3    3  502    0 -0.21338816802E+02  0.22203369761E+02 -0.20643801223E+02  0.37309163220E+02  0.41800000000E+01 0.  1.
         -5    1    3    3    0  502  0.36084866097E+02 -0.91841939644E+02  0.45515511218E+02  0.10874830390E+03  0.41800000000E+01 0.  1.
        -11    1    4    4    0    0  0.37073733392E+02  0.47638219865E+02  0.25652447423E+02  0.65588945397E+02  0.00000000000E+00 0.  1.
         11    1    4    4    0    0 -0.51819782686E+02  0.22000350018E+02  0.30207606312E+02  0.63889003417E+02  0.00000000000E+00 0. -1.
</event>
<event>
 8    1  0.6684013E-009  0.5865824E+02  0.7561462E-02  0.1403550E+00
          2   -1    0    0  501    0  0.00000000000E+00  0.00000000000E+00  0.44833065669E+02  0.44833065669E+02  0.00000000000E+00 0.  1.
         -2   -1    0    0    0  501 -0.00000000000E+00 -0.00000000000E+00 -0.27741605608E+03  0.27741605608E+03  0.00000000000E+00 0. -1.
         25    2    1    2    0    0 -0.19087188460E+02 -0.68968090330E+01 -0.16389065707E+03  0.20716939358E+03  0.12508846238E+03 0.  0.
         23    2    1    2    0    0  0.19087188460E+02  0.68968090330E+01 -0.68692333335E+02  0.11507972817E+03  0.90071196496E+02 0.  0.
          5    1    3    3  502    0 -0.24188981492E+01  0.25215226984E+01  0.20769609118E+02  0.21472266017E+02  0.41800000000E+01 0.  1.
         -5    1    3    3    0  502 -0.16668290311E+02 -0.94183317314E+01 -0.18466026619E+03  0.18569712756E+03  0.41800000000E+01 0.  1.
        -11    1    4    4    0    0  0.55151269466E+02 -0.17765104738E+01 -0.43054428847E+02  0.69989301729E+02  0.00000000000E+00 0.  1.
         11    1    4    4    0    0 -0.36064081005E+02  0.86733195068E+01 -0.25637904488E+02  0.45090426440E+02  0.00000000000E+00 0. -1.
</event>
<event>
 8    1  0.6684013E-009  0.1931342E+03  0.7561462E-02  0.1155665E+00
         -2   -1    0    0    0  501 -0.00000000000E+00  0.00000000000E+00  0.28522556179E+03  0.28522556179E+03  0.00000000000E+00 0.  1.
          2   -1    0    0  501    0  0.00000000000E+00 -0.00000000000E+00 -0.22438027303E+03  0.22438027303E+03  0.00000000000E+00 0. -1.
         25    2    1    2    0    0  0.17303342417E+03 -0.50967204569E+02  0.16895249933E+03  0.27699908402E+03  0.12508126837E+03 0.  0.
         23    2    1    2    0    0 -0.17303342417E+03  0.50967204569E+02 -0.10810721057E+03  0.23260675079E+03  0.99400753085E+02 0.  0.
          5    1    3    3  502    0  0.29166069263E+01 -0.12841028137E+02 -0.17108490730E+02  0.21990258175E+02  0.41800000000E+01 0. -1.
         -5    1    3    3    0  502  0.17011681725E+03 -0.38126176433E+02  0.18606099006E+03  0.25500882585E+03  0.41800000000E+01 0. -1.
        -11    1    4    4    0    0 -0.94950522189E+02 -0.14648480429E+02 -0.84434141371E+02  0.12790349437E+03  0.00000000000E+00 0. -1.
         11    1    4    4    0    0 -0.78082901984E+02  0.65615684998E+02 -0.23673069198E+02  0.10470325642E+03  0.00000000000E+00 0.  1.
</event>
<event>
 8    1  0.6684013E-009  0.9714278E+02  0.7561462E-02  0.1286422E+00
          2   -1    0    0  501    0  0.00000000000E+00  0.00000000000E+00  0.23853374146E+03  0.23853374146E+03  0.00000000000E+00 0. -1.
         -2   -1    0    0    0  501 -0.00000000000E+00 -0.00000000000E+00 -0.85869191169E+02  0.85869191169E+02  0.00000000000E+00 0.  1.
         25    2    1    2    0    0 -0.32814182896E+02  0.65218914643E+02  0.14793849537E+03  0.20703600922E+03  0.12509129975E+03 0.  0.
         23    2    1    2    0    0  0.32814182896E+02 -0.65218914643E+02  0.47260549152E+01  0.11736692341E+03  0.91773534794E+02 0.  0.
          5    1    3    3  502    0 -0.53244760515E+02  0.63645155031E+02  0.31693855438E+02  0.88925154786E+02  0.41800000000E+01 0. -1.
         -5    1    3    3    0  502  0.20430577619E+02  0.15737596112E+01  0.11624463993E+03  0.11811085443E+03  0.41800000000E+01 0. -1.
        -11    1    4    4    0    0  0.40757094349E+02 -0.21943677710E+02 -0.35044254730E+02  0.58058294160E+02  0.00000000000E+00 0.  1.
         11    1    4    4    0    0 -0.79429114524E+01 -0.43275236933E+02  0.39770309645E+02  0.59308629247E+02  0.00000000000E+00 0. -1.
</event>
<event>
 7    1  0.6684013E-009  0.2816467E+03  0.7561462E-02  0.1094793E+00
         -2   -1    0    0    0  501 -0.00000000000E+00  0.00000000000E+00  0.72436464195E+02  0.72436464195E+02  0.00000000000E+00 0.  1.
          2   -1    0    0  501    0  0.00000000000E+00 -0.00000000000E+00 -0.13000694074E+04  0.13000694074E+04  0.00000000000E+00 0. -1.
         23    2    1    2    0    0 -0.13936103177E+03 -0.22818056753E+03 -0.37073376612E+03  0.46615657085E+03  0.91490735246E+02 0.  0.
          5    1    1    2  502    0  0.15058835900E+03  0.14351791980E+03 -0.64957922633E+03  0.68208862390E+03  0.41800000000E+01 0.  1.
         -5    1    1    2    0  502 -0.11227327224E+02  0.84662647724E+02 -0.20731995071E+03  0.22426067680E+03  0.41800000000E+01 0.  1.
        -11    1    3    3    0    0 -0.47223005701E+02 -0.47923739243E+02 -0.39674515295E+02  0.78107388987E+02  0.00000000000E+00 0.  1.
         11    1    3    3    0    0 -0.92138026073E+02 -0.18025682828E+03 -0.33105925083E+03  0.38804918187E+03  0.00000000000E+00 0. -1.
</event>
<event>
 8    1  0.6684013E-009  0.1070001E+03  0.7561462E-02  0.1266228E+00
         -2   -1    0    0    0  501 -0.00000000000E+00  0.00000000000E+00  0.27565688327E+02  0.27565688327E+02  0.00000000000E+00 0.  1.
          2   -1    0    0  501    0  0.00000000000E+00 -0.00000000000E+00 -0.66671606744E+03  0.66671606744E+03  0.00000000000E+00 0. -1.
         25    2    1    2    0    0  0.22023840322E+02  0.78070740392E+02 -0.34908642334E+03  0.37959052137E+03  0.12509013913E+03 0.  0.
         23    2    1    2    0    0 -0.22023840322E+02 -0.78070740392E+02 -0.29006395577E+03  0.31469123439E+03  0.91177763288E+02 0.  0.
          5    1    3    3  502    0  0.88826665589E+01  0.10268523219E+03 -0.17426164313E+03  0.20250370698E+03  0.41800000000E+01 0. -1.
         -5    1    3    3    0  502  0.13141173763E+02 -0.24614491802E+02 -0.17482478021E+03  0.17708681439E+03  0.41800000000E+01 0. -1.
        -11    1    4    4    0    0 -0.17471143849E+02 -0.33063025902E+02 -0.23171879555E+02  0.43992505627E+02  0.00000000000E+00 0.  1.
         11    1    4    4    0    0 -0.45526964729E+01 -0.45007714490E+02 -0.26689207621E+03  0.27069872877E+03  0.00000000000E+00 0. -1.
</event>
<event>
 8    1  0.6684013E-009  0.9984681E+02  0.7561462E-02  0.1280618E+00
          1   -1    0    0  501    0  0.00000000000E+00  0.00000000000E+00  0.15287324675E+03  0.15287324675E+03  0.00000000000E+00 0. -1.
         -1   -1    0    0    0  501 -0.00000000000E+00 -0.00000000000E+00 -0.11769843951E+03  0.11769843951E+03  0.00000000000E+00 0.  1.
         25    2    1    2    0    0  0.53748569734E+02 -0.18407547174E+02  0.75491281770E+02  0.15675869590E+03  0.12508640444E+03 0.  0.
         23    2    1    2    0    0 -0.53748569734E+02  0.18407547174E+02 -0.40316474533E+02  0.11381299036E+03  0.90001289516E+02 0.  0.
          5    1    3    3  502    0  0.70899712089E+02  0.25373336235E+02  0.79252757645E+02  0.10940314146E+03  0.41800000000E+01 0. -1.
         -5    1    3    3    0  502 -0.17151142355E+02 -0.43780883408E+02 -0.37614758749E+01  0.47355554445E+02  0.41800000000E+01 0. -1.
        -11    1    4    4    0    0 -0.17333930522E+02 -0.18409003398E+02  0.21487861641E+02  0.33182597116E+02  0.00000000000E+00 0. -1.
         11    1    4    4    0    0 -0.36414639212E+02  0.36816550571E+02 -0.61804336174E+02  0.80630393245E+02  0.00000000000E+00 0.  1.
</event>
<event>
 8    1  0.6684013E-009  0.1078648E+03  0.7561462E-02  0.1264576E+00
          2   -1    0    0  501    0  0.00000000000E+00  0.00000000000E+00  0.13507865763E+03  0.13507865763E+03  0.00000000000E+00 0. -1.
         -2   -1    0    0    0  501 -0.00000000000E+00 -0.00000000000E+00 -0.10351709597E+03  0.10351709597E+03  0.00000000000E+00 0.  1.
         25    2    1    2    0    0  0.39281232244E+02  0.11718326405E+02  0.42038581599E+02  0.13819647769E+03  0.12510271669E+03 0.  0.
         23    2    1    2    0    0 -0.39281232244E+02 -0.11718326405E+02 -0.10477019937E+02  0.10039927590E+03  0.91048955374E+02 0.  0.
          5    1    3    3  502    0  0.61466384647E+02 -0.34288840775E+02 -0.21328359681E+01  0.70539793255E+02  0.41800000000E+01 0.  1.
         -5    1    3    3    0  502 -0.22185152402E+02  0.46007167180E+02  0.44171417567E+02  0.67656684436E+02  0.41800000000E+01 0.  1.
        -11    1    4    4    0    0  0.26935731731E+02 -0.52471348746E+01 -0.18921637535E+02  0.33333083195E+02  0.00000000000E+00 0.  1.
         11    1    4    4    0    0 -0.66216963976E+02 -0.64711915302E+01  0.84446175974E+01  0.67066192708E+02  0.00000000000E+00 0. -1.
</event>
<event>
 8    1  0.6684013E-009  0.1102314E+03  0.7561462E-02  0.1260142E+00
         -3   -1    0    0    0  501 -0.00000000000E+00  0.00000000000E+00  0.27463628939E+03  0.27463628939E+03  0.00000000000E+00 0.  1.
          3   -1    0    0  501    0  0.00000000000E+00 -0.00000000000E+00 -0.57630162598E+02  0.57630162598E+02  0.00000000000E+00 0. -1.
         25    2    1    2    0    0 -0.34646457647E+02  0.11308913377E+01  0.19163389264E+03  0.23145734103E+03  0.12508915208E+03 0.  0.
         23    2    1    2    0    0  0.34646457647E+02 -0.11308913377E+01  0.25372234149E+02  0.10080911095E+03  0.91197974988E+02 0.  0.
          5    1    3    3  502    0 -0.80466456695E+02  0.13005914774E+02  0.13216979251E+03  0.15533940558E+03  0.41800000000E+01 0. -1.
         -5    1    3    3    0  502  0.45819999049E+02 -0.11875023436E+02  0.59464100126E+02  0.76117935457E+02  0.41800000000E+01 0. -1.
        -11    1    4    4    0    0  0.49628741766E+02 -0.30574479263E+02  0.32888242052E+02  0.66928672904E+02  0.00000000000E+00 0.  1.
         11    1    4    4    0    0 -0.14982284119E+02  0.29443587925E+02 -0.75160079021E+01  0.33880438045E+02  0.00000000000E+00 0. -1.
</event>
<event>
 8    1  0.6684013E-009  0.8623347E+02  0.7561462E-02  0.1312238E+00
          2   -1    0    0  501    0  0.00000000000E+00  0.00000000000E+00  0.28418219244E+03  0.28418219244E+03  0.00000000000E+00 0. -1.
         -2   -1    0    0    0  501 -0.00000000000E+00 -0.00000000000E+00 -0.71270487311E+02  0.71270487311E+02  0.00000000000E+00 0.  1.
         25    2    1    2    0    0  0.56417511746E+02 -0.38325796708E+02  0.20152686345E+03  0.24680308136E+03  0.12508749718E+03 0.  0.
         23    2    1    2    0    0 -0.56417511746E+02  0.38325796708E+02  0.11384841680E+02  0.10864959839E+03  0.83805240203E+02 0.  0.
          5    1    3    3  502    0  0.11623164750E+02  0.20766749057E+02  0.15979647924E+03  0.16161294194E+03  0.41800000000E+01 0.  1.
         -5    1    3    3    0  502  0.44794346996E+02 -0.59092545765E+02  0.41730384208E+02  0.85190139418E+02  0.41800000000E+01 0.  1.
        -11    1    4    4    0    0 -0.25615681164E+02  0.99182048280E+00 -0.33809736898E+02  0.42429295758E+02  0.00000000000E+00 0.  1.
         11    1    4    4    0    0 -0.30801830583E+02  0.37333976225E+02  0.45194578578E+02  0.66220302634E+02  0.00000000000E+00 0. -1.
</event>
<event>
 8    1  0.6684013E-009  0.1716200E+03  0.7561462E-02  0.1176169E+00
         -2   -1    0    0    0  501 -0.00000000000E+00  0.00000000000E+00  0.24986480982E+02  0.24986480982E+02  0.00000000000E+00 0.  1.
          2   -1    0    0  501    0  0.00000000000E+00 -0.00000000000E+00 -0.14800992203E+04  0.14800992203E+04  0.00000000000E+00 0. -1.
         25    2    1    2    0    0  0.50812727714E+01 -0.14250606287E+03 -0.10259148244E+04  0.10433033505E+04  0.12508739732E+03 0.  0.
         23    2    1    2    0    0 -0.50812727714E+01  0.14250606287E+03 -0.42919791488E+03  0.46178235074E+03  0.93264634383E+02 0.  0.
          5    1    3    3  502    0  0.55456087307E+02 -0.97086118800E+02 -0.46424352528E+03  0.47753598319E+03  0.41800000000E+01 0. -1.
         -5    1    3    3    0  502 -0.50374814536E+02 -0.45419944072E+02 -0.56167129914E+03  0.56576736733E+03  0.41800000000E+01 0. -1.
        -11    1    4    4    0    0 -0.40521768702E+02  0.50152517453E+02 -0.23710568958E+03  0.24571608978E+03  0.00000000000E+00 0. -1.
         11    1    4    4    0    0  0.35440495930E+02  0.92353545419E+02 -0.19209222530E+03  0.21606626096E+03  0.00000000000E+00 0.  1.
</event>
<event>
 8    1  0.6684013E-009  0.1119550E+03  0.7561462E-02  0.1256992E+00
         -1   -1    0    0    0  501 -0.00000000000E+00  0.00000000000E+00  0.13532038559E+03  0.13532038559E+03  0.00000000000E+00 0.  1.
          1   -1    0    0  501    0  0.00000000000E+00 -0.00000000000E+00 -0.10471006704E+03  0.10471006704E+03  0.00000000000E+00 0. -1.
         25    2    1    2    0    0  0.46194833967E+02 -0.12378684657E+02  0.27830811519E+01  0.13394575896E+03  0.12508607550E+03 0.  0.
         23    2    1    2    0    0 -0.46194833967E+02  0.12378684657E+02  0.27827237399E+02  0.10608469368E+03  0.90511947124E+02 0.  0.
          5    1    3    3  502    0 -0.33035194202E+01 -0.62308085095E+02  0.92616594111E+01  0.63217572271E+02  0.41800000000E+01 0.  1.
         -5    1    3    3    0  502  0.49498353388E+02  0.49929400439E+02 -0.64785782592E+01  0.70728186691E+02  0.41800000000E+01 0.  1.
        -11    1    4    4    0    0 -0.24956307586E+02  0.45327099750E+02  0.39596581372E+02  0.65155602341E+02  0.00000000000E+00 0.  1.
         11    1    4    4    0    0 -0.21238526382E+02 -0.32948415093E+02 -0.11769343973E+02  0.40929091336E+02  0.00000000000E+00 0. -1.
</event>
<event>
 8    1  0.6684013E-009  0.1867553E+03  0.7561462E-02  0.1161421E+00
          4   -1    0    0  501    0  0.00000000000E+00  0.00000000000E+00  0.11181539009E+03  0.11181539009E+03  0.00000000000E+00 0. -1.
         -4   -1    0    0    0  501 -0.00000000000E+00 -0.00000000000E+00 -0.51172186461E+03  0.51172186461E+03  0.00000000000E+00 0.  1.
         25    2    1    2    0    0 -0.52863379755E+02  0.15882426419E+03 -0.35604473814E+02  0.21197574069E+03  0.12508537994E+03 0.  0.
         23    2    1    2    0    0  0.52863379755E+02 -0.15882426419E+03 -0.36430200071E+03  0.41156151401E+03  0.92990581694E+02 0.  0.
          5    1    3    3  502    0 -0.55697781100E+02  0.15117429264E+02 -0.36058129867E+02  0.68179473572E+02  0.41800000000E+01 0.  1.
         -5    1    3    3    0  502  0.28344013449E+01  0.14370683492E+03  0.45365605273E+00  0.14379626712E+03  0.41800000000E+01 0.  1.
        -11    1    4    4    0    0  0.16235010998E+02 -0.10794199500E+03 -0.13375819784E+03  0.17264502702E+03  0.00000000000E+00 0. -1.
         11    1    4    4    0    0  0.36628368757E+02 -0.50882269189E+02 -0.23054380286E+03  0.23891648699E+03  0.00000000000E+00 0.  1.
</event>
<event>
 8    1  0.6684013E-009  0.1336601E+03  0.7561462E-02  0.1222124E+00
         -4   -1    0    0    0  501 -0.00000000000E+00  0.00000000000E+00  0.56789831162E+03  0.56789831162E+03  0.00000000000E+00 0.  1.
          4   -1    0    0  501    0  0.00000000000E+00 -0.00000000000E+00 -0.43404722840E+02  0.43404722840E+02  0.00000000000E+00 0. -1.
         25    2    1    2    0    0  0.10056299545E+03  0.45277627647E+02  0.35347898405E+03  0.39084297598E+03  0.12509140696E+03 0.  0.
         23    2    1    2    0    0 -0.10056299545E+03 -0.45277627647E+02  0.17101460474E+03  0.22046005848E+03  0.84815462812E+02 0.  0.
          5    1    3    3  502    0  0.10762585274E+03  0.30028353967E+02  0.15239763618E+03  0.18901729586E+03  0.41800000000E+01 0.  1.
         -5    1    3    3    0  502 -0.70628572874E+01  0.15249273680E+02  0.20108134786E+03  0.20182568013E+03  0.41800000000E+01 0.  1.
        -11    1    4    4    0    0 -0.41822468039E+02 -0.64072396888E+02  0.10728565161E+03  0.13177481519E+03  0.00000000000E+00 0. -1.
         11    1    4    4    0    0 -0.58740527409E+02  0.18794769241E+02  0.63728953129E+02  0.88685243294E+02  0.00000000000E+00 0.  1.
</event>
<event>
 8    1  0.6684013E-009  0.9725693E+02  0.7561462E-02  0.1286172E+00
          1   -1    0    0  501    0  0.00000000000E+00  0.00000000000E+00  0.41733142189E+03  0.41733142189E+03  0.00000000000E+00 0. -1.
         -1   -1    0    0    0  501 -0.00000000000E+00 -0.00000000000E+00 -0.46184103776E+02  0.46184103776E+02  0.00000000000E+00 0.  1.
         25    2    1    2    0    0 -0.33902914155E+02 -0.23918047056E+02  0.32648907105E+03  0.35208346636E+03  0.12508466416E+03 0.  0.
         23    2    1    2    0    0  0.33902914155E+02  0.23918047056E+02  0.44658247062E+02  0.11143205930E+03  0.93280567356E+02 0.  0.
          5    1    3    3  502    0 -0.68325830369E+02  0.17821642938E+02  0.23792422227E+03  0.24821651435E+03  0.41800000000E+01 0. -1.
         -5    1    3    3    0  502  0.34422916213E+02 -0.41739689993E+02  0.88564848783E+02  0.10386695202E+03  0.41800000000E+01 0. -1.
        -11    1    4    4    0    0  0.49457508760E+02  0.15509879263E+02 -0.11039543454E+02  0.52995028514E+02  0.00000000000E+00 0.  1.
         11    1    4    4    0    0 -0.15554594605E+02  0.84081677928E+01  0.55697790516E+02  0.58437030788E+02  0.00000000000E+00 0. -1.
</event>
<event>
 8    1  0.6684013E-009  0.1044553E+03  0.7561462E-02  0.1271197E+00
          3   -1    0    0  501    0  0.00000000000E+00  0.00000000000E+00  0.47379409066E+03  0.47379409066E+03  0.00000000000E+00 0. -1.
         -3   -1    0    0    0  501 -0.00000000000E+00 -0.00000000000E+00 -0.28569642818E+02  0.28569642818E+02  0.00000000000E+00 0.  1.
         25    2    1    2    0    0 -0.17330705129E+02 -0.34889745281E+02  0.24277001661E+03  0.27586681830E+03  0.12509025864E+03 0.  0.
         23    2    1    2    0    0  0.17330705129E+02  0.34889745281E+02  0.20245443123E+03  0.22649691518E+03  0.93783837597E+02 0.  0.
          5    1    3    3  502    0 -0.68228089841E+02 -0.53264610360E+00  0.14551429530E+03  0.16077076379E+03  0.41800000000E+01 0.  1.
         -5    1    3    3    0  502  0.50897384712E+02 -0.34357099177E+02  0.97255721312E+02  0.11509605450E+03  0.41800000000E+01 0.  1.
        -11    1    4    4    0    0  0.22985557483E+02 -0.15867833856E+02  0.13996454056E+02  0.31241394499E+02  0.00000000000E+00 0.  1.
         11    1    4    4    0    0 -0.56548523543E+01  0.50757579136E+02  0.18845797718E+03  0.19525552068E+03  0.00000000000E+00 0. -1.
</event>
<event>
 8    1  0.6684013E-009  0.1016977E+03  0.7561462E-02  0.1276766E+00
         -4   -1    0    0    0  501 -0.00000000000E+00  0.00000000000E+00  0.60834943089E+02  0.60834943089E+02  0.00000000000E+00 0.  1.
          4   -1    0    0  501    0  0.00000000000E+00 -0.00000000000E+00 -0.26314428103E+03  0.26314428103E+03  0.00000000000E+00 0. -1.
         25    2    1    2    0    0  0.37335649340E+02  0.18496633502E+02 -0.17341718290E+03  0.21784581238E+03  0.12508877842E+03 0.  0.
         23    2    1    2    0    0 -0.37335649340E+02 -0.18496633502E+02 -0.28892155045E+02  0.10613341174E+03  0.93238770376E+02 0.  0.
          5    1    3    3  502    0  0.78056275891E+02  0.11245508978E+01 -0.14597798674E+03  0.16559315153E+03  0.41800000000E+01 0. -1.
         -5    1    3    3    0  502 -0.40720626550E+02  0.17372082604E+02 -0.27439196157E+02  0.52252660855E+02  0.41800000000E+01 0. -1.
        -11    1    4    4    0    0 -0.34062522167E+02 -0.43660045970E+02  0.13252295470E+02  0.56939251538E+02  0.00000000000E+00 0.  1.
         11    1    4    4    0    0 -0.32731271731E+01  0.25163412468E+02 -0.42144450514E+02  0.49194160199E+02  0.00000000000E+00 0. -1.
</event>
<event>
 8    1  0.6684013E-009  0.2036012E+03  0.7561462E-02  0.1146736E+00
         -2   -1    0    0    0  501 -0.00000000000E+00  0.00000000000E+00  0.23935625402E+02  0.23935625402E+02  0.00000000000E+00 0.  1.
          2   -1    0    0  501    0  0.00000000000E+00 -0.00000000000E+00 -0.18146675621E+04  0.18146675621E+04  0.00000000000E+00 0. -1.
         25    2    1    2    0    0 -0.84274290674E+02  0.15951056316E+03 -0.96146741489E+03  0.98621145204E+03  0.12509061679E+03 0.  0.
         23    2    1    2    0    0  0.84274290674E+02 -0.15951056316E+03 -0.82926452179E+03  0.85239173544E+03  0.79663339936E+02 0.  0.
          5    1    3    3  502    0 -0.11923125620E+02  0.14247812775E+03 -0.56572668816E+03  0.58352920741E+03  0.41800000000E+01 0.  1.
         -5    1    3    3    0  502 -0.72351165055E+02  0.17032435408E+02 -0.39574072673E+03  0.40268224462E+03  0.41800000000E+01 0.  1.
        -11    1    4    4    0    0  0.59591811491E+02 -0.50998144609E+02 -0.23346034481E+03  0.24628383493E+03  0.00000000000E+00 0. -1.
         11    1    4    4    0    0  0.24682479183E+02 -0.10851241855E+03 -0.59580417698E+03  0.60610790051E+03  0.00000000000E+00 0.  1.
</event>
<event>
 8    1  0.6684013E-009  0.8696427E+02  0.7561462E-02  0.1310374E+00
          2   -1    0    0  501    0  0.00000000000E+00  0.00000000000E+00  0.24742593735E+03  0.24742593735E+03  0.00000000000E+00 0. -1.
         -2   -1    0    0    0  501 -0.00000000000E+00 -0.00000000000E+00 -0.55080819572E+02  0.55080819572E+02  0.00000000000E+00 0.  1.
         25    2    1    2    0    0  0.33800881332E+02  0.12750891820E+02  0.13399755083E+03  0.18682843916E+03  0.12507772476E+03 0.  0.
         23    2    1    2    0    0 -0.33800881332E+02 -0.12750891820E+02  0.58347566948E+02  0.11567831776E+03  0.93123304332E+02 0.  0.
          5    1    3    3  502    0  0.20018713209E+02 -0.25784024554E+02 -0.12089291705E+02  0.35059780015E+02  0.41800000000E+01 0. -1.
         -5    1    3    3    0  502  0.13782168123E+02  0.38534916374E+02  0.14608684253E+03  0.15176865915E+03  0.41800000000E+01 0. -1.
        -11    1    4    4    0    0  0.54089064888E+01 -0.47307867777E+02  0.28358242168E+02  0.55420939380E+02  0.00000000000E+00 0.  1.
         11    1    4    4    0    0 -0.39209787821E+02  0.34556975957E+02  0.29989324780E+02  0.60257378378E+02  0.00000000000E+00 0. -1.
</event>
<event>
 8    1  0.6684013E-009  0.1534704E+03  0.7561462E-02  0.1196272E+00
          1   -1    0    0  501    0  0.00000000000E+00  0.00000000000E+00  0.13157710268E+03  0.13157710268E+03  0.00000000000E+00 0. -1.
         -1   -1    0    0    0  501 -0.00000000000E+00 -0.00000000000E+00 -0.26839399631E+03  0.26839399631E+03  0.00000000000E+00 0.  1.
         25    2    1    2    0    0 -0.12831251349E+03 -0.14402622681E+02  0.16247010296E+02  0.18048861455E+03  0.12506253628E+03 0.  0.
         23    2    1    2    0    0  0.12831251349E+03  0.14402622681E+02 -0.15306390392E+03  0.21948248444E+03  0.89846901089E+02 0.  0.
          5    1    3    3  502    0 -0.24549121545E+02  0.45296255458E+02 -0.19870064663E+02  0.55377811413E+02  0.41800000000E+01 0. -1.
         -5    1    3    3    0  502 -0.10376339194E+03 -0.59698878139E+02  0.36117074959E+02  0.12511080314E+03  0.41800000000E+01 0. -1.
        -11    1    4    4    0    0  0.16503601701E+02 -0.12215516669E+02  0.76404408713E+01  0.21908081917E+02  0.00000000000E+00 0. -1.
         11    1    4    4    0    0  0.11180891179E+03  0.26618139350E+02 -0.16070434479E+03  0.19757440253E+03  0.00000000000E+00 0.  1.
</event>
<event>
 8    1  0.6684013E-009  0.1589522E+03  0.7561462E-02  0.1189885E+00
          1   -1    0    0  501    0  0.00000000000E+00  0.00000000000E+00  0.17032008241E+03  0.17032008241E+03  0.00000000000E+00 0. -1.
         -1   -1    0    0    0  501 -0.00000000000E+00 -0.00000000000E+00 -0.18549482541E+03  0.18549482541E+03  0.00000000000E+00 0.  1.
         25    2    1    2    0    0 -0.12038111600E+03  0.32928776216E+02  0.57161725566E+02  0.18571478531E+03  0.12508637503E+03 0.  0.
         23    2    1    2    0    0  0.12038111600E+03 -0.32928776216E+02 -0.72336468566E+02  0.17010012251E+03  0.90141941412E+02 0.  0.
          5    1    3    3  502    0 -0.81260876867E+02 -0.40910688485E+02  0.15992290086E+02  0.92467509340E+02  0.41800000000E+01 0.  1.
         -5    1    3    3    0  502 -0.39120239135E+02  0.73839464701E+02  0.41169435480E+02  0.93247275966E+02  0.41800000000E+01 0.  1.
        -11    1    4    4    0    0  0.77115982441E+02  0.15036565903E+02 -0.70370411504E+02  0.10547496327E+03  0.00000000000E+00 0.  1.
         11    1    4    4    0    0  0.43265133561E+02 -0.47965342119E+02 -0.19660570626E+01  0.64625159241E+02  0.00000000000E+00 0. -1.
</event>
<event>
 8    1  0.6684013E-009  0.1175912E+03  0.7561462E-02  0.1247125E+00
          1   -1    0    0  501    0  0.00000000000E+00  0.00000000000E+00  0.75531675925E+03  0.75531675925E+03  0.00000000000E+00 0. -1.
         -1   -1    0    0    0  501 -0.00000000000E+00 -0.00000000000E+00 -0.18786827562E+02  0.18786827562E+02  0.00000000000E+00 0.  1.
         25    2    1    2    0    0 -0.32669229913E+02 -0.29347242691E+02  0.41364590092E+03  0.43436846485E+03  0.12507794641E+03 0.  0.
         23    2    1    2    0    0  0.32669229913E+02  0.29347242691E+02  0.32288403077E+03  0.33973512196E+03  0.96110959461E+02 0.  0.
          5    1    3    3  502    0  0.36488689436E+02  0.23833709103E+02  0.10945869709E+03  0.11789041061E+03  0.41800000000E+01 0. -1.
         -5    1    3    3    0  502 -0.69157919349E+02 -0.53180951794E+02  0.30418720383E+03  0.31647805424E+03  0.41800000000E+01 0. -1.
        -11    1    4    4    0    0 -0.95558540932E+01 -0.29851285382E+02  0.72012480989E+02  0.78537959005E+02  0.00000000000E+00 0.  1.
         11    1    4    4    0    0  0.42225084006E+02  0.59198528072E+02  0.25087154978E+03  0.26119716295E+03  0.00000000000E+00 0. -1.
</event>
<event>
 8    1  0.6684013E-009  0.1125082E+03  0.7561462E-02  0.1255994E+00
          1   -1    0    0  501    0  0.00000000000E+00  0.00000000000E+00  0.18279347029E+03  0.18279347029E+03  0.00000000000E+00 0. -1.
         -1   -1    0    0    0  501 -0.00000000000E+00 -0.00000000000E+00 -0.97618629346E+02  0.97618629346E+02  0.00000000000E+00 0.  1.
         25    2    1    2    0    0  0.25499895038E+01  0.77086873732E+02  0.51859460736E+02  0.15582678151E+03  0.12507475213E+03 0.  0.
         23    2    1    2    0    0 -0.25499895038E+01 -0.77086873732E+02  0.33315380210E+02  0.12458531813E+03  0.91992925739E+02 0.  0.
          5    1    3    3  502    0  0.29343736300E+02  0.98023976634E+02  0.11752710100E+02  0.10307935511E+03  0.41800000000E+01 0. -1.
         -5    1    3    3    0  502 -0.26793746796E+02 -0.20937102902E+02  0.40106750636E+02  0.52747426401E+02  0.41800000000E+01 0. -1.
        -11    1    4    4    0    0 -0.20184179231E+02 -0.19280253657E+02  0.53933599269E+02  0.60728596250E+02  0.00000000000E+00 0. -1.
         11    1    4    4    0    0  0.17634189727E+02 -0.57806620074E+02 -0.20618219059E+02  0.63856721877E+02  0.00000000000E+00 0.  1.
</event>
<event>
 8    1  0.6684013E-009  0.9920872E+02  0.7561462E-02  0.1281969E+00
         -2   -1    0    0    0  501 -0.00000000000E+00  0.00000000000E+00  0.24009224078E+02  0.24009224078E+02  0.00000000000E+00 0.  1.
          2   -1    0    0  501    0  0.00000000000E+00 -0.00000000000E+00 -0.55046925339E+03  0.55046925339E+03  0.00000000000E+00 0. -1.
         25    2    1    2    0    0  0.33014774967E+02  0.28990850845E+02 -0.30691392259E+03  0.33432837516E+03  0.12509541063E+03 0.  0.
         23    2    1    2    0    0 -0.33014774967E+02 -0.28990850845E+02 -0.21954610672E+03  0.24015010230E+03  0.86839702106E+02 0.  0.
          5    1    3    3  502    0  0.64158360641E+02 -0.10484193594E+02 -0.24964297772E+03  0.25800252379E+03  0.41800000000E+01 0.  1.
         -5    1    3    3    0  502 -0.31143585673E+02  0.39475044438E+02 -0.57270944871E+02  0.76325851377E+02  0.41800000000E+01 0.  1.
        -11    1    4    4    0    0 -0.60283169781E+01 -0.48908389157E+02 -0.18711206398E+03  0.19349236580E+03  0.00000000000E+00 0.  1.
         11    1    4    4    0    0 -0.26986457989E+02  0.19917538313E+02 -0.32434042736E+02  0.46657736502E+02  0.00000000000E+00 0. -1.
</event>
<event>
 8    1  0.6684013E-009  0.1084086E+03  0.7561462E-02  0.1263546E+00
         -3   -1    0    0    0  501 -0.00000000000E+00  0.00000000000E+00  0.23613177638E+02  0.23613177638E+02  0.00000000000E+00 0.  1.
          3   -1    0    0  501    0  0.00000000000E+00 -0.00000000000E+00 -0.70221829761E+03  0.70221829761E+03  0.00000000000E+00 0. -1.
         25    2    1    2    0    0 -0.11540773984E+02  0.64066170429E+02 -0.45528627808E+03  0.47662471427E+03  0.12509140495E+03 0.  0.
         23    2    1    2    0    0  0.11540773984E+02 -0.64066170429E+02 -0.22331884190E+03  0.24920676098E+03  0.89414992666E+02 0.  0.
          5    1    3    3  502    0 -0.51398320339E+00 -0.20451056753E+02 -0.98483133506E+01  0.23086177182E+02  0.41800000000E+01 0. -1.
         -5    1    3    3    0  502 -0.11026790781E+02  0.84517227182E+02 -0.44543796473E+03  0.45353853709E+03  0.41800000000E+01 0. -1.
        -11    1    4    4    0    0 -0.35956837925E+02 -0.48987737116E+02 -0.12306434190E+03  0.13724986276E+03  0.00000000000E+00 0. -1.
         11    1    4    4    0    0  0.47497611909E+02 -0.15078433314E+02 -0.10025450000E+03  0.11195689822E+03  0.00000000000E+00 0.  1.
</event>
<event>
 8    1  0.6684013E-009  0.1153034E+03  0.7561462E-02  0.1251052E+00
          4   -1    0    0  501    0  0.00000000000E+00  0.00000000000E+00  0.10775322491E+04  0.10775322491E+04  0.00000000000E+00 0. -1.
         -4   -1    0    0    0  501 -0.00000000000E+00 -0.00000000000E+00 -0.31216367637E+02  0.31216367637E+02  0.00000000000E+00 0.  1.
         25    2    1    2    0    0 -0.62242132948E+02  0.49821687131E+02  0.92347948938E+03  0.93531756709E+03  0.12509316676E+03 0.  0.
         23    2    1    2    0    0  0.62242132948E+02 -0.49821687131E+02  0.12283639204E+03  0.17343104961E+03  0.92915370833E+02 0.  0.
          5    1    3    3  502    0 -0.10058576149E+03  0.32350259139E+02  0.68345182050E+03  0.69158361608E+03  0.41800000000E+01 0.  1.
         -5    1    3    3    0  502  0.38343628543E+02  0.17471427992E+02  0.24002766888E+03  0.24373395101E+03  0.41800000000E+01 0.  1.
        -11    1    4    4    0    0  0.24276928079E+02 -0.69431553874E+01 -0.11237202010E+02  0.27637860856E+02  0.00000000000E+00 0.  1.
         11    1    4    4    0    0  0.37965204869E+02 -0.42878531743E+02  0.13407359405E+03  0.14579318875E+03  0.00000000000E+00 0. -1.
</event>
<event>
 8    1  0.6684013E-009  0.1029366E+03  0.7561462E-02  0.1274239E+00
          3   -1    0    0  501    0  0.00000000000E+00  0.00000000000E+00  0.77527042702E+02  0.77527042702E+02  0.00000000000E+00 0. -1.
         -3   -1    0    0    0  501 -0.00000000000E+00 -0.00000000000E+00 -0.24533786896E+03  0.24533786896E+03  0.00000000000E+00 0.  1.
         25    2    1    2    0    0  0.15883165708E+02  0.61198349874E+02 -0.15901309115E+03  0.21196776921E+03  0.12509060335E+03 0.  0.
         23    2    1    2    0    0 -0.15883165708E+02 -0.61198349874E+02 -0.87977351028E+01  0.11089714245E+03  0.90682209278E+02 0.  0.
          5    1    3    3  502    0 -0.28380012185E+02  0.20682147501E+02  0.64162281374E+01  0.35941851655E+02  0.41800000000E+01 0. -1.
         -5    1    3    3    0  502  0.44263177893E+02  0.40516202373E+02 -0.16542931929E+03  0.17602591756E+03  0.41800000000E+01 0. -1.
        -11    1    4    4    0    0 -0.53729870339E+02 -0.31815321813E+02 -0.17470219625E+01  0.62467317491E+02  0.00000000000E+00 0. -1.
         11    1    4    4    0    0  0.37846704631E+02 -0.29383028060E+02 -0.70507131402E+01  0.48429824955E+02  0.00000000000E+00 0.  1.
</event>
<event>
 8    1  0.6684013E-009  0.7650386E+02  0.7561462E-02  0.1339276E+00
         -1   -1    0    0    0  501 -0.00000000000E+00  0.00000000000E+00  0.60637101290E+02  0.60637101290E+02  0.00000000000E+00 0.  1.
          1   -1    0    0  501    0  0.00000000000E+00 -0.00000000000E+00 -0.23559719137E+03  0.23559719137E+03  0.00000000000E+00 0. -1.
         25    2    1    2    0    0  0.25356778726E+02 -0.39001254512E+02 -0.12554224516E+03  0.18322917658E+03  0.12509201314E+03 0.  0.
         23    2    1    2    0    0 -0.25356778726E+02  0.39001254512E+02 -0.49417844918E+02  0.11300511607E+03  0.90354683232E+02 0.  0.
          5    1    3    3  502    0  0.23362945600E+02 -0.61873456006E+02 -0.14061498397E+03  0.15544837697E+03  0.41800000000E+01 0.  1.
         -5    1    3    3    0  502  0.19938331257E+01  0.22872201494E+02  0.15072738813E+02  0.27780799611E+02  0.41800000000E+01 0.  1.
        -11    1    4    4    0    0  0.95427857101E+01  0.23211780934E+02  0.21078345358E+02  0.32774199857E+02  0.00000000000E+00 0.  1.
         11    1    4    4    0    0 -0.34899564436E+02  0.15789473578E+02 -0.70496190276E+02  0.80230916218E+02  0.00000000000E+00 0. -1.
</event>
<event>
 8    1  0.6684013E-009  0.4950643E+02  0.7561462E-02  0.1448022E+00
         -2   -1    0    0    0  501 -0.00000000000E+00  0.00000000000E+00  0.23371309050E+03  0.23371309050E+03  0.00000000000E+00 0. -1.
          2   -1    0    0  501    0  0.00000000000E+00 -0.00000000000E+00 -0.64193620230E+02  0.64193620230E+02  0.00000000000E+00 0.  1.
         25    2    1    2    0    0  0.68779758489E+01 -0.12311705958E+01  0.17110077425E+03  0.21206445902E+03  0.12508811892E+03 0.  0.
         23    2    1    2    0    0 -0.68779758489E+01  0.12311705958E+01 -0.15813039785E+01  0.85842251716E+02  0.85542792359E+02 0.  0.
          5    1    3    3  502    0  0.12510114987E+01  0.10478099873E+02 -0.18645266887E+02  0.21828284038E+02  0.41800000000E+01 0. -1.
         -5    1    3    3    0  502  0.56269643502E+01 -0.11709270469E+02  0.18974604114E+03  0.19023617498E+03  0.41800000000E+01 0. -1.
        -11    1    4    4    0    0 -0.12594718199E+02 -0.35072068317E+02 -0.22524112892E+02  0.43543226386E+02  0.00000000000E+00 0.  1.
         11    1    4    4    0    0  0.57167423504E+01  0.36303238913E+02  0.20942808913E+02  0.42299025330E+02  0.00000000000E+00 0. -1.
</event>
<event>
 8    1  0.6684013E-009  0.1468209E+03  0.7561462E-02  0.1204435E+00
          2   -1    0    0  501    0  0.00000000000E+00  0.00000000000E+00  0.46152291408E+03  0.46152291408E+03  0.00000000000E+00 0. -1.
         -2   -1    0    0    0  501 -0.00000000000E+00 -0.00000000000E+00 -0.57997249734E+02  0.57997249734E+02  0.00000000000E+00 0.  1.
         25    2    1    2    0    0 -0.11807044356E+03 -0.30853550005E+02  0.20857248345E+03  0.27210648319E+03  0.12508751396E+03 0.  0.
         23    2    1    2    0    0  0.11807044356E+03  0.30853550005E+02  0.19495318089E+03  0.24741368063E+03  0.91182319728E+02 0.  0.
          5    1    3    3  502    0 -0.70861386751E+02  0.22321828875E+02  0.18104737075E+03  0.19574274707E+03  0.41800000000E+01 0. -1.
         -5    1    3    3    0  502 -0.47209056808E+02 -0.53175378880E+02  0.27525112701E+02  0.76363736112E+02  0.41800000000E+01 0. -1.
        -11    1    4    4    0    0  0.95535610255E+02  0.58737792309E+02  0.17027622608E+03  0.20389010334E+03  0.00000000000E+00 0. -1.
         11    1    4    4    0    0  0.22534833304E+02 -0.27884242304E+02  0.24676954810E+02  0.43523577284E+02  0.00000000000E+00 0.  1.
</event>
<event>
 8    1  0.6684013E-009  0.9029399E+02  0.7561462E-02  0.1302141E+00
          1   -1    0    0  501    0  0.00000000000E+00  0.00000000000E+00  0.84264575171E+02  0.84264575171E+02  0.00000000000E+00 0. -1.
         -1   -1    0    0    0  501 -0.00000000000E+00 -0.00000000000E+00 -0.26532306496E+03  0.26532306496E+03  0.00000000000E+00 0.  1.
         25    2    1    2    0    0  0.91726473948E+01 -0.50332668131E+02 -0.19929929471E+03  0.24079952981E+03  0.12508672889E+03 0.  0.
         23    2    1    2    0    0 -0.91726473948E+01  0.50332668131E+02  0.18240804921E+02  0.10878811032E+03  0.94258214716E+02 0.  0.
          5    1    3    3  502    0 -0.22574834938E+02 -0.78030727196E+02 -0.79493238021E+02  0.11373242656E+03  0.41800000000E+01 0. -1.
         -5    1    3    3    0  502  0.31747482333E+02  0.27698059065E+02 -0.11980605669E+03  0.12706710325E+03  0.41800000000E+01 0. -1.
        -11    1    4    4    0    0  0.81773827376E+01  0.24192754140E+02  0.54892577176E+02  0.60542166879E+02  0.00000000000E+00 0. -1.
         11    1    4    4    0    0 -0.17350030132E+02  0.26139913991E+02 -0.36651772255E+02  0.48245943441E+02  0.00000000000E+00 0.  1.
</event>
<event>
 8    1  0.6684013E-009  0.1368851E+03  0.7561462E-02  0.1217583E+00
         -2   -1    0    0    0  501 -0.00000000000E+00  0.00000000000E+00  0.23380482043E+02  0.23380482043E+02  0.00000000000E+00 0.  1.
          2   -1    0    0  501    0  0.00000000000E+00 -0.00000000000E+00 -0.10988151171E+04  0.10988151171E+04  0.00000000000E+00 0. -1.
         25    2    1    2    0    0 -0.28894466919E+02  0.11006456077E+03 -0.68802435282E+03  0.70850113059E+03  0.12508894527E+03 0.  0.
         23    2    1    2    0    0  0.28894466919E+02 -0.11006456077E+03 -0.38741028228E+03  0.41369446859E+03  0.90040484050E+02 0.  0.
          5    1    3    3  502    0 -0.26817161394E+02  0.10625357832E+02 -0.26074391742E+02  0.39107603852E+02  0.41800000000E+01 0. -1.
         -5    1    3    3    0  502 -0.20773055246E+01  0.99439202936E+02 -0.66194996107E+03  0.66939352674E+03  0.41800000000E+01 0. -1.
        -11    1    4    4    0    0  0.47375454000E+02 -0.11629288792E+03 -0.33224023804E+03  0.35517889182E+03  0.00000000000E+00 0.  1.
         11    1    4    4    0    0 -0.18480987081E+02  0.62283271571E+01 -0.55170044238E+02  0.58515576763E+02  0.00000000000E+00 0. -1.
</event>
<event>
 8    1  0.6684013E-009  0.7563215E+02  0.7561462E-02  0.1341925E+00
         -2   -1    0    0    0  501 -0.00000000000E+00  0.00000000000E+00  0.28247550019E+02  0.28247550019E+02  0.00000000000E+00 0.  1.
          2   -1    0    0  501    0  0.00000000000E+00 -0.00000000000E+00 -0.79330589413E+03  0.79330589413E+03  0.00000000000E+00 0. -1.
         25    2    1    2    0    0 -0.13407213677E+02 -0.21332430535E+02 -0.69412430643E+03  0.70575665688E+03  0.12509628286E+03 0.  0.
         23    2    1    2    0    0  0.13407213677E+02  0.21332430535E+02 -0.70934037680E+02  0.11579678727E+03  0.87991091985E+02 0.  0.
          5    1    3    3  502    0  0.37587461765E+02  0.13892678762E+01 -0.74050210126E+02  0.83160407448E+02  0.41800000000E+01 0. -1.
         -5    1    3    3    0  502 -0.50994675442E+02 -0.22721698411E+02 -0.62007409630E+03  0.62259624943E+03  0.41800000000E+01 0. -1.
        -11    1    4    4    0    0 -0.14292034212E+02  0.25687862752E+02 -0.80871433391E+02  0.86048342654E+02  0.00000000000E+00 0. -1.
         11    1    4    4    0    0  0.27699247889E+02 -0.43554322169E+01  0.99373957110E+01  0.29748444614E+02  0.00000000000E+00 0.  1.
</event>
<event>
 8    1  0.6684013E-009  0.8538479E+02  0.7561462E-02  0.1314429E+00
          2   -1    0    0  501    0  0.00000000000E+00  0.00000000000E+00  0.12550624407E+03  0.12550624407E+03  0.00000000000E+00 0. -1.
         -2   -1    0    0    0  501 -0.00000000000E+00 -0.00000000000E+00 -0.13222499146E+03  0.13222499146E+03  0.00000000000E+00 0.  1.
         25    2    1    2    0    0 -0.66209419914E+02 -0.29051509985E+01 -0.31460778151E+01  0.14159614461E+03  0.12508974049E+03 0.  0.
         23    2    1    2    0    0  0.66209419914E+02  0.29051509985E+01 -0.35726695782E+01  0.11613509092E+03  0.95301984168E+02 0.  0.
          5    1    3    3  502    0 -0.75023304904E+02 -0.15518096474E+02 -0.50350663895E+02  0.91771288275E+02  0.41800000000E+01 0. -1.
         -5    1    3    3    0  502  0.88138849897E+01  0.12612945476E+02  0.47204586080E+02  0.49824856339E+02  0.41800000000E+01 0. -1.
        -11    1    4    4    0    0  0.23759459062E+02 -0.18915341825E+02 -0.44082998059E+02  0.53531418524E+02  0.00000000000E+00 0.  1.
         11    1    4    4    0    0  0.42449960852E+02  0.21820492823E+02  0.40510328481E+02  0.62603672392E+02  0.00000000000E+00 0. -1.
</event>
<event>
 8    1  0.6684013E-009  0.3128614E+03  0.7561462E-02  0.1078982E+00
         -1   -1    0    0    0  501 -0.00000000000E+00  0.00000000000E+00  0.18239575352E+03  0.18239575352E+03  0.00000000000E+00 0.  1.
          1   -1    0    0  501    0  0.00000000000E+00 -0.00000000000E+00 -0.62764055714E+03  0.62764055714E+03  0.00000000000E+00 0. -1.
         25    2    1    2    0    0  0.11854973551E+03 -0.28062634399E+03 -0.34168641038E+03  0.47455520474E+03  0.12509138491E+03 0.  0.
         23    2    1    2    0    0 -0.11854973551E+03  0.28062634399E+03 -0.10355839324E+03  0.33548110592E+03  0.94963397608E+02 0.  0.
          5    1    3    3  502    0  0.64647606135E+02 -0.57209086646E+02 -0.15885982854E+03  0.18084830687E+03  0.41800000000E+01 0.  1.
         -5    1    3    3    0  502  0.53902129371E+02 -0.22341725735E+03 -0.18282658184E+03  0.29370689787E+03  0.41800000000E+01 0.  1.
        -11    1    4    4    0    0 -0.11188050479E+02  0.89641329325E+02 -0.69011871181E+02  0.11368103958E+03  0.00000000000E+00 0. -1.
         11    1    4    4    0    0 -0.10736168503E+03  0.19098501467E+03 -0.34546522061E+02  0.22180006634E+03  0.00000000000E+00 0.  1.
</event>
<event>
 8    1  0.6684013E-009  0.9263464E+02  0.7561462E-02  0.1296594E+00
         -2   -1    0    0    0  501 -0.00000000000E+00  0.00000000000E+00  0.74750042851E+02  0.74750042851E+02  0.00000000000E+00 0.  1.
          2   -1    0    0  501    0  0.00000000000E+00 -0.00000000000E+00 -0.17060748022E+03  0.17060748022E+03  0.00000000000E+00 0. -1.
         25    2    1    2    0    0 -0.41482992275E+01 -0.73001586294E+01 -0.19938709534E+02  0.12689444585E+03  0.12503658484E+03 0.  0.
         23    2    1    2    0    0  0.41482992275E+01  0.73001586294E+01 -0.75918727838E+02  0.11846307722E+03  0.90550244205E+02 0.  0.
          5    1    3    3  502    0 -0.26745338628E+01 -0.58253967500E+02  0.20223791468E+02  0.61863979844E+02  0.41800000000E+01 0. -1.
         -5    1    3    3    0  502 -0.14737653647E+01  0.50953808870E+02 -0.40162501002E+02  0.65030466010E+02  0.41800000000E+01 0. -1.
        -11    1    4    4    0    0 -0.18211041493E+02 -0.28279620902E+02 -0.23240452154E+01  0.33716170850E+02  0.00000000000E+00 0. -1.
         11    1    4    4    0    0  0.22359340721E+02  0.35579779532E+02 -0.73594682623E+02  0.84746906370E+02  0.00000000000E+00 0.  1.
</event>
<event>
 8    1  0.6684013E-009  0.1004278E+03  0.7561462E-02  0.1279399E+00
          1   -1    0    0  501    0  0.00000000000E+00  0.00000000000E+00  0.23393081786E+03  0.23393081786E+03  0.00000000000E+00 0. -1.
         -1   -1    0    0    0  501 -0.00000000000E+00 -0.00000000000E+00 -0.59319329356E+02  0.59319329356E+02  0.00000000000E+00 0.  1.
         25    2    1    2    0    0  0.25999880806E+02 -0.12938661938E+02  0.14168628811E+03  0.19122315997E+03  0.12509152607E+03 0.  0.
         23    2    1    2    0    0 -0.25999880806E+02  0.12938661938E+02  0.32925200386E+02  0.10202698724E+03  0.92097961598E+02 0.  0.
          5    1    3    3  502    0 -0.49525937689E+02 -0.45149711581E+01  0.74680384359E+02  0.89821131570E+02  0.41800000000E+01 0.  1.
         -5    1    3    3    0  502  0.75525818495E+02 -0.84236907795E+01  0.67005903754E+02  0.10140202840E+03  0.41800000000E+01 0.  1.
        -11    1    4    4    0    0 -0.26695797637E+02 -0.25190424483E+02  0.48508861929E+02  0.60830360699E+02  0.00000000000E+00 0. -1.
         11    1    4    4    0    0  0.69591683133E+00  0.38129086420E+02 -0.15583661542E+02  0.41196626543E+02  0.00000000000E+00 0.  1.
</event>
<event>
 8    1  0.6684013E-009  0.8256388E+02  0.7561462E-02  0.1321929E+00
         -3   -1    0    0    0  501 -0.00000000000E+00  0.00000000000E+00  0.48095822861E+02  0.48095822861E+02  0.00000000000E+00 0. -1.
          3   -1    0    0  501    0  0.00000000000E+00 -0.00000000000E+00 -0.24815855149E+03  0.24815855149E+03  0.00000000000E+00 0.  1.
         25    2    1    2    0    0  0.13624972504E+02 -0.42743271877E+01 -0.15905874567E+03  0.20285666327E+03  0.12508889443E+03 0.  0.
         23    2    1    2    0    0 -0.13624972504E+02  0.42743271877E+01 -0.41003982960E+02  0.93397711080E+02  0.82691571927E+02 0.  0.
          5    1    3    3  502    0 -0.79934421606E+01  0.38806236243E+02 -0.14794443544E+03  0.15321503668E+03  0.41800000000E+01 0.  1.
         -5    1    3    3    0  502  0.21618414664E+02 -0.43080563430E+02 -0.11114310229E+02  0.49641626584E+02  0.41800000000E+01 0.  1.
        -11    1    4    4    0    0  0.30991612634E+02 -0.48406207797E+01 -0.35745713175E+02  0.47556993950E+02  0.00000000000E+00 0.  1.
         11    1    4    4    0    0 -0.44616585138E+02  0.91149479674E+01 -0.52582697853E+01  0.45840717130E+02  0.00000000000E+00 0. -1.
</event>
<event>
 8    1  0.6684013E-009  0.9168779E+02  0.7561462E-02  0.1298815E+00
         -1   -1    0    0    0  501 -0.00000000000E+00  0.00000000000E+00  0.25673261752E+03  0.25673261752E+03  0.00000000000E+00 0.  1.
          1   -1    0    0  501    0  0.00000000000E+00 -0.00000000000E+00 -0.55187617816E+02  0.55187617816E+02  0.00000000000E+00 0. -1.
         25    2    1    2    0    0  0.17016682623E+02 -0.16488195120E+02  0.16957118016E+03  0.21204810319E+03  0.12509430387E+03 0.  0.
         23    2    1    2    0    0 -0.17016682623E+02  0.16488195120E+02  0.31973819539E+02  0.99872132142E+02  0.91600707294E+02 0.  0.
          5    1    3    3  502    0  0.32474085290E+02 -0.66608388370E+02  0.90036340854E+02  0.11668444066E+03  0.41800000000E+01 0.  1.
         -5    1    3    3    0  502 -0.15457402667E+02  0.50120193250E+02  0.79534839310E+02  0.95363662538E+02  0.41800000000E+01 0.  1.
        -11    1    4    4    0    0 -0.79177387090E+00  0.33221630929E+02  0.56807814372E+02  0.65813611367E+02  0.00000000000E+00 0.  1.
         11    1    4    4    0    0 -0.16224908752E+02 -0.16733435809E+02 -0.24833994833E+02  0.34058520774E+02  0.00000000000E+00 0. -1.
</event>
<event>
 8    1  0.6684013E-009  0.1148529E+03  0.7561462E-02  0.1251838E+00
          1   -1    0    0  501    0  0.00000000000E+00  0.00000000000E+00  0.22750673069E+03  0.22750673069E+03  0.00000000000E+00 0. -1.
         -1   -1    0    0    0  501 -0.00000000000E+00 -0.00000000000E+00 -0.76964426659E+02  0.76964426659E+02  0.00000000000E+00 0.  1.
         25    2    1    2    0    0 -0.74037664374E+02 -0.18874428691E+02  0.67123086642E+02  0.16121139868E+03  0.12508311837E+03 0.  0.
         23    2    1    2    0    0  0.74037664374E+02  0.18874428691E+02  0.83419217387E+02  0.14325975867E+03  0.87902063793E+02 0.  0.
          5    1    3    3  502    0  0.99090779546E+00 -0.44674782323E+02 -0.14636137736E+02  0.47207065167E+02  0.41800000000E+01 0.  1.
         -5    1    3    3    0  502 -0.75028572170E+02  0.25800353632E+02  0.81759224378E+02  0.11400433351E+03  0.41800000000E+01 0.  1.
        -11    1    4    4    0    0  0.35212899772E+00 -0.21398327184E+02  0.47168032108E+02  0.51796096900E+02  0.00000000000E+00 0. -1.
         11    1    4    4    0    0  0.73685535377E+02  0.40272755875E+02  0.36251185279E+02  0.91463661766E+02  0.00000000000E+00 0.  1.
</event>
<event>
 8    1  0.6684013E-009  0.9539290E+02  0.7561462E-02  0.1290294E+00
         -1   -1    0    0    0  501 -0.00000000000E+00  0.00000000000E+00  0.22074543587E+02  0.22074543587E+02  0.00000000000E+00 0.  1.
          1   -1    0    0  501    0  0.00000000000E+00 -0.00000000000E+00 -0.52232603012E+03  0.52232603012E+03  0.00000000000E+00 0. -1.
         25    2    1    2    0    0 -0.78994687035E+00 -0.10304191632E+02 -0.29914357266E+03  0.32441496775E+03  0.12510553085E+03 0.  0.
         23    2    1    2    0    0  0.78994687035E+00  0.10304191632E+02 -0.20110791387E+03  0.21998560596E+03  0.88557740644E+02 0.  0.
          5    1    3    3  502    0  0.48856338938E+02 -0.28269049714E+02 -0.23249678820E+03  0.23928708689E+03  0.41800000000E+01 0.  1.
         -5    1    3    3    0  502 -0.49646285809E+02  0.17964858082E+02 -0.66646784461E+02  0.85127880859E+02  0.41800000000E+01 0.  1.
        -11    1    4    4    0    0 -0.38913746536E+02 -0.37783621371E+01 -0.52105858852E+02  0.65142737252E+02  0.00000000000E+00 0.  1.
         11    1    4    4    0    0  0.39703693407E+02  0.14082553769E+02 -0.14900205502E+03  0.15484286871E+03  0.00000000000E+00 0. -1.
</event>
<event>
 8    1  0.6684013E-009  0.8198526E+02  0.7561462E-02  0.1323510E+00
         -1   -1    0    0    0  501 -0.00000000000E+00  0.00000000000E+00  0.45630593390E+02  0.45630593390E+02  0.00000000000E+00 0.  1.
          1   -1    0    0  501    0  0.00000000000E+00 -0.00000000000E+00 -0.43030986724E+03  0.43030986724E+03  0.00000000000E+00 0. -1.
         25    2    1    2    0    0 -0.11776334302E+02  0.92525981255E+01 -0.35894332772E+03  0.38041043577E+03  0.12508994565E+03 0.  0.
         23    2    1    2    0    0  0.11776334302E+02 -0.92525981255E+01 -0.25735946126E+02  0.95530024862E+02  0.90770887984E+02 0.  0.
          5    1    3    3  502    0  0.54809073629E+02  0.12676580767E+02 -0.20450776813E+03  0.21214530369E+03  0.41800000000E+01 0.  1.
         -5    1    3    3    0  502 -0.66585407931E+02 -0.34239826417E+01 -0.15443555960E+03  0.16826513208E+03  0.41800000000E+01 0.  1.
        -11    1    4    4    0    0 -0.13332114648E+02  0.15492359452E+01 -0.54335891924E+02  0.55969050056E+02  0.00000000000E+00 0. -1.
         11    1    4    4    0    0  0.25108448950E+02 -0.10801834071E+02  0.28599945798E+02  0.39560974806E+02  0.00000000000E+00 0.  1.
</event>
<event>
 8    1  0.6684013E-009  0.1006967E+03  0.7561462E-02  0.1278838E+00
         -1   -1    0    0    0  501 -0.00000000000E+00  0.00000000000E+00  0.30583341124E+03  0.30583341124E+03  0.00000000000E+00 0.  1.
          1   -1    0    0  501    0  0.00000000000E+00 -0.00000000000E+00 -0.56021144774E+02  0.56021144774E+02  0.00000000000E+00 0. -1.
         25    2    1    2    0    0 -0.48612130397E+02 -0.44612864774E+02  0.17802833183E+03  0.22736921753E+03  0.12509687135E+03 0.  0.
         23    2    1    2    0    0  0.48612130397E+02  0.44612864774E+02  0.71783934638E+02  0.13448533848E+03  0.92627890345E+02 0.  0.
          5    1    3    3  502    0 -0.43415222760E+02 -0.66526888187E+02  0.18664914571E+03  0.20289426905E+03  0.41800000000E+01 0. -1.
         -5    1    3    3    0  502 -0.51969076368E+01  0.21914023413E+02 -0.86208138813E+01  0.24474948480E+02  0.41800000000E+01 0. -1.
        -11    1    4    4    0    0  0.54679537790E+02  0.77880393888E+00  0.71774641901E+02  0.90233350866E+02  0.00000000000E+00 0.  1.
         11    1    4    4    0    0 -0.60674073928E+01  0.43834060835E+02  0.92927372695E-02  0.44251987618E+02  0.00000000000E+00 0. -1.
</event>
<event>
 8    1  0.6684013E-009  0.1362033E+03  0.7561462E-02  0.1218531E+00
         -2   -1    0    0    0  501 -0.00000000000E+00  0.00000000000E+00  0.74993451205E+02  0.74993451205E+02  0.00000000000E+00 0.  1.
          2   -1    0    0  501    0  0.00000000000E+00 -0.00000000000E+00 -0.29197476299E+03  0.29197476299E+03  0.00000000000E+00 0. -1.
         25    2    1    2    0    0  0.79185963629E+02 -0.57206925602E+02 -0.82788728029E+02  0.17900874026E+03  0.12508839446E+03 0.  0.
         23    2    1    2    0    0 -0.79185963629E+02  0.57206925602E+02 -0.13419258376E+03  0.18795947394E+03  0.88193339513E+02 0.  0.
          5    1    3    3  502    0  0.15504422548E+02 -0.80188299783E+02 -0.74585211499E+02  0.11068413037E+03  0.41800000000E+01 0.  1.
         -5    1    3    3    0  502  0.63681541081E+02  0.22981374181E+02 -0.82035165305E+01  0.68324609894E+02  0.41800000000E+01 0.  1.
        -11    1    4    4    0    0 -0.54090324551E+01 -0.17189666601E+02 -0.51256585763E+02  0.54332125433E+02  0.00000000000E+00 0. -1.
         11    1    4    4    0    0 -0.73776931174E+02  0.74396592203E+02 -0.82935997993E+02  0.13362734850E+03  0.00000000000E+00 0.  1.
</event>
<event>
 8    1  0.6684013E-009  0.9921005E+02  0.7561462E-02  0.1281966E+00
          1   -1    0    0  501    0  0.00000000000E+00  0.00000000000E+00  0.39150087376E+02  0.39150087376E+02  0.00000000000E+00 0. -1.
         -1   -1    0    0    0  501 -0.00000000000E+00 -0.00000000000E+00 -0.30873791601E+03  0.30873791601E+03  0.00000000000E+00 0.  1.
         25    2    1    2    0    0  0.29364507060E+01 -0.81438894295E+01 -0.12649836743E+03  0.17812343902E+03  0.12510466373E+03 0.  0.
         23    2    1    2    0    0 -0.29364507060E+01  0.81438894295E+01 -0.14308946120E+03  0.16976456437E+03  0.90942111969E+02 0.  0.
          5    1    3    3  502    0 -0.44943167825E+02  0.37779081414E+02 -0.56475825423E+02  0.81572903490E+02  0.41800000000E+01 0. -1.
         -5    1    3    3    0  502  0.47879618531E+02 -0.45922970843E+02 -0.70022542005E+02  0.96550535527E+02  0.41800000000E+01 0. -1.
        -11    1    4    4    0    0  0.34375080940E+02  0.97737489919E+01 -0.19617362478E+02  0.40767796967E+02  0.00000000000E+00 0. -1.
         11    1    4    4    0    0 -0.37311531645E+02 -0.16298595624E+01 -0.12347209872E+03  0.12899676740E+03  0.00000000000E+00 0.  1.
</event>
<event>
 8    1  0.6684013E-009  0.2149207E+03  0.7561462E-02  0.1137728E+00
          1   -1    0    0  501    0  0.00000000000E+00  0.00000000000E+00  0.19171774381E+03  0.19171774381E+03  0.00000000000E+00 0. -1.
         -1   -1    0    0    0  501 -0.00000000000E+00 -0.00000000000E+00 -0.26096925530E+03  0.26096925530E+03  0.00000000000E+00 0.  1.
         25    2    1    2    0    0 -0.11040187398E+03 -0.15735364646E+03 -0.61025679546E+01  0.22942536896E+03  0.12510001900E+03 0.  0.
         23    2    1    2    0    0  0.11040187398E+03  0.15735364646E+03 -0.63148943535E+02  0.22326163016E+03  0.94388678350E+02 0.  0.
          5    1    3    3  502    0 -0.24106894408E+02 -0.13183849045E+03 -0.27392194936E+02  0.13685881289E+03  0.41800000000E+01 0. -1.
         -5    1    3    3    0  502 -0.86294979570E+02 -0.25515156008E+02  0.21289626982E+02  0.92566556067E+02  0.41800000000E+01 0. -1.
        -11    1    4    4    0    0  0.16169568650E+01  0.58969406112E+02  0.92148531622E+01  0.59706942021E+02  0.00000000000E+00 0. -1.
         11    1    4    4    0    0  0.10878491711E+03  0.98384240344E+02 -0.72363796698E+02  0.16355468814E+03  0.00000000000E+00 0.  1.
</event>
<event>
 8    1  0.6684013E-009  0.1892063E+03  0.7561462E-02  0.1159179E+00
         -2   -1    0    0    0  501 -0.00000000000E+00  0.00000000000E+00  0.94813672104E+02  0.94813672104E+02  0.00000000000E+00 0.  1.
          2   -1    0    0  501    0  0.00000000000E+00 -0.00000000000E+00 -0.77092992393E+03  0.77092992393E+03  0.00000000000E+00 0. -1.
         25    2    1    2    0    0 -0.14753710023E+03  0.53623924382E+02 -0.40600839202E+02  0.20478552973E+03  0.12508382723E+03 0.  0.
         23    2    1    2    0    0  0.14753710023E+03 -0.53623924382E+02 -0.63551541262E+03  0.66095806630E+03  0.91340048802E+02 0.  0.
          5    1    3    3  502    0  0.47606245238E+01 -0.24874573373E+02  0.75598109197E+01  0.26758757211E+02  0.41800000000E+01 0.  1.
         -5    1    3    3    0  502 -0.15229772475E+03  0.78498497754E+02 -0.48160650122E+02  0.17802677252E+03  0.41800000000E+01 0.  1.
        -11    1    4    4    0    0  0.64810598332E+02 -0.71727793895E+02 -0.35648681235E+03  0.36936179750E+03  0.00000000000E+00 0.  1.
         11    1    4    4    0    0  0.82726501897E+02  0.18103869513E+02 -0.27902860027E+03  0.29159626880E+03  0.00000000000E+00 0. -1.
</event>
<event>
 8    1  0.6684013E-009  0.1428605E+03  0.7561462E-02  0.1209531E+00
         -1   -1    0    0    0  501 -0.00000000000E+00  0.00000000000E+00  0.90490040195E+02  0.90490040195E+02  0.00000000000E+00 0.  1.
          1   -1    0    0  501    0  0.00000000000E+00 -0.00000000000E+00 -0.25068724053E+03  0.25068724053E+03  0.00000000000E+00 0. -1.
         25    2    1    2    0    0  0.45944754415E+02 -0.88518231695E+02 -0.12130284978E+03  0.20076968171E+03  0.12509071081E+03 0.  0.
         23    2    1    2    0    0 -0.45944754415E+02  0.88518231695E+02 -0.38894350557E+02  0.14040759901E+03  0.90857721486E+02 0.  0.
          5    1    3    3  502    0  0.78317145434E+02 -0.93261915637E+02 -0.72269396025E+02  0.14167462080E+03  0.41800000000E+01 0. -1.
         -5    1    3    3    0  502 -0.32372391019E+02  0.47436839418E+01 -0.49033453751E+02  0.59095060914E+02  0.41800000000E+01 0. -1.
        -11    1    4    4    0    0 -0.25076782233E+02 -0.12296486975E+02 -0.23114076636E+02  0.36253401741E+02  0.00000000000E+00 0.  1.
         11    1    4    4    0    0 -0.20867972182E+02  0.10081471867E+03 -0.15780273921E+02  0.10415419727E+03  0.00000000000E+00 0. -1.
</event>
<event>
 8    1  0.6684013E-009  0.2440210E+03  0.7561462E-02  0.1117143E+00
          2   -1    0    0  501    0  0.00000000000E+00  0.00000000000E+00  0.51910095575E+03  0.51910095575E+03  0.00000000000E+00 0. -1.
         -2   -1    0    0    0  501 -0.00000000000E+00 -0.00000000000E+00 -0.12384085854E+03  0.12384085854E+03  0.00000000000E+00 0.  1.
         25    2    1    2    0    0 -0.97045431868E+02 -0.20288321901E+03  0.25717736479E+03  0.36382214240E+03  0.12508772097E+03 0.  0.
         23    2    1    2    0    0  0.97045431868E+02  0.20288321901E+03  0.13808273242E+03  0.27911967189E+03  0.90892980161E+02 0.  0.
          5    1    3    3  502    0  0.87873919867E+01 -0.90678532409E+02  0.15140529921E+03  0.17675081761E+03  0.41800000000E+01 0.  1.
         -5    1    3    3    0  502 -0.10583282386E+03 -0.11220468660E+03  0.10577206558E+03  0.18707132479E+03  0.41800000000E+01 0.  1.
        -11    1    4    4    0    0  0.11137873988E+03  0.19840206816E+03  0.12851731240E+03  0.26131456893E+03  0.00000000000E+00 0. -1.
         11    1    4    4    0    0 -0.14333308009E+02  0.44811508465E+01  0.95654200182E+01  0.17805102963E+02  0.00000000000E+00 0.  1.
</event>
<event>
 8    1  0.6684013E-009  0.2678259E+03  0.7561462E-02  0.1102530E+00
         -2   -1    0    0    0  501 -0.00000000000E+00  0.00000000000E+00  0.14681270970E+03  0.14681270970E+03  0.00000000000E+00 0.  1.
          2   -1    0    0  501    0  0.00000000000E+00 -0.00000000000E+00 -0.59543990109E+03  0.59543990109E+03  0.00000000000E+00 0. -1.
         25    2    1    2    0    0  0.38869200040E+02 -0.25752620875E+03 -0.34118569867E+03  0.44708598584E+03  0.12509050663E+03 0.  0.
         23    2    1    2    0    0 -0.38869200040E+02  0.25752620875E+03 -0.10744149272E+03  0.29516662496E+03  0.88028968102E+02 0.  0.
          5    1    3    3  502    0  0.14556494241E+02 -0.71251600574E+02 -0.19761570221E+03  0.21061367541E+03  0.41800000000E+01 0.  1.
         -5    1    3    3    0  502  0.24312705799E+02 -0.18627460818E+03 -0.14356999646E+03  0.23647231043E+03  0.41800000000E+01 0.  1.
        -11    1    4    4    0    0 -0.67004076155E+02  0.19883539097E+03 -0.83077186662E+02  0.22566984262E+03  0.00000000000E+00 0.  1.
         11    1    4    4    0    0  0.28134876115E+02  0.58690817783E+02 -0.24364306059E+02  0.69496782341E+02  0.00000000000E+00 0. -1.
</event>
<event>
 8    1  0.6684013E-009  0.2794771E+03  0.7561462E-02  0.1095975E+00
         -3   -1    0    0    0  501 -0.00000000000E+00  0.00000000000E+00  0.88740569164E+02  0.88740569164E+02  0.00000000000E+00 0.  1.
          3   -1    0    0  501    0  0.00000000000E+00 -0.00000000000E+00 -0.96184438150E+03  0.96184438150E+03  0.00000000000E+00 0. -1.
         25    2    1    2    0    0  0.90020794647E+02 -0.24958902803E+03 -0.34607116456E+03  0.45366364666E+03  0.12508807689E+03 0.  0.
         23    2    1    2    0    0 -0.90020794647E+02  0.24958902803E+03 -0.52703264777E+03  0.59692130400E+03  0.90295099390E+02 0.  0.
          5    1    3    3  502    0 -0.18903891115E+01 -0.14225615223E+03 -0.23124176802E+03  0.27153381759E+03  0.41800000000E+01 0. -1.
         -5    1    3    3    0  502  0.91911183759E+02 -0.10733287580E+03 -0.11482939654E+03  0.18212982907E+03  0.41800000000E+01 0. -1.
        -11    1    4    4    0    0 -0.90014189599E+02  0.14501921623E+03 -0.26993600279E+03  0.31937215440E+03  0.00000000000E+00 0. -1.
         11    1    4    4    0    0 -0.66050481302E-02  0.10456981180E+03 -0.25709664498E+03  0.27754914960E+03  0.00000000000E+00 0.  1.
</event>
<event>
 8    1  0.6684013E-009  0.1066354E+03  0.7561462E-02  0.1266931E+00
          1   -1    0    0  501    0  0.00000000000E+00  0.00000000000E+00  0.16671616335E+02  0.16671616335E+02  0.00000000000E+00 0. -1.
         -1   -1    0    0    0  501 -0.00000000000E+00 -0.00000000000E+00 -0.11773216315E+04  0.11773216315E+04  0.00000000000E+00 0.  1.
         25    2    1    2    0    0  0.52099747786E+02  0.70011669522E+02 -0.69220665122E+03  0.70880633976E+03  0.12506143170E+03 0.  0.
         23    2    1    2    0    0 -0.52099747786E+02 -0.70011669522E+02 -0.46844336394E+03  0.48518690807E+03  0.91384533469E+02 0.  0.
          5    1    3    3  502    0  0.35759198021E+02  0.44717723132E+02 -0.96223918453E+02  0.11204869427E+03  0.41800000000E+01 0. -1.
         -5    1    3    3    0  502  0.16340549765E+02  0.25293946390E+02 -0.59598273277E+03  0.59675764549E+03  0.41800000000E+01 0. -1.
        -11    1    4    4    0    0 -0.77781803588E+02 -0.58446065263E+02 -0.38566001533E+03  0.39774313185E+03  0.00000000000E+00 0.  1.
         11    1    4    4    0    0  0.25682055801E+02 -0.11565604259E+02 -0.82783348611E+02  0.87443776218E+02  0.00000000000E+00 0. -1.
</event>
<event>
 8    1  0.6684013E-009  0.9631411E+02  0.7561462E-02  0.1288244E+00
          2   -1    0    0  501    0  0.00000000000E+00  0.00000000000E+00  0.24464527156E+02  0.24464527156E+02  0.00000000000E+00 0. -1.
         -2   -1    0    0    0  501 -0.00000000000E+00 -0.00000000000E+00 -0.57951909236E+03  0.57951909236E+03  0.00000000000E+00 0.  1.
         25    2    1    2    0    0 -0.36055380700E+02 -0.28213244458E+02 -0.35472137152E+03  0.37890294975E+03  0.12507684148E+03 0.  0.
         23    2    1    2    0    0  0.36055380700E+02  0.28213244458E+02 -0.20033319368E+03  0.22508066976E+03  0.91825605207E+02 0.  0.
          5    1    3    3  502    0 -0.64046846439E+01  0.26743585152E+02 -0.28024403177E+03  0.28162107357E+03  0.41800000000E+01 0. -1.
         -5    1    3    3    0  502 -0.29650696057E+02 -0.54956829610E+02 -0.74477339746E+02  0.97281876180E+02  0.41800000000E+01 0. -1.
        -11    1    4    4    0    0  0.29289146593E+02  0.61575248409E+02 -0.12427393146E+03  0.14175110357E+03  0.00000000000E+00 0. -1.
         11    1    4    4    0    0  0.67662341077E+01 -0.33362003951E+02 -0.76059262222E+02  0.83329566190E+02  0.00000000000E+00 0.  1.
</event>
<event>
 8    1  0.6684013E-009  0.8962977E+02  0.7561462E-02  0.1303751E+00
         -1   -1    0    0    0  501 -0.00000000000E+00  0.00000000000E+00  0.19445997099E+03  0.19445997099E+03  0.00000000000E+00 0.  1.
          1   -1    0    0  501    0  0.00000000000E+00 -0.00000000000E+00 -0.89970939539E+02  0.89970939539E+02  0.00000000000E+00 0. -1.
         25    2    1    2    0    0  0.39547124692E+01 -0.68221604547E+00  0.13934501751E+03  0.18728891145E+03  0.12507596604E+03 0.  0.
         23    2    1    2    0    0 -0.39547124692E+01  0.68221604547E+00 -0.34855986060E+02  0.97141999073E+02  0.90584342191E+02 0.  0.
          5    1    3    3  502    0  0.53943691135E+02 -0.28065919534E+00  0.12325307141E+03  0.13460606448E+03  0.41800000000E+01 0. -1.
         -5    1    3    3    0  502 -0.49988978666E+02 -0.40155685013E+00  0.16091946098E+02  0.52682846973E+02  0.41800000000E+01 0. -1.
        -11    1    4    4    0    0 -0.11756121958E+02  0.36491855341E+02  0.96041792387E+01  0.39523438218E+02  0.00000000000E+00 0.  1.
         11    1    4    4    0    0  0.78014094887E+01 -0.35809639296E+02 -0.44460165299E+02  0.57618560854E+02  0.00000000000E+00 0. -1.
</event>
<event>
 8    1  0.6684013E-009  0.9206752E+02  0.7561462E-02  0.1297921E+00
         -1   -1    0    0    0  501 -0.00000000000E+00  0.00000000000E+00  0.13544047187E+03  0.13544047187E+03  0.00000000000E+00 0.  1.
          1   -1    0    0  501    0  0.00000000000E+00 -0.00000000000E+00 -0.10764315154E+03  0.10764315154E+03  0.00000000000E+00 0. -1.
         25    2    1    2    0    0  0.44611910469E+01  0.17740905037E+02 -0.40495723954E+02  0.13274787125E+03  0.12508977466E+03 0.  0.
         23    2    1    2    0    0 -0.44611910469E+01 -0.17740905037E+02  0.68293044283E+02  0.11033575216E+03  0.84707711404E+02 0.  0.
          5    1    3    3  502    0 -0.35747909487E+01  0.70376461019E+02 -0.35751842980E+02  0.79128326612E+02  0.41800000000E+01 0.  1.
         -5    1    3    3    0  502  0.80359819957E+01 -0.52635555983E+02 -0.47438809745E+01  0.53619544636E+02  0.41800000000E+01 0.  1.
        -11    1    4    4    0    0  0.10524074873E+02 -0.35425047737E+02 -0.13059965027E+01  0.36978315077E+02  0.00000000000E+00 0. -1.
         11    1    4    4    0    0 -0.14985265920E+02  0.17684142700E+02  0.69599040786E+02  0.73357437087E+02  0.00000000000E+00 0.  1.
</event>
<event>
 8    1  0.6684013E-009  0.1239468E+03  0.7561462E-02  0.1236724E+00
          2   -1    0    0  501    0  0.00000000000E+00  0.00000000000E+00  0.81146466080E+03  0.81146466080E+03  0.00000000000E+00 0. -1.
         -2   -1    0    0    0  501 -0.00000000000E+00 -0.00000000000E+00 -0.22616314527E+02  0.22616314527E+02  0.00000000000E+00 0.  1.
         25    2    1    2    0    0 -0.78745755207E+02 -0.20129610251E+01  0.36824784795E+03  0.39680753542E+03  0.12507916161E+03 0.  0.
         23    2    1    2    0    0  0.78745755207E+02  0.20129610251E+01  0.42060049832E+03  0.43727343991E+03  0.89990755551E+02 0.  0.
          5    1    3    3  502    0 -0.99265142452E+02  0.22484585212E+02  0.18917353442E+03  0.21485628592E+03  0.41800000000E+01 0. -1.
         -5    1    3    3    0  502  0.20519387245E+02 -0.24497546237E+02  0.17907431354E+03  0.18195124950E+03  0.41800000000E+01 0. -1.
        -11    1    4    4    0    0  0.74125832899E+02 -0.31085993296E+02  0.35071372043E+03  0.35980702019E+03  0.00000000000E+00 0. -1.
         11    1    4    4    0    0  0.46199223080E+01  0.33098954321E+02  0.69886777889E+02  0.77466419712E+02  0.00000000000E+00 0.  1.
</event>
<event>
 8    1  0.6684013E-009  0.1441822E+03  0.7561462E-02  0.1207810E+00
          3   -1    0    0  501    0  0.00000000000E+00  0.00000000000E+00  0.47315714982E+02  0.47315714982E+02  0.00000000000E+00 0. -1.
         -3   -1    0    0    0  501 -0.00000000000E+00 -0.00000000000E+00 -0.59854988757E+03  0.59854988757E+03  0.00000000000E+00 0.  1.
         25    2    1    2    0    0 -0.12149058715E+03 -0.20030563287E+02 -0.36788444697E+03  0.40761135860E+03  0.12508743783E+03 0.  0.
         23    2    1    2    0    0  0.12149058715E+03  0.20030563287E+02 -0.18334972562E+03  0.23825424396E+03  0.89368767732E+02 0.  0.
          5    1    3    3  502    0 -0.25327335797E+02  0.39726809671E+02 -0.19687660641E+03  0.20247855169E+03  0.41800000000E+01 0. -1.
         -5    1    3    3    0  502 -0.96163251357E+02 -0.59757372958E+02 -0.17100784056E+03  0.20513280690E+03  0.41800000000E+01 0. -1.
        -11    1    4    4    0    0  0.52743381894E+02  0.25926371883E+02 -0.21971321118E+02  0.62743764983E+02  0.00000000000E+00 0. -1.
         11    1    4    4    0    0  0.68747205260E+02 -0.58958085957E+01 -0.16137840450E+03  0.17551047897E+03  0.00000000000E+00 0.  1.
</event>
<event>
 8    1  0.6684013E-009  0.9789177E+02  0.7561462E-02  0.1284793E+00
          2   -1    0    0  501    0  0.00000000000E+00  0.00000000000E+00  0.74002404301E+03  0.74002404301E+03  0.00000000000E+00 0. -1.
         -2   -1    0    0    0  501 -0.00000000000E+00 -0.00000000000E+00 -0.24189408767E+02  0.24189408767E+02  0.00000000000E+00 0.  1.
         25    2    1    2    0    0 -0.47806307533E+01 -0.45142673614E+02  0.21356632999E+03  0.25163367457E+03  0.12509281938E+03 0.  0.
         23    2    1    2    0    0  0.47806307533E+01  0.45142673614E+02  0.50226830425E+03  0.51257977721E+03  0.91672586608E+02 0.  0.
          5    1    3    3  502    0  0.21922561312E+02 -0.59120418688E+02  0.38617066263E+02  0.74057901720E+02  0.41800000000E+01 0. -1.
         -5    1    3    3    0  502 -0.26703192065E+02  0.13977745074E+02  0.17494926373E+03  0.17757577285E+03  0.41800000000E+01 0. -1.
        -11    1    4    4    0    0  0.42468655907E+02  0.48332036105E+02  0.30346775038E+03  0.31021322985E+03  0.00000000000E+00 0.  1.
         11    1    4    4    0    0 -0.37688025153E+02 -0.31893624906E+01  0.19880055387E+03  0.20236654736E+03  0.00000000000E+00 0. -1.
</event>
<event>
 8    1  0.6684013E-009  0.1177896E+03  0.7561462E-02  0.1246789E+00
         -2   -1    0    0    0  501 -0.00000000000E+00  0.00000000000E+00  0.27657877871E+02  0.27657877871E+02  0.00000000000E+00 0.  1.
          2   -1    0    0  501    0  0.00000000000E+00 -0.00000000000E+00 -0.61195594043E+03  0.61195594043E+03  0.00000000000E+00 0. -1.
         25    2    1    2    0    0 -0.64906774505E+02  0.95248919745E+01 -0.25459516444E+03  0.29115999977E+03  0.12510729302E+03 0.  0.
         23    2    1    2    0    0  0.64906774505E+02 -0.95248919745E+01 -0.32970289812E+03  0.34845381853E+03  0.91719407305E+02 0.  0.
          5    1    3    3  502    0  0.23160297359E+02  0.38328137051E+02 -0.54866172511E+02  0.70945153108E+02  0.41800000000E+01 0. -1.
         -5    1    3    3    0  502 -0.88067071864E+02 -0.28803245076E+02 -0.19972899193E+03  0.22021484666E+03  0.41800000000E+01 0. -1.
        -11    1    4    4    0    0  0.50954889874E+02  0.27770376003E+02 -0.10249432454E+03  0.11778234651E+03  0.00000000000E+00 0.  1.
         11    1    4    4    0    0  0.13951884631E+02 -0.37295267977E+02 -0.22720857358E+03  0.23067147202E+03  0.00000000000E+00 0. -1.
</event>
<event>
 8    1  0.6684013E-009  0.1657146E+03  0.7561462E-02  0.1182392E+00
         -1   -1    0    0    0  501 -0.00000000000E+00  0.00000000000E+00  0.47014244978E+02  0.47014244978E+02  0.00000000000E+00 0.  1.
          1   -1    0    0  501    0  0.00000000000E+00 -0.00000000000E+00 -0.84447565841E+03  0.84447565841E+03  0.00000000000E+00 0. -1.
         25    2    1    2    0    0 -0.99999629141E+02 -0.10665743048E+03 -0.23821785144E+03  0.30622008156E+03  0.12508900952E+03 0.  0.
         23    2    1    2    0    0  0.99999629141E+02  0.10665743048E+03 -0.55924356199E+03  0.58526982183E+03  0.91715153635E+02 0.  0.
          5    1    3    3  502    0 -0.59579873556E+02 -0.11261851299E+02 -0.17386890616E+03  0.18418593746E+03  0.41800000000E+01 0. -1.
         -5    1    3    3    0  502 -0.40419755585E+02 -0.95395579177E+02 -0.64348945274E+02  0.12203414410E+03  0.41800000000E+01 0. -1.
        -11    1    4    4    0    0  0.14132875571E+02  0.73609397869E+02 -0.17912669156E+03  0.19417634576E+03  0.00000000000E+00 0.  1.
         11    1    4    4    0    0  0.85866753570E+02  0.33048032608E+02 -0.38011687044E+03  0.39109347606E+03  0.00000000000E+00 0. -1.
</event>
<event>
 8    1  0.6684013E-009  0.1258110E+03  0.7561462E-02  0.1233807E+00
         -2   -1    0    0    0  501 -0.00000000000E+00  0.00000000000E+00  0.60151706261E+02  0.60151706261E+02  0.00000000000E+00 0.  1.
          2   -1    0    0  501    0  0.00000000000E+00 -0.00000000000E+00 -0.40847234520E+03  0.40847234520E+03  0.00000000000E+00 0. -1.
         25    2    1    2    0    0  0.27306470751E+02 -0.86818629609E+02 -0.28782189140E+03  0.32676016898E+03  0.12509056347E+03 0.  0.
         23    2    1    2    0    0 -0.27306470751E+02  0.86818629609E+02 -0.60498747540E+02  0.14186388248E+03  0.90455209397E+02 0.  0.
          5    1    3    3  502    0 -0.15017530108E+02 -0.10606309129E+03 -0.21530206024E+03  0.24051477104E+03  0.41800000000E+01 0. -1.
         -5    1    3    3    0  502  0.42324000859E+02  0.19244461683E+02 -0.72519831154E+02  0.86245397934E+02  0.41800000000E+01 0. -1.
        -11    1    4    4    0    0  0.53104117149E+00  0.56785576712E+02 -0.78701343882E+02  0.97050426357E+02  0.00000000000E+00 0. -1.
         11    1    4    4    0    0 -0.27837511923E+02  0.30033052897E+02  0.18202596341E+02  0.44813456125E+02  0.00000000000E+00 0.  1.
</event>
<event>
 8    1  0.6684013E-009  0.1806646E+03  0.7561462E-02  0.1167161E+00
         -2   -1    0    0    0  501 -0.00000000000E+00  0.00000000000E+00  0.73127160195E+02  0.73127160195E+02  0.00000000000E+00 0.  1.
          2   -1    0    0  501    0  0.00000000000E+00 -0.00000000000E+00 -0.57676203952E+03  0.57676203952E+03  0.00000000000E+00 0. -1.
         25    2    1    2    0    0  0.15436687324E+03 -0.33822275392E+02 -0.37818665728E+03  0.42854193874E+03  0.12509983073E+03 0.  0.
         23    2    1    2    0    0 -0.15436687324E+03  0.33822275392E+02 -0.12544822204E+03  0.22134726097E+03  0.91017996351E+02 0.  0.
          5    1    3    3  502    0  0.11796325644E+03  0.32796993459E+02 -0.26795019939E+03  0.29462816295E+03  0.41800000000E+01 0. -1.
         -5    1    3    3    0  502  0.36403616796E+02 -0.66619268850E+02 -0.11023645789E+03  0.13391377579E+03  0.41800000000E+01 0. -1.
        -11    1    4    4    0    0 -0.98868799025E+02  0.21570098747E+01 -0.24509143103E+02  0.10188419999E+03  0.00000000000E+00 0.  1.
         11    1    4    4    0    0 -0.55498074214E+02  0.31665265517E+02 -0.10093907894E+03  0.11946306098E+03  0.00000000000E+00 0. -1.
</event>
<event>
 8    1  0.6684013E-009  0.1802950E+03  0.7561462E-02  0.1167518E+00
         -1   -1    0    0    0  501 -0.00000000000E+00  0.00000000000E+00  0.10652806897E+03  0.10652806897E+03  0.00000000000E+00 0.  1.
          1   -1    0    0  501    0  0.00000000000E+00 -0.00000000000E+00 -0.35878181102E+03  0.35878181102E+03  0.00000000000E+00 0. -1.
         25    2    1    2    0    0  0.38380313968E+02  0.15598314530E+03 -0.16369045995E+03  0.26123962889E+03  0.12509111443E+03 0.  0.
         23    2    1    2    0    0 -0.38380313968E+02 -0.15598314530E+03 -0.88563282102E+02  0.20407025110E+03  0.89428308311E+02 0.  0.
          5    1    3    3  502    0  0.49699684347E+02  0.11515303725E+02 -0.14469878920E+02  0.53193144671E+02  0.41800000000E+01 0. -1.
         -5    1    3    3    0  502 -0.11319370379E+02  0.14446784158E+03 -0.14922058103E+03  0.20804648422E+03  0.41800000000E+01 0. -1.
        -11    1    4    4    0    0 -0.23289943820E+02 -0.14187409526E+03 -0.36904641562E+02  0.14843393466E+03  0.00000000000E+00 0.  1.
         11    1    4    4    0    0 -0.15090370148E+02 -0.14109050038E+02 -0.51658640540E+02  0.55636316436E+02  0.00000000000E+00 0. -1.
</event>
<event>
 8    1  0.6684013E-009  0.1244791E+03  0.7561462E-02  0.1235886E+00
          1   -1    0    0  501    0  0.00000000000E+00  0.00000000000E+00  0.49497657777E+03  0.49497657777E+03  0.00000000000E+00 0. -1.
         -1   -1    0    0    0  501 -0.00000000000E+00 -0.00000000000E+00 -0.45534417629E+02  0.45534417629E+02  0.00000000000E+00 0.  1.
         25    2    1    2    0    0  0.30263126930E+01  0.63203411395E+02  0.38865355981E+03  0.41315822303E+03  0.12507716788E+03 0.  0.
         23    2    1    2    0    0 -0.30263126930E+01 -0.63203411395E+02  0.60788600330E+02  0.12735277237E+03  0.92301922620E+02 0.  0.
          5    1    3    3  502    0 -0.59938180359E+02  0.32290155887E+02  0.15950501125E+03  0.17347783906E+03  0.41800000000E+01 0. -1.
         -5    1    3    3    0  502  0.62964493052E+02  0.30913255508E+02  0.22914854856E+03  0.23968038397E+03  0.41800000000E+01 0. -1.
        -11    1    4    4    0    0  0.32525676313E+02  0.56274469091E+01  0.27782156855E+02  0.43144362527E+02  0.00000000000E+00 0. -1.
         11    1    4    4    0    0 -0.35551989006E+02 -0.68830858304E+02  0.33006443475E+02  0.84208409841E+02  0.00000000000E+00 0.  1.
</event>
<event>
 8    1  0.6684013E-009  0.1594668E+03  0.7561462E-02  0.1189300E+00
         -1   -1    0    0    0  501 -0.00000000000E+00  0.00000000000E+00  0.65617224934E+03  0.65617224934E+03  0.00000000000E+00 0.  1.
          1   -1    0    0  501    0  0.00000000000E+00 -0.00000000000E+00 -0.45937178072E+02  0.45937178072E+02  0.00000000000E+00 0. -1.
         25    2    1    2    0    0  0.92142684679E+02 -0.84853187339E+02  0.42556033688E+03  0.46091142918E+03  0.12508959783E+03 0.  0.
         23    2    1    2    0    0 -0.92142684679E+02  0.84853187339E+02  0.18467473439E+03  0.24119799823E+03  0.91549872133E+02 0.  0.
          5    1    3    3  502    0  0.11726396416E+03 -0.65476811103E+02  0.26418219912E+03  0.29639122257E+03  0.41800000000E+01 0. -1.
         -5    1    3    3    0  502 -0.25121279477E+02 -0.19376376236E+02  0.16137813776E+03  0.16452020661E+03  0.41800000000E+01 0. -1.
        -11    1    4    4    0    0 -0.65570892300E+02  0.10176874317E+03  0.12684174284E+03  0.17534322550E+03  0.00000000000E+00 0. -1.
         11    1    4    4    0    0 -0.26571792379E+02 -0.16915555832E+02  0.57832991548E+02  0.65854772725E+02  0.00000000000E+00 0.  1.
</event>
<event>
 8    1  0.6684013E-009  0.9834991E+02  0.7561462E-02  0.1283805E+00
          1   -1    0    0  501    0  0.00000000000E+00  0.00000000000E+00  0.14202024294E+03  0.14202024294E+03  0.00000000000E+00 0. -1.
         -1   -1    0    0    0  501 -0.00000000000E+00 -0.00000000000E+00 -0.10723804840E+03  0.10723804840E+03  0.00000000000E+00 0.  1.
         25    2    1    2    0    0 -0.29158427212E+02 -0.46129819216E+02  0.39205604726E+02  0.14199868658E+03  0.12509345886E+03 0.  0.
         23    2    1    2    0    0  0.29158427212E+02  0.46129819216E+02 -0.44234101883E+01  0.10725960476E+03  0.92232760755E+02 0.  0.
          5    1    3    3  502    0  0.63879094015E+01 -0.79769433569E+02  0.46022212426E+02  0.92409330454E+02  0.41800000000E+01 0.  1.
         -5    1    3    3    0  502 -0.35546336614E+02  0.33639614353E+02 -0.68166077002E+01  0.49589356126E+02  0.41800000000E+01 0.  1.
        -11    1    4    4    0    0  0.29577666746E+02  0.98640482493E+01 -0.43775116924E+02  0.53743824573E+02  0.00000000000E+00 0.  1.
         11    1    4    4    0    0 -0.41923953368E+00  0.36265770966E+02  0.39351706736E+02  0.53515780183E+02  0.00000000000E+00 0. -1.
</event>
<event>
 8    1  0.6684013E-009  0.1238621E+03  0.7561462E-02  0.1236858E+00
          1   -1    0    0  501    0  0.00000000000E+00  0.00000000000E+00  0.31319785307E+03  0.31319785307E+03  0.00000000000E+00 0. -1.
         -1   -1    0    0    0  501 -0.00000000000E+00 -0.00000000000E+00 -0.49481347443E+02  0.49481347443E+02  0.00000000000E+00 0.  1.
         25    2    1    2    0    0 -0.41347718310E+01  0.61266286970E+02  0.14222920785E+03  0.19911521218E+03  0.12508823246E+03 0.  0.
         23    2    1    2    0    0  0.41347718310E+01 -0.61266286970E+02  0.12148729778E+03  0.16356398833E+03  0.90682746432E+02 0.  0.
          5    1    3    3  502    0 -0.51645917648E+02  0.73600151435E+02  0.95002237353E+02  0.13087085467E+03  0.41800000000E+01 0. -1.
         -5    1    3    3    0  502  0.47511145817E+02 -0.12333864465E+02  0.47226970495E+02  0.68244357507E+02  0.41800000000E+01 0. -1.
        -11    1    4    4    0    0  0.45436708391E+02 -0.45327733588E+02  0.60483839929E+02  0.88189527690E+02  0.00000000000E+00 0.  1.
         11    1    4    4    0    0 -0.41301936560E+02 -0.15938553382E+02  0.61003457851E+02  0.75374460643E+02  0.00000000000E+00 0. -1.
</event>
<event>
 8    1  0.6684013E-009  0.1200438E+03  0.7561462E-02  0.1243025E+00
          1   -1    0    0  501    0  0.00000000000E+00  0.00000000000E+00  0.10713507628E+03  0.10713507628E+03  0.00000000000E+00 0. -1.
         -1   -1    0    0    0  501 -0.00000000000E+00 -0.00000000000E+00 -0.19614896458E+03  0.19614896458E+03  0.00000000000E+00 0.  1.
         25    2    1    2    0    0  0.89119519830E+02 -0.21437761018E+02 -0.75556374852E+02  0.17251278949E+03  0.12510008132E+03 0.  0.
         23    2    1    2    0    0 -0.89119519830E+02  0.21437761018E+02 -0.13457513447E+02  0.13077125137E+03  0.92293819433E+02 0.  0.
          5    1    3    3  502    0  0.94115681776E+01  0.39349735945E+02 -0.57717641662E+02  0.70610041024E+02  0.41800000000E+01 0. -1.
         -5    1    3    3    0  502  0.79707951652E+02 -0.60787496962E+02 -0.17838733190E+02  0.10190274847E+03  0.41800000000E+01 0. -1.
        -11    1    4    4    0    0 -0.84551382769E+02  0.80452330271E+01 -0.45059568609E+02  0.96145862240E+02  0.00000000000E+00 0.  1.
         11    1    4    4    0    0 -0.45681370608E+01  0.13392527990E+02  0.31602055162E+02  0.34625389134E+02  0.00000000000E+00 0. -1.
</event>
<event>
 8    1  0.6684013E-009  0.1569859E+03  0.7561462E-02  0.1192142E+00
          1   -1    0    0  501    0  0.00000000000E+00  0.00000000000E+00  0.15719689144E+04  0.15719689144E+04  0.00000000000E+00 0. -1.
         -1   -1    0    0    0  501 -0.00000000000E+00 -0.00000000000E+00 -0.19777695236E+02  0.19777695236E+02  0.00000000000E+00 0.  1.
         25    2    1    2    0    0 -0.11317811684E+03 -0.76161971354E+02  0.71075859362E+03  0.73446239205E+03  0.12508914791E+03 0.  0.
         23    2    1    2    0    0  0.11317811684E+03  0.76161971354E+02  0.84143262559E+03  0.85728421763E+03  0.91199969170E+02 0.  0.
          5    1    3    3  502    0  0.10069133329E+01 -0.25154234756E+02  0.19893555362E+02  0.32356998402E+02  0.41800000000E+01 0. -1.
         -5    1    3    3    0  502 -0.11418503017E+03 -0.51007736598E+02  0.69086503826E+03  0.70210539365E+03  0.41800000000E+01 0. -1.
        -11    1    4    4    0    0  0.11446288425E+03  0.31603053291E+02  0.57291639038E+03  0.58509289451E+03  0.00000000000E+00 0.  1.
         11    1    4    4    0    0 -0.12847674103E+01  0.44558918064E+02  0.26851623521E+03  0.27219132312E+03  0.00000000000E+00 0. -1.
</event>
<event>
 8    1  0.6684013E-009  0.1029948E+03  0.7561462E-02  0.1274121E+00
          2   -1    0    0  501    0  0.00000000000E+00  0.00000000000E+00  0.21017967426E+04  0.21017967426E+04  0.00000000000E+00 0. -1.
         -2   -1    0    0    0  501 -0.00000000000E+00 -0.00000000000E+00 -0.73210923194E+01  0.73210923194E+01  0.00000000000E+00 0.  1.
         25    2    1    2    0    0 -0.32816156315E+01 -0.17269995642E+02  0.16633044132E+04  0.16680941472E+04  0.12508993145E+03 0.  0.
         23    2    1    2    0    0  0.32816156315E+01  0.17269995642E+02  0.43117123708E+03  0.44102368779E+03  0.91017777165E+02 0.  0.
          5    1    3    3  502    0 -0.49415250656E+01 -0.65603210329E+02  0.58592154072E+03  0.58961828682E+03  0.41800000000E+01 0.  1.
         -5    1    3    3    0  502  0.16599094341E+01  0.48333214687E+02  0.10773828725E+04  0.10784758603E+04  0.41800000000E+01 0.  1.
        -11    1    4    4    0    0  0.74095745556E+01  0.54029523824E+02  0.29022262255E+03  0.29530198421E+03  0.00000000000E+00 0. -1.
         11    1    4    4    0    0 -0.41279589241E+01 -0.36759528182E+02  0.14094861453E+03  0.14572170358E+03  0.00000000000E+00 0.  1.
</event>
<event>
 8    1  0.6684013E-009  0.5399573E+03  0.7561462E-02  0.1003845E+00
          2   -1    0    0  501    0  0.00000000000E+00  0.00000000000E+00  0.63844188016E+03  0.63844188016E+03  0.00000000000E+00 0. -1.
         -2   -1    0    0    0  501 -0.00000000000E+00 -0.00000000000E+00 -0.64658870368E+03  0.64658870368E+03  0.00000000000E+00 0.  1.
         25    2    1    2    0    0  0.47773427274E+03  0.24185554676E+03 -0.34220138213E+03  0.64766749746E+03  0.12508901030E+03 0.  0.
         23    2    1    2    0    0 -0.47773427274E+03 -0.24185554676E+03  0.33405455861E+03  0.63736308638E+03  0.88966931518E+02 0.  0.
          5    1    3    3  502    0  0.43311893430E+03  0.24808379084E+03 -0.33668815246E+03  0.60209132442E+03  0.41800000000E+01 0.  1.
         -5    1    3    3    0  502  0.44615338434E+02 -0.62282440884E+01 -0.55132296608E+01  0.45576173043E+02  0.41800000000E+01 0.  1.
        -11    1    4    4    0    0 -0.28946622749E+02 -0.16688173256E+02  0.50994543390E+02  0.60965937627E+02  0.00000000000E+00 0.  1.
         11    1    4    4    0    0 -0.44878764999E+03 -0.22516737350E+03  0.28306001522E+03  0.57639714875E+03  0.00000000000E+00 0. -1.
</event>
<event>
 8    1  0.6684013E-009  0.1043296E+03  0.7561462E-02  0.1271446E+00
         -1   -1    0    0    0  501 -0.00000000000E+00  0.00000000000E+00  0.73125944148E+02  0.73125944148E+02  0.00000000000E+00 0.  1.
          1   -1    0    0  501    0  0.00000000000E+00 -0.00000000000E+00 -0.17332761106E+03  0.17332761106E+03  0.00000000000E+00 0. -1.
         25    2    1    2    0    0  0.27835516837E+02 -0.31210751198E+01 -0.68854500142E+02  0.14550969737E+03  0.12509025834E+03 0.  0.
         23    2    1    2    0    0 -0.27835516837E+02  0.31210751198E+01 -0.31347166767E+02  0.10094385783E+03  0.91773963967E+02 0.  0.
          5    1    3    3  502    0 -0.39583838859E+02 -0.17820396157E+02  0.55319070022E+01  0.43960450556E+02  0.41800000000E+01 0. -1.
         -5    1    3    3    0  502  0.67419355696E+02  0.14699321038E+02 -0.74386407145E+02  0.10154924682E+03  0.41800000000E+01 0. -1.
        -11    1    4    4    0    0 -0.36295259203E+02 -0.38813082511E+02 -0.16014478053E+02  0.55500132630E+02  0.00000000000E+00 0. -1.
         11    1    4    4    0    0  0.84597423659E+01  0.41934157631E+02 -0.15332688715E+02  0.45443725203E+02  0.00000000000E+00 0.  1.
</event>
<event>
 8    1  0.6684013E-009  0.9305667E+02  0.7561462E-02  0.1295614E+00
          2   -1    0    0  501    0  0.00000000000E+00  0.00000000000E+00  0.72307530226E+02  0.72307530226E+02  0.00000000000E+00 0. -1.
         -2   -1    0    0    0  501 -0.00000000000E+00 -0.00000000000E+00 -0.18081903396E+03  0.18081903396E+03  0.00000000000E+00 0.  1.
         25    2    1    2    0    0 -0.68229443144E+01  0.11746713246E+01 -0.22616818975E+02  0.12730772061E+03  0.12509117797E+03 0.  0.
         23    2    1    2    0    0  0.68229443144E+01 -0.11746713246E+01 -0.85894684760E+02  0.12581884357E+03  0.91676344310E+02 0.  0.
          5    1    3    3  502    0  0.41475674168E+02  0.24423730691E+02  0.25961001723E+02  0.54847025252E+02  0.41800000000E+01 0.  1.
         -5    1    3    3    0  502 -0.48298618482E+02 -0.23249059366E+02 -0.48577820698E+02  0.72460695363E+02  0.41800000000E+01 0.  1.
        -11    1    4    4    0    0  0.12478128202E+02 -0.41489004004E+02 -0.69572360151E+02  0.81959468236E+02  0.00000000000E+00 0.  1.
         11    1    4    4    0    0 -0.56551838877E+01  0.40314332679E+02 -0.16322324609E+02  0.43859375336E+02  0.00000000000E+00 0. -1.
</event>
<event>
 8    1  0.6684013E-009  0.1782253E+03  0.7561462E-02  0.1169532E+00
          1   -1    0    0  501    0  0.00000000000E+00  0.00000000000E+00  0.61845391402E+03  0.61845391402E+03  0.00000000000E+00 0. -1.
         -1   -1    0    0    0  501 -0.00000000000E+00 -0.00000000000E+00 -0.67082843000E+02  0.67082843000E+02  0.00000000000E+00 0.  1.
         25    2    1    2    0    0  0.14817481862E+03  0.37803786843E+02  0.14967288341E+03  0.24785916311E+03  0.12508912636E+03 0.  0.
         23    2    1    2    0    0 -0.14817481862E+03 -0.37803786843E+02  0.40169818760E+03  0.43767759391E+03  0.82555067155E+02 0.  0.
          5    1    3    3  502    0  0.66838582658E+02  0.69368041214E+02  0.32577591520E+02  0.10177471760E+03  0.41800000000E+01 0. -1.
         -5    1    3    3    0  502  0.81336235966E+02 -0.31564254372E+02  0.11709529189E+03  0.14608444550E+03  0.41800000000E+01 0. -1.
        -11    1    4    4    0    0 -0.73388419916E+02 -0.59869002793E+02  0.24451457408E+03  0.26221657959E+03  0.00000000000E+00 0. -1.
         11    1    4    4    0    0 -0.74786398708E+02  0.22065215950E+02  0.15718361353E+03  0.17546101432E+03  0.00000000000E+00 0.  1.
</event>
<event>
 8    1  0.6684013E-009  0.1271847E+03  0.7561462E-02  0.1231694E+00
         -1   -1    0    0    0  501 -0.00000000000E+00  0.00000000000E+00  0.76752960326E+02  0.76752960326E+02  0.00000000000E+00 0.  1.
          1   -1    0    0  501    0  0.00000000000E+00 -0.00000000000E+00 -0.41895742856E+03  0.41895742856E+03  0.00000000000E+00 0. -1.
         25    2    1    2    0    0  0.11994664471E+03  0.16458987346E+02 -0.28437513689E+03  0.33342797438E+03  0.12508756842E+03 0.  0.
         23    2    1    2    0    0 -0.11994664471E+03 -0.16458987346E+02 -0.57829331341E+02  0.16228241451E+03  0.91286661972E+02 0.  0.
          5    1    3    3  502    0  0.80696250435E+02  0.16267318835E+02 -0.28209384418E+03  0.29388929858E+03  0.41800000000E+01 0.  1.
         -5    1    3    3    0  502  0.39250394274E+02  0.19166851080E+00 -0.22812927161E+01  0.39538675799E+02  0.41800000000E+01 0.  1.
        -11    1    4    4    0    0 -0.10260739871E+03 -0.33718691756E+02 -0.98854744767E+01  0.10845713923E+03  0.00000000000E+00 0.  1.
         11    1    4    4    0    0 -0.17339246000E+02  0.17259704410E+02 -0.47943856864E+02  0.53825275282E+02  0.00000000000E+00 0. -1.
</event>
<event>
 8    1  0.6684013E-009  0.1342283E+03  0.7561462E-02  0.1221313E+00
          1   -1    0    0  501    0  0.00000000000E+00  0.00000000000E+00  0.24706686569E+04  0.24706686569E+04  0.00000000000E+00 0. -1.
         -1   -1    0    0    0  501 -0.00000000000E+00 -0.00000000000E+00 -0.15750488015E+02  0.15750488015E+02  0.00000000000E+00 0.  1.
         25    2    1    2    0    0  0.10039239162E+03  0.58517627666E+02  0.20297724959E+04  0.20369404853E+04  0.12508880902E+03 0.  0.
         23    2    1    2    0    0 -0.10039239162E+03 -0.58517627666E+02  0.42514567297E+03  0.44947865968E+03  0.88200211031E+02 0.  0.
          5    1    3    3  502    0  0.33189932551E+02  0.41254610057E+02  0.16502853878E+04  0.16511398632E+04  0.41800000000E+01 0.  1.
         -5    1    3    3    0  502  0.67202459074E+02  0.17263017609E+02  0.37948710818E+03  0.38580062203E+03  0.41800000000E+01 0.  1.
        -11    1    4    4    0    0 -0.54547189500E+02  0.17306762461E+02  0.17265666413E+03  0.18189349514E+03  0.00000000000E+00 0. -1.
         11    1    4    4    0    0 -0.45845202125E+02 -0.75824390127E+02  0.25248900884E+03  0.26758516454E+03  0.00000000000E+00 0.  1.
</event>
<event>
 7    1  0.6684013E-009  0.1285224E+03  0.7561462E-02  0.1229665E+00
         -1   -1    0    0    0  501 -0.00000000000E+00  0.00000000000E+00  0.17941952418E+03  0.17941952418E+03  0.00000000000E+00 0.  1.
          1   -1    0    0  501    0  0.00000000000E+00 -0.00000000000E+00 -0.22495396212E+03  0.22495396212E+03  0.00000000000E+00 0. -1.
         23    2    1    2    0    0  0.72027080630E+02  0.70134824261E+02 -0.15812750304E+03  0.20829325348E+03  0.90966907773E+02 0.  0.
          5    1    1    2  502    0 -0.12750197421E+01 -0.77179821352E+02  0.95439454820E+02  0.12281902310E+03  0.41800000000E+01 0.  1.
         -5    1    1    2    0  502 -0.70752060888E+02  0.70449970909E+01  0.17153610285E+02  0.73261209720E+02  0.41800000000E+01 0.  1.
        -11    1    3    3    0    0  0.19286908872E+02 -0.17429681907E+01 -0.10001881178E+03  0.10187632454E+03  0.00000000000E+00 0. -1.
         11    1    3    3    0    0  0.52740171758E+02  0.71877792452E+02 -0.58108691256E+02  0.10641692894E+03  0.00000000000E+00 0.  1.
</event>
<event>
 8    1  0.6684013E-009  0.1769127E+03  0.7561462E-02  0.1170825E+00
         -2   -1    0    0    0  501 -0.00000000000E+00  0.00000000000E+00  0.35526334479E+02  0.35526334479E+02  0.00000000000E+00 0. -1.
          2   -1    0    0  501    0  0.00000000000E+00 -0.00000000000E+00 -0.15039548095E+04  0.15039548095E+04  0.00000000000E+00 0.  1.
         25    2    1    2    0    0 -0.11431167680E+03  0.87486469258E+02 -0.12481415997E+04  0.12626267055E+04  0.12509077821E+03 0.  0.
         23    2    1    2    0    0  0.11431167680E+03 -0.87486469258E+02 -0.22028687535E+03  0.27685443850E+03  0.86029244507E+02 0.  0.
          5    1    3    3  502    0  0.15405732882E+02  0.48118401069E+02 -0.47305659162E+03  0.47576541320E+03  0.41800000000E+01 0. -1.
         -5    1    3    3    0  502 -0.12971740969E+03  0.39368068190E+02 -0.77508500805E+03  0.78686129227E+03  0.41800000000E+01 0. -1.
        -11    1    4    4    0    0  0.15788922783E+02 -0.64407311276E+02 -0.80782535907E+02  0.10451511822E+03  0.00000000000E+00 0.  1.
         11    1    4    4    0    0  0.98522754021E+02 -0.23079157982E+02 -0.13950433944E+03  0.17233932029E+03  0.00000000000E+00 0. -1.
</event>
<event>
 8    1  0.6684013E-009  0.1007199E+03  0.7561462E-02  0.1278789E+00
          2   -1    0    0  501    0  0.00000000000E+00  0.00000000000E+00  0.74795802370E+03  0.74795802370E+03  0.00000000000E+00 0. -1.
         -2   -1    0    0    0  501 -0.00000000000E+00 -0.00000000000E+00 -0.16477659986E+02  0.16477659986E+02  0.00000000000E+00 0.  1.
         25    2    1    2    0    0  0.58712228935E+01 -0.25023757060E+02  0.43366294643E+03  0.45207446220E+03  0.12508840310E+03 0.  0.
         23    2    1    2    0    0 -0.58712228935E+01  0.25023757060E+02  0.29781741728E+03  0.31236122148E+03  0.90629239071E+02 0.  0.
          5    1    3    3  502    0  0.55717937600E+01 -0.72699230425E+02  0.18589260404E+03  0.19972419890E+03  0.41800000000E+01 0.  1.
         -5    1    3    3    0  502  0.29942913347E+00  0.47675473365E+02  0.24777034239E+03  0.25235026330E+03  0.41800000000E+01 0.  1.
        -11    1    4    4    0    0 -0.41015010208E+02  0.93474387915E+01  0.23468375312E+03  0.23842413815E+03  0.00000000000E+00 0. -1.
         11    1    4    4    0    0  0.35143787315E+02  0.15676318269E+02  0.63133664163E+02  0.73937083334E+02  0.00000000000E+00 0.  1.
</event>
<event>
 8    1  0.6684013E-009  0.1283161E+03  0.7561462E-02  0.1229976E+00
         -2   -1    0    0    0  501 -0.00000000000E+00  0.00000000000E+00  0.92307458690E+02  0.92307458690E+02  0.00000000000E+00 0.  1.
          2   -1    0    0  501    0  0.00000000000E+00 -0.00000000000E+00 -0.23404776006E+03  0.23404776006E+03  0.00000000000E+00 0. -1.
         25    2    1    2    0    0  0.79033987363E+02 -0.28298121705E+02 -0.38798345735E+02  0.15557641452E+03  0.12510617201E+03 0.  0.
         23    2    1    2    0    0 -0.79033987363E+02  0.28298121705E+02 -0.10294195563E+03  0.17077880422E+03  0.10733684778E+03 0.  0.
          5    1    3    3  502    0  0.26598461860E+02  0.45332319136E+02 -0.38157650113E+02  0.65084375956E+02  0.41800000000E+01 0. -1.
         -5    1    3    3    0  502  0.52435525503E+02 -0.73630440841E+02 -0.64069562248E+00  0.90492038567E+02  0.41800000000E+01 0. -1.
        -11    1    4    4    0    0 -0.24744524702E+02  0.49336150158E+02 -0.31995119370E+01  0.55286382517E+02  0.00000000000E+00 0.  1.
         11    1    4    4    0    0 -0.54289462662E+02 -0.21038028453E+02 -0.99742443694E+02  0.11549242171E+03  0.00000000000E+00 0. -1.
</event>
<event>
 8    1  0.6684013E-009  0.1581615E+03  0.7561462E-02  0.1190788E+00
          1   -1    0    0  501    0  0.00000000000E+00  0.00000000000E+00  0.13524438075E+03  0.13524438075E+03  0.00000000000E+00 0. -1.
         -1   -1    0    0    0  501 -0.00000000000E+00 -0.00000000000E+00 -0.25615861859E+03  0.25615861859E+03  0.00000000000E+00 0.  1.
         25    2    1    2    0    0 -0.11255855046E+03 -0.97284946987E+02 -0.39661838256E+02  0.19837887556E+03  0.12508928276E+03 0.  0.
         23    2    1    2    0    0  0.11255855046E+03  0.97284946987E+02 -0.81252399584E+02  0.19302412378E+03  0.92317775809E+02 0.  0.
          5    1    3    3  502    0 -0.55516252412E+02 -0.66543955455E+02  0.40056238345E+02  0.95562162595E+02  0.41800000000E+01 0. -1.
         -5    1    3    3    0  502 -0.57042298047E+02 -0.30740991532E+02 -0.79718076601E+02  0.10281671296E+03  0.41800000000E+01 0. -1.
        -11    1    4    4    0    0  0.89234897307E+01  0.49868923453E+02  0.38226609783E+01  0.50805028613E+02  0.00000000000E+00 0. -1.
         11    1    4    4    0    0  0.10363506073E+03  0.47416023534E+02 -0.85075060563E+02  0.14221909517E+03  0.00000000000E+00 0.  1.
</event>
<event>
 8    1  0.6684013E-009  0.8235860E+02  0.7561462E-02  0.1322488E+00
          1   -1    0    0  501    0  0.00000000000E+00  0.00000000000E+00  0.10179375284E+03  0.10179375284E+03  0.00000000000E+00 0. -1.
         -1   -1    0    0    0  501 -0.00000000000E+00 -0.00000000000E+00 -0.13802296522E+03  0.13802296522E+03  0.00000000000E+00 0.  1.
         25    2    1    2    0    0  0.15470297556E+02  0.22232838963E+01 -0.56328545213E+02  0.13807247090E+03  0.12508728599E+03 0.  0.
         23    2    1    2    0    0 -0.15470297556E+02 -0.22232838963E+01  0.20099332833E+02  0.10174424715E+03  0.98507033001E+02 0.  0.
          5    1    3    3  502    0 -0.26584009674E+02 -0.10011368140E+02  0.29784734096E+02  0.41370760780E+02  0.41800000000E+01 0.  1.
         -5    1    3    3    0  502  0.42054307230E+02  0.12234652036E+02 -0.86113279309E+02  0.96701710121E+02  0.41800000000E+01 0.  1.
        -11    1    4    4    0    0 -0.41909361133E+02  0.29097228405E+02  0.30520999787E+02  0.59452289102E+02  0.00000000000E+00 0. -1.
         11    1    4    4    0    0  0.26439063577E+02 -0.31320512302E+02 -0.10421666954E+02  0.42291958051E+02  0.00000000000E+00 0.  1.
</event>
<event>
 8    1  0.6684013E-009  0.1049980E+03  0.7561462E-02  0.1270124E+00
          1   -1    0    0  501    0  0.00000000000E+00  0.00000000000E+00  0.29698805734E+03  0.29698805734E+03  0.00000000000E+00 0. -1.
         -1   -1    0    0    0  501 -0.00000000000E+00 -0.00000000000E+00 -0.60105135296E+02  0.60105135296E+02  0.00000000000E+00 0.  1.
         25    2    1    2    0    0 -0.26956543431E+02 -0.60198618896E+02  0.18149010724E+03  0.23008008739E+03  0.12509060172E+03 0.  0.
         23    2    1    2    0    0  0.26956543431E+02  0.60198618896E+02  0.55392814802E+02  0.12701310524E+03  0.93345787375E+02 0.  0.
          5    1    3    3  502    0 -0.33411251040E+02 -0.96565166602E+02  0.14894984499E+03  0.18067836566E+03  0.41800000000E+01 0. -1.
         -5    1    3    3    0  502  0.64547076089E+01  0.36366547706E+02  0.32540262256E+02  0.49401721732E+02  0.41800000000E+01 0. -1.
        -11    1    4    4    0    0  0.24174120731E+01  0.36044741913E+02 -0.22006296959E+02  0.42300643098E+02  0.00000000000E+00 0.  1.
         11    1    4    4    0    0  0.24539131358E+02  0.24153876984E+02  0.77399111760E+02  0.84712462144E+02  0.00000000000E+00 0. -1.
</event>
<event>
 8    1  0.6684013E-009  0.1342865E+03  0.7561462E-02  0.1221230E+00
          1   -1    0    0  501    0  0.00000000000E+00  0.00000000000E+00  0.18667137127E+04  0.18667137127E+04  0.00000000000E+00 0. -1.
         -1   -1    0    0    0  501 -0.00000000000E+00 -0.00000000000E+00 -0.11484953054E+02  0.11484953054E+02  0.00000000000E+00 0.  1.
         25    2    1    2    0    0 -0.33525892860E+02  0.40551875590E+02  0.12820883412E+04  0.12892505426E+04  0.12509199317E+03 0.  0.
         23    2    1    2    0    0  0.33525892860E+02 -0.40551875590E+02  0.57314041847E+03  0.58894812321E+03  0.12490601446E+03 0.  0.
          5    1    3    3  502    0 -0.77462751664E+02  0.44994039625E+02  0.75748108744E+03  0.76277127091E+03  0.41800000000E+01 0. -1.
         -5    1    3    3    0  502  0.43936858805E+02 -0.44421640351E+01  0.52460725375E+03  0.52647927164E+03  0.41800000000E+01 0. -1.
        -11    1    4    4    0    0  0.54833752105E+02  0.28833004781E+02  0.29986459036E+03  0.30619741195E+03  0.00000000000E+00 0.  1.
         11    1    4    4    0    0 -0.21307859245E+02 -0.69384880371E+02  0.27327582811E+03  0.28275071126E+03  0.00000000000E+00 0. -1.
</event>
<event>
 8    1  0.6684013E-009  0.1696855E+03  0.7561462E-02  0.1178176E+00
          2   -1    0    0  501    0  0.00000000000E+00  0.00000000000E+00  0.73597928416E+03  0.73597928416E+03  0.00000000000E+00 0. -1.
         -2   -1    0    0    0  501 -0.00000000000E+00 -0.00000000000E+00 -0.61827050521E+02  0.61827050521E+02  0.00000000000E+00 0.  1.
         25    2    1    2    0    0  0.14325570842E+03  0.32201311350E+02  0.55703377942E+03  0.58948520128E+03  0.12508816358E+03 0.  0.
         23    2    1    2    0    0 -0.14325570842E+03 -0.32201311350E+02  0.11711845422E+03  0.20832113340E+03  0.90121250856E+02 0.  0.
          5    1    3    3  502    0  0.70246868930E+02  0.75427235761E+02  0.23921443579E+03  0.26050894261E+03  0.41800000000E+01 0. -1.
         -5    1    3    3    0  502  0.73008839486E+02 -0.43225924412E+02  0.31781934363E+03  0.32897625867E+03  0.41800000000E+01 0. -1.
        -11    1    4    4    0    0 -0.10136982210E+03 -0.53480133503E+01  0.26453088277E+02  0.10490094356E+03  0.00000000000E+00 0.  1.
         11    1    4    4    0    0 -0.41885886314E+02 -0.26853297999E+02  0.90665365941E+02  0.10342018984E+03  0.00000000000E+00 0. -1.
</event>
<event>
 8    1  0.6684013E-009  0.1178286E+03  0.7561462E-02  0.1246723E+00
          2   -1    0    0  501    0  0.00000000000E+00  0.00000000000E+00  0.65665764607E+03  0.65665764607E+03  0.00000000000E+00 0. -1.
         -2   -1    0    0    0  501 -0.00000000000E+00 -0.00000000000E+00 -0.25782169358E+02  0.25782169358E+02  0.00000000000E+00 0.  1.
         25    2    1    2    0    0 -0.16993559909E+02  0.55806249121E+02  0.24034481649E+03  0.27716472496E+03  0.12510609669E+03 0.  0.
         23    2    1    2    0    0  0.16993559909E+02 -0.55806249121E+02  0.39053066023E+03  0.40527509047E+03  0.91272032195E+02 0.  0.
          5    1    3    3  502    0  0.22334610439E+02  0.83534120438E+02  0.12436066542E+03  0.15152501973E+03  0.41800000000E+01 0.  1.
         -5    1    3    3    0  502 -0.39328170348E+02 -0.27727871318E+02  0.11598415107E+03  0.12563970523E+03  0.41800000000E+01 0.  1.
        -11    1    4    4    0    0 -0.30535221280E+02 -0.40767854377E+02  0.12282875994E+03  0.13297113204E+03  0.00000000000E+00 0.  1.
         11    1    4    4    0    0  0.47528781188E+02 -0.15038394743E+02  0.26770190029E+03  0.27230395843E+03  0.00000000000E+00 0. -1.
</event>
<event>
 8    1  0.6684013E-009  0.2080403E+03  0.7561462E-02  0.1143127E+00
          2   -1    0    0  501    0  0.00000000000E+00  0.00000000000E+00  0.42095261769E+03  0.42095261769E+03  0.00000000000E+00 0. -1.
         -2   -1    0    0    0  501 -0.00000000000E+00 -0.00000000000E+00 -0.13116671413E+03  0.13116671413E+03  0.00000000000E+00 0.  1.
         25    2    1    2    0    0 -0.14590811810E+03 -0.11680713651E+03  0.42572476651E+02  0.22889593518E+03  0.12509135585E+03 0.  0.
         23    2    1    2    0    0  0.14590811810E+03  0.11680713651E+03  0.24721342690E+03  0.32322339664E+03  0.91792154482E+02 0.  0.
          5    1    3    3  502    0 -0.45862332784E+02  0.21682097287E+02 -0.59392446837E+01  0.51246599287E+02  0.41800000000E+01 0. -1.
         -5    1    3    3    0  502 -0.10004578532E+03 -0.13848923380E+03  0.48511721334E+02  0.17764933590E+03  0.41800000000E+01 0. -1.
        -11    1    4    4    0    0  0.76577266759E+02  0.94112877325E+02  0.93844592561E+02  0.15338878386E+03  0.00000000000E+00 0.  1.
         11    1    4    4    0    0  0.69330851341E+02  0.22694259188E+02  0.15336883434E+03  0.16983461277E+03  0.00000000000E+00 0. -1.
</event>
<event>
 8    1  0.6684013E-009  0.9273214E+02  0.7561462E-02  0.1296367E+00
          2   -1    0    0  501    0  0.00000000000E+00  0.00000000000E+00  0.25846384110E+03  0.25846384110E+03  0.00000000000E+00 0. -1.
         -2   -1    0    0    0  501 -0.00000000000E+00 -0.00000000000E+00 -0.52521851428E+02  0.52521851428E+02  0.00000000000E+00 0.  1.
         25    2    1    2    0    0 -0.29593082511E+02 -0.72298977521E+01  0.15390685285E+03  0.20065578163E+03  0.12508957348E+03 0.  0.
         23    2    1    2    0    0  0.29593082511E+02  0.72298977521E+01  0.52035136825E+02  0.11032991090E+03  0.92395951322E+02 0.  0.
          5    1    3    3  502    0 -0.34177228454E+02  0.51493001351E+02  0.44300910638E+02  0.76155467409E+02  0.41800000000E+01 0. -1.
         -5    1    3    3    0  502  0.45841459431E+01 -0.58722899103E+02  0.10960594221E+03  0.12450031422E+03  0.41800000000E+01 0. -1.
        -11    1    4    4    0    0  0.12755188404E+02  0.32040305060E+02 -0.14453996201E+02  0.37392432198E+02  0.00000000000E+00 0.  1.
         11    1    4    4    0    0  0.16837894108E+02 -0.24810407308E+02  0.66489133026E+02  0.72937478701E+02  0.00000000000E+00 0. -1.
</event>
<event>
 8    1  0.6684013E-009  0.1022485E+03  0.7561462E-02  0.1275638E+00
         -2   -1    0    0    0  501 -0.00000000000E+00  0.00000000000E+00  0.23168079975E+02  0.23168079975E+02  0.00000000000E+00 0.  1.
          2   -1    0    0  501    0  0.00000000000E+00 -0.00000000000E+00 -0.63463428161E+03  0.63463428161E+03  0.00000000000E+00 0. -1.
         25    2    1    2    0    0  0.42415779483E+02  0.16326505234E+02 -0.42527910789E+03  0.44561775877E+03  0.12508882525E+03 0.  0.
         23    2    1    2    0    0 -0.42415779483E+02 -0.16326505234E+02 -0.18618709375E+03  0.21218460281E+03  0.91055031004E+02 0.  0.
          5    1    3    3  502    0  0.82307765935E+02 -0.11557984131E+02 -0.24055116139E+03  0.25453975913E+03  0.41800000000E+01 0.  1.
         -5    1    3    3    0  502 -0.39891986452E+02  0.27884489365E+02 -0.18472794649E+03  0.19107799964E+03  0.41800000000E+01 0.  1.
        -11    1    4    4    0    0 -0.54424781474E+02 -0.30300197174E+01 -0.18646156296E+03  0.19426567457E+03  0.00000000000E+00 0. -1.
         11    1    4    4    0    0  0.12009001991E+02 -0.13296485517E+02  0.27446920868E+00  0.17918928240E+02  0.00000000000E+00 0.  1.
</event>
<event>
 8    1  0.6684013E-009  0.2780340E+03  0.7561462E-02  0.1096768E+00
          1   -1    0    0  501    0  0.00000000000E+00  0.00000000000E+00  0.64673757926E+03  0.64673757926E+03  0.00000000000E+00 0. -1.
         -1   -1    0    0    0  501 -0.00000000000E+00 -0.00000000000E+00 -0.13166147939E+03  0.13166147939E+03  0.00000000000E+00 0.  1.
         25    2    1    2    0    0  0.25905732584E+03 -0.60408651525E+02  0.32894536555E+03  0.44114765654E+03  0.12508516340E+03 0.  0.
         23    2    1    2    0    0 -0.25905732584E+03  0.60408651525E+02  0.18613073432E+03  0.33725140211E+03  0.91290496318E+02 0.  0.
          5    1    3    3  502    0  0.14652315046E+03 -0.90316178215E+02  0.15426465458E+03  0.23117331533E+03  0.41800000000E+01 0. -1.
         -5    1    3    3    0  502  0.11253417538E+03  0.29907526690E+02  0.17468071097E+03  0.20997434121E+03  0.41800000000E+01 0. -1.
        -11    1    4    4    0    0 -0.11850221496E+03  0.41497156731E+02  0.35758346917E+02  0.13055055857E+03  0.00000000000E+00 0. -1.
         11    1    4    4    0    0 -0.14055511088E+03  0.18911494794E+02  0.15037238740E+03  0.20670084355E+03  0.00000000000E+00 0.  1.
</event>
<event>
 8    1  0.6684013E-009  0.9688061E+02  0.7561462E-02  0.1286996E+00
          1   -1    0    0  501    0  0.00000000000E+00  0.00000000000E+00  0.35441376457E+03  0.35441376457E+03  0.00000000000E+00 0. -1.
         -1   -1    0    0    0  501 -0.00000000000E+00 -0.00000000000E+00 -0.33869696982E+02  0.33869696982E+02  0.00000000000E+00 0.  1.
         25    2    1    2    0    0 -0.85794463522E+01 -0.10760112922E+02  0.17873913320E+03  0.21859774655E+03  0.12509160694E+03 0.  0.
         23    2    1    2    0    0  0.85794463522E+01  0.10760112922E+02  0.14180493439E+03  0.16968571501E+03  0.92169493491E+02 0.  0.
          5    1    3    3  502    0 -0.33509738111E+01 -0.58649320433E+02  0.38764421588E+02  0.70506202520E+02  0.41800000000E+01 0. -1.
         -5    1    3    3    0  502 -0.52284725411E+01  0.47889207511E+02  0.13997471161E+03  0.14809154403E+03  0.41800000000E+01 0. -1.
        -11    1    4    4    0    0  0.30584721995E+02 -0.28307501298E+02  0.37146262411E+02  0.55826379610E+02  0.00000000000E+00 0.  1.
         11    1    4    4    0    0 -0.22005275643E+02  0.39067614219E+02  0.10465867198E+03  0.11385933540E+03  0.00000000000E+00 0. -1.
</event>
<event>
 8    1  0.6684013E-009  0.1218333E+03  0.7561462E-02  0.1240103E+00
         -1   -1    0    0    0  501 -0.00000000000E+00  0.00000000000E+00  0.14849207769E+02  0.14849207769E+02  0.00000000000E+00 0. -1.
          1   -1    0    0  501    0  0.00000000000E+00 -0.00000000000E+00 -0.15566117764E+04  0.15566117764E+04  0.00000000000E+00 0.  1.
         25    2    1    2    0    0  0.42157449910E+02 -0.55337587332E+02 -0.11912150015E+04  0.11997830823E+04  0.12508703252E+03 0.  0.
         23    2    1    2    0    0 -0.42157449910E+02  0.55337587332E+02 -0.35054756717E+03  0.37167790187E+03  0.10208509556E+03 0.  0.
          5    1    3    3  502    0 -0.14803299805E+02  0.20311585294E+02 -0.68689848147E+02  0.73262990798E+02  0.41800000000E+01 0.  1.
         -5    1    3    3    0  502  0.56960749715E+02 -0.75649172626E+02 -0.11225251533E+04  0.11265200915E+04  0.41800000000E+01 0.  1.
        -11    1    4    4    0    0 -0.54790795672E+02  0.79255229500E+02 -0.26629588110E+03  0.28319060539E+03  0.00000000000E+00 0.  1.
         11    1    4    4    0    0  0.12633345762E+02 -0.23917642168E+02 -0.84251686068E+02  0.88487296474E+02  0.00000000000E+00 0. -1.
</event>
<event>
 8    1  0.6684013E-009  0.1712802E+03  0.7561462E-02  0.1176519E+00
         -2   -1    0    0    0  501 -0.00000000000E+00  0.00000000000E+00  0.15784931368E+03  0.15784931368E+03  0.00000000000E+00 0. -1.
          2   -1    0    0  501    0  0.00000000000E+00 -0.00000000000E+00 -0.22603889590E+03  0.22603889590E+03  0.00000000000E+00 0.  1.
         25    2    1    2    0    0  0.86964224458E+02 -0.11699593638E+03 -0.85518514710E+02  0.21026527079E+03  0.12508893747E+03 0.  0.
         23    2    1    2    0    0 -0.86964224458E+02  0.11699593638E+03  0.17328932480E+02  0.17362293879E+03  0.92702791262E+02 0.  0.
          5    1    3    3  502    0  0.92568986578E+02 -0.55533881857E+02 -0.99473893396E+02  0.14685216096E+03  0.41800000000E+01 0.  1.
         -5    1    3    3    0  502 -0.56047621193E+01 -0.61462054523E+02  0.13955378686E+02  0.63413109834E+02  0.41800000000E+01 0.  1.
        -11    1    4    4    0    0 -0.84894749357E+02  0.13231799531E+03  0.17319623968E+02  0.15816175178E+03  0.00000000000E+00 0.  1.
         11    1    4    4    0    0 -0.20694751011E+01 -0.15322058931E+02  0.93085114645E-02  0.15461187009E+02  0.00000000000E+00 0. -1.
</event>
<event>
 7    1  0.6684013E-009  0.1966791E+03  0.7561462E-02  0.1152572E+00
         -2   -1    0    0    0  501 -0.00000000000E+00  0.00000000000E+00  0.94652527957E+02  0.94652527957E+02  0.00000000000E+00 0.  1.
          2   -1    0    0  501    0  0.00000000000E+00 -0.00000000000E+00 -0.49310323963E+03  0.49310323963E+03  0.00000000000E+00 0. -1.
         23    2    1    2    0    0  0.78411187937E+02 -0.16364147994E+03 -0.23776860734E+03  0.31503976136E+03  0.98940852265E+02 0.  0.
          5    1    1    2  502    0 -0.58048490233E+02  0.15222957570E+03 -0.17949606478E+03  0.24244541779E+03  0.41800000000E+01 0. -1.
         -5    1    1    2    0  502 -0.20362697704E+02  0.11411904238E+02  0.18813960454E+02  0.30270588434E+02  0.41800000000E+01 0. -1.
        -11    1    3    3    0    0  0.26846135395E+02  0.75439543622E+01 -0.33136152974E+02  0.43308554201E+02  0.00000000000E+00 0. -1.
         11    1    3    3    0    0  0.51565052542E+02 -0.17118543430E+03 -0.20463245437E+03  0.27173120716E+03  0.00000000000E+00 0.  1.
</event>
<event>
 8    1  0.6684013E-009  0.1133709E+03  0.7561462E-02  0.1254452E+00
         -2   -1    0    0    0  501 -0.00000000000E+00  0.00000000000E+00  0.88320445543E+02  0.88320445543E+02  0.00000000000E+00 0.  1.
          2   -1    0    0  501    0  0.00000000000E+00 -0.00000000000E+00 -0.16794980702E+03  0.16794980702E+03  0.00000000000E+00 0. -1.
         25    2    1    2    0    0 -0.43240501558E+02 -0.24812527768E+02 -0.60529784260E+02  0.14763852113E+03  0.12509146905E+03 0.  0.
         23    2    1    2    0    0  0.43240501558E+02  0.24812527768E+02 -0.19099577219E+02  0.10863173144E+03  0.94607910430E+02 0.  0.
          5    1    3    3  502    0 -0.71408539232E+02  0.15798298136E+02 -0.53598413226E+01  0.73450432254E+02  0.41800000000E+01 0. -1.
         -5    1    3    3    0  502  0.28168037674E+02 -0.40610825905E+02 -0.55169942937E+02  0.74188088874E+02  0.41800000000E+01 0. -1.
        -11    1    4    4    0    0  0.44410865899E+02  0.56675398650E+02 -0.10869740636E+01  0.72011161181E+02  0.00000000000E+00 0.  1.
         11    1    4    4    0    0 -0.11703643404E+01 -0.31862870882E+02 -0.18012603156E+02  0.36620570257E+02  0.00000000000E+00 0. -1.
</event>
<event>
 8    1  0.6684013E-009  0.1206268E+03  0.7561462E-02  0.1242067E+00
          2   -1    0    0  501    0  0.00000000000E+00  0.00000000000E+00  0.66567580354E+03  0.66567580354E+03  0.00000000000E+00 0. -1.
         -2   -1    0    0    0  501 -0.00000000000E+00 -0.00000000000E+00 -0.33427982350E+02  0.33427982350E+02  0.00000000000E+00 0.  1.
         25    2    1    2    0    0 -0.84985397113E+02  0.39486965134E+02  0.44777570324E+03  0.47427044768E+03  0.12509052318E+03 0.  0.
         23    2    1    2    0    0  0.84985397113E+02 -0.39486965134E+02  0.18447211795E+03  0.22483333821E+03  0.87967775536E+02 0.  0.
          5    1    3    3  502    0 -0.22051646320E+02 -0.37497310173E+02  0.23930224720E+03  0.24325986371E+03  0.41800000000E+01 0. -1.
         -5    1    3    3    0  502 -0.62933750793E+02  0.76984275307E+02  0.20847345604E+03  0.23101058397E+03  0.41800000000E+01 0. -1.
        -11    1    4    4    0    0  0.10717167059E+02  0.45992873805E+01 -0.78160859278E+01  0.14039313139E+02  0.00000000000E+00 0.  1.
         11    1    4    4    0    0  0.74268230054E+02 -0.44086252515E+02  0.19228820388E+03  0.21079402507E+03  0.00000000000E+00 0. -1.
</event>
<event>
 8    1  0.6684013E-009  0.1468898E+03  0.7561462E-02  0.1204348E+00
         -4   -1    0    0    0  501 -0.00000000000E+00  0.00000000000E+00  0.34495889840E+03  0.34495889840E+03  0.00000000000E+00 0.  1.
          4   -1    0    0  501    0  0.00000000000E+00 -0.00000000000E+00 -0.10774281510E+03  0.10774281510E+03  0.00000000000E+00 0. -1.
         25    2    1    2    0    0 -0.14072025838E+02 -0.11680974250E+03  0.25033311274E+03  0.30357266546E+03  0.12508860072E+03 0.  0.
         23    2    1    2    0    0  0.14072025838E+02  0.11680974250E+03 -0.13117029428E+02  0.14912904804E+03  0.90691116723E+02 0.  0.
          5    1    3    3  502    0 -0.20217067398E+02  0.16707111257E+02  0.96895058990E+01  0.28270413957E+02  0.41800000000E+01 0.  1.
         -5    1    3    3    0  502  0.61450415607E+01 -0.13351685376E+03  0.24064360684E+03  0.27530225151E+03  0.41800000000E+01 0.  1.
        -11    1    4    4    0    0 -0.21248447924E+02  0.15765664413E+02  0.24114906095E+02  0.35799181688E+02  0.00000000000E+00 0.  1.
         11    1    4    4    0    0  0.35320473761E+02  0.10104407809E+03 -0.37231935523E+02  0.11332986635E+03  0.00000000000E+00 0. -1.
</event>
<event>
 8    1  0.6684013E-009  0.1163928E+03  0.7561462E-02  0.1249169E+00
          2   -1    0    0  501    0  0.00000000000E+00  0.00000000000E+00  0.39169105086E+03  0.39169105086E+03  0.00000000000E+00 0. -1.
         -2   -1    0    0    0  501 -0.00000000000E+00 -0.00000000000E+00 -0.80015453991E+02  0.80015453991E+02  0.00000000000E+00 0.  1.
         25    2    1    2    0    0 -0.94551818218E+02  0.49563970755E+02  0.28412275725E+03  0.32828243651E+03  0.12508790272E+03 0.  0.
         23    2    1    2    0    0  0.94551818218E+02 -0.49563970755E+02  0.27552839616E+02  0.14342406834E+03  0.91731515213E+02 0.  0.
          5    1    3    3  502    0 -0.58197460404E+02  0.37322338424E+02  0.28117783328E+03  0.28958305833E+03  0.41800000000E+01 0. -1.
         -5    1    3    3    0  502 -0.36354357814E+02  0.12241632331E+02  0.29449239707E+01  0.38699378178E+02  0.41800000000E+01 0. -1.
        -11    1    4    4    0    0  0.89066166298E+00  0.12529340448E+02 -0.18182418144E+02  0.22099275550E+02  0.00000000000E+00 0.  1.
         11    1    4    4    0    0  0.93661156555E+02 -0.62093311204E+02  0.45735257760E+02  0.12132479279E+03  0.00000000000E+00 0. -1.
</event>
<event>
 8    1  0.6684013E-009  0.2138244E+03  0.7561462E-02  0.1138573E+00
          2   -1    0    0  501    0  0.00000000000E+00  0.00000000000E+00  0.40175586052E+03  0.40175586052E+03  0.00000000000E+00 0. -1.
         -2   -1    0    0    0  501 -0.00000000000E+00 -0.00000000000E+00 -0.15049834767E+03  0.15049834767E+03  0.00000000000E+00 0.  1.
         25    2    1    2    0    0  0.16558013928E+03 -0.10484634484E+03  0.16418598752E+02  0.23308699162E+03  0.12510170553E+03 0.  0.
         23    2    1    2    0    0 -0.16558013928E+03  0.10484634484E+03  0.23483891410E+03  0.31916721658E+03  0.91152937483E+02 0.  0.
          5    1    3    3  502    0  0.16726632656E+03 -0.12393543101E+03  0.28331841574E+02  0.21013847984E+03  0.41800000000E+01 0. -1.
         -5    1    3    3    0  502 -0.16861872833E+01  0.19089086169E+02 -0.11913242823E+02  0.22948511779E+02  0.41800000000E+01 0. -1.
        -11    1    4    4    0    0 -0.16529652755E+02 -0.16735293394E+01  0.72530618790E+02  0.74409144483E+02  0.00000000000E+00 0. -1.
         11    1    4    4    0    0 -0.14905048653E+03  0.10651987418E+03  0.16230829531E+03  0.24475807209E+03  0.00000000000E+00 0.  1.
</event>
<event>
 8    1  0.6684013E-009  0.1000972E+03  0.7561462E-02  0.1280092E+00
         -2   -1    0    0    0  501 -0.00000000000E+00  0.00000000000E+00  0.19441848333E+02  0.19441848333E+02  0.00000000000E+00 0. -1.
          2   -1    0    0  501    0  0.00000000000E+00 -0.00000000000E+00 -0.87948286466E+03  0.87948286466E+03  0.00000000000E+00 0.  1.
         25    2    1    2    0    0 -0.39885263791E+02 -0.57116165684E+02 -0.55931970761E+03  0.57735409262E+03  0.12508446067E+03 0.  0.
         23    2    1    2    0    0  0.39885263791E+02  0.57116165684E+02 -0.30072130872E+03  0.32157062037E+03  0.90118076530E+02 0.  0.
          5    1    3    3  502    0 -0.60847715880E+01  0.23901112539E+02 -0.34232515449E+03  0.34323792247E+03  0.41800000000E+01 0.  1.
         -5    1    3    3    0  502 -0.33800492203E+02 -0.81017278223E+02 -0.21699455312E+03  0.23411617015E+03  0.41800000000E+01 0.  1.
        -11    1    4    4    0    0  0.37326092090E+02  0.67211001525E+02 -0.30148063502E+03  0.31112879836E+03  0.00000000000E+00 0.  1.
         11    1    4    4    0    0  0.25591717005E+01 -0.10094835841E+02  0.75932630210E+00  0.10441822009E+02  0.00000000000E+00 0. -1.
</event>
<event>
 8    1  0.6684013E-009  0.7646094E+02  0.7561462E-02  0.1339406E+00
         -2   -1    0    0    0  501 -0.00000000000E+00  0.00000000000E+00  0.15367645702E+02  0.15367645702E+02  0.00000000000E+00 0.  1.
          2   -1    0    0  501    0  0.00000000000E+00 -0.00000000000E+00 -0.98121011849E+03  0.98121011849E+03  0.00000000000E+00 0. -1.
         25    2    1    2    0    0  0.93329531505E+01  0.31127211352E+02 -0.73650405885E+03  0.74775696167E+03  0.12508492204E+03 0.  0.
         23    2    1    2    0    0 -0.93329531505E+01 -0.31127211352E+02 -0.22933841394E+03  0.24882080252E+03  0.90882761617E+02 0.  0.
          5    1    3    3  502    0 -0.13172436931E+02 -0.23471148682E+02 -0.38026700216E+02  0.46775102827E+02  0.41800000000E+01 0.  1.
         -5    1    3    3    0  502  0.22505390082E+02  0.54598360034E+02 -0.69847735864E+03  0.70098185884E+03  0.41800000000E+01 0.  1.
        -11    1    4    4    0    0 -0.33502787920E+02 -0.11750117276E+02 -0.20846431357E+03  0.21146600693E+03  0.00000000000E+00 0. -1.
         11    1    4    4    0    0  0.24169834770E+02 -0.19377094076E+02 -0.20874100368E+02  0.37354795593E+02  0.00000000000E+00 0.  1.
</event>
<event>
 8    1  0.6684013E-009  0.1570360E+03  0.7561462E-02  0.1192084E+00
          1   -1    0    0  501    0  0.00000000000E+00  0.00000000000E+00  0.37722815180E+03  0.37722815180E+03  0.00000000000E+00 0. -1.
         -1   -1    0    0    0  501 -0.00000000000E+00 -0.00000000000E+00 -0.72066016138E+02  0.72066016138E+02  0.00000000000E+00 0.  1.
         25    2    1    2    0    0  0.52976083452E+02  0.11180375582E+03  0.14880581046E+03  0.23043113983E+03  0.12509514675E+03 0.  0.
         23    2    1    2    0    0 -0.52976083452E+02 -0.11180375582E+03  0.15635632519E+03  0.21886302811E+03  0.90261727282E+02 0.  0.
          5    1    3    3  502    0  0.84510483036E+02  0.42515259033E+02  0.54848672583E+02  0.10943225428E+03  0.41800000000E+01 0. -1.
         -5    1    3    3    0  502 -0.31534399583E+02  0.69288496783E+02  0.93957137881E+02  0.12099888554E+03  0.41800000000E+01 0. -1.
        -11    1    4    4    0    0 -0.67998710355E+02 -0.65337919217E+02  0.62711931354E+02  0.11325040676E+03  0.00000000000E+00 0.  1.
         11    1    4    4    0    0  0.15022626903E+02 -0.46465836599E+02  0.93644393840E+02  0.10561262135E+03  0.00000000000E+00 0. -1.
</event>
<event>
 8    1  0.6684013E-009  0.1218323E+03  0.7561462E-02  0.1240105E+00
          2   -1    0    0  501    0  0.00000000000E+00  0.00000000000E+00  0.45651624339E+02  0.45651624339E+02  0.00000000000E+00 0. -1.
         -2   -1    0    0    0  501 -0.00000000000E+00 -0.00000000000E+00 -0.68838874677E+03  0.68838874677E+03  0.00000000000E+00 0.  1.
         25    2    1    2    0    0 -0.59187357850E+01 -0.95860055534E+02 -0.54753831327E+03  0.56980470439E+03  0.12512000227E+03 0.  0.
         23    2    1    2    0    0  0.59187357850E+01  0.95860055534E+02 -0.95198809160E+02  0.16423566672E+03  0.93200639889E+02 0.  0.
          5    1    3    3  502    0 -0.34250828582E+02 -0.65416387679E+02 -0.50419835566E+03  0.50959383560E+03  0.41800000000E+01 0. -1.
         -5    1    3    3    0  502  0.28332092797E+02 -0.30443667855E+02 -0.43339957613E+02  0.60210868791E+02  0.41800000000E+01 0. -1.
        -11    1    4    4    0    0  0.43672306234E+02  0.68679333503E+02 -0.82774377169E+02  0.11608496327E+03  0.00000000000E+00 0. -1.
         11    1    4    4    0    0 -0.37753570449E+02  0.27180722031E+02 -0.12424431991E+02  0.48150703443E+02  0.00000000000E+00 0.  1.
</event>
<event>
 8    1  0.6684013E-009  0.1171014E+03  0.7561462E-02  0.1247957E+00
          2   -1    0    0  501    0  0.00000000000E+00  0.00000000000E+00  0.41129128894E+03  0.41129128894E+03  0.00000000000E+00 0.  1.
         -2   -1    0    0    0  501 -0.00000000000E+00 -0.00000000000E+00 -0.41087468979E+02  0.41087468979E+02  0.00000000000E+00 0. -1.
         25    2    1    2    0    0  0.27893745109E+02 -0.49639378316E+02  0.27966357710E+03  0.31161089757E+03  0.12508999254E+03 0.  0.
         23    2    1    2    0    0 -0.27893745109E+02  0.49639378316E+02  0.90540242863E+02  0.14076786035E+03  0.91520085409E+02 0.  0.
          5    1    3    3  502    0 -0.44311166633E+02 -0.19867002532E+01  0.14329849257E+03  0.15006450892E+03  0.41800000000E+01 0.  1.
         -5    1    3    3    0  502  0.72204911742E+02 -0.47652678063E+02  0.13636508453E+03  0.16154638865E+03  0.41800000000E+01 0.  1.
        -11    1    4    4    0    0 -0.58392794073E+02  0.40964524958E+02  0.41960958993E+02  0.82755862538E+02  0.00000000000E+00 0. -1.
         11    1    4    4    0    0  0.30499048964E+02  0.86748533580E+01  0.48579283871E+02  0.58011997810E+02  0.00000000000E+00 0.  1.
</event>
<event>
 8    1  0.6684013E-009  0.1182921E+03  0.7561462E-02  0.1245942E+00
          1   -1    0    0  501    0  0.00000000000E+00  0.00000000000E+00  0.58308401496E+03  0.58308401496E+03  0.00000000000E+00 0. -1.
         -1   -1    0    0    0  501 -0.00000000000E+00 -0.00000000000E+00 -0.31722067584E+02  0.31722067584E+02  0.00000000000E+00 0.  1.
         25    2    1    2    0    0 -0.53186022408E+02 -0.36122535173E+02  0.41703946482E+03  0.44011350818E+03  0.12507755330E+03 0.  0.
         23    2    1    2    0    0  0.53186022408E+02  0.36122535173E+02  0.13432248256E+03  0.17469257437E+03  0.91331132103E+02 0.  0.
          5    1    3    3  502    0 -0.84971695734E+02  0.38244851883E+01  0.20519879832E+03  0.22216848335E+03  0.41800000000E+01 0.  1.
         -5    1    3    3    0  502  0.31785673326E+02 -0.39947020362E+02  0.21184066650E+03  0.21794502483E+03  0.41800000000E+01 0.  1.
        -11    1    4    4    0    0  0.31754775851E+02  0.60143183491E+02  0.12303131215E+03  0.14057834854E+03  0.00000000000E+00 0.  1.
         11    1    4    4    0    0  0.21431246558E+02 -0.24020648318E+02  0.11291170417E+02  0.34114225830E+02  0.00000000000E+00 0. -1.
</event>
<event>
 8    1  0.6684013E-009  0.1053528E+03  0.7561462E-02  0.1269426E+00
         -2   -1    0    0    0  501 -0.00000000000E+00  0.00000000000E+00  0.25032191463E+02  0.25032191463E+02  0.00000000000E+00 0.  1.
          2   -1    0    0  501    0  0.00000000000E+00 -0.00000000000E+00 -0.75001030320E+03  0.75001030320E+03  0.00000000000E+00 0. -1.
         25    2    1    2    0    0 -0.60648267686E+02 -0.40079273622E+02 -0.28238030850E+03  0.31728499087E+03  0.12508623528E+03 0.  0.
         23    2    1    2    0    0  0.60648267686E+02  0.40079273622E+02 -0.44259780324E+03  0.45775750379E+03  0.91457948261E+02 0.  0.
          5    1    3    3  502    0  0.51192806027E+01  0.18326560965E+02 -0.18489009732E+03  0.18591366372E+03  0.41800000000E+01 0. -1.
         -5    1    3    3    0  502 -0.65767548289E+02 -0.58405834587E+02 -0.97490211182E+02  0.13137132715E+03  0.41800000000E+01 0. -1.
        -11    1    4    4    0    0  0.75413579835E+02  0.44736139321E+02 -0.42650981581E+03  0.43542984873E+03  0.00000000000E+00 0. -1.
         11    1    4    4    0    0 -0.14765312150E+02 -0.46568656993E+01 -0.16087987430E+02  0.22327655062E+02  0.00000000000E+00 0.  1.
</event>
<event>
 8    1  0.6684013E-009  0.1193386E+03  0.7561462E-02  0.1244192E+00
         -2   -1    0    0    0  501 -0.00000000000E+00  0.00000000000E+00  0.12468472827E+02  0.12468472827E+02  0.00000000000E+00 0.  1.
          2   -1    0    0  501    0  0.00000000000E+00 -0.00000000000E+00 -0.14918724169E+04  0.14918724169E+04  0.00000000000E+00 0. -1.
         25    2    1    2    0    0 -0.61579454835E+02 -0.50330985995E+02 -0.88863914167E+03  0.90091738513E+03  0.12508946119E+03 0.  0.
         23    2    1    2    0    0  0.61579454835E+02  0.50330985995E+02 -0.59076480235E+03  0.60342350455E+03  0.93763728270E+02 0.  0.
          5    1    3    3  502    0  0.25134420834E+02 -0.13439430374E+02 -0.56217816255E+02  0.63168605050E+02  0.41800000000E+01 0.  1.
         -5    1    3    3    0  502 -0.86713875670E+02 -0.36891555622E+02 -0.83242132542E+03  0.83774878008E+03  0.41800000000E+01 0.  1.
        -11    1    4    4    0    0  0.52431661662E+02  0.73699533847E+02 -0.53029645670E+03  0.53795448918E+03  0.00000000000E+00 0. -1.
         11    1    4    4    0    0  0.91477931732E+01 -0.23368547852E+02 -0.60468345647E+02  0.65469015373E+02  0.00000000000E+00 0.  1.
</event>
<event>
 8    1  0.6684013E-009  0.1435967E+03  0.7561462E-02  0.1208570E+00
         -2   -1    0    0    0  501 -0.00000000000E+00  0.00000000000E+00  0.49017730200E+03  0.49017730200E+03  0.00000000000E+00 0.  1.
          2   -1    0    0  501    0  0.00000000000E+00 -0.00000000000E+00 -0.48017912686E+02  0.48017912686E+02  0.00000000000E+00 0. -1.
         25    2    1    2    0    0 -0.94800617453E+02 -0.31433808664E+02  0.16175558683E+03  0.22756792500E+03  0.12508816579E+03 0.  0.
         23    2    1    2    0    0  0.94800617453E+02  0.31433808664E+02  0.28040380249E+03  0.31062728969E+03  0.88813170493E+02 0.  0.
          5    1    3    3  502    0 -0.11550626311E+02 -0.67937408493E+02  0.67491296294E+02  0.96547687266E+02  0.41800000000E+01 0. -1.
         -5    1    3    3    0  502 -0.83249991142E+02  0.36503599829E+02  0.94264290531E+02  0.13102023773E+03  0.41800000000E+01 0. -1.
        -11    1    4    4    0    0  0.10195982118E+03  0.75678057985E+01  0.25638552418E+03  0.27601922728E+03  0.00000000000E+00 0.  1.
         11    1    4    4    0    0 -0.71592037259E+01  0.23866002866E+02  0.24018278309E+02  0.34608062409E+02  0.00000000000E+00 0. -1.
</event>
<event>
 8    1  0.6684013E-009  0.1375875E+03  0.7561462E-02  0.1216612E+00
          1   -1    0    0  501    0  0.00000000000E+00  0.00000000000E+00  0.19325323272E+02  0.19325323272E+02  0.00000000000E+00 0. -1.
         -1   -1    0    0    0  501 -0.00000000000E+00 -0.00000000000E+00 -0.11801983751E+04  0.11801983751E+04  0.00000000000E+00 0.  1.
         25    2    1    2    0    0  0.76274433882E+02  0.68914414882E+02 -0.54634476966E+03  0.56983025860E+03  0.12508769099E+03 0.  0.
         23    2    1    2    0    0 -0.76274433882E+02 -0.68914414882E+02 -0.61452828220E+03  0.62969343980E+03  0.91114393306E+02 0.  0.
          5    1    3    3  502    0  0.38019420064E+02  0.90845511841E+02 -0.48028567218E+03  0.49029601531E+03  0.41800000000E+01 0.  1.
         -5    1    3    3    0  502  0.38255013818E+02 -0.21931096959E+02 -0.66059097476E+02  0.79534243288E+02  0.41800000000E+01 0.  1.
        -11    1    4    4    0    0 -0.62042975492E+02 -0.10088641340E+00 -0.20509696745E+03  0.21427577334E+03  0.00000000000E+00 0. -1.
         11    1    4    4    0    0 -0.14231458390E+02 -0.68813528469E+02 -0.40943131475E+03  0.41541766646E+03  0.00000000000E+00 0.  1.
</event>
<event>
 8    1  0.6684013E-009  0.1377434E+03  0.7561462E-02  0.1216398E+00
         -3   -1    0    0    0  501 -0.00000000000E+00  0.00000000000E+00  0.39018921069E+02  0.39018921069E+02  0.00000000000E+00 0.  1.
          3   -1    0    0  501    0  0.00000000000E+00 -0.00000000000E+00 -0.53716507200E+03  0.53716507200E+03  0.00000000000E+00 0. -1.
         25    2    1    2    0    0  0.86902455363E+02  0.12437920227E+02 -0.34327710032E+03  0.37575711760E+03  0.12508998846E+03 0.  0.
         23    2    1    2    0    0 -0.86902455363E+02 -0.12437920227E+02 -0.15486905062E+03  0.20042687548E+03  0.92085671886E+02 0.  0.
          5    1    3    3  502    0 -0.61064553484E+01  0.50860228872E+02 -0.13356754695E+03  0.14311468714E+03  0.41800000000E+01 0.  1.
         -5    1    3    3    0  502  0.93008910712E+02 -0.38422308645E+02 -0.20970955337E+03  0.23264243046E+03  0.41800000000E+01 0.  1.
        -11    1    4    4    0    0 -0.91426924085E+01  0.32362636891E+02 -0.66288305301E+02  0.74330804588E+02  0.00000000000E+00 0. -1.
         11    1    4    4    0    0 -0.77759762955E+02 -0.44800557118E+02 -0.88580745314E+02  0.12609607089E+03  0.00000000000E+00 0.  1.
</event>
<event>
 8    1  0.6684013E-009  0.8780068E+02  0.7561462E-02  0.1308267E+00
         -1   -1    0    0    0  501 -0.00000000000E+00  0.00000000000E+00  0.16354089789E+03  0.16354089789E+03  0.00000000000E+00 0.  1.
          1   -1    0    0  501    0  0.00000000000E+00 -0.00000000000E+00 -0.23655734198E+03  0.23655734198E+03  0.00000000000E+00 0. -1.
         25    2    1    2    0    0  0.73858517198E+02  0.42822048417E+02  0.10429363971E+03  0.18388341019E+03  0.12508851613E+03 0.  0.
         23    2    1    2    0    0 -0.73858517198E+02 -0.42822048417E+02 -0.17731008380E+03  0.21621482968E+03  0.89561031495E+02 0.  0.
          5    1    3    3  502    0  0.55355916251E+02  0.21728390361E+02 -0.14827721631E+02  0.61430726354E+02  0.41800000000E+01 0.  1.
         -5    1    3    3    0  502  0.18502600947E+02  0.21093658057E+02  0.11912136134E+03  0.12245268384E+03  0.41800000000E+01 0.  1.
        -11    1    4    4    0    0 -0.46440442827E+02 -0.37496096171E+02 -0.17854419724E+03  0.18825701136E+03  0.00000000000E+00 0. -1.
         11    1    4    4    0    0 -0.27418074370E+02 -0.53259522462E+01  0.12341134334E+01  0.27957818325E+02  0.00000000000E+00 0.  1.
</event>
<event>
 8    1  0.6684013E-009  0.2066589E+03  0.7561462E-02  0.1144239E+00
          2   -1    0    0  501    0  0.00000000000E+00  0.00000000000E+00  0.19140176115E+04  0.19140176115E+04  0.00000000000E+00 0.  1.
         -2   -1    0    0    0  501 -0.00000000000E+00 -0.00000000000E+00 -0.24841101404E+02  0.24841101404E+02  0.00000000000E+00 0. -1.
         25    2    1    2    0    0  0.16063448468E+03  0.89009353027E+02  0.11689613718E+04  0.11898926647E+04  0.12509101625E+03 0.  0.
         23    2    1    2    0    0 -0.16063448468E+03 -0.89009353027E+02  0.72021513837E+03  0.74896604820E+03  0.92272385994E+02 0.  0.
          5    1    3    3  502    0  0.16014012746E+03  0.11399376436E+03  0.10164432114E+04  0.10352843634E+04  0.41800000000E+01 0. -1.
         -5    1    3    3    0  502  0.49435722483E+00 -0.24984411337E+02  0.15251816039E+03  0.15460830136E+03  0.41800000000E+01 0. -1.
        -11    1    4    4    0    0 -0.35728415973E+02 -0.48130814461E+02  0.11543404185E+03  0.13006964683E+03  0.00000000000E+00 0. -1.
         11    1    4    4    0    0 -0.12490606871E+03 -0.40878538566E+02  0.60478109652E+03  0.61889640137E+03  0.00000000000E+00 0.  1.
</event>
<event>
 8    1  0.6684013E-009  0.1094731E+03  0.7561462E-02  0.1261549E+00
          2   -1    0    0  501    0  0.00000000000E+00  0.00000000000E+00  0.35661134191E+02  0.35661134191E+02  0.00000000000E+00 0. -1.
         -2   -1    0    0    0  501 -0.00000000000E+00 -0.00000000000E+00 -0.48853495617E+03  0.48853495617E+03  0.00000000000E+00 0.  1.
         25    2    1    2    0    0 -0.33750205702E+02  0.69906441570E+02 -0.27916411550E+03  0.31560429345E+03  0.12508988649E+03 0.  0.
         23    2    1    2    0    0  0.33750205702E+02 -0.69906441570E+02 -0.17370970648E+03  0.20859179692E+03  0.85495547583E+02 0.  0.
          5    1    3    3  502    0 -0.23010388202E+02 -0.10320759798E+02 -0.20227928049E+03  0.20388814522E+03  0.41800000000E+01 0. -1.
         -5    1    3    3    0  502 -0.10739817499E+02  0.80227201368E+02 -0.76884835008E+02  0.11171614822E+03  0.41800000000E+01 0. -1.
        -11    1    4    4    0    0  0.25905710021E+02  0.13049239069E+02 -0.68453171265E+02  0.74345309928E+02  0.00000000000E+00 0.  1.
         11    1    4    4    0    0  0.78444956803E+01 -0.82955680639E+02 -0.10525653522E+03  0.13424648699E+03  0.00000000000E+00 0. -1.
</event>
<event>
 8    1  0.6684013E-009  0.8805503E+02  0.7561462E-02  0.1307631E+00
         -1   -1    0    0    0  501 -0.00000000000E+00  0.00000000000E+00  0.70172169112E+03  0.70172169112E+03  0.00000000000E+00 0.  1.
          1   -1    0    0  501    0  0.00000000000E+00 -0.00000000000E+00 -0.22531789781E+02  0.22531789781E+02  0.00000000000E+00 0. -1.
         25    2    1    2    0    0 -0.31071935879E+02 -0.49768592021E+02  0.45993962504E+03  0.48024413773E+03  0.12509034814E+03 0.  0.
         23    2    1    2    0    0  0.31071935879E+02  0.49768592021E+02  0.21925027630E+03  0.24400934317E+03  0.89596305410E+02 0.  0.
          5    1    3    3  502    0 -0.45723776667E+02 -0.35203224664E+02  0.74975467020E+02  0.94703346479E+02  0.41800000000E+01 0.  1.
         -5    1    3    3    0  502  0.14651840788E+02 -0.14565367358E+02  0.38496415802E+03  0.38554079126E+03  0.41800000000E+01 0.  1.
        -11    1    4    4    0    0  0.52407865840E+02  0.11950109509E+02  0.17026900974E+03  0.17855230382E+03  0.00000000000E+00 0. -1.
         11    1    4    4    0    0 -0.21335929961E+02  0.37818482512E+02  0.48981266560E+02  0.65457039352E+02  0.00000000000E+00 0.  1.
</event>
<event>
 8    1  0.6684013E-009  0.1700182E+03  0.7561462E-02  0.1177829E+00
          1   -1    0    0  501    0  0.00000000000E+00  0.00000000000E+00  0.36868552691E+03  0.36868552691E+03  0.00000000000E+00 0. -1.
         -1   -1    0    0    0  501 -0.00000000000E+00 -0.00000000000E+00 -0.10546564164E+03  0.10546564164E+03  0.00000000000E+00 0.  1.
         25    2    1    2    0    0 -0.16217267448E+03  0.95780025284E+01  0.16738118574E+03  0.26467862248E+03  0.12508635968E+03 0.  0.
         23    2    1    2    0    0  0.16217267448E+03 -0.95780025284E+01  0.95838699530E+02  0.20947254607E+03  0.91115183970E+02 0.  0.
          5    1    3    3  502    0 -0.13477713038E+03  0.35379303334E+02  0.61757234174E+02  0.15247294301E+03  0.41800000000E+01 0.  1.
         -5    1    3    3    0  502 -0.27395544101E+02 -0.25801300806E+02  0.10562395157E+03  0.11220567947E+03  0.41800000000E+01 0.  1.
        -11    1    4    4    0    0  0.10148131863E+03 -0.11140448618E+01  0.10667981428E+03  0.14724225583E+03  0.00000000000E+00 0. -1.
         11    1    4    4    0    0  0.60691355853E+02 -0.84639576666E+01 -0.10841114753E+02  0.62230290243E+02  0.00000000000E+00 0.  1.
</event>
<event>
 8    1  0.6684013E-009  0.1089827E+03  0.7561462E-02  0.1262465E+00
          4   -1    0    0  501    0  0.00000000000E+00  0.00000000000E+00  0.15385629810E+03  0.15385629810E+03  0.00000000000E+00 0. -1.
         -4   -1    0    0    0  501 -0.00000000000E+00 -0.00000000000E+00 -0.83867011164E+02  0.83867011164E+02  0.00000000000E+00 0.  1.
         25    2    1    2    0    0 -0.24166665492E+02 -0.58335102221E+00  0.69675326978E+02  0.14521236037E+03  0.12509040888E+03 0.  0.
         23    2    1    2    0    0  0.24166665492E+02  0.58335102221E+00  0.31395995700E+00  0.92510948896E+02  0.89296187351E+02 0.  0.
          5    1    3    3  502    0  0.13538338176E+02 -0.57193103009E+02  0.37587863056E+02  0.69890324663E+02  0.41800000000E+01 0.  1.
         -5    1    3    3    0  502 -0.37705003668E+02  0.56609751987E+02  0.32087463922E+02  0.75322035703E+02  0.41800000000E+01 0.  1.
        -11    1    4    4    0    0  0.33548837307E+02 -0.38290107298E+02  0.87136702859E+01  0.51648667470E+02  0.00000000000E+00 0. -1.
         11    1    4    4    0    0 -0.93821718152E+01  0.38873458320E+02 -0.83997103289E+01  0.40862281426E+02  0.00000000000E+00 0.  1.
</event>
<event>
 8    1  0.6684013E-009  0.1453816E+03  0.7561462E-02  0.1206266E+00
          2   -1    0    0  501    0  0.00000000000E+00  0.00000000000E+00  0.14588270676E+04  0.14588270676E+04  0.00000000000E+00 0. -1.
         -2   -1    0    0    0  501 -0.00000000000E+00 -0.00000000000E+00 -0.22820314922E+02  0.22820314922E+02  0.00000000000E+00 0.  1.
         25    2    1    2    0    0  0.98899761092E+02 -0.46529167244E+02  0.11558850784E+04  0.11677594562E+04  0.12508279974E+03 0.  0.
         23    2    1    2    0    0 -0.98899761092E+02  0.46529167244E+02  0.28012167430E+03  0.31388792640E+03  0.90063043368E+02 0.  0.
          5    1    3    3  502    0  0.29068276823E+02 -0.82262716251E+02  0.57947293742E+03  0.58601917785E+03  0.41800000000E+01 0. -1.
         -5    1    3    3    0  502  0.69831484270E+02  0.35733549007E+02  0.57641214100E+03  0.58174027831E+03  0.41800000000E+01 0. -1.
        -11    1    4    4    0    0 -0.80200127196E+02  0.62382115650E+01  0.99839452406E+02  0.12821424235E+03  0.00000000000E+00 0.  1.
         11    1    4    4    0    0 -0.18699633897E+02  0.40290955679E+02  0.18028222189E+03  0.18567368405E+03  0.00000000000E+00 0. -1.
</event>
<event>
 8    1  0.6684013E-009  0.1184418E+03  0.7561462E-02  0.1245690E+00
          1   -1    0    0  501    0  0.00000000000E+00  0.00000000000E+00  0.25263095946E+03  0.25263095946E+03  0.00000000000E+00 0. -1.
         -1   -1    0    0    0  501 -0.00000000000E+00 -0.00000000000E+00 -0.82202521239E+02  0.82202521239E+02  0.00000000000E+00 0.  1.
         25    2    1    2    0    0 -0.50705120602E+02 -0.78309744571E+02  0.76325500188E+02  0.17371346467E+03  0.12508940994E+03 0.  0.
         23    2    1    2    0    0  0.50705120602E+02  0.78309744571E+02  0.94102938033E+02  0.16112001603E+03  0.91656266941E+02 0.  0.
          5    1    3    3  502    0 -0.73124991287E+01 -0.95390355650E+02  0.15583749885E+02  0.97021225797E+02  0.41800000000E+01 0. -1.
         -5    1    3    3    0  502 -0.43392621473E+02  0.17080611080E+02  0.60741750303E+02  0.76692238871E+02  0.41800000000E+01 0. -1.
        -11    1    4    4    0    0  0.41773169305E+01  0.16004709539E+02 -0.18154947331E+02  0.24560187637E+02  0.00000000000E+00 0.  1.
         11    1    4    4    0    0  0.46527803671E+02  0.62305035032E+02  0.11225788536E+03  0.13655982839E+03  0.00000000000E+00 0. -1.
</event>
<event>
 8    1  0.6684013E-009  0.9596605E+02  0.7561462E-02  0.1289015E+00
          1   -1    0    0  501    0  0.00000000000E+00  0.00000000000E+00  0.49378314374E+02  0.49378314374E+02  0.00000000000E+00 0. -1.
         -1   -1    0    0    0  501 -0.00000000000E+00 -0.00000000000E+00 -0.27829678831E+03  0.27829678831E+03  0.00000000000E+00 0.  1.
         25    2    1    2    0    0 -0.65302439613E+01 -0.45729455776E+02 -0.12919940261E+03  0.18566984980E+03  0.12508789021E+03 0.  0.
         23    2    1    2    0    0  0.65302439613E+01  0.45729455776E+02 -0.99719071325E+02  0.14200525289E+03  0.89932037952E+02 0.  0.
          5    1    3    3  502    0 -0.23958906869E+02  0.37879981904E+02 -0.63492801252E+02  0.77831423334E+02  0.41800000000E+01 0. -1.
         -5    1    3    3    0  502  0.17428662907E+02 -0.83609437680E+02 -0.65706601362E+02  0.10783842646E+03  0.41800000000E+01 0. -1.
        -11    1    4    4    0    0 -0.13106666421E+02  0.38184396772E+02 -0.28698627067E+00  0.40372208542E+02  0.00000000000E+00 0. -1.
         11    1    4    4    0    0  0.19636910382E+02  0.75450590043E+01 -0.99432085055E+02  0.10163304435E+03  0.00000000000E+00 0.  1.
</event>
<event>
 8    1  0.6684013E-009  0.1380889E+03  0.7561462E-02  0.1215924E+00
          2   -1    0    0  501    0  0.00000000000E+00  0.00000000000E+00  0.11138472142E+03  0.11138472142E+03  0.00000000000E+00 0. -1.
         -2   -1    0    0    0  501 -0.00000000000E+00 -0.00000000000E+00 -0.21315825045E+03  0.21315825045E+03  0.00000000000E+00 0.  1.
         25    2    1    2    0    0  0.50976728757E+02  0.72794475444E+02  0.75800566173E+01  0.15363461679E+03  0.12509386751E+03 0.  0.
         23    2    1    2    0    0 -0.50976728757E+02 -0.72794475444E+02 -0.10935358565E+03  0.17090835507E+03  0.96715027828E+02 0.  0.
          5    1    3    3  502    0  0.92608828282E+02  0.53962928816E+02  0.96903933095E+01  0.10770222321E+03  0.41800000000E+01 0.  1.
         -5    1    3    3    0  502 -0.41632099526E+02  0.18831546628E+02 -0.21103366921E+01  0.45932393583E+02  0.41800000000E+01 0.  1.
        -11    1    4    4    0    0 -0.20200924751E+02  0.18063825313E+02 -0.53324575223E+02  0.59815461784E+02  0.00000000000E+00 0.  1.
         11    1    4    4    0    0 -0.30775804006E+02 -0.90858300758E+02 -0.56029010424E+02  0.11109289328E+03  0.00000000000E+00 0. -1.
</event>
<event>
 8    1  0.6684013E-009  0.1941460E+03  0.7561462E-02  0.1154774E+00
         -2   -1    0    0    0  501 -0.00000000000E+00  0.00000000000E+00  0.15194917579E+03  0.15194917579E+03  0.00000000000E+00 0.  1.
          2   -1    0    0  501    0  0.00000000000E+00 -0.00000000000E+00 -0.40742336858E+03  0.40742336858E+03  0.00000000000E+00 0. -1.
         25    2    1    2    0    0 -0.84815800871E+02  0.16363500714E+03  0.14286758858E+02  0.22320748905E+03  0.12508931229E+03 0.  0.
         23    2    1    2    0    0  0.84815800871E+02 -0.16363500714E+03 -0.26976095164E+03  0.33616505533E+03  0.79157044863E+02 0.  0.
          5    1    3    3  502    0  0.25208331470E+01  0.80805626831E+02  0.52928392683E+02  0.96720168937E+02  0.41800000000E+01 0. -1.
         -5    1    3    3    0  502 -0.87336634018E+02  0.82829380310E+02 -0.38641633825E+02  0.12648732011E+03  0.41800000000E+01 0. -1.
        -11    1    4    4    0    0  0.18926371739E+02 -0.69254422309E+02 -0.16733635251E+03  0.18208744445E+03  0.00000000000E+00 0. -1.
         11    1    4    4    0    0  0.65889429132E+02 -0.94380584832E+02 -0.10242459914E+03  0.15407761088E+03  0.00000000000E+00 0.  1.
</event>
<event>
 8    1  0.6684013E-009  0.9160119E+02  0.7561462E-02  0.1299020E+00
         -1   -1    0    0    0  501 -0.00000000000E+00  0.00000000000E+00  0.11362267889E+03  0.11362267889E+03  0.00000000000E+00 0.  1.
          1   -1    0    0  501    0  0.00000000000E+00 -0.00000000000E+00 -0.16718566933E+03  0.16718566933E+03  0.00000000000E+00 0. -1.
         25    2    1    2    0    0  0.56353835210E+02  0.12177840888E+02 -0.91914414343E+02  0.16558868658E+03  0.12508916422E+03 0.  0.
         23    2    1    2    0    0 -0.56353835210E+02 -0.12177840888E+02  0.38351423910E+02  0.11521966164E+03  0.92090630151E+02 0.  0.
          5    1    3    3  502    0 -0.10481820421E+02  0.46265534936E+02 -0.74555660652E+02  0.88466870734E+02  0.41800000000E+01 0.  1.
         -5    1    3    3    0  502  0.66835655630E+02 -0.34087694048E+02 -0.17358753690E+02  0.77121815842E+02  0.41800000000E+01 0.  1.
        -11    1    4    4    0    0 -0.43451551164E+02 -0.11533183881E+01  0.68205750726E+02  0.80878871616E+02  0.00000000000E+00 0.  1.
         11    1    4    4    0    0 -0.12902284046E+02 -0.11024522500E+02 -0.29854326817E+02  0.34340790026E+02  0.00000000000E+00 0. -1.
</event>
<event>
 8    1  0.6684013E-009  0.1715810E+03  0.7561462E-02  0.1176209E+00
         -2   -1    0    0    0  501 -0.00000000000E+00  0.00000000000E+00  0.65611749568E+02  0.65611749568E+02  0.00000000000E+00 0.  1.
          2   -1    0    0  501    0  0.00000000000E+00 -0.00000000000E+00 -0.45804754638E+03  0.45804754638E+03  0.00000000000E+00 0. -1.
         25    2    1    2    0    0 -0.75453180752E+02  0.10959967880E+03 -0.19367328816E+03  0.26619867764E+03  0.12508845411E+03 0.  0.
         23    2    1    2    0    0  0.75453180752E+02 -0.10959967880E+03 -0.19876250866E+03  0.25746061831E+03  0.95258401501E+02 0.  0.
          5    1    3    3  502    0  0.31397697248E+02  0.52134165601E+02 -0.58568465197E+02  0.84566684521E+02  0.41800000000E+01 0.  1.
         -5    1    3    3    0  502 -0.10685087800E+03  0.57465513194E+02 -0.13510482296E+03  0.18163199311E+03  0.41800000000E+01 0.  1.
        -11    1    4    4    0    0  0.19467820526E+01 -0.82344705707E+02 -0.77712961448E+02  0.11324197497E+03  0.00000000000E+00 0.  1.
         11    1    4    4    0    0  0.73506398699E+02 -0.27254973089E+02 -0.12104954721E+03  0.14421864334E+03  0.00000000000E+00 0. -1.
</event>
<event>
 8    1  0.6684013E-009  0.1500859E+03  0.7561462E-02  0.1200367E+00
         -1   -1    0    0    0  501 -0.00000000000E+00  0.00000000000E+00  0.32703745650E+02  0.32703745650E+02  0.00000000000E+00 0.  1.
          1   -1    0    0  501    0  0.00000000000E+00 -0.00000000000E+00 -0.80290552587E+03  0.80290552587E+03  0.00000000000E+00 0. -1.
         25    2    1    2    0    0  0.11197083297E+03 -0.54851229124E+01 -0.30129579082E+03  0.34495367431E+03  0.12508529028E+03 0.  0.
         23    2    1    2    0    0 -0.11197083297E+03  0.54851229124E+01 -0.46890598940E+03  0.49065559721E+03  0.91118242797E+02 0.  0.
          5    1    3    3  502    0  0.17930412554E+02  0.45439579138E+02 -0.42439203626E+02  0.64844532931E+02  0.41800000000E+01 0.  1.
         -5    1    3    3    0  502  0.94040420412E+02 -0.50924702050E+02 -0.25885658720E+03  0.28010914138E+03  0.41800000000E+01 0.  1.
        -11    1    4    4    0    0 -0.12612016827E+03  0.15086553634E+02 -0.40140267999E+03  0.42102020433E+03  0.00000000000E+00 0.  1.
         11    1    4    4    0    0  0.14149335302E+02 -0.96014307213E+01 -0.67503309407E+02  0.69635392885E+02  0.00000000000E+00 0. -1.
</event>
<event>
 8    1  0.6684013E-009  0.1097915E+03  0.7561462E-02  0.1260956E+00
         -1   -1    0    0    0  501 -0.00000000000E+00  0.00000000000E+00  0.53817896630E+03  0.53817896630E+03  0.00000000000E+00 0.  1.
          1   -1    0    0  501    0  0.00000000000E+00 -0.00000000000E+00 -0.25135883883E+02  0.25135883883E+02  0.00000000000E+00 0. -1.
         25    2    1    2    0    0 -0.35695732233E+01  0.24424650457E+02  0.21080471463E+03  0.24636542427E+03  0.12509192285E+03 0.  0.
         23    2    1    2    0    0  0.35695732233E+01 -0.24424650457E+02  0.30223836779E+03  0.31694942591E+03  0.92193287291E+02 0.  0.
          5    1    3    3  502    0 -0.61315343370E+02 -0.62241111655E+01  0.10960353655E+03  0.12581223517E+03  0.41800000000E+01 0.  1.
         -5    1    3    3    0  502  0.57745770147E+02  0.30648761623E+02  0.10120117808E+03  0.12055318911E+03  0.41800000000E+01 0.  1.
        -11    1    4    4    0    0  0.46286213901E+02 -0.13364043784E+02  0.11705462540E+03  0.12658118577E+03  0.00000000000E+00 0. -1.
         11    1    4    4    0    0 -0.42716640678E+02 -0.11060606674E+02  0.18518374238E+03  0.19036824014E+03  0.00000000000E+00 0.  1.
</event>
<event>
 8    1  0.6684013E-009  0.1131571E+03  0.7561462E-02  0.1254833E+00
         -1   -1    0    0    0  501 -0.00000000000E+00  0.00000000000E+00  0.23405336432E+02  0.23405336432E+02  0.00000000000E+00 0.  1.
          1   -1    0    0  501    0  0.00000000000E+00 -0.00000000000E+00 -0.58565737960E+03  0.58565737960E+03  0.00000000000E+00 0. -1.
         25    2    1    2    0    0  0.13297893873E+02  0.24772554660E+02 -0.38150236396E+03  0.40247071611E+03  0.12509240654E+03 0.  0.
         23    2    1    2    0    0 -0.13297893873E+02 -0.24772554660E+02 -0.18074967921E+03  0.20659199992E+03  0.96017157074E+02 0.  0.
          5    1    3    3  502    0  0.58616564721E+02  0.47527132073E+02 -0.19446277079E+03  0.20863358207E+03  0.41800000000E+01 0. -1.
         -5    1    3    3    0  502 -0.45318670848E+02 -0.22754577413E+02 -0.18703959316E+03  0.19383713404E+03  0.41800000000E+01 0. -1.
        -11    1    4    4    0    0  0.38579496791E+02  0.67258847003E+01 -0.77284036103E+02  0.86639698372E+02  0.00000000000E+00 0.  1.
         11    1    4    4    0    0 -0.51877390664E+02 -0.31498439360E+02 -0.10346564310E+03  0.11995230155E+03  0.00000000000E+00 0. -1.
</event>
<event>
 8    1  0.6684013E-009  0.1216904E+03  0.7561462E-02  0.1240334E+00
         -1   -1    0    0    0  501 -0.00000000000E+00  0.00000000000E+00  0.35462350801E+02  0.35462350801E+02  0.00000000000E+00 0.  1.
          1   -1    0    0  501    0  0.00000000000E+00 -0.00000000000E+00 -0.56204340248E+03  0.56204340248E+03  0.00000000000E+00 0. -1.
         25    2    1    2    0    0  0.18412607224E+02  0.80655108391E+02 -0.22401628516E+03  0.26958389507E+03  0.12509160585E+03 0.  0.
         23    2    1    2    0    0 -0.18412607224E+02 -0.80655108391E+02 -0.30256476652E+03  0.32792185821E+03  0.95619226804E+02 0.  0.
          5    1    3    3  502    0  0.26442880245E+02  0.11309832905E+03 -0.17700650951E+03  0.21175276801E+03  0.41800000000E+01 0. -1.
         -5    1    3    3    0  502 -0.80302730207E+01 -0.32443220659E+02 -0.47009775643E+02  0.57831127065E+02  0.41800000000E+01 0. -1.
        -11    1    4    4    0    0  0.14204225351E+02 -0.30516543812E+02 -0.20124688764E+02  0.39217630753E+02  0.00000000000E+00 0.  1.
         11    1    4    4    0    0 -0.32616832575E+02 -0.50138564579E+02 -0.28244007776E+03  0.28870422745E+03  0.00000000000E+00 0. -1.
</event>
<event>
 8    1  0.6684013E-009  0.1098077E+03  0.7561462E-02  0.1260926E+00
         -2   -1    0    0    0  501 -0.00000000000E+00  0.00000000000E+00  0.35133855990E+02  0.35133855990E+02  0.00000000000E+00 0.  1.
          2   -1    0    0  501    0  0.00000000000E+00 -0.00000000000E+00 -0.51875998680E+03  0.51875998680E+03  0.00000000000E+00 0. -1.
         25    2    1    2    0    0  0.58414616300E+02  0.11224691080E+02 -0.16103701506E+03  0.21241163820E+03  0.12509005850E+03 0.  0.
         23    2    1    2    0    0 -0.58414616300E+02 -0.11224691080E+02 -0.32258911575E+03  0.34148220459E+03  0.94910997054E+02 0.  0.
          5    1    3    3  502    0  0.97426647621E+01  0.47092701674E+02 -0.14027646529E+03  0.14834959111E+03  0.41800000000E+01 0. -1.
         -5    1    3    3    0  502  0.48671951537E+02 -0.35868010594E+02 -0.20760549761E+02  0.64062047086E+02  0.41800000000E+01 0. -1.
        -11    1    4    4    0    0 -0.37259603535E+02 -0.52488542723E+02 -0.16160046411E+03  0.17394836928E+03  0.00000000000E+00 0. -1.
         11    1    4    4    0    0 -0.21155012765E+02  0.41263851643E+02 -0.16098865164E+03  0.16753383531E+03  0.00000000000E+00 0.  1.
</event>
<event>
 8    1  0.6684013E-009  0.9786164E+02  0.7561462E-02  0.1284858E+00
         -2   -1    0    0    0  501 -0.00000000000E+00  0.00000000000E+00  0.46224986334E+03  0.46224986334E+03  0.00000000000E+00 0. -1.
          2   -1    0    0  501    0  0.00000000000E+00 -0.00000000000E+00 -0.26971006807E+02  0.26971006807E+02  0.00000000000E+00 0.  1.
         25    2    1    2    0    0 -0.14224211720E+02  0.33681017466E+01  0.19888007404E+03  0.23540277455E+03  0.12509000803E+03 0.  0.
         23    2    1    2    0    0  0.14224211720E+02 -0.33681017466E+01  0.23639878249E+03  0.25381809559E+03  0.91244555873E+02 0.  0.
          5    1    3    3  502    0  0.25705613299E+02  0.54697095493E+02  0.10236987476E+03  0.11895215202E+03  0.41800000000E+01 0.  1.
         -5    1    3    3    0  502 -0.39929825020E+02 -0.51328993746E+02  0.96510199275E+02  0.11645062254E+03  0.41800000000E+01 0.  1.
        -11    1    4    4    0    0 -0.10804289323E+02  0.27903953634E+02  0.25999573935E+02  0.39640145572E+02  0.00000000000E+00 0.  1.
         11    1    4    4    0    0  0.25028501043E+02 -0.31272055381E+02  0.21039920856E+03  0.21417795002E+03  0.00000000000E+00 0. -1.
</event>
<event>
 8    1  0.6684013E-009  0.1067015E+03  0.7561462E-02  0.1266803E+00
         -1   -1    0    0    0  501 -0.00000000000E+00  0.00000000000E+00  0.18643175003E+02  0.18643175003E+02  0.00000000000E+00 0. -1.
          1   -1    0    0  501    0  0.00000000000E+00 -0.00000000000E+00 -0.16431581833E+04  0.16431581833E+04  0.00000000000E+00 0.  1.
         25    2    1    2    0    0 -0.31977774490E+02 -0.59924607071E+01 -0.14884043574E+04  0.14940057918E+04  0.12508911730E+03 0.  0.
         23    2    1    2    0    0  0.31977774490E+02  0.59924607071E+01 -0.13611065090E+03  0.16779556647E+03  0.92578373242E+02 0.  0.
          5    1    3    3  502    0 -0.77010803424E+02  0.15090096227E+02 -0.98753914157E+03  0.99066109411E+03  0.41800000000E+01 0. -1.
         -5    1    3    3    0  502  0.45033028934E+02 -0.21082556934E+02 -0.50086521579E+03  0.50334469769E+03  0.41800000000E+01 0. -1.
        -11    1    4    4    0    0  0.28399481042E+02 -0.34263287123E+02 -0.28501046464E+02  0.52847071986E+02  0.00000000000E+00 0. -1.
         11    1    4    4    0    0  0.35782934480E+01  0.40255747830E+02 -0.10760960444E+03  0.11494849449E+03  0.00000000000E+00 0.  1.
</event>
<event>
 8    1  0.6684013E-009  0.1521804E+03  0.7561462E-02  0.1197819E+00
         -1   -1    0    0    0  501 -0.00000000000E+00  0.00000000000E+00  0.52396216312E+02  0.52396216312E+02  0.00000000000E+00 0.  1.
          1   -1    0    0  501    0  0.00000000000E+00 -0.00000000000E+00 -0.55002221998E+03  0.55002221998E+03  0.00000000000E+00 0. -1.
         25    2    1    2    0    0 -0.42962880946E+02  0.11869244514E+03 -0.20613127469E+03  0.27216059989E+03  0.12509030360E+03 0.  0.
         23    2    1    2    0    0  0.42962880946E+02 -0.11869244514E+03 -0.29149472899E+03  0.33025783641E+03  0.90373424248E+02 0.  0.
          5    1    3    3  502    0 -0.20728671634E+02  0.14283425642E+03 -0.17298193504E+03  0.22532537559E+03  0.41800000000E+01 0. -1.
         -5    1    3    3    0  502 -0.22234209312E+02 -0.24141811282E+02 -0.33149339649E+02  0.46835224296E+02  0.41800000000E+01 0. -1.
        -11    1    4    4    0    0  0.24093796172E+02 -0.47874261490E+02 -0.36259032672E+02  0.64708371773E+02  0.00000000000E+00 0. -1.
         11    1    4    4    0    0  0.18869084774E+02 -0.70818183653E+02 -0.25523569631E+03  0.26554946464E+03  0.00000000000E+00 0.  1.
</event>
<event>
 8    1  0.6684013E-009  0.9310555E+02  0.7561462E-02  0.1295501E+00
         -2   -1    0    0    0  501 -0.00000000000E+00  0.00000000000E+00  0.10074142249E+03  0.10074142249E+03  0.00000000000E+00 0.  1.
          2   -1    0    0  501    0  0.00000000000E+00 -0.00000000000E+00 -0.15909528961E+03  0.15909528961E+03  0.00000000000E+00 0. -1.
         25    2    1    2    0    0 -0.17693974445E+02 -0.95313460460E+01 -0.96051520944E+02  0.15898678981E+03  0.12508789457E+03 0.  0.
         23    2    1    2    0    0  0.17693974445E+02  0.95313460460E+01  0.37697653823E+02  0.10084992229E+03  0.91354641003E+02 0.  0.
          5    1    3    3  502    0 -0.43034279709E+02  0.38327229326E+02 -0.12155190014E+02  0.59043600687E+02  0.41800000000E+01 0. -1.
         -5    1    3    3    0  502  0.25340305264E+02 -0.47858575372E+02 -0.83896330931E+02  0.99943189119E+02  0.41800000000E+01 0. -1.
        -11    1    4    4    0    0  0.12792076474E+02 -0.30872492349E+02 -0.12981723632E+02  0.35850706448E+02  0.00000000000E+00 0.  1.
         11    1    4    4    0    0  0.49018979701E+01  0.40403838395E+02  0.50679377455E+02  0.64999215841E+02  0.00000000000E+00 0. -1.
</event>
<event>
 8    1  0.6684013E-009  0.3875415E+03  0.7561462E-02  0.1048181E+00
         -2   -1    0    0    0  501 -0.00000000000E+00  0.00000000000E+00  0.42329799458E+03  0.42329799458E+03  0.00000000000E+00 0. -1.
          2   -1    0    0  501    0  0.00000000000E+00 -0.00000000000E+00 -0.38129426949E+03  0.38129426949E+03  0.00000000000E+00 0.  1.
         25    2    1    2    0    0  0.10330935743E+03  0.37049336693E+03 -0.13468924491E+02  0.40468199276E+03  0.12509174658E+03 0.  0.
         23    2    1    2    0    0 -0.10330935743E+03 -0.37049336693E+03  0.55472649580E+02  0.39991027131E+03  0.94407902068E+02 0.  0.
          5    1    3    3  502    0  0.62467161784E+02  0.28621427383E+03  0.41656886573E+02  0.29592824374E+03  0.41800000000E+01 0.  1.
         -5    1    3    3    0  502  0.40842195646E+02  0.84279093102E+02 -0.55125811065E+02  0.10875374902E+03  0.41800000000E+01 0.  1.
        -11    1    4    4    0    0 -0.35202355545E+00 -0.82666391457E+02  0.44824709762E+02  0.94037815810E+02  0.00000000000E+00 0. -1.
         11    1    4    4    0    0 -0.10295733387E+03 -0.28782697547E+03  0.10647939818E+02  0.30587245550E+03  0.00000000000E+00 0.  1.
</event>
<event>
 8    1  0.6684013E-009  0.9823788E+02  0.7561462E-02  0.1284046E+00
         -2   -1    0    0    0  501 -0.00000000000E+00  0.00000000000E+00  0.39614514143E+02  0.39614514143E+02  0.00000000000E+00 0.  1.
          2   -1    0    0  501    0  0.00000000000E+00 -0.00000000000E+00 -0.59274481649E+03  0.59274481649E+03  0.00000000000E+00 0. -1.
         25    2    1    2    0    0  0.79486370999E+02 -0.22697080477E+02 -0.43852924726E+03  0.46345279002E+03  0.12508935698E+03 0.  0.
         23    2    1    2    0    0 -0.79486370999E+02  0.22697080477E+02 -0.11460105508E+03  0.16890654062E+03  0.92535274360E+02 0.  0.
          5    1    3    3  502    0  0.21594332209E+02  0.14336454288E+02 -0.79910516157E+01  0.27444096105E+02  0.41800000000E+01 0. -1.
         -5    1    3    3    0  502  0.57892038790E+02 -0.37033534765E+02 -0.43053819565E+03  0.43600869391E+03  0.41800000000E+01 0. -1.
        -11    1    4    4    0    0 -0.43409390986E+02 -0.17991979473E+02 -0.58963578773E+01  0.47358775188E+02  0.00000000000E+00 0.  1.
         11    1    4    4    0    0 -0.36076980013E+02  0.40689059951E+02 -0.10870469720E+03  0.12154776543E+03  0.00000000000E+00 0. -1.
</event>
<event>
 8    1  0.6684013E-009  0.1113856E+03  0.7561462E-02  0.1258025E+00
          1   -1    0    0  501    0  0.00000000000E+00  0.00000000000E+00  0.74642643093E+03  0.74642643093E+03  0.00000000000E+00 0. -1.
         -1   -1    0    0    0  501 -0.00000000000E+00 -0.00000000000E+00 -0.23573976785E+02  0.23573976785E+02  0.00000000000E+00 0.  1.
         25    2    1    2    0    0  0.35518963711E+01 -0.75568863631E+02  0.41509782244E+03  0.44008756928E+03  0.12509035664E+03 0.  0.
         23    2    1    2    0    0 -0.35518963711E+01  0.75568863631E+02  0.30775463170E+03  0.32991283843E+03  0.91685868639E+02 0.  0.
          5    1    3    3  502    0 -0.23939334394E+02  0.14367518502E+02  0.23668483602E+03  0.23836254177E+03  0.41800000000E+01 0.  1.
         -5    1    3    3    0  502  0.27491230765E+02 -0.89936382134E+02  0.17841298642E+03  0.20172502751E+03  0.41800000000E+01 0.  1.
        -11    1    4    4    0    0  0.28971777706E+02  0.17501420956E+02  0.20300648723E+03  0.20580888586E+03  0.00000000000E+00 0. -1.
         11    1    4    4    0    0 -0.32523674077E+02  0.58067442676E+02  0.10474814447E+03  0.12410395257E+03  0.00000000000E+00 0.  1.
</event>
<event>
 8    1  0.6684013E-009  0.8557886E+02  0.7561462E-02  0.1313926E+00
         -2   -1    0    0    0  501 -0.00000000000E+00  0.00000000000E+00  0.27408718373E+02  0.27408718373E+02  0.00000000000E+00 0.  1.
          2   -1    0    0  501    0  0.00000000000E+00 -0.00000000000E+00 -0.49140923229E+03  0.49140923229E+03  0.00000000000E+00 0. -1.
         25    2    1    2    0    0 -0.74818120270E+00 -0.15768079620E+02 -0.35204696526E+03  0.37394324792E+03  0.12508914746E+03 0.  0.
         23    2    1    2    0    0  0.74818120270E+00  0.15768079620E+02 -0.11195354866E+03  0.14487470274E+03  0.90586369427E+02 0.  0.
          5    1    3    3  502    0 -0.36811510323E+02  0.23973273568E+02 -0.48135149688E+02  0.65301379567E+02  0.41800000000E+01 0. -1.
         -5    1    3    3    0  502  0.36063329121E+02 -0.39741353188E+02 -0.30391181557E+03  0.30864186836E+03  0.41800000000E+01 0. -1.
        -11    1    4    4    0    0 -0.13693716540E+02 -0.25793373478E+02 -0.55402855865E+01  0.29723908768E+02  0.00000000000E+00 0.  1.
         11    1    4    4    0    0  0.14441897742E+02  0.41561453098E+02 -0.10641326308E+03  0.11515079397E+03  0.00000000000E+00 0. -1.
</event>
<event>
 8    1  0.6684013E-009  0.1749250E+03  0.7561462E-02  0.1172807E+00
          1   -1    0    0  501    0  0.00000000000E+00  0.00000000000E+00  0.72854456914E+03  0.72854456914E+03  0.00000000000E+00 0. -1.
         -1   -1    0    0    0  501 -0.00000000000E+00 -0.00000000000E+00 -0.45737217071E+02  0.45737217071E+02  0.00000000000E+00 0.  1.
         25    2    1    2    0    0  0.78495884503E+02 -0.12286420105E+03  0.46632644696E+03  0.50434756583E+03  0.12509554842E+03 0.  0.
         23    2    1    2    0    0 -0.78495884503E+02  0.12286420105E+03  0.21648090511E+03  0.26993422039E+03  0.68871512809E+02 0.  0.
          5    1    3    3  502    0  0.45832335567E+02  0.15483937768E+02  0.14623603823E+03  0.15408700980E+03  0.41800000000E+01 0.  1.
         -5    1    3    3    0  502  0.32663548936E+02 -0.13834813882E+03  0.32009040873E+03  0.35026055602E+03  0.41800000000E+01 0.  1.
        -11    1    4    4    0    0 -0.74454739211E+02  0.58761608613E+02  0.15017144459E+03  0.17761727846E+03  0.00000000000E+00 0.  1.
         11    1    4    4    0    0 -0.40411452926E+01  0.64102592437E+02  0.66309460514E+02  0.92316941923E+02  0.00000000000E+00 0. -1.
</event>
<event>
 8    1  0.6684013E-009  0.1129121E+03  0.7561462E-02  0.1255270E+00
          1   -1    0    0  501    0  0.00000000000E+00  0.00000000000E+00  0.19914147049E+03  0.19914147049E+03  0.00000000000E+00 0. -1.
         -1   -1    0    0    0  501 -0.00000000000E+00 -0.00000000000E+00 -0.79832263386E+02  0.79832263386E+02  0.00000000000E+00 0.  1.
         25    2    1    2    0    0  0.48751104692E+02  0.21027289159E+02  0.22214531685E+02  0.13769843989E+03  0.12509419584E+03 0.  0.
         23    2    1    2    0    0 -0.48751104692E+02 -0.21027289159E+02  0.97094675416E+02  0.14127529398E+03  0.87820929156E+02 0.  0.
          5    1    3    3  502    0  0.78192927357E+02 -0.23437844211E+02  0.20060153371E+02  0.84162631750E+02  0.41800000000E+01 0.  1.
         -5    1    3    3    0  502 -0.29441822665E+02  0.44465133369E+02  0.21543783144E+01  0.53535808141E+02  0.41800000000E+01 0.  1.
        -11    1    4    4    0    0  0.15381028708E+02 -0.21531123016E+02  0.19486160968E+01  0.26532289896E+02  0.00000000000E+00 0.  1.
         11    1    4    4    0    0 -0.64132133399E+02  0.50383385759E+00  0.95146059320E+02  0.11474300409E+03  0.00000000000E+00 0. -1.
</event>
<event>
 8    1  0.6684013E-009  0.1234207E+03  0.7561462E-02  0.1237558E+00
         -2   -1    0    0    0  501 -0.00000000000E+00  0.00000000000E+00  0.37491127143E+02  0.37491127143E+02  0.00000000000E+00 0.  1.
          2   -1    0    0  501    0  0.00000000000E+00 -0.00000000000E+00 -0.55021877413E+03  0.55021877413E+03  0.00000000000E+00 0. -1.
         25    2    1    2    0    0  0.70786014045E+02  0.58528877085E+02 -0.32698154925E+03  0.36194020523E+03  0.12508992516E+03 0.  0.
         23    2    1    2    0    0 -0.70786014045E+02 -0.58528877085E+02 -0.18574609774E+03  0.22576969604E+03  0.89632882294E+02 0.  0.
          5    1    3    3  502    0  0.57496342398E+02  0.97583265485E+02 -0.25031791155E+03  0.27478146286E+03  0.41800000000E+01 0.  1.
         -5    1    3    3    0  502  0.13289671647E+02 -0.39054388400E+02 -0.76663637704E+02  0.87158742372E+02  0.41800000000E+01 0.  1.
        -11    1    4    4    0    0 -0.61006991147E+02 -0.47659037186E+02 -0.19407271560E+03  0.20894366641E+03  0.00000000000E+00 0. -1.
         11    1    4    4    0    0 -0.97790228974E+01 -0.10869839900E+02  0.83266178556E+01  0.16826029632E+02  0.00000000000E+00 0.  1.
</event>
<event>
 8    1  0.6684013E-009  0.1002022E+03  0.7561462E-02  0.1279871E+00
          2   -1    0    0  501    0  0.00000000000E+00  0.00000000000E+00  0.15719446004E+03  0.15719446004E+03  0.00000000000E+00 0. -1.
         -2   -1    0    0    0  501 -0.00000000000E+00 -0.00000000000E+00 -0.12415519690E+03  0.12415519690E+03  0.00000000000E+00 0.  1.
         25    2    1    2    0    0 -0.17636333956E+02  0.32670223489E+02  0.98339556696E+02  0.16339045015E+03  0.12508951599E+03 0.  0.
         23    2    1    2    0    0  0.17636333956E+02 -0.32670223489E+02 -0.65300293552E+02  0.11795920679E+03  0.90949779275E+02 0.  0.
          5    1    3    3  502    0  0.19040494034E+02  0.64618018321E+02  0.18800072142E+02  0.70063855285E+02  0.41800000000E+01 0.  1.
         -5    1    3    3    0  502 -0.36676827990E+02 -0.31947794833E+02  0.79539484554E+02  0.93326594866E+02  0.41800000000E+01 0.  1.
        -11    1    4    4    0    0  0.40270846611E+02 -0.43258624576E+02 -0.13763066092E+02  0.60683372313E+02  0.00000000000E+00 0. -1.
         11    1    4    4    0    0 -0.22634512655E+02  0.10588401088E+02 -0.51537227460E+02  0.57275834477E+02  0.00000000000E+00 0.  1.
</event>
<event>
 7    1  0.6684013E-009  0.1542817E+03  0.7561462E-02  0.1195308E+00
          2   -1    0    0  501    0  0.00000000000E+00  0.00000000000E+00  0.13001263086E+04  0.13001263086E+04  0.00000000000E+00 0. -1.
         -2   -1    0    0    0  501 -0.00000000000E+00 -0.00000000000E+00 -0.19289869140E+02  0.19289869140E+02  0.00000000000E+00 0.  1.
         23    2    1    2    0    0 -0.25170258180E+01 -0.11041763708E+03  0.73285362145E+03  0.74663662386E+03  0.90517554222E+02 0.  0.
          5    1    1    2  502    0  0.52534303098E+02  0.10137487460E+02  0.15056296954E+03  0.15984148977E+03  0.41800000000E+01 0. -1.
         -5    1    1    2    0  502 -0.50017277280E+02  0.10028014962E+03  0.39741984848E+03  0.41293806412E+03  0.41800000000E+01 0. -1.
        -11    1    3    3    0    0 -0.42522884692E+02 -0.85866109068E+02  0.48324079403E+03  0.49264880942E+03  0.00000000000E+00 0. -1.
         11    1    3    3    0    0  0.40005858874E+02 -0.24551528012E+02  0.24961282743E+03  0.25398781445E+03  0.00000000000E+00 0.  1.
</event>
<event>
 8    1  0.6684013E-009  0.1246604E+03  0.7561462E-02  0.1235601E+00
          1   -1    0    0  501    0  0.00000000000E+00  0.00000000000E+00  0.10700900498E+04  0.10700900498E+04  0.00000000000E+00 0. -1.
         -1   -1    0    0    0  501 -0.00000000000E+00 -0.00000000000E+00 -0.16356116085E+02  0.16356116085E+02  0.00000000000E+00 0.  1.
         25    2    1    2    0    0  0.12951583193E+02  0.65407118293E+02  0.72667216388E+03  0.74036918651E+03  0.12509302116E+03 0.  0.
         23    2    1    2    0    0 -0.12951583193E+02 -0.65407118293E+02  0.32706176980E+03  0.34607697934E+03  0.91400436183E+02 0.  0.
          5    1    3    3  502    0 -0.54749309661E+02  0.44333866639E+02  0.34495107754E+03  0.35209614728E+03  0.41800000000E+01 0. -1.
         -5    1    3    3    0  502  0.67700892853E+02  0.21073251654E+02  0.38172108635E+03  0.38827303923E+03  0.41800000000E+01 0. -1.
        -11    1    4    4    0    0  0.29232873440E+02  0.76852800987E+00  0.48146896847E+02  0.56331831151E+02  0.00000000000E+00 0. -1.
         11    1    4    4    0    0 -0.42184456633E+02 -0.66175646303E+02  0.27891487296E+03  0.28974514819E+03  0.00000000000E+00 0.  1.
</event>
<event>
 8    1  0.6684013E-009  0.1565839E+03  0.7561462E-02  0.1192608E+00
          3   -1    0    0  501    0  0.00000000000E+00  0.00000000000E+00  0.26520793729E+03  0.26520793729E+03  0.00000000000E+00 0. -1.
         -3   -1    0    0    0  501 -0.00000000000E+00 -0.00000000000E+00 -0.14079022957E+03  0.14079022957E+03  0.00000000000E+00 0.  1.
         25    2    1    2    0    0  0.80924531504E+02 -0.10641468154E+03 -0.26118654412E+02  0.18493594161E+03  0.12508498768E+03 0.  0.
         23    2    1    2    0    0 -0.80924531504E+02  0.10641468154E+03  0.15053636214E+03  0.22106222525E+03  0.91293191758E+02 0.  0.
          5    1    3    3  502    0  0.63554447309E+02  0.73222960921E+01 -0.27587632838E+02  0.69794940207E+02  0.41800000000E+01 0.  1.
         -5    1    3    3    0  502  0.17370084195E+02 -0.11373697763E+03  0.14689784260E+01  0.11514100140E+03  0.41800000000E+01 0.  1.
        -11    1    4    4    0    0 -0.43871463292E+02  0.51133614700E+02  0.13768053718E+03  0.15328170851E+03  0.00000000000E+00 0. -1.
         11    1    4    4    0    0 -0.37053068212E+02  0.55281066842E+02  0.12855824954E+02  0.67780516746E+02  0.00000000000E+00 0.  1.
</event>
<event>
 8    1  0.6684013E-009  0.1136111E+03  0.7561462E-02  0.1254025E+00
          1   -1    0    0  501    0  0.00000000000E+00  0.00000000000E+00  0.64068502057E+02  0.64068502057E+02  0.00000000000E+00 0. -1.
         -1   -1    0    0    0  501 -0.00000000000E+00 -0.00000000000E+00 -0.26049648072E+03  0.26049648072E+03  0.00000000000E+00 0.  1.
         25    2    1    2    0    0  0.11422224745E+02 -0.69160439433E+02 -0.10519474402E+03  0.17783933572E+03  0.12508901454E+03 0.  0.
         23    2    1    2    0    0 -0.11422224745E+02  0.69160439433E+02 -0.91233234646E+02  0.14672564706E+03  0.91056459411E+02 0.  0.
          5    1    3    3  502    0 -0.11503745926E+02 -0.90666113823E+02 -0.11279179066E+03  0.14523133548E+03  0.41800000000E+01 0. -1.
         -5    1    3    3    0  502  0.22925970671E+02  0.21505674390E+02  0.75970466348E+01  0.32608000241E+02  0.41800000000E+01 0. -1.
        -11    1    4    4    0    0  0.21291883820E+02 -0.59413589071E+01  0.24940429742E+01  0.22245545906E+02  0.00000000000E+00 0.  1.
         11    1    4    4    0    0 -0.32714108566E+02  0.75101798340E+02 -0.93727277620E+02  0.12448010115E+03  0.00000000000E+00 0. -1.
</event>
<event>
 8    1  0.6684013E-009  0.7734990E+02  0.7561462E-02  0.1336745E+00
         -1   -1    0    0    0  501 -0.00000000000E+00  0.00000000000E+00  0.12433157859E+03  0.12433157859E+03  0.00000000000E+00 0.  1.
          1   -1    0    0  501    0  0.00000000000E+00 -0.00000000000E+00 -0.11317654398E+03  0.11317654398E+03  0.00000000000E+00 0. -1.
         25    2    1    2    0    0 -0.46975313414E+02  0.81325362125E+01 -0.25627296091E+01  0.13387009746E+03  0.12506725069E+03 0.  0.
         23    2    1    2    0    0  0.46975313414E+02 -0.81325362125E+01  0.13717764216E+02  0.10363802510E+03  0.90993653497E+02 0.  0.
          5    1    3    3  502    0 -0.41527382479E+02  0.16180553044E+02 -0.60340490504E+02  0.75131757510E+02  0.41800000000E+01 0.  1.
         -5    1    3    3    0  502 -0.54479309356E+01 -0.80480168319E+01  0.57777760895E+02  0.58738339953E+02  0.41800000000E+01 0.  1.
        -11    1    4    4    0    0  0.48119648419E-01  0.35368330228E+02 -0.76314021116E+01  0.36182307787E+02  0.00000000000E+00 0.  1.
         11    1    4    4    0    0  0.46927193766E+02 -0.43500866441E+02  0.21349166328E+02  0.67455717317E+02  0.00000000000E+00 0. -1.
</event>
<event>
 8    1  0.6684013E-009  0.1517997E+03  0.7561462E-02  0.1198279E+00
         -2   -1    0    0    0  501 -0.00000000000E+00  0.00000000000E+00  0.72740901932E+02  0.72740901932E+02  0.00000000000E+00 0.  1.
          2   -1    0    0  501    0  0.00000000000E+00 -0.00000000000E+00 -0.66880300262E+03  0.66880300262E+03  0.00000000000E+00 0. -1.
         25    2    1    2    0    0  0.71799467870E+02  0.11161961939E+03 -0.76749774163E+02  0.19787123781E+03  0.12509354860E+03 0.  0.
         23    2    1    2    0    0 -0.71799467870E+02 -0.11161961939E+03 -0.51931232652E+03  0.54367266674E+03  0.90997654148E+02 0.  0.
          5    1    3    3  502    0 -0.23300671368E+02  0.25128531573E+02 -0.58554522499E+02  0.67974030999E+02  0.41800000000E+01 0.  1.
         -5    1    3    3    0  502  0.95100139238E+02  0.86491087816E+02 -0.18195251664E+02  0.12989720681E+03  0.41800000000E+01 0.  1.
        -11    1    4    4    0    0 -0.18988430098E+02 -0.23962408898E+01 -0.13267199037E+02  0.23287786891E+02  0.00000000000E+00 0.  1.
         11    1    4    4    0    0 -0.52811037772E+02 -0.10922337850E+03 -0.50604512748E+03  0.52038487984E+03  0.00000000000E+00 0. -1.
</event>
<event>
 8    1  0.6684013E-009  0.1244245E+03  0.7561462E-02  0.1235971E+00
         -2   -1    0    0    0  501 -0.00000000000E+00  0.00000000000E+00  0.56973292873E+03  0.56973292873E+03  0.00000000000E+00 0.  1.
          2   -1    0    0  501    0  0.00000000000E+00 -0.00000000000E+00 -0.46682290331E+02  0.46682290331E+02  0.00000000000E+00 0. -1.
         25    2    1    2    0    0 -0.97421541645E+02 -0.72223747356E+02  0.33183615159E+03  0.37479279955E+03  0.12508870705E+03 0.  0.
         23    2    1    2    0    0  0.97421541645E+02  0.72223747356E+02  0.19121448681E+03  0.24162241951E+03  0.84327855353E+02 0.  0.
          5    1    3    3  502    0 -0.12600965832E+02 -0.21196395730E+02 -0.33835788260E+01  0.25238711090E+02  0.41800000000E+01 0.  1.
         -5    1    3    3    0  502 -0.84820575814E+02 -0.51027351626E+02  0.33521973042E+03  0.34955408846E+03  0.41800000000E+01 0.  1.
        -11    1    4    4    0    0  0.24327939805E+02  0.37656732358E+01 -0.12636166795E+01  0.24650064446E+02  0.00000000000E+00 0. -1.
         11    1    4    4    0    0  0.73093601840E+02  0.68458074120E+02  0.19247810349E+03  0.21697235507E+03  0.00000000000E+00 0.  1.
</event>
<event>
 8    1  0.6684013E-009  0.1257023E+03  0.7561462E-02  0.1233976E+00
          2   -1    0    0  501    0  0.00000000000E+00  0.00000000000E+00  0.27525320479E+03  0.27525320479E+03  0.00000000000E+00 0.  1.
         -2   -1    0    0    0  501 -0.00000000000E+00 -0.00000000000E+00 -0.10796669502E+03  0.10796669502E+03  0.00000000000E+00 0. -1.
         25    2    1    2    0    0 -0.98558219397E+02 -0.66773242587E+02  0.21943576729E+02  0.17407498732E+03  0.12509273406E+03 0.  0.
         23    2    1    2    0    0  0.98558219397E+02  0.66773242587E+02  0.14534293304E+03  0.20914491249E+03  0.91894709846E+02 0.  0.
          5    1    3    3  502    0 -0.60651668679E+02 -0.13392303613E+02 -0.47678368917E+02  0.78413506312E+02  0.41800000000E+01 0. -1.
         -5    1    3    3    0  502 -0.37906550718E+02 -0.53380938974E+02  0.69621945646E+02  0.95661481008E+02  0.41800000000E+01 0. -1.
        -11    1    4    4    0    0  0.56769763356E+02  0.18519974187E+02  0.11432954536E+02  0.60798913846E+02  0.00000000000E+00 0. -1.
         11    1    4    4    0    0  0.41788456041E+02  0.48253268400E+02  0.13390997850E+03  0.14834599864E+03  0.00000000000E+00 0.  1.
</event>
<event>
 8    1  0.6684013E-009  0.1337342E+03  0.7561462E-02  0.1222018E+00
         -1   -1    0    0    0  501 -0.00000000000E+00  0.00000000000E+00  0.49611942528E+03  0.49611942528E+03  0.00000000000E+00 0.  1.
          1   -1    0    0  501    0  0.00000000000E+00 -0.00000000000E+00 -0.50513701162E+02  0.50513701162E+02  0.00000000000E+00 0. -1.
         25    2    1    2    0    0 -0.78200952213E+01 -0.91819473306E+02  0.35870340444E+03  0.39090628327E+03  0.12509044877E+03 0.  0.
         23    2    1    2    0    0  0.78200952213E+01  0.91819473306E+02  0.86902319675E+02  0.15572684317E+03  0.90591759844E+02 0.  0.
          5    1    3    3  502    0 -0.37334564855E+02 -0.10519471796E+03  0.20194494733E+03  0.23077918574E+03  0.41800000000E+01 0.  1.
         -5    1    3    3    0  502  0.29514469634E+02  0.13375244650E+02  0.15675845711E+03  0.16012709753E+03  0.41800000000E+01 0.  1.
        -11    1    4    4    0    0  0.34516490937E+02  0.84232352986E+01  0.48474458555E+02  0.60100850009E+02  0.00000000000E+00 0.  1.
         11    1    4    4    0    0 -0.26696395716E+02  0.83396238008E+02  0.38427861120E+02  0.95625993163E+02  0.00000000000E+00 0. -1.
</event>
<event>
 8    1  0.6684013E-009  0.9065667E+02  0.7561462E-02  0.1301269E+00
          1   -1    0    0  501    0  0.00000000000E+00  0.00000000000E+00  0.55166833598E+02  0.55166833598E+02  0.00000000000E+00 0. -1.
         -1   -1    0    0    0  501 -0.00000000000E+00 -0.00000000000E+00 -0.26974275579E+03  0.26974275579E+03  0.00000000000E+00 0.  1.
         25    2    1    2    0    0 -0.26782728779E+02 -0.50742089625E+02 -0.10488611617E+03  0.17303481315E+03  0.12509146644E+03 0.  0.
         23    2    1    2    0    0  0.26782728779E+02  0.50742089625E+02 -0.10968980602E+03  0.15187477624E+03  0.87988748671E+02 0.  0.
          5    1    3    3  502    0 -0.32564588236E+02 -0.66718339669E+02 -0.12557479954E+03  0.14593934334E+03  0.41800000000E+01 0.  1.
         -5    1    3    3    0  502  0.57818594571E+01  0.15976250044E+02  0.20688683372E+02  0.27095469804E+02  0.41800000000E+01 0.  1.
        -11    1    4    4    0    0  0.27552526611E+02  0.67383141161E+02 -0.46165778243E+02  0.86202717569E+02  0.00000000000E+00 0. -1.
         11    1    4    4    0    0 -0.76979783225E+00 -0.16641051537E+02 -0.63524027779E+02  0.65672058672E+02  0.00000000000E+00 0.  1.
</event>
<event>
 8    1  0.6684013E-009  0.1524057E+03  0.7561462E-02  0.1197548E+00
         -2   -1    0    0    0  501 -0.00000000000E+00  0.00000000000E+00  0.27534126412E+02  0.27534126412E+02  0.00000000000E+00 0. -1.
          2   -1    0    0  501    0  0.00000000000E+00 -0.00000000000E+00 -0.12716749688E+04  0.12716749688E+04  0.00000000000E+00 0.  1.
         25    2    1    2    0    0  0.12746788857E+03 -0.29830327172E+02 -0.92461249236E+03  0.94217568752E+03  0.12509538001E+03 0.  0.
         23    2    1    2    0    0 -0.12746788857E+03  0.29830327172E+02 -0.31952835002E+03  0.35703340768E+03  0.90755587690E+02 0.  0.
          5    1    3    3  502    0  0.10054049225E+02 -0.52419622305E+02 -0.42896667000E+03  0.43229478030E+03  0.41800000000E+01 0. -1.
         -5    1    3    3    0  502  0.11741383935E+03  0.22589295132E+02 -0.49564582236E+03  0.50988090722E+03  0.41800000000E+01 0. -1.
        -11    1    4    4    0    0 -0.11188170643E+03  0.30715734960E+02 -0.32102804541E+03  0.34135022857E+03  0.00000000000E+00 0.  1.
         11    1    4    4    0    0 -0.15586182142E+02 -0.88540778755E+00  0.14996953871E+01  0.15683179109E+02  0.00000000000E+00 0. -1.
</event>
<event>
 8    1  0.6684013E-009  0.1405403E+03  0.7561462E-02  0.1212604E+00
         -2   -1    0    0    0  501 -0.00000000000E+00  0.00000000000E+00  0.35118371248E+02  0.35118371248E+02  0.00000000000E+00 0.  1.
          2   -1    0    0  501    0  0.00000000000E+00 -0.00000000000E+00 -0.79688034636E+03  0.79688034636E+03  0.00000000000E+00 0. -1.
         25    2    1    2    0    0 -0.11229695358E+03  0.87839203173E+01 -0.55169371844E+03  0.57680281266E+03  0.12509101761E+03 0.  0.
         23    2    1    2    0    0  0.11229695358E+03 -0.87839203173E+01 -0.21006825668E+03  0.25519590495E+03  0.91151052661E+02 0.  0.
          5    1    3    3  502    0  0.62331036261E+01 -0.25566417266E+02 -0.27613423905E+02  0.38372735795E+02  0.41800000000E+01 0.  1.
         -5    1    3    3    0  502 -0.11853005721E+03  0.34350337583E+02 -0.52408029453E+03  0.53843007686E+03  0.41800000000E+01 0.  1.
        -11    1    4    4    0    0  0.23348810929E+02 -0.31447335677E+02 -0.19675614281E+02  0.43831857026E+02  0.00000000000E+00 0.  1.
         11    1    4    4    0    0  0.88948142652E+02  0.22663415360E+02 -0.19039264240E+03  0.21136404793E+03  0.00000000000E+00 0. -1.
</event>
<event>
 8    1  0.6684013E-009  0.6596998E+02  0.7561462E-02  0.1374360E+00
          2   -1    0    0  501    0  0.00000000000E+00  0.00000000000E+00  0.31901330446E+03  0.31901330446E+03  0.00000000000E+00 0. -1.
         -2   -1    0    0    0  501 -0.00000000000E+00 -0.00000000000E+00 -0.43516267857E+02  0.43516267857E+02  0.00000000000E+00 0.  1.
         25    2    1    2    0    0 -0.32026201547E+02  0.30521662414E+02  0.14755123944E+03  0.19843434561E+03  0.12509025460E+03 0.  0.
         23    2    1    2    0    0  0.32026201547E+02 -0.30521662414E+02  0.12794579715E+03  0.16409522670E+03  0.92735467615E+02 0.  0.
          5    1    3    3  502    0 -0.26399606326E+02  0.11363213361E+02 -0.16308764196E+02  0.33309308333E+02  0.41800000000E+01 0. -1.
         -5    1    3    3    0  502 -0.56265952213E+01  0.19158449053E+02  0.16386000364E+03  0.16512503728E+03  0.41800000000E+01 0. -1.
        -11    1    4    4    0    0 -0.98583539395E+01 -0.38600337169E+02  0.11145626898E+03  0.11836246477E+03  0.00000000000E+00 0. -1.
         11    1    4    4    0    0  0.41884555486E+02  0.80786747551E+01  0.16489528176E+02  0.45732761928E+02  0.00000000000E+00 0.  1.
</event>
<event>
 8    1  0.6684013E-009  0.9498150E+02  0.7561462E-02  0.1291218E+00
         -2   -1    0    0    0  501 -0.00000000000E+00  0.00000000000E+00  0.41427115537E+02  0.41427115537E+02  0.00000000000E+00 0.  1.
          2   -1    0    0  501    0  0.00000000000E+00 -0.00000000000E+00 -0.42083483447E+03  0.42083483447E+03  0.00000000000E+00 0. -1.
         25    2    1    2    0    0  0.39184259182E+02 -0.62871092071E+02 -0.18377445592E+03  0.23433215999E+03  0.12510127965E+03 0.  0.
         23    2    1    2    0    0 -0.39184259182E+02  0.62871092071E+02 -0.19563326301E+03  0.22792979002E+03  0.90506547797E+02 0.  0.
          5    1    3    3  502    0  0.28256261218E+02 -0.57192694362E+02 -0.20203820597E+03  0.21191113623E+03  0.41800000000E+01 0. -1.
         -5    1    3    3    0  502  0.10927997963E+02 -0.56783977088E+01  0.18263750057E+02  0.22421023754E+02  0.41800000000E+01 0. -1.
        -11    1    4    4    0    0 -0.63359598706E+02  0.62283602073E+02 -0.12566610527E+03  0.15390144849E+03  0.00000000000E+00 0.  1.
         11    1    4    4    0    0  0.24175339524E+02  0.58748999791E+00 -0.69967157748E+02  0.74028341525E+02  0.00000000000E+00 0. -1.
</event>
<event>
 7    1  0.6684013E-009  0.1822121E+03  0.7561462E-02  0.1165679E+00
         -2   -1    0    0    0  501 -0.00000000000E+00  0.00000000000E+00  0.62891248783E+02  0.62891248783E+02  0.00000000000E+00 0.  1.
          2   -1    0    0  501    0  0.00000000000E+00 -0.00000000000E+00 -0.69105332794E+03  0.69105332794E+03  0.00000000000E+00 0. -1.
         23    2    1    2    0    0 -0.14080117012E+03 -0.68464754606E+02 -0.45230515069E+03  0.48728432711E+03  0.91398435303E+02 0.  0.
          5    1    1    2  502    0  0.94916068395E+02  0.98550441700E+02 -0.15744738265E+03  0.20863460955E+03  0.41800000000E+01 0. -1.
         -5    1    1    2    0  502  0.45885101725E+02 -0.30085687094E+02 -0.18409545828E+02  0.58025640072E+02  0.41800000000E+01 0. -1.
        -11    1    3    3    0    0 -0.10949350543E+03 -0.14953330499E+02 -0.35592290031E+03  0.37268423738E+03  0.00000000000E+00 0. -1.
         11    1    3    3    0    0 -0.31307664690E+02 -0.53511424107E+02 -0.96382250375E+02  0.11460008973E+03  0.00000000000E+00 0.  1.
</event>
<event>
 8    1  0.6684013E-009  0.1080371E+03  0.7561462E-02  0.1264249E+00
          3   -1    0    0  501    0  0.00000000000E+00  0.00000000000E+00  0.58643733007E+03  0.58643733007E+03  0.00000000000E+00 0. -1.
         -3   -1    0    0    0  501 -0.00000000000E+00 -0.00000000000E+00 -0.22128298245E+02  0.22128298245E+02  0.00000000000E+00 0.  1.
         25    2    1    2    0    0 -0.31119051722E+02  0.17899911170E+02  0.31038113598E+03  0.33655903557E+03  0.12508690039E+03 0.  0.
         23    2    1    2    0    0  0.31119051722E+02 -0.17899911170E+02  0.25392789584E+03  0.27200659275E+03  0.90660950866E+02 0.  0.
          5    1    3    3  502    0 -0.75519358071E+02  0.29211816269E+01  0.13284316936E+03  0.15289371077E+03  0.41800000000E+01 0. -1.
         -5    1    3    3    0  502  0.44400306350E+02  0.14978729543E+02  0.17753796662E+03  0.18366532480E+03  0.41800000000E+01 0. -1.
        -11    1    4    4    0    0  0.13376265307E+02  0.35038742818E+02  0.14277637514E+03  0.14762022649E+03  0.00000000000E+00 0. -1.
         11    1    4    4    0    0  0.17742786415E+02 -0.52938653988E+02  0.11115152070E+03  0.12438636626E+03  0.00000000000E+00 0.  1.
</event>
<event>
 8    1  0.6684013E-009  0.1680139E+03  0.7561462E-02  0.1179935E+00
         -1   -1    0    0    0  501 -0.00000000000E+00  0.00000000000E+00  0.14311373336E+02  0.14311373336E+02  0.00000000000E+00 0.  1.
          1   -1    0    0  501    0  0.00000000000E+00 -0.00000000000E+00 -0.23220800651E+04  0.23220800651E+04  0.00000000000E+00 0. -1.
         25    2    1    2    0    0 -0.35887389410E+02 -0.13583294970E+03 -0.16598596447E+04  0.16704845953E+04  0.12508496368E+03 0.  0.
         23    2    1    2    0    0  0.35887389410E+02  0.13583294970E+03 -0.64790904703E+03  0.66590684309E+03  0.62508363470E+02 0.  0.
          5    1    3    3  502    0  0.44478557228E+02 -0.36738782292E+02 -0.39737585314E+03  0.40156334648E+03  0.41800000000E+01 0.  1.
         -5    1    3    3    0  502 -0.80365946639E+02 -0.99094167407E+02 -0.12624837916E+04  0.12689212488E+04  0.41800000000E+01 0.  1.
        -11    1    4    4    0    0 -0.13808220221E+02  0.18302952577E+02 -0.58272749298E+02  0.62620909682E+02  0.00000000000E+00 0.  1.
         11    1    4    4    0    0  0.49695609632E+02  0.11752999712E+03 -0.58963629773E+03  0.60328593340E+03  0.00000000000E+00 0. -1.
</event>
<event>
 8    1  0.6684013E-009  0.1153363E+03  0.7561462E-02  0.1250995E+00
         -2   -1    0    0    0  501 -0.00000000000E+00  0.00000000000E+00  0.21983607352E+02  0.21983607352E+02  0.00000000000E+00 0. -1.
          2   -1    0    0  501    0  0.00000000000E+00 -0.00000000000E+00 -0.10079704309E+04  0.10079704309E+04  0.00000000000E+00 0.  1.
         25    2    1    2    0    0  0.74209003773E+02 -0.62281361299E+02 -0.43417120022E+03  0.46210214478E+03  0.12509123431E+03 0.  0.
         23    2    1    2    0    0 -0.74209003773E+02  0.62281361299E+02 -0.55181562331E+03  0.56785189345E+03  0.92570765187E+02 0.  0.
          5    1    3    3  502    0  0.34339764061E+02 -0.26771089203E+02 -0.39065773147E+03  0.39309902846E+03  0.41800000000E+01 0.  1.
         -5    1    3    3    0  502  0.39869239712E+02 -0.35510272096E+02 -0.43513468745E+02  0.69003116319E+02  0.41800000000E+01 0.  1.
        -11    1    4    4    0    0 -0.58515649154E+02  0.86550613236E+02 -0.40825400404E+03  0.42141003982E+03  0.00000000000E+00 0. -1.
         11    1    4    4    0    0 -0.15693354619E+02 -0.24269251937E+02 -0.14356161927E+03  0.14644185363E+03  0.00000000000E+00 0.  1.
</event>
<event>
 8    1  0.6684013E-009  0.1112740E+03  0.7561462E-02  0.1258229E+00
         -2   -1    0    0    0  501 -0.00000000000E+00  0.00000000000E+00  0.10889101712E+04  0.10889101712E+04  0.00000000000E+00 0.  1.
          2   -1    0    0  501    0  0.00000000000E+00 -0.00000000000E+00 -0.18127544091E+02  0.18127544091E+02  0.00000000000E+00 0. -1.
         25    2    1    2    0    0 -0.39375527124E+02 -0.22359654289E+02  0.88879511217E+03  0.89869563614E+03  0.12508680474E+03 0.  0.
         23    2    1    2    0    0  0.39375527124E+02  0.22359654289E+02  0.18198751494E+03  0.20834207916E+03  0.90755606308E+02 0.  0.
          5    1    3    3  502    0 -0.42048729342E+02 -0.71746521992E+02  0.57581110183E+03  0.58180027196E+03  0.41800000000E+01 0.  1.
         -5    1    3    3    0  502  0.26732022184E+01  0.49386867703E+02  0.31298401033E+03  0.31689536418E+03  0.41800000000E+01 0.  1.
        -11    1    4    4    0    0  0.62664979630E+02  0.10593478624E+02  0.16597706900E+03  0.17772875090E+03  0.00000000000E+00 0.  1.
         11    1    4    4    0    0 -0.23289452507E+02  0.11766175665E+02  0.16010445939E+02  0.30613328258E+02  0.00000000000E+00 0. -1.
</event>
<event>
 8    1  0.6684013E-009  0.4761395E+03  0.7561462E-02  0.1020202E+00
         -2   -1    0    0    0  501 -0.00000000000E+00  0.00000000000E+00  0.44563339889E+03  0.44563339889E+03  0.00000000000E+00 0.  1.
          2   -1    0    0  501    0  0.00000000000E+00 -0.00000000000E+00 -0.53903965263E+03  0.53903965263E+03  0.00000000000E+00 0. -1.
         25    2    1    2    0    0  0.32872727365E+03  0.33717502305E+03  0.35427579467E+02  0.48851888925E+03  0.12508786973E+03 0.  0.
         23    2    1    2    0    0 -0.32872727365E+03 -0.33717502305E+03 -0.12883383321E+03  0.49615416228E+03  0.88443086555E+02 0.  0.
          5    1    3    3  502    0  0.31096646338E+03  0.33244535610E+03  0.80805369570E+01  0.45530519832E+03  0.41800000000E+01 0.  1.
         -5    1    3    3    0  502  0.17760810274E+02  0.47296669484E+01  0.27347042510E+02  0.33213690928E+02  0.41800000000E+01 0.  1.
        -11    1    4    4    0    0 -0.93778448002E+01 -0.42977706621E+02 -0.30489549421E+01  0.44094482259E+02  0.00000000000E+00 0.  1.
         11    1    4    4    0    0 -0.31934942885E+03 -0.29419731643E+03 -0.12578487826E+03  0.45205968002E+03  0.00000000000E+00 0. -1.
</event>
<event>
 8    1  0.6684013E-009  0.1107380E+03  0.7561462E-02  0.1259209E+00
          1   -1    0    0  501    0  0.00000000000E+00  0.00000000000E+00  0.11132332139E+04  0.11132332139E+04  0.00000000000E+00 0. -1.
         -1   -1    0    0    0  501 -0.00000000000E+00 -0.00000000000E+00 -0.25268548193E+02  0.25268548193E+02  0.00000000000E+00 0.  1.
         25    2    1    2    0    0  0.73871727725E+01  0.10042739736E+03  0.85137517318E+03  0.86638782157E+03  0.12509172393E+03 0.  0.
         23    2    1    2    0    0 -0.73871727725E+01 -0.10042739736E+03  0.23658949253E+03  0.27211394053E+03  0.89057151263E+02 0.  0.
          5    1    3    3  502    0  0.15194577807E+01  0.82014432786E+01  0.57238204206E+03  0.57245807435E+03  0.41800000000E+01 0.  1.
         -5    1    3    3    0  502  0.58677149919E+01  0.92225954079E+02  0.27899313113E+03  0.29392974722E+03  0.41800000000E+01 0.  1.
        -11    1    4    4    0    0  0.27260430589E+02 -0.62955495193E+02  0.70542990979E+02  0.98401417810E+02  0.00000000000E+00 0.  1.
         11    1    4    4    0    0 -0.34647603362E+02 -0.37471902165E+02  0.16604650155E+03  0.17371252272E+03  0.00000000000E+00 0. -1.
</event>
<event>
 8    1  0.6684013E-009  0.1329900E+03  0.7561462E-02  0.1223085E+00
         -1   -1    0    0    0  501 -0.00000000000E+00  0.00000000000E+00  0.49704279069E+02  0.49704279069E+02  0.00000000000E+00 0.  1.
          1   -1    0    0  501    0  0.00000000000E+00 -0.00000000000E+00 -0.54265133544E+03  0.54265133544E+03  0.00000000000E+00 0. -1.
         25    2    1    2    0    0 -0.45723516304E+02  0.10414358217E+03 -0.34229377833E+03  0.38177012464E+03  0.12508745633E+03 0.  0.
         23    2    1    2    0    0  0.45723516304E+02 -0.10414358217E+03 -0.15065327804E+03  0.21058548987E+03  0.93345126859E+02 0.  0.
          5    1    3    3  502    0 -0.48534646356E+02  0.28099967583E+01 -0.20692183263E+03  0.21259733112E+03  0.41800000000E+01 0.  1.
         -5    1    3    3    0  502  0.28111300515E+01  0.10133358542E+03 -0.13537194570E+03  0.16917279352E+03  0.41800000000E+01 0.  1.
        -11    1    4    4    0    0  0.17226664988E+02 -0.17668446481E+02  0.94330201259E+01  0.26418059285E+02  0.00000000000E+00 0.  1.
         11    1    4    4    0    0  0.28496851316E+02 -0.86475135692E+02 -0.16008629817E+03  0.18416743058E+03  0.00000000000E+00 0. -1.
</event>
<event>
 8    1  0.6684013E-009  0.9351899E+02  0.7561462E-02  0.1294547E+00
         -3   -1    0    0    0  501 -0.00000000000E+00  0.00000000000E+00  0.83742622665E+02  0.83742622665E+02  0.00000000000E+00 0.  1.
          3   -1    0    0  501    0  0.00000000000E+00 -0.00000000000E+00 -0.16585486542E+03  0.16585486542E+03  0.00000000000E+00 0. -1.
         25    2    1    2    0    0  0.13392208742E+02  0.13112513362E+02 -0.12960489870E+01  0.12649446295E+03  0.12509148713E+03 0.  0.
         23    2    1    2    0    0 -0.13392208742E+02 -0.13112513362E+02 -0.80816193766E+02  0.12310302513E+03  0.90949482458E+02 0.  0.
          5    1    3    3  502    0 -0.26315774976E+02  0.49320381692E+02 -0.31913441903E+02  0.64505505478E+02  0.41800000000E+01 0.  1.
         -5    1    3    3    0  502  0.39707983718E+02 -0.36207868330E+02  0.30617392916E+02  0.61988957476E+02  0.41800000000E+01 0.  1.
        -11    1    4    4    0    0 -0.20162435781E+00 -0.43736053607E+02 -0.78271881764E+02  0.89662536839E+02  0.00000000000E+00 0. -1.
         11    1    4    4    0    0 -0.13190584384E+02  0.30623540245E+02 -0.25443120019E+01  0.33440488290E+02  0.00000000000E+00 0.  1.
</event>
<event>
 8    1  0.6684013E-009  0.1238873E+03  0.7561462E-02  0.1236819E+00
          2   -1    0    0  501    0  0.00000000000E+00  0.00000000000E+00  0.17475832230E+03  0.17475832230E+03  0.00000000000E+00 0. -1.
         -2   -1    0    0    0  501 -0.00000000000E+00 -0.00000000000E+00 -0.16229976684E+03  0.16229976684E+03  0.00000000000E+00 0.  1.
         25    2    1    2    0    0 -0.97542578541E+02  0.70519400671E+02 -0.38403850225E+02  0.17779290757E+03  0.12509165349E+03 0.  0.
         23    2    1    2    0    0  0.97542578541E+02 -0.70519400671E+02  0.50862405690E+02  0.15926518157E+03  0.91054232457E+02 0.  0.
          5    1    3    3  502    0 -0.78985723637E+02  0.46131572011E+02  0.35087500137E+02  0.98058510801E+02  0.41800000000E+01 0.  1.
         -5    1    3    3    0  502 -0.18556854905E+02  0.24387828660E+02 -0.73491350362E+02  0.79734396773E+02  0.41800000000E+01 0.  1.
        -11    1    4    4    0    0  0.46912592223E+02 -0.55074556834E+02 -0.15891484419E+02  0.74071164407E+02  0.00000000000E+00 0.  1.
         11    1    4    4    0    0  0.50629986319E+02 -0.15444843836E+02  0.66753890108E+02  0.85194017163E+02  0.00000000000E+00 0. -1.
</event>
<event>
 8    1  0.6684013E-009  0.9344182E+02  0.7561462E-02  0.1294725E+00
         -2   -1    0    0    0  501 -0.00000000000E+00  0.00000000000E+00  0.67288799918E+02  0.67288799918E+02  0.00000000000E+00 0.  1.
          2   -1    0    0  501    0  0.00000000000E+00 -0.00000000000E+00 -0.20480479188E+03  0.20480479188E+03  0.00000000000E+00 0. -1.
         25    2    1    2    0    0  0.18705535442E+02  0.26712685112E+02 -0.52102995394E+02  0.13937743171E+03  0.12509149348E+03 0.  0.
         23    2    1    2    0    0 -0.18705535442E+02 -0.26712685112E+02 -0.85412996568E+02  0.13271616008E+03  0.96201530978E+02 0.  0.
          5    1    3    3  502    0 -0.10653588336E+02  0.55121528504E+02 -0.73887000158E+02  0.92890489510E+02  0.41800000000E+01 0.  1.
         -5    1    3    3    0  502  0.29359123778E+02 -0.28408843393E+02  0.21784004764E+02  0.46486942204E+02  0.41800000000E+01 0.  1.
        -11    1    4    4    0    0  0.32685607257E+02 -0.18253069470E+02 -0.62478529106E+01  0.37954698429E+02  0.00000000000E+00 0.  1.
         11    1    4    4    0    0 -0.51391142699E+02 -0.84596156417E+01 -0.79165143657E+02  0.94761461655E+02  0.00000000000E+00 0. -1.
</event>
<event>
 8    1  0.6684013E-009  0.1541030E+03  0.7561462E-02  0.1195520E+00
         -2   -1    0    0    0  501 -0.00000000000E+00  0.00000000000E+00  0.15193477685E+03  0.15193477685E+03  0.00000000000E+00 0.  1.
          2   -1    0    0  501    0  0.00000000000E+00 -0.00000000000E+00 -0.20865056162E+03  0.20865056162E+03  0.00000000000E+00 0. -1.
         25    2    1    2    0    0  0.59659859158E+02  0.10358978447E+03  0.46234536709E+02  0.17909685114E+03  0.12509159630E+03 0.  0.
         23    2    1    2    0    0 -0.59659859158E+02 -0.10358978447E+03 -0.10295032148E+03  0.18148848733E+03  0.89717111515E+02 0.  0.
          5    1    3    3  502    0 -0.74192603283E+01 -0.21563921487E+02  0.27245999529E+02  0.35775201244E+02  0.41800000000E+01 0. -1.
         -5    1    3    3    0  502  0.67079119486E+02  0.12515370596E+03  0.18988537180E+02  0.14332164990E+03  0.41800000000E+01 0. -1.
        -11    1    4    4    0    0  0.15944033141E+02 -0.16241437058E+01  0.28048796994E+01  0.16270137852E+02  0.00000000000E+00 0.  1.
         11    1    4    4    0    0 -0.75603892299E+02 -0.10196564076E+03 -0.10575520118E+03  0.16521834948E+03  0.00000000000E+00 0. -1.
</event>
<event>
 8    1  0.6684013E-009  0.1073136E+03  0.7561462E-02  0.1265627E+00
          1   -1    0    0  501    0  0.00000000000E+00  0.00000000000E+00  0.31691213659E+03  0.31691213659E+03  0.00000000000E+00 0. -1.
         -1   -1    0    0    0  501 -0.00000000000E+00 -0.00000000000E+00 -0.45093308118E+02  0.45093308118E+02  0.00000000000E+00 0.  1.
         25    2    1    2    0    0  0.20230621080E+02  0.35407341623E+02  0.12627334176E+03  0.18235847227E+03  0.12508676069E+03 0.  0.
         23    2    1    2    0    0 -0.20230621080E+02 -0.35407341623E+02  0.14554548671E+03  0.17964697243E+03  0.97090618152E+02 0.  0.
          5    1    3    3  502    0 -0.49930860942E+02  0.13198656173E+02  0.80040637126E+02  0.95348158821E+02  0.41800000000E+01 0.  1.
         -5    1    3    3    0  502  0.70161482022E+02  0.22208685450E+02  0.46232704634E+02  0.87010313450E+02  0.41800000000E+01 0.  1.
        -11    1    4    4    0    0  0.26529217497E+02 -0.32914873619E+02  0.11794344225E+03  0.12529103661E+03  0.00000000000E+00 0. -1.
         11    1    4    4    0    0 -0.46759838577E+02 -0.24924680037E+01  0.27602044463E+02  0.54355935822E+02  0.00000000000E+00 0.  1.
</event>
<event>
 8    1  0.6684013E-009  0.1096549E+03  0.7561462E-02  0.1261210E+00
         -4   -1    0    0    0  501 -0.00000000000E+00  0.00000000000E+00  0.13919147129E+03  0.13919147129E+03  0.00000000000E+00 0.  1.
          4   -1    0    0  501    0  0.00000000000E+00 -0.00000000000E+00 -0.90715713164E+02  0.90715713164E+02  0.00000000000E+00 0. -1.
         25    2    1    2    0    0  0.36605808374E+00  0.31505911570E+02  0.20234152951E+02  0.13057416064E+03  0.12508970389E+03 0.  0.
         23    2    1    2    0    0 -0.36605808374E+00 -0.31505911570E+02  0.28241605174E+02  0.99333023810E+02  0.89870489562E+02 0.  0.
          5    1    3    3  502    0 -0.38742454446E+02 -0.32063720967E+02 -0.71413202754E+01  0.50965977220E+02  0.41800000000E+01 0. -1.
         -5    1    3    3    0  502  0.39108512530E+02  0.63569632537E+02  0.27375473226E+02  0.79608183421E+02  0.41800000000E+01 0. -1.
        -11    1    4    4    0    0  0.36493775160E+02 -0.42125065148E+02  0.24200712935E+02  0.60761758086E+02  0.00000000000E+00 0.  1.
         11    1    4    4    0    0 -0.36859833244E+02  0.10619153578E+02  0.40408922389E+01  0.38571265724E+02  0.00000000000E+00 0. -1.
</event>
<event>
 8    1  0.6684013E-009  0.1276157E+03  0.7561462E-02  0.1231037E+00
          1   -1    0    0  501    0  0.00000000000E+00  0.00000000000E+00  0.29339681264E+03  0.29339681264E+03  0.00000000000E+00 0. -1.
         -1   -1    0    0    0  501 -0.00000000000E+00 -0.00000000000E+00 -0.85224599691E+02  0.85224599691E+02  0.00000000000E+00 0.  1.
         25    2    1    2    0    0 -0.10753577395E+02  0.92752583576E+02  0.18221074769E+03  0.23993129456E+03  0.12509032076E+03 0.  0.
         23    2    1    2    0    0  0.10753577395E+02 -0.92752583576E+02  0.25961465256E+02  0.13869011777E+03  0.99208214891E+02 0.  0.
          5    1    3    3  502    0 -0.40578193647E+02  0.34297407199E+02  0.82150375909E+01  0.53924587925E+02  0.41800000000E+01 0. -1.
         -5    1    3    3    0  502  0.29824616252E+02  0.58455176377E+02  0.17399571010E+03  0.18600670663E+03  0.41800000000E+01 0. -1.
        -11    1    4    4    0    0  0.52861853091E+02 -0.30521344278E+02  0.96008877833E+01  0.61790816591E+02  0.00000000000E+00 0. -1.
         11    1    4    4    0    0 -0.42108275695E+02 -0.62231239298E+02  0.16360577473E+02  0.76899301179E+02  0.00000000000E+00 0.  1.
</event>
<event>
 8    1  0.6684013E-009  0.1120481E+03  0.7561462E-02  0.1256823E+00
          2   -1    0    0  501    0  0.00000000000E+00  0.00000000000E+00  0.53243181688E+03  0.53243181688E+03  0.00000000000E+00 0. -1.
         -2   -1    0    0    0  501 -0.00000000000E+00 -0.00000000000E+00 -0.25516110731E+02  0.25516110731E+02  0.00000000000E+00 0.  1.
         25    2    1    2    0    0 -0.42396757515E+02 -0.38281945711E+02  0.26346718262E+03  0.29719598002E+03  0.12508997484E+03 0.  0.
         23    2    1    2    0    0  0.42396757515E+02  0.38281945711E+02  0.24344852353E+03  0.26075194759E+03  0.73901300058E+02 0.  0.
          5    1    3    3  502    0  0.40171411173E+02  0.98419359913E+01  0.71233502278E+02  0.82475997881E+02  0.41800000000E+01 0. -1.
         -5    1    3    3    0  502 -0.82568168689E+02 -0.48123881702E+02  0.19223368035E+03  0.21471998214E+03  0.41800000000E+01 0. -1.
        -11    1    4    4    0    0  0.59817183174E+02  0.24446971524E+02  0.21578710333E+03  0.22525501944E+03  0.00000000000E+00 0. -1.
         11    1    4    4    0    0 -0.17420425658E+02  0.13834974187E+02  0.27661420196E+02  0.35496928151E+02  0.00000000000E+00 0.  1.
</event>
<event>
 8    1  0.6684013E-009  0.1045851E+03  0.7561462E-02  0.1270939E+00
          2   -1    0    0  501    0  0.00000000000E+00  0.00000000000E+00  0.61495098620E+03  0.61495098620E+03  0.00000000000E+00 0. -1.
         -2   -1    0    0    0  501 -0.00000000000E+00 -0.00000000000E+00 -0.27439011715E+02  0.27439011715E+02  0.00000000000E+00 0.  1.
         25    2    1    2    0    0 -0.13569637334E+02  0.69949947096E+02  0.33986104106E+03  0.36909625669E+03  0.12509751921E+03 0.  0.
         23    2    1    2    0    0  0.13569637334E+02 -0.69949947096E+02  0.24765093342E+03  0.27329374123E+03  0.91001945108E+02 0.  0.
          5    1    3    3  502    0 -0.10026466013E+02 -0.20858375539E+02  0.20545534877E+03  0.20679694047E+03  0.41800000000E+01 0.  1.
         -5    1    3    3    0  502 -0.35431713215E+01  0.90808322636E+02  0.13440569230E+03  0.16229931622E+03  0.41800000000E+01 0.  1.
        -11    1    4    4    0    0  0.36022761844E+02 -0.60299225719E+02  0.23597816519E+03  0.24620993165E+03  0.00000000000E+00 0. -1.
         11    1    4    4    0    0 -0.22453124509E+02 -0.96507213777E+01  0.11672768229E+02  0.27083809582E+02  0.00000000000E+00 0.  1.
</event>
<event>
 8    1  0.6684013E-009  0.1471760E+03  0.7561462E-02  0.1203987E+00
          1   -1    0    0  501    0  0.00000000000E+00  0.00000000000E+00  0.58536052893E+03  0.58536052893E+03  0.00000000000E+00 0. -1.
         -1   -1    0    0    0  501 -0.00000000000E+00 -0.00000000000E+00 -0.57032756422E+02  0.57032756422E+02  0.00000000000E+00 0.  1.
         25    2    1    2    0    0  0.55145067072E+02  0.10990681728E+03  0.42116297828E+03  0.45623276491E+03  0.12509833969E+03 0.  0.
         23    2    1    2    0    0 -0.55145067072E+02 -0.10990681728E+03  0.10716479422E+03  0.18616052044E+03  0.89727138267E+02 0.  0.
          5    1    3    3  502    0  0.77687880331E+02  0.63677159337E+02  0.15249283772E+03  0.18265192396E+03  0.41800000000E+01 0. -1.
         -5    1    3    3    0  502 -0.22542813259E+02  0.46229657947E+02  0.26867014056E+03  0.27358084095E+03  0.41800000000E+01 0. -1.
        -11    1    4    4    0    0  0.16852199838E+02 -0.31769895105E+02  0.59912822734E+02  0.69877530025E+02  0.00000000000E+00 0. -1.
         11    1    4    4    0    0 -0.71997266910E+02 -0.78136922178E+02  0.47251971488E+02  0.11628299041E+03  0.00000000000E+00 0.  1.
</event>
<event>
 8    1  0.6684013E-009  0.1020184E+03  0.7561462E-02  0.1276108E+00
          2   -1    0    0  501    0  0.00000000000E+00  0.00000000000E+00  0.22252827817E+03  0.22252827817E+03  0.00000000000E+00 0. -1.
         -2   -1    0    0    0  501 -0.00000000000E+00 -0.00000000000E+00 -0.73019677199E+02  0.73019677199E+02  0.00000000000E+00 0.  1.
         25    2    1    2    0    0  0.50957772221E+00  0.64230637880E+02  0.57414782691E+02  0.15188471670E+03  0.12508667148E+03 0.  0.
         23    2    1    2    0    0 -0.50957772221E+00 -0.64230637880E+02  0.92093818279E+02  0.14366323867E+03  0.89621539090E+02 0.  0.
          5    1    3    3  502    0  0.39380647915E+02  0.61400649315E+02 -0.10157332009E+02  0.73766652087E+02  0.41800000000E+01 0.  1.
         -5    1    3    3    0  502 -0.38871070193E+02  0.28299885644E+01  0.67572114700E+02  0.78118064609E+02  0.41800000000E+01 0.  1.
        -11    1    4    4    0    0 -0.30461174467E+02 -0.50156401038E+02  0.16213589124E+02  0.60880441746E+02  0.00000000000E+00 0.  1.
         11    1    4    4    0    0  0.29951596745E+02 -0.14074236842E+02  0.75880229156E+02  0.82782796927E+02  0.00000000000E+00 0. -1.
</event>
<event>
 8    1  0.6684013E-009  0.1632273E+03  0.7561462E-02  0.1185101E+00
          1   -1    0    0  501    0  0.00000000000E+00  0.00000000000E+00  0.88601362388E+03  0.88601362388E+03  0.00000000000E+00 0. -1.
         -1   -1    0    0    0  501 -0.00000000000E+00 -0.00000000000E+00 -0.55226022768E+02  0.55226022768E+02  0.00000000000E+00 0.  1.
         25    2    1    2    0    0  0.11301659158E+03 -0.11550398442E+03  0.19868649188E+03  0.28503666898E+03  0.12512258075E+03 0.  0.
         23    2    1    2    0    0 -0.11301659158E+03  0.11550398442E+03  0.63210110923E+03  0.65620297767E+03  0.70261050578E+02 0.  0.
          5    1    3    3  502    0  0.49989223059E+02 -0.37877191315E+02  0.32487738677E+00  0.62858428149E+02  0.41800000000E+01 0.  1.
         -5    1    3    3    0  502  0.63027368521E+02 -0.77626793110E+02  0.19836161450E+03  0.22217824083E+03  0.41800000000E+01 0.  1.
        -11    1    4    4    0    0 -0.45894877052E+02  0.30061846090E+02  0.11008558935E+03  0.12299955818E+03  0.00000000000E+00 0.  1.
         11    1    4    4    0    0 -0.67121714529E+02  0.85442138335E+02  0.52201551988E+03  0.53320341949E+03  0.00000000000E+00 0. -1.
</event>
<event>
 8    1  0.6684013E-009  0.1050049E+03  0.7561462E-02  0.1270110E+00
         -1   -1    0    0    0  501 -0.00000000000E+00  0.00000000000E+00  0.10105647183E+03  0.10105647183E+03  0.00000000000E+00 0.  1.
          1   -1    0    0  501    0  0.00000000000E+00 -0.00000000000E+00 -0.48883968386E+03  0.48883968386E+03  0.00000000000E+00 0. -1.
         25    2    1    2    0    0 -0.53203117690E+02  0.41811180076E+02 -0.44062958947E+03  0.46301298180E+03  0.12509132540E+03 0.  0.
         23    2    1    2    0    0  0.53203117690E+02 -0.41811180076E+02  0.52846377435E+02  0.12688317389E+03  0.93422982697E+02 0.  0.
          5    1    3    3  502    0 -0.41288598071E+02 -0.38072123352E+02 -0.12352559217E+03  0.13575816450E+03  0.41800000000E+01 0.  1.
         -5    1    3    3    0  502 -0.11914519620E+02  0.79883303428E+02 -0.31710399730E+03  0.32725481730E+03  0.41800000000E+01 0.  1.
        -11    1    4    4    0    0  0.29745089452E+02 -0.39208844820E+02 -0.17849348418E+02  0.52351724876E+02  0.00000000000E+00 0. -1.
         11    1    4    4    0    0  0.23458028238E+02 -0.26023352567E+01  0.70695725852E+02  0.74531449009E+02  0.00000000000E+00 0.  1.
</event>
<event>
 8    1  0.6684013E-009  0.1127414E+03  0.7561462E-02  0.1255576E+00
         -1   -1    0    0    0  501 -0.00000000000E+00  0.00000000000E+00  0.28411132645E+02  0.28411132645E+02  0.00000000000E+00 0.  1.
          1   -1    0    0  501    0  0.00000000000E+00 -0.00000000000E+00 -0.60168084828E+03  0.60168084828E+03  0.00000000000E+00 0. -1.
         25    2    1    2    0    0 -0.60689386361E+02 -0.24881176429E+02 -0.35137107455E+03  0.37868679739E+03  0.12505912173E+03 0.  0.
         23    2    1    2    0    0  0.60689386361E+02  0.24881176429E+02 -0.22189864108E+03  0.25140518353E+03  0.98302008303E+02 0.  0.
          5    1    3    3  502    0  0.25293660144E+01  0.29280597083E+02 -0.22721800026E+03  0.22914895396E+03  0.41800000000E+01 0. -1.
         -5    1    3    3    0  502 -0.63218752376E+02 -0.54161773513E+02 -0.12415307429E+03  0.14953784343E+03  0.41800000000E+01 0. -1.
        -11    1    4    4    0    0  0.17320878244E+01  0.48792813904E+02 -0.59364791082E+02  0.76862977025E+02  0.00000000000E+00 0.  1.
         11    1    4    4    0    0  0.58957298537E+02 -0.23911637475E+02 -0.16253385000E+03  0.17454220651E+03  0.00000000000E+00 0. -1.
</event>
<event>
 8    1  0.6684013E-009  0.9226099E+02  0.7561462E-02  0.1297467E+00
          2   -1    0    0  501    0  0.00000000000E+00  0.00000000000E+00  0.62866469466E+03  0.62866469466E+03  0.00000000000E+00 0. -1.
         -2   -1    0    0    0  501 -0.00000000000E+00 -0.00000000000E+00 -0.30977492143E+02  0.30977492143E+02  0.00000000000E+00 0.  1.
         25    2    1    2    0    0 -0.20299992591E+02  0.44327392894E+02  0.15729305179E+03  0.20680408972E+03  0.12509924029E+03 0.  0.
         23    2    1    2    0    0  0.20299992591E+02 -0.44327392894E+02  0.44039415072E+03  0.45283809708E+03  0.93479017543E+02 0.  0.
          5    1    3    3  502    0 -0.39276126259E+02  0.11490871433E+02  0.16310206984E+03  0.16820942841E+03  0.41800000000E+01 0. -1.
         -5    1    3    3    0  502  0.18976133669E+02  0.32836521461E+02 -0.58090180462E+01  0.38594661307E+02  0.41800000000E+01 0. -1.
        -11    1    4    4    0    0  0.55816462915E+02 -0.41594229748E+02  0.27792988394E+03  0.28651453343E+03  0.00000000000E+00 0.  1.
         11    1    4    4    0    0 -0.35516470325E+02 -0.27331631465E+01  0.16246426678E+03  0.16632356365E+03  0.00000000000E+00 0. -1.
</event>
<event>
 8    1  0.6684013E-009  0.9098216E+02  0.7561462E-02  0.1300491E+00
          1   -1    0    0  501    0  0.00000000000E+00  0.00000000000E+00  0.27317497890E+02  0.27317497890E+02  0.00000000000E+00 0. -1.
         -1   -1    0    0    0  501 -0.00000000000E+00 -0.00000000000E+00 -0.53756881277E+03  0.53756881277E+03  0.00000000000E+00 0.  1.
         25    2    1    2    0    0 -0.38681400486E+02 -0.34850976345E+02 -0.26509042829E+03  0.29771133247E+03  0.12509300946E+03 0.  0.
         23    2    1    2    0    0  0.38681400486E+02  0.34850976345E+02 -0.24516088659E+03  0.26717497818E+03  0.92562235058E+02 0.  0.
          5    1    3    3  502    0 -0.66838737071E+02 -0.76648248245E+01 -0.64497706150E+02  0.93293048034E+02  0.41800000000E+01 0. -1.
         -5    1    3    3    0  502  0.28157336585E+02 -0.27186151520E+02 -0.20059272214E+03  0.20441828444E+03  0.41800000000E+01 0. -1.
        -11    1    4    4    0    0  0.52410194355E+02  0.31182222457E+02 -0.24549910375E+03  0.25296041076E+03  0.00000000000E+00 0.  1.
         11    1    4    4    0    0 -0.13728793869E+02  0.36687538879E+01  0.33821716258E+00  0.14214567423E+02  0.00000000000E+00 0. -1.
</event>
<event>
 8    1  0.6684013E-009  0.1101679E+03  0.7561462E-02  0.1260259E+00
         -1   -1    0    0    0  501 -0.00000000000E+00  0.00000000000E+00  0.28891781446E+02  0.28891781446E+02  0.00000000000E+00 0.  1.
          1   -1    0    0  501    0  0.00000000000E+00 -0.00000000000E+00 -0.63425982325E+03  0.63425982325E+03  0.00000000000E+00 0. -1.
         25    2    1    2    0    0  0.77677006048E+02  0.18907894530E+02 -0.30496542278E+03  0.33917106074E+03  0.12506747623E+03 0.  0.
         23    2    1    2    0    0 -0.77677006048E+02 -0.18907894530E+02 -0.30040261903E+03  0.32398054396E+03  0.91271209040E+02 0.  0.
          5    1    3    3  502    0  0.83073821916E+02  0.30655882452E+02 -0.31166125569E+03  0.32402353883E+03  0.41800000000E+01 0.  1.
         -5    1    3    3    0  502 -0.53968158681E+01 -0.11747987922E+02  0.66958329112E+01  0.15147521913E+02  0.41800000000E+01 0.  1.
        -11    1    4    4    0    0 -0.58249484134E+02  0.29966930926E+02 -0.12882713043E+03  0.14452490749E+03  0.00000000000E+00 0.  1.
         11    1    4    4    0    0 -0.19427521914E+02 -0.48874825456E+02 -0.17157548860E+03  0.17945563647E+03  0.00000000000E+00 0. -1.
</event>
<event>
 8    1  0.6684013E-009  0.9983843E+02  0.7561462E-02  0.1280636E+00
          2   -1    0    0  501    0  0.00000000000E+00  0.00000000000E+00  0.76796386974E+03  0.76796386974E+03  0.00000000000E+00 0. -1.
         -2   -1    0    0    0  501 -0.00000000000E+00 -0.00000000000E+00 -0.24036772908E+02  0.24036772908E+02  0.00000000000E+00 0.  1.
         25    2    1    2    0    0 -0.21669686214E+02 -0.68686657644E+02  0.29705793833E+03  0.33027047933E+03  0.12509092116E+03 0.  0.
         23    2    1    2    0    0  0.21669686214E+02  0.68686657644E+02  0.44686915851E+03  0.46173016332E+03  0.91188083946E+02 0.  0.
          5    1    3    3  502    0 -0.38179150610E+02 -0.15435793209E+02  0.25981961995E+03  0.26309621541E+03  0.41800000000E+01 0. -1.
         -5    1    3    3    0  502  0.16509464396E+02 -0.53250864435E+02  0.37238318380E+02  0.67174263922E+02  0.41800000000E+01 0. -1.
        -11    1    4    4    0    0 -0.24175194133E+02  0.63481154291E+01  0.37201736901E+02  0.44818610078E+02  0.00000000000E+00 0.  1.
         11    1    4    4    0    0  0.45844880347E+02  0.62338542215E+02  0.40966742161E+03  0.41691155324E+03  0.00000000000E+00 0. -1.
</event>
<event>
 8    1  0.6684013E-009  0.1184582E+03  0.7561462E-02  0.1245662E+00
         -1   -1    0    0    0  501 -0.00000000000E+00  0.00000000000E+00  0.43622106631E+03  0.43622106631E+03  0.00000000000E+00 0.  1.
          1   -1    0    0  501    0  0.00000000000E+00 -0.00000000000E+00 -0.43120408508E+02  0.43120408508E+02  0.00000000000E+00 0. -1.
         25    2    1    2    0    0  0.50700729246E+02  0.64106535642E+02  0.17905871856E+03  0.23320601712E+03  0.12507121919E+03 0.  0.
         23    2    1    2    0    0 -0.50700729246E+02 -0.64106535642E+02  0.21404193924E+03  0.24613545770E+03  0.89936088002E+02 0.  0.
          5    1    3    3  502    0  0.48362027549E+02  0.99852384491E+02  0.11605576126E+03  0.16061069864E+03  0.41800000000E+01 0.  1.
         -5    1    3    3    0  502  0.23387016968E+01 -0.35745848849E+02  0.63002957303E+02  0.72595318475E+02  0.41800000000E+01 0.  1.
        -11    1    4    4    0    0 -0.51379078959E+02 -0.38485298924E+02  0.21073155544E+03  0.22029234314E+03  0.00000000000E+00 0.  1.
         11    1    4    4    0    0  0.67834971351E+00 -0.25621236718E+02  0.33103838012E+01  0.25843114561E+02  0.00000000000E+00 0. -1.
</event>
<event>
 8    1  0.6684013E-009  0.1131151E+03  0.7561462E-02  0.1254908E+00
         -1   -1    0    0    0  501 -0.00000000000E+00  0.00000000000E+00  0.13816013270E+03  0.13816013270E+03  0.00000000000E+00 0.  1.
          1   -1    0    0  501    0  0.00000000000E+00 -0.00000000000E+00 -0.10961772708E+03  0.10961772708E+03  0.00000000000E+00 0. -1.
         25    2    1    2    0    0  0.32254805221E+02  0.49234980612E+02  0.13390749923E+02  0.13889750636E+03  0.12509496119E+03 0.  0.
         23    2    1    2    0    0 -0.32254805221E+02 -0.49234980612E+02  0.15151655696E+02  0.10888035342E+03  0.90337715909E+02 0.  0.
          5    1    3    3  502    0  0.52253820360E+02 -0.27162391392E+02  0.27663524027E+01  0.59104842051E+02  0.41800000000E+01 0. -1.
         -5    1    3    3    0  502 -0.19999015138E+02  0.76397372003E+02  0.10624397520E+02  0.79792664313E+02  0.41800000000E+01 0. -1.
        -11    1    4    4    0    0  0.20345832333E+02 -0.16046882598E+02 -0.24056593767E+02  0.35357814385E+02  0.00000000000E+00 0. -1.
         11    1    4    4    0    0 -0.52600637554E+02 -0.33188098014E+02  0.39208249462E+02  0.73522539039E+02  0.00000000000E+00 0.  1.
</event>
<event>
 8    1  0.6684013E-009  0.1010466E+03  0.7561462E-02  0.1278110E+00
         -1   -1    0    0    0  501 -0.00000000000E+00  0.00000000000E+00  0.10084803541E+03  0.10084803541E+03  0.00000000000E+00 0.  1.
          1   -1    0    0  501    0  0.00000000000E+00 -0.00000000000E+00 -0.41964685098E+03  0.41964685098E+03  0.00000000000E+00 0. -1.
         25    2    1    2    0    0 -0.24991326097E+02 -0.78696103460E+02 -0.35566617173E+03  0.38595857968E+03  0.12509179204E+03 0.  0.
         23    2    1    2    0    0  0.24991326097E+02  0.78696103460E+02  0.36867356157E+02  0.13453630671E+03  0.99615123312E+02 0.  0.
          5    1    3    3  502    0 -0.16088534583E+02 -0.84610649838E+02 -0.10880197870E+03  0.13882775652E+03  0.41800000000E+01 0.  1.
         -5    1    3    3    0  502 -0.89027915137E+01  0.59145463782E+01 -0.24686419303E+03  0.24713082316E+03  0.41800000000E+01 0.  1.
        -11    1    4    4    0    0  0.79640388171E+01  0.85632872101E+02  0.60090806689E+02  0.10491577454E+03  0.00000000000E+00 0.  1.
         11    1    4    4    0    0  0.17027287280E+02 -0.69367686415E+01 -0.23223450532E+02  0.29620532168E+02  0.00000000000E+00 0. -1.
</event>
<event>
 8    1  0.6684013E-009  0.2945382E+03  0.7561462E-02  0.1088003E+00
          1   -1    0    0  501    0  0.00000000000E+00  0.00000000000E+00  0.78873616050E+03  0.78873616050E+03  0.00000000000E+00 0.  1.
         -1   -1    0    0    0  501 -0.00000000000E+00 -0.00000000000E+00 -0.19098355923E+03  0.19098355923E+03  0.00000000000E+00 0. -1.
         25    2    1    2    0    0  0.26438766220E+03 -0.91931437414E+02  0.61330518160E+03  0.68566989792E+03  0.12509091907E+03 0.  0.
         23    2    1    2    0    0 -0.26438766220E+03  0.91931437414E+02 -0.15552580326E+02  0.29404982181E+03  0.88719726352E+02 0.  0.
          5    1    3    3  502    0  0.26485280790E+03 -0.66306223744E+02  0.50287397866E+03  0.57222656000E+03  0.41800000000E+01 0.  1.
         -5    1    3    3    0  502 -0.46514569850E+00 -0.25625213670E+02  0.11043120293E+03  0.11344333792E+03  0.41800000000E+01 0.  1.
        -11    1    4    4    0    0 -0.17845456825E+03  0.98557028747E+02 -0.31849485134E+02  0.20633446282E+03  0.00000000000E+00 0. -1.
         11    1    4    4    0    0 -0.85933093946E+02 -0.66255913337E+01  0.16296904808E+02  0.87715358985E+02  0.00000000000E+00 0.  1.
</event>
<event>
 8    1  0.6684013E-009  0.1169869E+03  0.7561462E-02  0.1248152E+00
         -1   -1    0    0    0  501 -0.00000000000E+00  0.00000000000E+00  0.47354507969E+03  0.47354507969E+03  0.00000000000E+00 0.  1.
          1   -1    0    0  501    0  0.00000000000E+00 -0.00000000000E+00 -0.40166915286E+02  0.40166915286E+02  0.00000000000E+00 0. -1.
         25    2    1    2    0    0  0.38419323244E+01 -0.75948657530E+02  0.30862805685E+03  0.34158497386E+03  0.12508420309E+03 0.  0.
         23    2    1    2    0    0 -0.38419323244E+01  0.75948657530E+02  0.12475010755E+03  0.17212702112E+03  0.91006390110E+02 0.  0.
          5    1    3    3  502    0  0.17467233022E+02  0.32311416194E+02  0.86522010112E+02  0.94088588467E+02  0.41800000000E+01 0.  1.
         -5    1    3    3    0  502 -0.13625300698E+02 -0.10826007372E+03  0.22210604674E+03  0.24749638539E+03  0.41800000000E+01 0.  1.
        -11    1    4    4    0    0  0.19927804409E+02  0.40416126444E+02  0.12111091140E+03  0.12922241882E+03  0.00000000000E+00 0.  1.
         11    1    4    4    0    0 -0.23769736734E+02  0.35532531087E+02  0.36391961489E+01  0.42904602299E+02  0.00000000000E+00 0. -1.
</event>
<event>
 8    1  0.6684013E-009  0.8923302E+02  0.7561462E-02  0.1304720E+00
         -1   -1    0    0    0  501 -0.00000000000E+00  0.00000000000E+00  0.11002154487E+03  0.11002154487E+03  0.00000000000E+00 0.  1.
          1   -1    0    0  501    0  0.00000000000E+00 -0.00000000000E+00 -0.16216871139E+03  0.16216871139E+03  0.00000000000E+00 0. -1.
         25    2    1    2    0    0  0.45540276224E+01  0.76844819190E+02 -0.40766361398E+02  0.15244647583E+03  0.12510861828E+03 0.  0.
         23    2    1    2    0    0 -0.45540276224E+01 -0.76844819190E+02 -0.11380805120E+02  0.11974378043E+03  0.91012003721E+02 0.  0.
          5    1    3    3  502    0  0.22468587592E+02  0.49226419782E+01  0.37742436904E+02  0.44396326153E+02  0.41800000000E+01 0.  1.
         -5    1    3    3    0  502 -0.17914559969E+02  0.71922177212E+02 -0.78508798303E+02  0.10805014967E+03  0.41800000000E+01 0.  1.
        -11    1    4    4    0    0  0.99087980791E+01 -0.41380078492E+02  0.38138960095E+02  0.57140838745E+02  0.00000000000E+00 0.  1.
         11    1    4    4    0    0 -0.14462825702E+02 -0.35464740698E+02 -0.49519765215E+02  0.62602941680E+02  0.00000000000E+00 0. -1.
</event>
<event>
 8    1  0.6684013E-009  0.2261102E+03  0.7561462E-02  0.1129408E+00
         -1   -1    0    0    0  501 -0.00000000000E+00  0.00000000000E+00  0.76414140549E+02  0.76414140549E+02  0.00000000000E+00 0.  1.
          1   -1    0    0  501    0  0.00000000000E+00 -0.00000000000E+00 -0.83325835122E+03  0.83325835122E+03  0.00000000000E+00 0. -1.
         25    2    1    2    0    0 -0.17520507394E+03 -0.12260390607E+03 -0.52870230503E+03  0.58387147899E+03  0.12510491965E+03 0.  0.
         23    2    1    2    0    0  0.17520507394E+03  0.12260390607E+03 -0.22814190565E+03  0.32580101278E+03  0.91482430559E+02 0.  0.
          5    1    3    3  502    0 -0.46897922888E+02 -0.63687695329E+02 -0.33441170595E+03  0.34366291506E+03  0.41800000000E+01 0.  1.
         -5    1    3    3    0  502 -0.12830715105E+03 -0.58916210743E+02 -0.19429059908E+03  0.24020856394E+03  0.41800000000E+01 0.  1.
        -11    1    4    4    0    0  0.92740471386E+02  0.11566817162E+02 -0.10556103543E+03  0.14098836297E+03  0.00000000000E+00 0. -1.
         11    1    4    4    0    0  0.82464602550E+02  0.11103708891E+03 -0.12258087022E+03  0.18481264981E+03  0.00000000000E+00 0.  1.
</event>
<event>
 8    1  0.6684013E-009  0.1011217E+03  0.7561462E-02  0.1277955E+00
          1   -1    0    0  501    0  0.00000000000E+00  0.00000000000E+00  0.33018982854E+03  0.33018982854E+03  0.00000000000E+00 0. -1.
         -1   -1    0    0    0  501 -0.00000000000E+00 -0.00000000000E+00 -0.37082266520E+02  0.37082266520E+02  0.00000000000E+00 0.  1.
         25    2    1    2    0    0  0.37283521848E+01  0.15436151737E+02  0.19688894510E+03  0.23380904853E+03  0.12509691875E+03 0.  0.
         23    2    1    2    0    0 -0.37283521848E+01 -0.15436151737E+02  0.96218616922E+02  0.13346304653E+03  0.91116338585E+02 0.  0.
          5    1    3    3  502    0 -0.20487330532E+02  0.57479140977E+02  0.49817740214E+02  0.78885119001E+02  0.41800000000E+01 0. -1.
         -5    1    3    3    0  502  0.24215682716E+02 -0.42042989240E+02  0.14707120488E+03  0.15492392953E+03  0.41800000000E+01 0. -1.
        -11    1    4    4    0    0 -0.46638055001E+02  0.40790791029E+00  0.45344187622E+02  0.65048980885E+02  0.00000000000E+00 0. -1.
         11    1    4    4    0    0  0.42909702816E+02 -0.15844059647E+02  0.50874429300E+02  0.68414065648E+02  0.00000000000E+00 0.  1.
</event>
<event>
 8    1  0.6684013E-009  0.1644653E+03  0.7561462E-02  0.1183746E+00
          2   -1    0    0  501    0  0.00000000000E+00  0.00000000000E+00  0.58978664555E+03  0.58978664555E+03  0.00000000000E+00 0. -1.
         -2   -1    0    0    0  501 -0.00000000000E+00 -0.00000000000E+00 -0.63537067399E+02  0.63537067399E+02  0.00000000000E+00 0.  1.
         25    2    1    2    0    0 -0.11685798605E+03  0.80783399855E+02  0.15960962516E+03  0.24759498220E+03  0.12508515568E+03 0.  0.
         23    2    1    2    0    0  0.11685798605E+03 -0.80783399855E+02  0.36663995300E+03  0.40572873075E+03  0.10004599557E+03 0.  0.
          5    1    3    3  502    0 -0.52020244278E+02  0.95274183109E+02  0.50532870400E+02  0.11980951203E+03  0.41800000000E+01 0. -1.
         -5    1    3    3    0  502 -0.64837741776E+02 -0.14490783254E+02  0.10907675476E+03  0.12778547017E+03  0.41800000000E+01 0. -1.
        -11    1    4    4    0    0  0.15239222179E+02 -0.42483185424E+02  0.36065030093E+02  0.57773188695E+02  0.00000000000E+00 0.  1.
         11    1    4    4    0    0  0.10161876387E+03 -0.38300214432E+02  0.33057492290E+03  0.34795554206E+03  0.00000000000E+00 0. -1.
</event>
<event>
 8    1  0.6684013E-009  0.1993939E+03  0.7561462E-02  0.1150251E+00
          2   -1    0    0  501    0  0.00000000000E+00  0.00000000000E+00  0.25666362067E+03  0.25666362067E+03  0.00000000000E+00 0. -1.
         -2   -1    0    0    0  501 -0.00000000000E+00 -0.00000000000E+00 -0.16456779175E+03  0.16456779175E+03  0.00000000000E+00 0.  1.
         25    2    1    2    0    0 -0.61592656368E+02  0.16262127136E+03  0.27542062465E+02  0.21597365334E+03  0.12508685190E+03 0.  0.
         23    2    1    2    0    0  0.61592656368E+02 -0.16262127136E+03  0.64553766454E+02  0.20525775908E+03  0.87887574099E+02 0.  0.
          5    1    3    3  502    0  0.34338877380E+02  0.54583980049E+02 -0.12863942270E+02  0.65890232875E+02  0.41800000000E+01 0.  1.
         -5    1    3    3    0  502 -0.95931533748E+02  0.10803729131E+03  0.40406004735E+02  0.15008342047E+03  0.41800000000E+01 0.  1.
        -11    1    4    4    0    0  0.55777085626E+02 -0.44485178192E+02  0.18106790538E+01  0.71367309872E+02  0.00000000000E+00 0.  1.
         11    1    4    4    0    0  0.58155707419E+01 -0.11813609317E+03  0.62743087400E+02  0.13389044920E+03  0.00000000000E+00 0. -1.
</event>
<event>
 8    1  0.6684013E-009  0.1068097E+03  0.7561462E-02  0.1266594E+00
          2   -1    0    0  501    0  0.00000000000E+00  0.00000000000E+00  0.73264632919E+02  0.73264632919E+02  0.00000000000E+00 0.  1.
         -2   -1    0    0    0  501 -0.00000000000E+00 -0.00000000000E+00 -0.23144973235E+03  0.23144973235E+03  0.00000000000E+00 0. -1.
         25    2    1    2    0    0 -0.44504975809E+02 -0.61726925888E+01 -0.15331996018E+03  0.20290971957E+03  0.12508616671E+03 0.  0.
         23    2    1    2    0    0  0.44504975809E+02  0.61726925888E+01 -0.48651392517E+01  0.10180464569E+03  0.91223469015E+02 0.  0.
          5    1    3    3  502    0 -0.68194419805E+02 -0.33251566193E+02 -0.14791206373E+03  0.16628769210E+03  0.41800000000E+01 0. -1.
         -5    1    3    3    0  502  0.23689443996E+02  0.27078873604E+02 -0.54078964502E+01  0.36622027477E+02  0.41800000000E+01 0. -1.
        -11    1    4    4    0    0 -0.26323184182E+02  0.14576582010E+02  0.19627373844E+01  0.30153591935E+02  0.00000000000E+00 0.  1.
         11    1    4    4    0    0  0.70828159991E+02 -0.84038894208E+01 -0.68278766362E+01  0.71651053757E+02  0.00000000000E+00 0. -1.
</event>
<event>
 8    1  0.6684013E-009  0.2591655E+03  0.7561462E-02  0.1107646E+00
          1   -1    0    0  501    0  0.00000000000E+00  0.00000000000E+00  0.64820784987E+03  0.64820784987E+03  0.00000000000E+00 0. -1.
         -1   -1    0    0    0  501 -0.00000000000E+00 -0.00000000000E+00 -0.14604682502E+03  0.14604682502E+03  0.00000000000E+00 0.  1.
         25    2    1    2    0    0  0.20129345234E+03 -0.12815857326E+03  0.46349683802E+03  0.53611646451E+03  0.12509144980E+03 0.  0.
         23    2    1    2    0    0 -0.20129345234E+03  0.12815857326E+03  0.38664186829E+02  0.25813821038E+03  0.90535862857E+02 0.  0.
          5    1    3    3  502    0  0.21811920287E+03 -0.12322159629E+03  0.42038985697E+03  0.48939212570E+03  0.41800000000E+01 0. -1.
         -5    1    3    3    0  502 -0.16825750529E+02 -0.49369769660E+01  0.43106981046E+02  0.46724338811E+02  0.41800000000E+01 0. -1.
        -11    1    4    4    0    0 -0.73124293532E+02  0.71328046104E+01 -0.12625921625E+02  0.74548327299E+02  0.00000000000E+00 0.  1.
         11    1    4    4    0    0 -0.12816915881E+03  0.12102576865E+03  0.51290108454E+02  0.18358988309E+03  0.00000000000E+00 0. -1.
</event>
<event>
 8    1  0.6684013E-009  0.1045029E+03  0.7561462E-02  0.1271102E+00
          2   -1    0    0  501    0  0.00000000000E+00  0.00000000000E+00  0.11639027387E+03  0.11639027387E+03  0.00000000000E+00 0.  1.
         -2   -1    0    0    0  501 -0.00000000000E+00 -0.00000000000E+00 -0.13576776935E+03  0.13576776935E+03  0.00000000000E+00 0. -1.
         25    2    1    2    0    0  0.17572749105E+01 -0.14862235001E+02  0.51583390009E+02  0.13613468025E+03  0.12509129065E+03 0.  0.
         23    2    1    2    0    0 -0.17572749105E+01  0.14862235001E+02 -0.70960885491E+02  0.11602336298E+03  0.90564890785E+02 0.  0.
          5    1    3    3  502    0  0.42644367368E+02  0.34547977146E+02  0.22038204916E+01  0.55085697036E+02  0.41800000000E+01 0. -1.
         -5    1    3    3    0  502 -0.40887092458E+02 -0.49410212148E+02  0.49379569518E+02  0.81048983213E+02  0.41800000000E+01 0. -1.
        -11    1    4    4    0    0 -0.44655155672E+02  0.11915576307E+01 -0.23013850199E+02  0.50250771523E+02  0.00000000000E+00 0. -1.
         11    1    4    4    0    0  0.42897880761E+02  0.13670677371E+02 -0.47947035292E+02  0.65772591456E+02  0.00000000000E+00 0.  1.
</event>
<event>
 8    1  0.6684013E-009  0.9782280E+02  0.7561462E-02  0.1284942E+00
         -3   -1    0    0    0  501 -0.00000000000E+00  0.00000000000E+00  0.88850215900E+02  0.88850215900E+02  0.00000000000E+00 0.  1.
          3   -1    0    0  501    0  0.00000000000E+00 -0.00000000000E+00 -0.18311463154E+03  0.18311463154E+03  0.00000000000E+00 0. -1.
         25    2    1    2    0    0  0.25598005974E+02  0.45337208049E+02 -0.32278053035E+01  0.13553112882E+03  0.12509015872E+03 0.  0.
         23    2    1    2    0    0 -0.25598005974E+02 -0.45337208049E+02 -0.91036610340E+02  0.13643371862E+03  0.87268406718E+02 0.  0.
          5    1    3    3  502    0  0.72236236275E+02  0.48195094836E+02  0.79631327215E+01  0.87302490687E+02  0.41800000000E+01 0.  1.
         -5    1    3    3    0  502 -0.46638230301E+02 -0.28578867869E+01 -0.11190938025E+02  0.48228638136E+02  0.41800000000E+01 0.  1.
        -11    1    4    4    0    0 -0.28125769311E+02 -0.16018871828E+02 -0.10045125329E+03  0.10553727986E+03  0.00000000000E+00 0. -1.
         11    1    4    4    0    0  0.25277633371E+01 -0.29318336220E+02  0.94146429452E+01  0.30896438759E+02  0.00000000000E+00 0.  1.
</event>
<event>
 8    1  0.6684013E-009  0.1079142E+03  0.7561462E-02  0.1264482E+00
          1   -1    0    0  501    0  0.00000000000E+00  0.00000000000E+00  0.10494637144E+03  0.10494637144E+03  0.00000000000E+00 0.  1.
         -1   -1    0    0    0  501 -0.00000000000E+00 -0.00000000000E+00 -0.16508937897E+03  0.16508937897E+03  0.00000000000E+00 0. -1.
         25    2    1    2    0    0  0.35072460806E+01  0.72266711743E+02 -0.52181825077E+02  0.15361060507E+03  0.12505397523E+03 0.  0.
         23    2    1    2    0    0 -0.35072460806E+01 -0.72266711743E+02 -0.79611824522E+01  0.11642514535E+03  0.90866141339E+02 0.  0.
          5    1    3    3  502    0 -0.11808976634E+02 -0.20130020740E+02  0.23305862990E+02  0.33246132314E+02  0.41800000000E+01 0.  1.
         -5    1    3    3    0  502  0.15316222714E+02  0.92396732483E+02 -0.75487688068E+02  0.12036447275E+03  0.41800000000E+01 0.  1.
        -11    1    4    4    0    0  0.31544139332E+02 -0.37433421087E+02 -0.34922764818E+02  0.60132297836E+02  0.00000000000E+00 0. -1.
         11    1    4    4    0    0 -0.35051385413E+02 -0.34833290656E+02  0.26961582366E+02  0.56292847511E+02  0.00000000000E+00 0.  1.
</event>
<event>
 8    1  0.6684013E-009  0.2406037E+03  0.7561462E-02  0.1119391E+00
         -1   -1    0    0    0  501 -0.00000000000E+00  0.00000000000E+00  0.10364363331E+03  0.10364363331E+03  0.00000000000E+00 0.  1.
          1   -1    0    0  501    0  0.00000000000E+00 -0.00000000000E+00 -0.61397017824E+03  0.61397017824E+03  0.00000000000E+00 0. -1.
         25    2    1    2    0    0  0.21800218767E+03  0.42886085051E+02 -0.33105142420E+03  0.41785985758E+03  0.12509054716E+03 0.  0.
         23    2    1    2    0    0 -0.21800218767E+03 -0.42886085051E+02 -0.17927512073E+03  0.29975395397E+03  0.91371187420E+02 0.  0.
          5    1    3    3  502    0 -0.80761694366E+00 -0.25115558708E+02 -0.39842061621E+02  0.47289595140E+02  0.41800000000E+01 0.  1.
         -5    1    3    3    0  502  0.21880980461E+03  0.68001643759E+02 -0.29120936258E+03  0.37057026243E+03  0.41800000000E+01 0.  1.
        -11    1    4    4    0    0 -0.52773946296E+02 -0.30303984175E+02 -0.78981195302E+01  0.61366123852E+02  0.00000000000E+00 0.  1.
         11    1    4    4    0    0 -0.16522824137E+03 -0.12582100877E+02 -0.17137700120E+03  0.23838783012E+03  0.00000000000E+00 0. -1.
</event>
<event>
 8    1  0.6684013E-009  0.1236203E+03  0.7561462E-02  0.1237241E+00
          1   -1    0    0  501    0  0.00000000000E+00  0.00000000000E+00  0.56530106509E+03  0.56530106509E+03  0.00000000000E+00 0. -1.
         -1   -1    0    0    0  501 -0.00000000000E+00 -0.00000000000E+00 -0.29570118308E+02  0.29570118308E+02  0.00000000000E+00 0.  1.
         25    2    1    2    0    0 -0.17113858071E+02  0.67303309852E+02  0.26773367417E+03  0.30356041686E+03  0.12507992145E+03 0.  0.
         23    2    1    2    0    0  0.17113858071E+02 -0.67303309852E+02  0.26799727261E+03  0.29131076653E+03  0.90646593500E+02 0.  0.
          5    1    3    3  502    0 -0.51203073308E+02 -0.63736677447E+01  0.16274943169E+03  0.17078415697E+03  0.41800000000E+01 0.  1.
         -5    1    3    3    0  502  0.34089215237E+02  0.73676977597E+02  0.10498424248E+03  0.13277625990E+03  0.41800000000E+01 0.  1.
        -11    1    4    4    0    0  0.47744813354E+02 -0.68538411031E+02  0.19476986783E+03  0.21192541708E+03  0.00000000000E+00 0.  1.
         11    1    4    4    0    0 -0.30630955283E+02  0.12351011787E+01  0.73227404784E+02  0.79385349453E+02  0.00000000000E+00 0. -1.
</event>
<event>
 8    1  0.6684013E-009  0.2937312E+03  0.7561462E-02  0.1088417E+00
         -2   -1    0    0    0  501 -0.00000000000E+00  0.00000000000E+00  0.13185314790E+03  0.13185314790E+03  0.00000000000E+00 0.  1.
          2   -1    0    0  501    0  0.00000000000E+00 -0.00000000000E+00 -0.73289274578E+03  0.73289274578E+03  0.00000000000E+00 0. -1.
         25    2    1    2    0    0  0.17055598058E+03  0.23030899974E+03 -0.37607039534E+03  0.48908841485E+03  0.12508779885E+03 0.  0.
         23    2    1    2    0    0 -0.17055598058E+03 -0.23030899974E+03 -0.22496920254E+03  0.37565747883E+03  0.91519513965E+02 0.  0.
          5    1    3    3  502    0  0.12184838411E+03  0.12482683184E+03 -0.30901833675E+03  0.35487824885E+03  0.41800000000E+01 0.  1.
         -5    1    3    3    0  502  0.48707596463E+02  0.10548216790E+03 -0.67052058590E+02  0.13421016601E+03  0.41800000000E+01 0.  1.
        -11    1    4    4    0    0 -0.12131308459E+03 -0.21184893805E+03 -0.15919634704E+03  0.29144521605E+03  0.00000000000E+00 0.  1.
         11    1    4    4    0    0 -0.49242895985E+02 -0.18460061694E+02 -0.65772855494E+02  0.84212262781E+02  0.00000000000E+00 0. -1.
</event>
<event>
 8    1  0.6684013E-009  0.9803368E+02  0.7561462E-02  0.1284486E+00
         -3   -1    0    0    0  501 -0.00000000000E+00  0.00000000000E+00  0.80204000739E+02  0.80204000739E+02  0.00000000000E+00 0.  1.
          3   -1    0    0  501    0  0.00000000000E+00 -0.00000000000E+00 -0.23402759390E+03  0.23402759390E+03  0.00000000000E+00 0. -1.
         25    2    1    2    0    0  0.46177486599E+01  0.44790333974E+02 -0.16318039990E+03  0.21048123879E+03  0.12508801443E+03 0.  0.
         23    2    1    2    0    0 -0.46177486599E+01 -0.44790333974E+02  0.93568067373E+01  0.10375035584E+03  0.93000477877E+02 0.  0.
          5    1    3    3  502    0 -0.22189525517E+02  0.67823450954E+02 -0.39267383826E+02  0.81558539556E+02  0.41800000000E+01 0.  1.
         -5    1    3    3    0  502  0.26807274177E+02 -0.23033116980E+02 -0.12391301607E+03  0.12892269924E+03  0.41800000000E+01 0.  1.
        -11    1    4    4    0    0 -0.38890251045E+02 -0.99939349825E+01  0.30605402364E+02  0.50487830382E+02  0.00000000000E+00 0. -1.
         11    1    4    4    0    0  0.34272502386E+02 -0.34796398991E+02 -0.21248595627E+02  0.53262525463E+02  0.00000000000E+00 0.  1.
</event>
<event>
 8    1  0.6684013E-009  0.1028192E+03  0.7561462E-02  0.1274477E+00
          2   -1    0    0  501    0  0.00000000000E+00  0.00000000000E+00  0.31848430655E+03  0.31848430655E+03  0.00000000000E+00 0.  1.
         -2   -1    0    0    0  501 -0.00000000000E+00 -0.00000000000E+00 -0.48886980548E+02  0.48886980548E+02  0.00000000000E+00 0. -1.
         25    2    1    2    0    0  0.33144748403E+02  0.14724687918E+02  0.76138874586E+02  0.15086425248E+03  0.12508998230E+03 0.  0.
         23    2    1    2    0    0 -0.33144748403E+02 -0.14724687918E+02  0.19345845142E+03  0.21650703462E+03  0.90187209924E+02 0.  0.
          5    1    3    3  502    0 -0.47761637169E+02  0.38071717059E+00  0.26710625753E+02  0.54883958119E+02  0.41800000000E+01 0.  1.
         -5    1    3    3    0  502  0.80906385572E+02  0.14343970747E+02  0.49428248832E+02  0.95980294361E+02  0.41800000000E+01 0.  1.
        -11    1    4    4    0    0 -0.44858344649E+02  0.11832530734E+02  0.17733654465E+03  0.18330447331E+03  0.00000000000E+00 0.  1.
         11    1    4    4    0    0  0.11713596246E+02 -0.26557218652E+02  0.16121906770E+02  0.33202561308E+02  0.00000000000E+00 0. -1.
</event>
<event>
 8    1  0.6684013E-009  0.1130278E+03  0.7561462E-02  0.1255063E+00
          1   -1    0    0  501    0  0.00000000000E+00  0.00000000000E+00  0.55959508975E+03  0.55959508975E+03  0.00000000000E+00 0. -1.
         -1   -1    0    0    0  501 -0.00000000000E+00 -0.00000000000E+00 -0.29248813006E+02  0.29248813006E+02  0.00000000000E+00 0.  1.
         25    2    1    2    0    0 -0.57420247177E+02  0.31768868830E+02  0.35735943043E+03  0.38426492188E+03  0.12508965528E+03 0.  0.
         23    2    1    2    0    0  0.57420247177E+02 -0.31768868830E+02  0.17298684631E+03  0.20457898087E+03  0.87302718205E+02 0.  0.
          5    1    3    3  502    0  0.63430571406E+01  0.61453187064E+02  0.23547828001E+03  0.24348351347E+03  0.41800000000E+01 0. -1.
         -5    1    3    3    0  502 -0.63763304318E+02 -0.29684318235E+02  0.12188115042E+03  0.14078140841E+03  0.41800000000E+01 0. -1.
        -11    1    4    4    0    0 -0.12089493742E+02 -0.19718796816E+02  0.10165925427E+03  0.10425732964E+03  0.00000000000E+00 0. -1.
         11    1    4    4    0    0  0.69509740919E+02 -0.12050072013E+02  0.71327592041E+02  0.10032165122E+03  0.00000000000E+00 0.  1.
</event>
<event>
 8    1  0.6684013E-009  0.1296039E+03  0.7561462E-02  0.1228045E+00
          2   -1    0    0  501    0  0.00000000000E+00  0.00000000000E+00  0.25046020169E+03  0.25046020169E+03  0.00000000000E+00 0. -1.
         -2   -1    0    0    0  501 -0.00000000000E+00 -0.00000000000E+00 -0.88444800451E+02  0.88444800451E+02  0.00000000000E+00 0.  1.
         25    2    1    2    0    0 -0.72138304006E+02  0.58717084712E+02  0.54853894963E+02  0.16525154506E+03  0.12508993729E+03 0.  0.
         23    2    1    2    0    0  0.72138304006E+02 -0.58717084712E+02  0.10716150628E+03  0.17365345708E+03  0.10010146745E+03 0.  0.
          5    1    3    3  502    0 -0.93435036032E+02  0.76789725595E+02  0.62209064455E+02  0.13606692477E+03  0.41800000000E+01 0.  1.
         -5    1    3    3    0  502  0.21296732026E+02 -0.18072640883E+02 -0.73551694927E+01  0.29184620294E+02  0.41800000000E+01 0.  1.
        -11    1    4    4    0    0  0.46242882986E+02 -0.68179009487E+02  0.11809868533E+03  0.14399333678E+03  0.00000000000E+00 0. -1.
         11    1    4    4    0    0  0.25895421020E+02  0.94619247751E+01 -0.10937179053E+02  0.29660120295E+02  0.00000000000E+00 0.  1.
</event>
<event>
 8    1  0.6684013E-009  0.1376995E+03  0.7561462E-02  0.1216458E+00
         -2   -1    0    0    0  501 -0.00000000000E+00  0.00000000000E+00  0.51642407307E+02  0.51642407307E+02  0.00000000000E+00 0.  1.
          2   -1    0    0  501    0  0.00000000000E+00 -0.00000000000E+00 -0.45622228704E+03  0.45622228704E+03  0.00000000000E+00 0. -1.
         25    2    1    2    0    0 -0.68761813153E+02  0.80029487866E+02 -0.25711741094E+03  0.30477836032E+03  0.12509028752E+03 0.  0.
         23    2    1    2    0    0  0.68761813153E+02 -0.80029487866E+02 -0.14746246879E+03  0.20308633403E+03  0.91465695705E+02 0.  0.
          5    1    3    3  502    0  0.30026238688E+02  0.43792624807E+02 -0.53229783556E+02  0.75301070741E+02  0.41800000000E+01 0.  1.
         -5    1    3    3    0  502 -0.98788051841E+02  0.36236863059E+02 -0.20388762738E+03  0.22947728957E+03  0.41800000000E+01 0.  1.
        -11    1    4    4    0    0  0.35280320066E+02 -0.62788942357E+01 -0.10640987647E+03  0.11228173185E+03  0.00000000000E+00 0.  1.
         11    1    4    4    0    0  0.33481493087E+02 -0.73750593630E+02 -0.41052592317E+02  0.90804602174E+02  0.00000000000E+00 0. -1.
</event>
<event>
 8    1  0.6684013E-009  0.7281796E+02  0.7561462E-02  0.1350764E+00
          2   -1    0    0  501    0  0.00000000000E+00  0.00000000000E+00  0.13600556896E+04  0.13600556896E+04  0.00000000000E+00 0. -1.
         -2   -1    0    0    0  501 -0.00000000000E+00 -0.00000000000E+00 -0.13231598364E+02  0.13231598364E+02  0.00000000000E+00 0.  1.
         25    2    1    2    0    0  0.28816261785E+02 -0.27477044797E+02  0.10777885954E+04  0.10857537574E+04  0.12509036906E+03 0.  0.
         23    2    1    2    0    0 -0.28816261785E+02  0.27477044797E+02  0.26903549576E+03  0.28753353047E+03  0.93327746323E+02 0.  0.
          5    1    3    3  502    0  0.38542282440E+02 -0.21660224971E+02  0.10709556404E+04  0.10718759858E+04  0.41800000000E+01 0.  1.
         -5    1    3    3    0  502 -0.97260206546E+01 -0.58168198264E+01  0.68329550268E+01  0.13877771617E+02  0.41800000000E+01 0.  1.
        -11    1    4    4    0    0 -0.56217704047E+02  0.25335797122E+02  0.23897363507E+03  0.24680099498E+03  0.00000000000E+00 0. -1.
         11    1    4    4    0    0  0.27401442262E+02  0.21412476751E+01  0.30061860688E+02  0.40732535492E+02  0.00000000000E+00 0.  1.
</event>
<event>
 7    1  0.6684013E-009  0.1051943E+03  0.7561462E-02  0.1269737E+00
          2   -1    0    0  501    0  0.00000000000E+00  0.00000000000E+00  0.80937319085E+03  0.80937319085E+03  0.00000000000E+00 0.  1.
         -2   -1    0    0    0  501 -0.00000000000E+00 -0.00000000000E+00 -0.22082063665E+02  0.22082063665E+02  0.00000000000E+00 0. -1.
         23    2    1    2    0    0 -0.12921388817E+02  0.53015725797E+02  0.18047190425E+03  0.20945722644E+03  0.91239202178E+02 0.  0.
          5    1    1    2  502    0 -0.11915991040E+02 -0.89977593136E+02  0.44025643606E+03  0.44953438133E+03  0.41800000000E+01 0.  1.
         -5    1    1    2    0  502  0.24837379857E+02  0.36961867339E+02  0.16656278688E+03  0.17246364675E+03  0.41800000000E+01 0.  1.
        -11    1    3    3    0    0 -0.31667232862E+02  0.21993248822E+02  0.16601642132E+03  0.17043464665E+03  0.00000000000E+00 0.  1.
         11    1    3    3    0    0  0.18745844045E+02  0.31022476975E+02  0.14455482925E+02  0.39022579787E+02  0.00000000000E+00 0. -1.
</event>
<event>
 8    1  0.6684013E-009  0.1504019E+03  0.7561462E-02  0.1199980E+00
         -1   -1    0    0    0  501 -0.00000000000E+00  0.00000000000E+00  0.69307960421E+02  0.69307960421E+02  0.00000000000E+00 0.  1.
          1   -1    0    0  501    0  0.00000000000E+00 -0.00000000000E+00 -0.52953299811E+03  0.52953299811E+03  0.00000000000E+00 0. -1.
         25    2    1    2    0    0 -0.97289097547E+02  0.68267104001E+02 -0.83804959497E+02  0.19182362275E+03  0.12508982779E+03 0.  0.
         23    2    1    2    0    0  0.97289097547E+02 -0.68267104001E+02 -0.37642007819E+03  0.40701733578E+03  0.99224343653E+02 0.  0.
          5    1    3    3  502    0 -0.99982877164E+02  0.25460049295E+02 -0.10191094605E+03  0.14507964420E+03  0.41800000000E+01 0.  1.
         -5    1    3    3    0  502  0.26937796170E+01  0.42807054706E+02  0.18105986554E+02  0.46743978547E+02  0.41800000000E+01 0.  1.
        -11    1    4    4    0    0  0.35776393080E+02  0.24343294690E+02 -0.11858672420E+03  0.12623532570E+03  0.00000000000E+00 0.  1.
         11    1    4    4    0    0  0.61512704466E+02 -0.92610398691E+02 -0.25783335399E+03  0.28078201009E+03  0.00000000000E+00 0. -1.
</event>
<event>
 8    1  0.6684013E-009  0.1377343E+03  0.7561462E-02  0.1216411E+00
         -2   -1    0    0    0  501 -0.00000000000E+00  0.00000000000E+00  0.27254299111E+03  0.27254299111E+03  0.00000000000E+00 0.  1.
          2   -1    0    0  501    0  0.00000000000E+00 -0.00000000000E+00 -0.12747297666E+03  0.12747297666E+03  0.00000000000E+00 0. -1.
         25    2    1    2    0    0 -0.41377942944E+02 -0.11353016251E+03  0.17162766759E+03  0.24434565002E+03  0.12509000136E+03 0.  0.
         23    2    1    2    0    0  0.41377942944E+02  0.11353016251E+03 -0.26557653140E+02  0.15567031775E+03  0.94481251723E+02 0.  0.
          5    1    3    3  502    0 -0.51000321714E+02 -0.34505197460E+02  0.78736112012E+01  0.62218225786E+02  0.41800000000E+01 0. -1.
         -5    1    3    3    0  502  0.96223787699E+01 -0.79024965048E+02  0.16375405639E+03  0.18212742423E+03  0.41800000000E+01 0. -1.
        -11    1    4    4    0    0  0.50014700084E+02  0.52939212823E+02 -0.51898047500E+02  0.89428394893E+02  0.00000000000E+00 0. -1.
         11    1    4    4    0    0 -0.86367571405E+01  0.60590949685E+02  0.25340394360E+02  0.66241922858E+02  0.00000000000E+00 0.  1.
</event>
<event>
 8    1  0.6684013E-009  0.1699640E+03  0.7561462E-02  0.1177885E+00
          2   -1    0    0  501    0  0.00000000000E+00  0.00000000000E+00  0.26812552647E+03  0.26812552647E+03  0.00000000000E+00 0. -1.
         -2   -1    0    0    0  501 -0.00000000000E+00 -0.00000000000E+00 -0.11192703781E+03  0.11192703781E+03  0.00000000000E+00 0.  1.
         25    2    1    2    0    0  0.12733682325E+03  0.45441396891E+02  0.82577234735E+02  0.20185426500E+03  0.12508620026E+03 0.  0.
         23    2    1    2    0    0 -0.12733682325E+03 -0.45441396891E+02  0.73621253926E+02  0.17819829928E+03  0.89749416325E+02 0.  0.
          5    1    3    3  502    0  0.90968213486E+02 -0.30151156551E+02  0.22331032715E+02  0.98490890585E+02  0.41800000000E+01 0. -1.
         -5    1    3    3    0  502  0.36368609763E+02  0.75592553442E+02  0.60246202020E+02  0.10336337441E+03  0.41800000000E+01 0. -1.
        -11    1    4    4    0    0 -0.55493352593E+02 -0.65085043663E+02  0.24474160149E+02  0.88963810651E+02  0.00000000000E+00 0. -1.
         11    1    4    4    0    0 -0.71843470656E+02  0.19643646771E+02  0.49147093778E+02  0.89234488631E+02  0.00000000000E+00 0.  1.
</event>
<event>
 8    1  0.6684013E-009  0.1037141E+03  0.7561462E-02  0.1272674E+00
         -2   -1    0    0    0  501 -0.00000000000E+00  0.00000000000E+00  0.45137284995E+02  0.45137284995E+02  0.00000000000E+00 0.  1.
          2   -1    0    0  501    0  0.00000000000E+00 -0.00000000000E+00 -0.30063576119E+03  0.30063576119E+03  0.00000000000E+00 0. -1.
         25    2    1    2    0    0 -0.20417044800E+02  0.34750274176E+02 -0.16624932204E+03  0.21192242400E+03  0.12509132440E+03 0.  0.
         23    2    1    2    0    0  0.20417044800E+02 -0.34750274176E+02 -0.89249154151E+02  0.13385062219E+03  0.91247686377E+02 0.  0.
          5    1    3    3  502    0 -0.45072198313E+02 -0.27141303797E+02 -0.11888234451E+03  0.13007166359E+03  0.41800000000E+01 0.  1.
         -5    1    3    3    0  502  0.24655153513E+02  0.61891577973E+02 -0.47366977530E+02  0.81850760407E+02  0.41800000000E+01 0.  1.
        -11    1    4    4    0    0  0.47355249171E+02 -0.47751205374E+01 -0.79060550800E+02  0.92281591301E+02  0.00000000000E+00 0. -1.
         11    1    4    4    0    0 -0.26938204371E+02 -0.29975153639E+02 -0.10188603350E+02  0.41569030884E+02  0.00000000000E+00 0.  1.
</event>
<event>
 8    1  0.6684013E-009  0.6750784E+02  0.7561462E-02  0.1368779E+00
          1   -1    0    0  501    0  0.00000000000E+00  0.00000000000E+00  0.36731784916E+03  0.36731784916E+03  0.00000000000E+00 0.  1.
         -1   -1    0    0    0  501 -0.00000000000E+00 -0.00000000000E+00 -0.38035721108E+02  0.38035721108E+02  0.00000000000E+00 0. -1.
         25    2    1    2    0    0 -0.11297827401E+02  0.37607997461E+02  0.14387618769E+03  0.19465579303E+03  0.12509403662E+03 0.  0.
         23    2    1    2    0    0  0.11297827401E+02 -0.37607997461E+02  0.18540594037E+03  0.21069777724E+03  0.92066216583E+02 0.  0.
          5    1    3    3  502    0 -0.33002339809E+01  0.10832250635E+02 -0.22694872854E+02  0.25705230052E+02  0.41800000000E+01 0. -1.
         -5    1    3    3    0  502 -0.79975934205E+01  0.26775746826E+02  0.16657106055E+03  0.16895056298E+03  0.41800000000E+01 0. -1.
        -11    1    4    4    0    0 -0.37615056698E+02 -0.20713236167E+02  0.50978337016E+02  0.66653743239E+02  0.00000000000E+00 0. -1.
         11    1    4    4    0    0  0.48912884100E+02 -0.16894761295E+02  0.13442760335E+03  0.14404403400E+03  0.00000000000E+00 0.  1.
</event>
<event>
 8    1  0.6684013E-009  0.1760063E+03  0.7561462E-02  0.1171725E+00
          1   -1    0    0  501    0  0.00000000000E+00  0.00000000000E+00  0.47961024587E+03  0.47961024587E+03  0.00000000000E+00 0. -1.
         -1   -1    0    0    0  501 -0.00000000000E+00 -0.00000000000E+00 -0.74905751718E+02  0.74905751718E+02  0.00000000000E+00 0.  1.
         25    2    1    2    0    0 -0.12803684733E+03  0.73020773983E+02  0.13972110458E+03  0.23852770495E+03  0.12509201116E+03 0.  0.
         23    2    1    2    0    0  0.12803684733E+03 -0.73020773983E+02  0.26498338958E+03  0.31598829265E+03  0.88920957214E+02 0.  0.
          5    1    3    3  502    0 -0.42943406370E+02  0.95675871374E+02  0.81470639788E+02  0.13286438974E+03  0.41800000000E+01 0.  1.
         -5    1    3    3    0  502 -0.85093440956E+02 -0.22655097391E+02  0.58250464790E+02  0.10566331520E+03  0.41800000000E+01 0.  1.
        -11    1    4    4    0    0  0.84814767555E+02 -0.78207624120E+02  0.12831109537E+03  0.17255061420E+03  0.00000000000E+00 0.  1.
         11    1    4    4    0    0  0.43222079771E+02  0.51868501371E+01  0.13667229421E+03  0.14343767845E+03  0.00000000000E+00 0. -1.
</event>
<event>
 8    1  0.6684013E-009  0.1041106E+03  0.7561462E-02  0.1271882E+00
         -1   -1    0    0    0  501 -0.00000000000E+00  0.00000000000E+00  0.39359774945E+02  0.39359774945E+02  0.00000000000E+00 0.  1.
          1   -1    0    0  501    0  0.00000000000E+00 -0.00000000000E+00 -0.53614341032E+03  0.53614341032E+03  0.00000000000E+00 0. -1.
         25    2    1    2    0    0 -0.77407007412E+02 -0.15235286478E+02 -0.15818786516E+03  0.21655358898E+03  0.12509235574E+03 0.  0.
         23    2    1    2    0    0  0.77407007412E+02  0.15235286478E+02 -0.33859577021E+03  0.35894959629E+03  0.89295903147E+02 0.  0.
          5    1    3    3  502    0 -0.93991247368E+01  0.16287901715E+02 -0.13727519513E+03  0.13862031196E+03  0.41800000000E+01 0. -1.
         -5    1    3    3    0  502 -0.68007882675E+02 -0.31523188193E+02 -0.20912670032E+02  0.77933277024E+02  0.41800000000E+01 0. -1.
        -11    1    4    4    0    0 -0.17224502893E+02  0.79492903301E+01 -0.25488486067E+02  0.31773222038E+02  0.00000000000E+00 0.  1.
         11    1    4    4    0    0  0.94631510305E+02  0.72859961478E+01 -0.31310728414E+03  0.32717637425E+03  0.00000000000E+00 0. -1.
</event>
<event>
 8    1  0.6684013E-009  0.1726113E+03  0.7561462E-02  0.1175152E+00
          1   -1    0    0  501    0  0.00000000000E+00  0.00000000000E+00  0.10651613299E+04  0.10651613299E+04  0.00000000000E+00 0. -1.
         -1   -1    0    0    0  501 -0.00000000000E+00 -0.00000000000E+00 -0.45535544338E+02  0.45535544338E+02  0.00000000000E+00 0.  1.
         25    2    1    2    0    0 -0.40278703267E+02 -0.16308872864E+03  0.29511508006E+03  0.36188533117E+03  0.12509106717E+03 0.  0.
         23    2    1    2    0    0  0.40278703267E+02  0.16308872864E+03  0.72451070550E+03  0.74881154307E+03  0.87078454882E+02 0.  0.
          5    1    3    3  502    0 -0.30917298128E+02 -0.51356036679E+02  0.17705611141E+02  0.62644097031E+02  0.41800000000E+01 0. -1.
         -5    1    3    3    0  502 -0.93614051392E+01 -0.11173269196E+03  0.27740946892E+03  0.29924123414E+03  0.41800000000E+01 0. -1.
        -11    1    4    4    0    0  0.13254705383E+02  0.12778805364E+03  0.64542014599E+03  0.65808254704E+03  0.00000000000E+00 0. -1.
         11    1    4    4    0    0  0.27023997884E+02  0.35300675006E+02  0.79090559515E+02  0.90728996037E+02  0.00000000000E+00 0.  1.
</event>
<event>
 8    1  0.6684013E-009  0.1144472E+03  0.7561462E-02  0.1252549E+00
         -1   -1    0    0    0  501 -0.00000000000E+00  0.00000000000E+00  0.12400251938E+03  0.12400251938E+03  0.00000000000E+00 0.  1.
          1   -1    0    0  501    0  0.00000000000E+00 -0.00000000000E+00 -0.14878284792E+03  0.14878284792E+03  0.00000000000E+00 0. -1.
         25    2    1    2    0    0  0.40853570639E+02 -0.46241497913E+02 -0.62843301017E+02  0.15298223195E+03  0.12508793885E+03 0.  0.
         23    2    1    2    0    0 -0.40853570639E+02  0.46241497913E+02  0.38062972469E+02  0.11980313535E+03  0.95376679560E+02 0.  0.
          5    1    3    3  502    0 -0.32513026325E+02 -0.50713505023E+02 -0.49675031990E+02  0.78192312127E+02  0.41800000000E+01 0.  1.
         -5    1    3    3    0  502  0.73366596964E+02  0.44720071100E+01 -0.13168269028E+02  0.74789919821E+02  0.41800000000E+01 0.  1.
        -11    1    4    4    0    0 -0.41561729381E+02 -0.65641181908E+01 -0.15256247166E+02  0.44757324254E+02  0.00000000000E+00 0. -1.
         11    1    4    4    0    0  0.70815874288E+00  0.52805616104E+02  0.53319219634E+02  0.75045811098E+02  0.00000000000E+00 0.  1.
</event>
<event>
 7    1  0.6684013E-009  0.2011520E+03  0.7561462E-02  0.1148771E+00
          1   -1    0    0  501    0  0.00000000000E+00  0.00000000000E+00  0.44695408437E+03  0.44695408437E+03  0.00000000000E+00 0. -1.
         -1   -1    0    0    0  501 -0.00000000000E+00 -0.00000000000E+00 -0.10814340477E+03  0.10814340477E+03  0.00000000000E+00 0.  1.
         23    2    1    2    0    0  0.10962255945E+03  0.15685886304E+03  0.15765561803E+03  0.26344272673E+03  0.89022288878E+02 0.  0.
          5    1    1    2  502    0 -0.40293856300E+02 -0.59174434870E+02  0.15234840952E+03  0.16838265612E+03  0.41800000000E+01 0. -1.
         -5    1    1    2    0  502 -0.69328703148E+02 -0.97684428172E+02  0.28806652053E+02  0.12327210629E+03  0.41800000000E+01 0. -1.
        -11    1    3    3    0    0  0.27933211836E+02  0.11615008153E+03  0.82059139192E+02  0.14493035599E+03  0.00000000000E+00 0. -1.
         11    1    3    3    0    0  0.81689347612E+02  0.40708781508E+02  0.75596478834E+02  0.11851237074E+03  0.00000000000E+00 0.  1.
</event>
<event>
 7    1  0.6684013E-009  0.1223170E+03  0.7561462E-02  0.1239323E+00
          1   -1    0    0  501    0  0.00000000000E+00  0.00000000000E+00  0.65793294684E+02  0.65793294684E+02  0.00000000000E+00 0. -1.
         -1   -1    0    0    0  501 -0.00000000000E+00 -0.00000000000E+00 -0.31806262651E+03  0.31806262651E+03  0.00000000000E+00 0.  1.
         23    2    1    2    0    0  0.25988799516E+02 -0.90329134541E+02 -0.96007326834E+02  0.16255937030E+03  0.91506129947E+02 0.  0.
          5    1    1    2  502    0 -0.60804381001E+02  0.70836383540E+02 -0.15520198624E+03  0.18116317207E+03  0.41800000000E+01 0. -1.
         -5    1    1    2    0  502  0.34815581486E+02  0.19492751002E+02 -0.10600187450E+01  0.40133378820E+02  0.41800000000E+01 0. -1.
        -11    1    3    3    0    0  0.44719841621E+02 -0.72649470803E+02 -0.27919410229E+02  0.89762482754E+02  0.00000000000E+00 0. -1.
         11    1    3    3    0    0 -0.18731042105E+02 -0.17679663738E+02 -0.68087916605E+02  0.72796887543E+02  0.00000000000E+00 0.  1.
</event>
<event>
 8    1  0.6684013E-009  0.9535950E+02  0.7561462E-02  0.1290368E+00
          2   -1    0    0  501    0  0.00000000000E+00  0.00000000000E+00  0.66767521377E+02  0.66767521377E+02  0.00000000000E+00 0. -1.
         -2   -1    0    0    0  501 -0.00000000000E+00 -0.00000000000E+00 -0.22469090985E+03  0.22469090985E+03  0.00000000000E+00 0.  1.
         25    2    1    2    0    0  0.50045103243E+02  0.30185786522E+02 -0.87262136883E+02  0.16333571902E+03  0.12509269566E+03 0.  0.
         23    2    1    2    0    0 -0.50045103243E+02 -0.30185786522E+02 -0.70661251588E+02  0.12812271221E+03  0.89480293032E+02 0.  0.
          5    1    3    3  502    0 -0.14360966872E+02  0.89282039783E+01 -0.93489841315E+02  0.95098754066E+02  0.41800000000E+01 0.  1.
         -5    1    3    3    0  502  0.64406070114E+02  0.21257582543E+02  0.62277044323E+01  0.68236964950E+02  0.41800000000E+01 0.  1.
        -11    1    4    4    0    0  0.61328262574E+01 -0.46457688259E+02 -0.42271703434E+02  0.63109628960E+02  0.00000000000E+00 0.  1.
         11    1    4    4    0    0 -0.56177929500E+02  0.16271901737E+02 -0.28389548154E+02  0.65013083248E+02  0.00000000000E+00 0. -1.
</event>
<event>
 8    1  0.6684013E-009  0.1070524E+03  0.7561462E-02  0.1266128E+00
         -1   -1    0    0    0  501 -0.00000000000E+00  0.00000000000E+00  0.11898843777E+03  0.11898843777E+03  0.00000000000E+00 0.  1.
          1   -1    0    0  501    0  0.00000000000E+00 -0.00000000000E+00 -0.12566699053E+03  0.12566699053E+03  0.00000000000E+00 0. -1.
         25    2    1    2    0    0 -0.36304706657E+02  0.51574627214E+02  0.42402557258E+01  0.14014966116E+03  0.12508386729E+03 0.  0.
         23    2    1    2    0    0  0.36304706657E+02 -0.51574627214E+02 -0.10918808484E+02  0.10450576714E+03  0.82609085991E+02 0.  0.
          5    1    3    3  502    0  0.11070603021E+02 -0.25422693223E+02 -0.32101267297E+02  0.42624351538E+02  0.41800000000E+01 0.  1.
         -5    1    3    3    0  502 -0.47375309678E+02  0.76997320437E+02  0.36341523022E+02  0.97525309624E+02  0.41800000000E+01 0.  1.
        -11    1    4    4    0    0  0.31373950639E+02 -0.69882166718E+02  0.88536754905E+01  0.77111799185E+02  0.00000000000E+00 0.  1.
         11    1    4    4    0    0  0.49307560176E+01  0.18307539504E+02 -0.19772483974E+02  0.27393967951E+02  0.00000000000E+00 0. -1.
</event>
<event>
 8    1  0.6684013E-009  0.1888425E+03  0.7561462E-02  0.1159509E+00
         -2   -1    0    0    0  501 -0.00000000000E+00  0.00000000000E+00  0.16950392313E+02  0.16950392313E+02  0.00000000000E+00 0.  1.
          2   -1    0    0  501    0  0.00000000000E+00 -0.00000000000E+00 -0.27949484002E+04  0.27949484002E+04  0.00000000000E+00 0. -1.
         25    2    1    2    0    0 -0.43019860507E+01  0.16867720634E+03 -0.20233996135E+04  0.20342725804E+04  0.12509367718E+03 0.  0.
         23    2    1    2    0    0  0.43019860507E+01 -0.16867720634E+03 -0.75459839435E+03  0.77762621217E+03  0.82542607591E+02 0.  0.
          5    1    3    3  502    0 -0.37475790204E+02  0.15071457180E+03 -0.18619964651E+04  0.18684666509E+04  0.41800000000E+01 0. -1.
         -5    1    3    3    0  502  0.33173804154E+02  0.17962634540E+02 -0.16140314847E+03  0.16580592950E+03  0.41800000000E+01 0. -1.
        -11    1    4    4    0    0 -0.34978270813E+02 -0.73213223125E+02 -0.25986886354E+03  0.27224158703E+03  0.00000000000E+00 0.  1.
         11    1    4    4    0    0  0.39280256864E+02 -0.95463983217E+02 -0.49472953081E+03  0.50538462514E+03  0.00000000000E+00 0. -1.
</event>
<event>
 8    1  0.6684013E-009  0.1276875E+03  0.7561462E-02  0.1230928E+00
         -2   -1    0    0    0  501 -0.00000000000E+00  0.00000000000E+00  0.28310553872E+03  0.28310553872E+03  0.00000000000E+00 0.  1.
          2   -1    0    0  501    0  0.00000000000E+00 -0.00000000000E+00 -0.84400405387E+02  0.84400405387E+02  0.00000000000E+00 0. -1.
         25    2    1    2    0    0 -0.33939225555E+02 -0.92484808504E+02  0.16308816199E+03  0.22792992141E+03  0.12509592183E+03 0.  0.
         23    2    1    2    0    0  0.33939225555E+02  0.92484808504E+02  0.35616971343E+02  0.13957602269E+03  0.92236579666E+02 0.  0.
          5    1    3    3  502    0 -0.42995038030E+01  0.19439606114E+02 -0.75306719425E+01  0.21692566440E+02  0.41800000000E+01 0. -1.
         -5    1    3    3    0  502 -0.29639721752E+02 -0.11192441462E+03  0.17061883393E+03  0.20623735497E+03  0.41800000000E+01 0. -1.
        -11    1    4    4    0    0  0.10276979981E+02  0.94839234300E+02 -0.16036864047E+01  0.95407905805E+02  0.00000000000E+00 0. -1.
         11    1    4    4    0    0  0.23662245574E+02 -0.23544257962E+01  0.37220657747E+02  0.44168116890E+02  0.00000000000E+00 0.  1.
</event>
<event>
 7    1  0.6684013E-009  0.1091098E+03  0.7561462E-02  0.1262227E+00
          4   -1    0    0  501    0  0.00000000000E+00  0.00000000000E+00  0.18232954697E+03  0.18232954697E+03  0.00000000000E+00 0.  1.
         -4   -1    0    0    0  501 -0.00000000000E+00 -0.00000000000E+00 -0.84760201198E+02  0.84760201198E+02  0.00000000000E+00 0. -1.
         23    2    1    2    0    0 -0.42066297478E+02  0.43858236749E+02  0.48075256206E+02  0.11958316690E+03  0.91081201311E+02 0.  0.
          5    1    1    2  502    0 -0.28996364899E+02 -0.16653111255E+02 -0.24206252991E+02  0.41491328922E+02  0.41800000000E+01 0. -1.
         -5    1    1    2    0  502  0.71062662377E+02 -0.27205125494E+02  0.73700342557E+02  0.10601525235E+03  0.41800000000E+01 0. -1.
        -11    1    3    3    0    0  0.19854280151E+02  0.41896155167E+02  0.29316329524E+02  0.54853691169E+02  0.00000000000E+00 0.  1.
         11    1    3    3    0    0 -0.61920577629E+02  0.19620815820E+01  0.18758926681E+02  0.64729475730E+02  0.00000000000E+00 0. -1.
</event>
<event>
 8    1  0.6684013E-009  0.1162083E+03  0.7561462E-02  0.1249487E+00
         -1   -1    0    0    0  501 -0.00000000000E+00  0.00000000000E+00  0.21108728140E+03  0.21108728140E+03  0.00000000000E+00 0.  1.
          1   -1    0    0  501    0  0.00000000000E+00 -0.00000000000E+00 -0.75691291241E+02  0.75691291241E+02  0.00000000000E+00 0. -1.
         25    2    1    2    0    0 -0.31246845516E+02 -0.53628360206E+02  0.70048948582E+02  0.15622634922E+03  0.12508977025E+03 0.  0.
         23    2    1    2    0    0  0.31246845516E+02  0.53628360206E+02  0.65347041580E+02  0.13055222342E+03  0.94452532120E+02 0.  0.
          5    1    3    3  502    0 -0.44556294045E+02 -0.82413050426E+02  0.79424216626E+02  0.12289366463E+03  0.41800000000E+01 0.  1.
         -5    1    3    3    0  502  0.13309448529E+02  0.28784690220E+02 -0.93752680445E+01  0.33332684592E+02  0.41800000000E+01 0.  1.
        -11    1    4    4    0    0  0.70498677256E+00  0.71340245628E+02  0.22026077939E+02  0.74666429954E+02  0.00000000000E+00 0. -1.
         11    1    4    4    0    0  0.30541858743E+02 -0.17711885422E+02  0.43320963642E+02  0.55885793468E+02  0.00000000000E+00 0.  1.
</event>
<event>
 8    1  0.6684013E-009  0.8336015E+02  0.7561462E-02  0.1319777E+00
          1   -1    0    0  501    0  0.00000000000E+00  0.00000000000E+00  0.27219601962E+03  0.27219601962E+03  0.00000000000E+00 0.  1.
         -1   -1    0    0    0  501 -0.00000000000E+00 -0.00000000000E+00 -0.43823512163E+02  0.43823512163E+02  0.00000000000E+00 0. -1.
         25    2    1    2    0    0 -0.29046579651E+01  0.13107721623E+02  0.14153316482E+03  0.18936644198E+03  0.12509101967E+03 0.  0.
         23    2    1    2    0    0  0.29046579651E+01 -0.13107721623E+02  0.86839342634E+02  0.12665308980E+03  0.91212303569E+02 0.  0.
          5    1    3    3  502    0 -0.37543721253E+02 -0.10667224331E+02 -0.24415217693E+01  0.39328794910E+02  0.41800000000E+01 0. -1.
         -5    1    3    3    0  502  0.34639063288E+02  0.23774945954E+02  0.14397468659E+03  0.15003764707E+03  0.41800000000E+01 0. -1.
        -11    1    4    4    0    0  0.26562672977E+02 -0.40887420653E+02  0.72666457978E+02  0.87508690302E+02  0.00000000000E+00 0.  1.
         11    1    4    4    0    0 -0.23658015012E+02  0.27779699030E+02  0.14172884656E+02  0.39144399497E+02  0.00000000000E+00 0. -1.
</event>
<event>
 7    1  0.6684013E-009  0.1120130E+03  0.7561462E-02  0.1256887E+00
         -2   -1    0    0    0  501 -0.00000000000E+00  0.00000000000E+00  0.67455215608E+02  0.67455215608E+02  0.00000000000E+00 0.  1.
          2   -1    0    0  501    0  0.00000000000E+00 -0.00000000000E+00 -0.41868500418E+03  0.41868500418E+03  0.00000000000E+00 0. -1.
         25    2    1    2    0    0 -0.19058182305E+02  0.82410557432E+02 -0.35703793561E+03  0.38765840661E+03  0.12509291932E+03 0.  0.
          5    1    3    3  502    0  0.37244482209E+02  0.20537602688E+02 -0.36015081980E+02  0.55888309236E+02  0.41800000000E+01 0. -1.
         -5    1    3    3    0  502 -0.56302664514E+02  0.61872954744E+02 -0.32102285363E+03  0.33177009738E+03  0.41800000000E+01 0. -1.
        -11    1    1    2    0    0  0.35603510674E+02 -0.57124850053E+02  0.97275146577E+01  0.68010903591E+02  0.00000000000E+00 0.  1.
         11    1    1    2    0    0 -0.16545328370E+02 -0.25285707379E+02 -0.39193676214E+01  0.30470909587E+02  0.00000000000E+00 0. -1.
</event>
<event>
 8    1  0.6684013E-009  0.1742543E+03  0.7561462E-02  0.1173483E+00
          2   -1    0    0  501    0  0.00000000000E+00  0.00000000000E+00  0.11360827605E+04  0.11360827605E+04  0.00000000000E+00 0. -1.
         -2   -1    0    0    0  501 -0.00000000000E+00 -0.00000000000E+00 -0.29890429373E+02  0.29890429373E+02  0.00000000000E+00 0.  1.
         25    2    1    2    0    0  0.15188965541E+02 -0.14722273616E+03  0.55582835456E+03  0.58863944801E+03  0.12508397701E+03 0.  0.
         23    2    1    2    0    0 -0.15188965541E+02  0.14722273616E+03  0.55036397655E+03  0.57733374184E+03  0.92241552858E+02 0.  0.
          5    1    3    3  502    0  0.17533345507E+02  0.15753867846E+02  0.31620472637E+02  0.39660172044E+02  0.41800000000E+01 0.  1.
         -5    1    3    3    0  502 -0.23443799659E+01 -0.16297660401E+03  0.52420788193E+03  0.54897927597E+03  0.41800000000E+01 0.  1.
        -11    1    4    4    0    0  0.17012992959E+02  0.11397092731E+03  0.27596159753E+03  0.29905453936E+03  0.00000000000E+00 0. -1.
         11    1    4    4    0    0 -0.32201958501E+02  0.33251808846E+02  0.27440237902E+03  0.27827920248E+03  0.00000000000E+00 0.  1.
</event>
<event>
 8    1  0.6684013E-009  0.1980687E+03  0.7561462E-02  0.1151379E+00
         -3   -1    0    0    0  501 -0.00000000000E+00  0.00000000000E+00  0.52795965841E+03  0.52795965841E+03  0.00000000000E+00 0.  1.
          3   -1    0    0  501    0  0.00000000000E+00 -0.00000000000E+00 -0.11714213810E+03  0.11714213810E+03  0.00000000000E+00 0. -1.
         25    2    1    2    0    0  0.11353171761E+01  0.17803248957E+03  0.37090254973E+02  0.22072704879E+03  0.12509151357E+03 0.  0.
         23    2    1    2    0    0 -0.11353171761E+01 -0.17803248957E+03  0.37372726534E+03  0.42437474773E+03  0.93407715756E+02 0.  0.
          5    1    3    3  502    0  0.35185470446E+02 -0.40120139027E+00  0.11366939876E+02  0.37213680484E+02  0.41800000000E+01 0.  1.
         -5    1    3    3    0  502 -0.34050153270E+02  0.17843369096E+03  0.25723315097E+02  0.18351336830E+03  0.41800000000E+01 0.  1.
        -11    1    4    4    0    0 -0.92379194278E+01 -0.61872098979E+02  0.23535612626E+03  0.24352823647E+03  0.00000000000E+00 0.  1.
         11    1    4    4    0    0  0.81026022517E+01 -0.11616039059E+03  0.13837113908E+03  0.18084651126E+03  0.00000000000E+00 0. -1.
</event>
<event>
 7    1  0.6684013E-009  0.1228866E+03  0.7561462E-02  0.1238410E+00
          2   -1    0    0  501    0  0.00000000000E+00  0.00000000000E+00  0.56442016825E+03  0.56442016825E+03  0.00000000000E+00 0. -1.
         -2   -1    0    0    0  501 -0.00000000000E+00 -0.00000000000E+00 -0.34831262340E+02  0.34831262340E+02  0.00000000000E+00 0.  1.
         23    2    1    2    0    0 -0.45359001995E+02 -0.74928802238E+02  0.20661288110E+03  0.24196864601E+03  0.90488554791E+02 0.  0.
          5    1    1    2  502    0  0.29253877483E+02 -0.22413726309E+02  0.17829173317E+03  0.18210870104E+03  0.41800000000E+01 0.  1.
         -5    1    1    2    0  502  0.16105124511E+02  0.97342528546E+02  0.14468429163E+03  0.17517408354E+03  0.41800000000E+01 0.  1.
        -11    1    3    3    0    0 -0.32630371464E+02  0.12891681357E+01  0.16158187197E+02  0.36434737680E+02  0.00000000000E+00 0.  1.
         11    1    3    3    0    0 -0.12728630531E+02 -0.76217970373E+02  0.19045469390E+03  0.20553390833E+03  0.00000000000E+00 0. -1.
</event>
<event>
 8    1  0.6684013E-009  0.1090183E+03  0.7561462E-02  0.1262399E+00
         -4   -1    0    0    0  501 -0.00000000000E+00  0.00000000000E+00  0.53558462949E+03  0.53558462949E+03  0.00000000000E+00 0.  1.
          4   -1    0    0  501    0  0.00000000000E+00 -0.00000000000E+00 -0.33299716933E+02  0.33299716933E+02  0.00000000000E+00 0. -1.
         25    2    1    2    0    0  0.24231823374E+02  0.76309604424E+02  0.25108636388E+03  0.29172340546E+03  0.12509135133E+03 0.  0.
         23    2    1    2    0    0 -0.24231823374E+02 -0.76309604424E+02  0.25119854868E+03  0.27716094096E+03  0.85481807097E+02 0.  0.
          5    1    3    3  502    0 -0.22063586909E+02  0.53448327103E+02  0.31237557801E+02  0.65854255404E+02  0.41800000000E+01 0.  1.
         -5    1    3    3    0  502  0.46295410283E+02  0.22861277321E+02  0.21984880608E+03  0.22586915006E+03  0.41800000000E+01 0.  1.
        -11    1    4    4    0    0 -0.93254280533E+01  0.13949437116E+02  0.10826278449E+02  0.19968943619E+02  0.00000000000E+00 0.  1.
         11    1    4    4    0    0 -0.14906395321E+02 -0.90259041540E+02  0.24037227023E+03  0.25719199734E+03  0.00000000000E+00 0. -1.
</event>
<event>
 8    1  0.6684013E-009  0.1931700E+03  0.7561462E-02  0.1155633E+00
          1   -1    0    0  501    0  0.00000000000E+00  0.00000000000E+00  0.33334692303E+04  0.33334692303E+04  0.00000000000E+00 0. -1.
         -1   -1    0    0    0  501 -0.00000000000E+00 -0.00000000000E+00 -0.13839101264E+02  0.13839101264E+02  0.00000000000E+00 0.  1.
         25    2    1    2    0    0  0.56901007937E+02  0.16117431768E+03  0.22899149615E+04  0.22996896734E+04  0.12508868044E+03 0.  0.
         23    2    1    2    0    0 -0.56901007937E+02 -0.16117431768E+03  0.10297151675E+04  0.10476186581E+04  0.89312043694E+02 0.  0.
          5    1    3    3  502    0  0.29612558871E+02  0.16909480052E+03  0.16023315470E+04  0.16115066907E+04  0.41800000000E+01 0.  1.
         -5    1    3    3    0  502  0.27288449065E+02 -0.79204828351E+01  0.68758341445E+03  0.68818298274E+03  0.41800000000E+01 0.  1.
        -11    1    4    4    0    0 -0.28698035311E+02 -0.15420025919E+03  0.94810820269E+03  0.96099451672E+03  0.00000000000E+00 0. -1.
         11    1    4    4    0    0 -0.28202972626E+02 -0.69740584950E+01  0.81606964838E+02  0.86624141363E+02  0.00000000000E+00 0.  1.
</event>
<event>
 8    1  0.6684013E-009  0.1196640E+03  0.7561462E-02  0.1243652E+00
         -2   -1    0    0    0  501 -0.00000000000E+00  0.00000000000E+00  0.51781219301E+02  0.51781219301E+02  0.00000000000E+00 0.  1.
          2   -1    0    0  501    0  0.00000000000E+00 -0.00000000000E+00 -0.37259073811E+03  0.37259073811E+03  0.00000000000E+00 0. -1.
         25    2    1    2    0    0  0.64706282199E+02  0.57225829862E+02 -0.17988951968E+03  0.23551788876E+03  0.12508692209E+03 0.  0.
         23    2    1    2    0    0 -0.64706282199E+02 -0.57225829862E+02 -0.14091999913E+03  0.18885406865E+03  0.91354882359E+02 0.  0.
          5    1    3    3  502    0  0.88150588593E+02  0.79729456421E+02 -0.14709480274E+03  0.18916042367E+03  0.41800000000E+01 0. -1.
         -5    1    3    3    0  502 -0.23444306394E+02 -0.22503626559E+02 -0.32794716939E+02  0.46357465092E+02  0.41800000000E+01 0. -1.
        -11    1    4    4    0    0 -0.35053741333E+02 -0.40589679115E+02 -0.11246983043E+02  0.54797641005E+02  0.00000000000E+00 0.  1.
         11    1    4    4    0    0 -0.29652540865E+02 -0.16636150747E+02 -0.12967301609E+03  0.13405642764E+03  0.00000000000E+00 0. -1.
</event>
<event>
 8    1  0.6684013E-009  0.1248941E+03  0.7561462E-02  0.1235235E+00
         -2   -1    0    0    0  501 -0.00000000000E+00  0.00000000000E+00  0.22397314277E+02  0.22397314277E+02  0.00000000000E+00 0.  1.
          2   -1    0    0  501    0  0.00000000000E+00 -0.00000000000E+00 -0.75413063143E+03  0.75413063143E+03  0.00000000000E+00 0. -1.
         25    2    1    2    0    0 -0.54640394449E+02  0.34531843748E+02 -0.49762154833E+03  0.51716854225E+03  0.12513222923E+03 0.  0.
         23    2    1    2    0    0  0.54640394449E+02 -0.34531843748E+02 -0.23411176882E+03  0.25935940346E+03  0.90999774301E+02 0.  0.
          5    1    3    3  502    0 -0.93947203167E+02  0.27912843879E+02 -0.30372839550E+03  0.31917646290E+03  0.41800000000E+01 0. -1.
         -5    1    3    3    0  502  0.39306808718E+02  0.66189998686E+01 -0.19389315283E+03  0.19799207935E+03  0.41800000000E+01 0. -1.
        -11    1    4    4    0    0  0.54175337263E+02  0.19501784561E+02 -0.12207455256E+03  0.13497215694E+03  0.00000000000E+00 0. -1.
         11    1    4    4    0    0  0.46505718591E+00 -0.54033628309E+02 -0.11203721627E+03  0.12438724652E+03  0.00000000000E+00 0.  1.
</event>
<event>
 8    1  0.6684013E-009  0.1070888E+03  0.7561462E-02  0.1266058E+00
          3   -1    0    0  501    0  0.00000000000E+00  0.00000000000E+00  0.58279569229E+03  0.58279569229E+03  0.00000000000E+00 0. -1.
         -3   -1    0    0    0  501 -0.00000000000E+00 -0.00000000000E+00 -0.20842700617E+02  0.20842700617E+02  0.00000000000E+00 0.  1.
         25    2    1    2    0    0 -0.99738526953E+01 -0.13746611329E+02  0.29056053852E+03  0.31679914585E+03  0.12509126751E+03 0.  0.
         23    2    1    2    0    0  0.99738526953E+01  0.13746611329E+02  0.27139245315E+03  0.28683924705E+03  0.91293170402E+02 0.  0.
          5    1    3    3  502    0 -0.49545651056E+02  0.35204088769E+02  0.11318401202E+03  0.12853868049E+03  0.41800000000E+01 0. -1.
         -5    1    3    3    0  502  0.39571798360E+02 -0.48950700098E+02  0.17737652650E+03  0.18826046537E+03  0.41800000000E+01 0. -1.
        -11    1    4    4    0    0 -0.12265838204E+02  0.47883147244E+02  0.11391369533E+03  0.12417558762E+03  0.00000000000E+00 0.  1.
         11    1    4    4    0    0  0.22239690900E+02 -0.34136535915E+02  0.15747875782E+03  0.16266365943E+03  0.00000000000E+00 0. -1.
</event>
<event>
 8    1  0.6684013E-009  0.1189967E+03  0.7561462E-02  0.1244761E+00
         -1   -1    0    0    0  501 -0.00000000000E+00  0.00000000000E+00  0.36489374676E+02  0.36489374676E+02  0.00000000000E+00 0.  1.
          1   -1    0    0  501    0  0.00000000000E+00 -0.00000000000E+00 -0.46131751807E+03  0.46131751807E+03  0.00000000000E+00 0. -1.
         25    2    1    2    0    0 -0.16693900745E+02 -0.58654765965E+02 -0.30329958108E+03  0.33370202269E+03  0.12508931278E+03 0.  0.
         23    2    1    2    0    0  0.16693900745E+02  0.58654765965E+02 -0.12152856231E+03  0.16410487005E+03  0.91881167957E+02 0.  0.
          5    1    3    3  502    0  0.16779988506E+02  0.31937973551E+02 -0.44515601586E+02  0.57451835074E+02  0.41800000000E+01 0.  1.
         -5    1    3    3    0  502 -0.33473889251E+02 -0.90592739516E+02 -0.25878397950E+03  0.27625018762E+03  0.41800000000E+01 0.  1.
        -11    1    4    4    0    0 -0.35050549217E+02  0.19448900997E+02 -0.23309018808E+02  0.46369290573E+02  0.00000000000E+00 0.  1.
         11    1    4    4    0    0  0.51744449962E+02  0.39205864968E+02 -0.98219543501E+02  0.11773557948E+03  0.00000000000E+00 0. -1.
</event>
<event>
 8    1  0.6684013E-009  0.1442372E+03  0.7561462E-02  0.1207739E+00
          3   -1    0    0  501    0  0.00000000000E+00  0.00000000000E+00  0.73739017633E+03  0.73739017633E+03  0.00000000000E+00 0. -1.
         -3   -1    0    0    0  501 -0.00000000000E+00 -0.00000000000E+00 -0.32201444903E+02  0.32201444903E+02  0.00000000000E+00 0.  1.
         25    2    1    2    0    0 -0.10031253869E+03  0.13341915856E+02  0.27776331894E+03  0.32100054576E+03  0.12509307291E+03 0.  0.
         23    2    1    2    0    0  0.10031253869E+03 -0.13341915856E+02  0.42742541249E+03  0.44859107548E+03  0.91109042475E+02 0.  0.
          5    1    3    3  502    0 -0.59028217518E+02 -0.54690675102E+02  0.12542267410E+03  0.14907622206E+03  0.41800000000E+01 0.  1.
         -5    1    3    3    0  502 -0.41284321170E+02  0.68032590959E+02  0.15234064484E+03  0.17192432370E+03  0.41800000000E+01 0.  1.
        -11    1    4    4    0    0  0.11388691544E+03 -0.10810579954E+02  0.41328932301E+03  0.42882999272E+03  0.00000000000E+00 0. -1.
         11    1    4    4    0    0 -0.13574376755E+02 -0.25313359026E+01  0.14136089478E+02  0.19761082750E+02  0.00000000000E+00 0.  1.
</event>
<event>
 8    1  0.6684013E-009  0.1220734E+03  0.7561462E-02  0.1239715E+00
          1   -1    0    0  501    0  0.00000000000E+00  0.00000000000E+00  0.17266302970E+04  0.17266302970E+04  0.00000000000E+00 0. -1.
         -1   -1    0    0    0  501 -0.00000000000E+00 -0.00000000000E+00 -0.16450004201E+02  0.16450004201E+02  0.00000000000E+00 0.  1.
         25    2    1    2    0    0  0.48861399261E+00  0.95387558399E+02  0.13528806687E+04  0.13619948369E+04  0.12507920268E+03 0.  0.
         23    2    1    2    0    0 -0.48861399261E+00 -0.95387558399E+02  0.35729962410E+03  0.38108546431E+03  0.92000460235E+02 0.  0.
          5    1    3    3  502    0  0.24637106769E+02  0.14916691065E+02  0.63256871043E+02  0.69630444753E+02  0.41800000000E+01 0. -1.
         -5    1    3    3    0  502 -0.24148492777E+02  0.80470867334E+02  0.12896237976E+04  0.12923643921E+04  0.41800000000E+01 0. -1.
        -11    1    4    4    0    0  0.44493551006E+02 -0.51838274718E+02  0.15673850997E+03  0.17097907274E+03  0.00000000000E+00 0. -1.
         11    1    4    4    0    0 -0.44982164999E+02 -0.43549283681E+02  0.20056111413E+03  0.21010639157E+03  0.00000000000E+00 0.  1.
</event>
<event>
 8    1  0.6684013E-009  0.1601950E+03  0.7561462E-02  0.1188477E+00
          2   -1    0    0  501    0  0.00000000000E+00  0.00000000000E+00  0.39917262133E+03  0.39917262133E+03  0.00000000000E+00 0. -1.
         -2   -1    0    0    0  501 -0.00000000000E+00 -0.00000000000E+00 -0.73726778499E+02  0.73726778499E+02  0.00000000000E+00 0.  1.
         25    2    1    2    0    0  0.26872629027E+02  0.12617041294E+03  0.20163376600E+03  0.27008312139E+03  0.12509038962E+03 0.  0.
         23    2    1    2    0    0 -0.26872629027E+02 -0.12617041294E+03  0.12381207683E+03  0.20281627844E+03  0.95728267177E+02 0.  0.
          5    1    3    3  502    0  0.55856757232E+02  0.39188192403E+02  0.28372831366E+02  0.74014739829E+02  0.41800000000E+01 0. -1.
         -5    1    3    3    0  502 -0.28984128205E+02  0.86982220541E+02  0.17326093463E+03  0.19606838156E+03  0.41800000000E+01 0. -1.
        -11    1    4    4    0    0 -0.34157823107E+02 -0.29006416372E+00  0.20777439442E+02  0.39981783432E+02  0.00000000000E+00 0.  1.
         11    1    4    4    0    0  0.72851940801E+01 -0.12588034878E+03  0.10303463739E+03  0.16283449501E+03  0.00000000000E+00 0. -1.
</event>
<event>
 8    1  0.6684013E-009  0.1162856E+03  0.7561462E-02  0.1249354E+00
         -1   -1    0    0    0  501 -0.00000000000E+00  0.00000000000E+00  0.22744329932E+03  0.22744329932E+03  0.00000000000E+00 0.  1.
          1   -1    0    0  501    0  0.00000000000E+00 -0.00000000000E+00 -0.62465039133E+02  0.62465039133E+02  0.00000000000E+00 0. -1.
         25    2    1    2    0    0 -0.29642432472E+02 -0.36167273534E+02  0.12320433544E+03  0.18169446108E+03  0.12508726329E+03 0.  0.
         23    2    1    2    0    0  0.29642432472E+02  0.36167273534E+02  0.41773924746E+02  0.10821387737E+03  0.88195447670E+02 0.  0.
          5    1    3    3  502    0  0.38427962068E+02 -0.50756193701E+02  0.58454133789E+02  0.86528940966E+02  0.41800000000E+01 0. -1.
         -5    1    3    3    0  502 -0.68070394540E+02  0.14588920167E+02  0.64750201648E+02  0.95165520111E+02  0.41800000000E+01 0. -1.
        -11    1    4    4    0    0  0.56116464116E+02  0.24614401796E+01  0.16893178688E+02  0.58655739010E+02  0.00000000000E+00 0.  1.
         11    1    4    4    0    0 -0.26474031644E+02  0.33705833354E+02  0.24880746058E+02  0.49558138363E+02  0.00000000000E+00 0. -1.
</event>
<event>
 8    1  0.6684013E-009  0.9867339E+02  0.7561462E-02  0.1283111E+00
         -2   -1    0    0    0  501 -0.00000000000E+00  0.00000000000E+00  0.64436996659E+03  0.64436996659E+03  0.00000000000E+00 0.  1.
          2   -1    0    0  501    0  0.00000000000E+00 -0.00000000000E+00 -0.36359322791E+02  0.36359322791E+02  0.00000000000E+00 0. -1.
         25    2    1    2    0    0  0.80126251302E+02  0.22395139951E+02  0.48040329490E+03  0.50334544538E+03  0.12509018024E+03 0.  0.
         23    2    1    2    0    0 -0.80126251302E+02 -0.22395139951E+02  0.12760734890E+03  0.17738384400E+03  0.90882529556E+02 0.  0.
          5    1    3    3  502    0  0.31345025827E+02 -0.27180036597E+02  0.37298410168E+03  0.37530771047E+03  0.41800000000E+01 0. -1.
         -5    1    3    3    0  502  0.48781225475E+02  0.49575176548E+02  0.10741919323E+03  0.12803773491E+03  0.41800000000E+01 0. -1.
        -11    1    4    4    0    0 -0.34180760675E+02  0.14424618098E+01  0.12034795728E+03  0.12511608976E+03  0.00000000000E+00 0.  1.
         11    1    4    4    0    0 -0.45945490627E+02 -0.23837601761E+02  0.72593916228E+01  0.52267754241E+02  0.00000000000E+00 0. -1.
</event>
<event>
 8    1  0.6684013E-009  0.1404523E+03  0.7561462E-02  0.1212722E+00
         -1   -1    0    0    0  501 -0.00000000000E+00  0.00000000000E+00  0.35197870719E+02  0.35197870719E+02  0.00000000000E+00 0.  1.
          1   -1    0    0  501    0  0.00000000000E+00 -0.00000000000E+00 -0.74536169048E+03  0.74536169048E+03  0.00000000000E+00 0. -1.
         25    2    1    2    0    0 -0.11896043055E+03 -0.14987315322E+02 -0.35400029625E+03  0.39413159573E+03  0.12508917361E+03 0.  0.
         23    2    1    2    0    0  0.11896043055E+03  0.14987315322E+02 -0.35616352351E+03  0.38642796547E+03  0.89988406791E+02 0.  0.
          5    1    3    3  502    0 -0.72033360591E+02 -0.57877357286E+02 -0.11942237096E+03  0.15105551499E+03  0.41800000000E+01 0.  1.
         -5    1    3    3    0  502 -0.46927069960E+02  0.42890041964E+02 -0.23457792529E+03  0.24307608074E+03  0.41800000000E+01 0.  1.
        -11    1    4    4    0    0  0.45017135847E+02 -0.10956557979E+02 -0.41653190028E+02  0.62302302703E+02  0.00000000000E+00 0.  1.
         11    1    4    4    0    0  0.73943294704E+02  0.25943873301E+02 -0.31451033349E+03  0.32412566277E+03  0.00000000000E+00 0. -1.
</event>
<event>
 8    1  0.6684013E-009  0.7046550E+02  0.7561462E-02  0.1358517E+00
          2   -1    0    0  501    0  0.00000000000E+00  0.00000000000E+00  0.26512966782E+02  0.26512966782E+02  0.00000000000E+00 0. -1.
         -2   -1    0    0    0  501 -0.00000000000E+00 -0.00000000000E+00 -0.44146011670E+03  0.44146011670E+03  0.00000000000E+00 0.  1.
         25    2    1    2    0    0 -0.18573650618E+02 -0.17230413279E+01 -0.24277805182E+03  0.27373936723E+03  0.12507641408E+03 0.  0.
         23    2    1    2    0    0  0.18573650618E+02  0.17230413279E+01 -0.17216909810E+03  0.19423371625E+03  0.87957880942E+02 0.  0.
          5    1    3    3  502    0  0.10531189364E+02  0.19656530129E+02  0.50628817181E+01  0.23246296424E+02  0.41800000000E+01 0. -1.
         -5    1    3    3    0  502 -0.29104839982E+02 -0.21379571457E+02 -0.24784093354E+03  0.25049307081E+03  0.41800000000E+01 0. -1.
        -11    1    4    4    0    0 -0.13273729944E+02  0.34027533842E+02 -0.38464467710E+02  0.53043192232E+02  0.00000000000E+00 0. -1.
         11    1    4    4    0    0  0.31847380562E+02 -0.32304492514E+02 -0.13370463039E+03  0.14119052402E+03  0.00000000000E+00 0.  1.
</event>
<event>
 8    1  0.6684013E-009  0.6305703E+02  0.7561462E-02  0.1385433E+00
         -2   -1    0    0    0  501 -0.00000000000E+00  0.00000000000E+00  0.76895495048E+02  0.76895495048E+02  0.00000000000E+00 0.  1.
          2   -1    0    0  501    0  0.00000000000E+00 -0.00000000000E+00 -0.18108967377E+03  0.18108967377E+03  0.00000000000E+00 0. -1.
         25    2    1    2    0    0  0.45443832923E+02  0.10602997200E+02 -0.56009109750E+02  0.14478109902E+03  0.12508789214E+03 0.  0.
         23    2    1    2    0    0 -0.45443832923E+02 -0.10602997200E+02 -0.48185068971E+02  0.11320406979E+03  0.91190981165E+02 0.  0.
          5    1    3    3  502    0  0.60600250059E+02  0.11893696857E+02 -0.88886504203E+02  0.10831497293E+03  0.41800000000E+01 0.  1.
         -5    1    3    3    0  502 -0.15156417136E+02 -0.12906996578E+01  0.32877394453E+02  0.36466126090E+02  0.41800000000E+01 0.  1.
        -11    1    4    4    0    0 -0.22420135330E+02 -0.11897176806E+02  0.25509840748E+02  0.35985514574E+02  0.00000000000E+00 0.  1.
         11    1    4    4    0    0 -0.23023697592E+02  0.12941796065E+01 -0.73694909719E+02  0.77218555220E+02  0.00000000000E+00 0. -1.
</event>
<event>
 8    1  0.6684013E-009  0.9965917E+02  0.7561462E-02  0.1281014E+00
         -1   -1    0    0    0  501 -0.00000000000E+00  0.00000000000E+00  0.40207019038E+02  0.40207019038E+02  0.00000000000E+00 0.  1.
          1   -1    0    0  501    0  0.00000000000E+00 -0.00000000000E+00 -0.34713637296E+03  0.34713637296E+03  0.00000000000E+00 0. -1.
         25    2    1    2    0    0  0.42070079479E+02 -0.12602365470E+02 -0.16974857094E+03  0.21538394184E+03  0.12508778462E+03 0.  0.
         23    2    1    2    0    0 -0.42070079479E+02  0.12602365470E+02 -0.13718078298E+03  0.17195945016E+03  0.93929623000E+02 0.  0.
          5    1    3    3  502    0 -0.11143759100E+02 -0.35590266503E+02 -0.16961581451E+01  0.37565939215E+02  0.41800000000E+01 0. -1.
         -5    1    3    3    0  502  0.53213838579E+02  0.22987901033E+02 -0.16805241279E+03  0.17781800262E+03  0.41800000000E+01 0. -1.
        -11    1    4    4    0    0 -0.68072176690E+02  0.27829006198E+02 -0.98673490874E+02  0.12306393715E+03  0.00000000000E+00 0.  1.
         11    1    4    4    0    0  0.26002097211E+02 -0.15226640727E+02 -0.38507292108E+02  0.48895513012E+02  0.00000000000E+00 0. -1.
</event>
<event>
 8    1  0.6684013E-009  0.1555546E+03  0.7561462E-02  0.1193809E+00
          2   -1    0    0  501    0  0.00000000000E+00  0.00000000000E+00  0.18715488445E+04  0.18715488445E+04  0.00000000000E+00 0. -1.
         -2   -1    0    0    0  501 -0.00000000000E+00 -0.00000000000E+00 -0.33179089718E+02  0.33179089718E+02  0.00000000000E+00 0.  1.
         25    2    1    2    0    0  0.84989469175E+02  0.11761594041E+03  0.15976426134E+04  0.16090886154E+04  0.12509009851E+03 0.  0.
         23    2    1    2    0    0 -0.84989469175E+02 -0.11761594041E+03  0.24072714145E+03  0.29563931888E+03  0.91631495301E+02 0.  0.
          5    1    3    3  502    0  0.62638037543E+02  0.20589414135E+02  0.10751004863E+04  0.10771285791E+04  0.41800000000E+01 0. -1.
         -5    1    3    3    0  502  0.22351431632E+02  0.97026526280E+02  0.52254212704E+03  0.53196003630E+03  0.41800000000E+01 0. -1.
        -11    1    4    4    0    0 -0.37261768452E+02 -0.44074334638E+02  0.17990467645E+03  0.18893564770E+03  0.00000000000E+00 0. -1.
         11    1    4    4    0    0 -0.47727700723E+02 -0.73541605777E+02  0.60822464995E+02  0.10670367119E+03  0.00000000000E+00 0.  1.
</event>
<event>
 8    1  0.6684013E-009  0.1097329E+03  0.7561462E-02  0.1261065E+00
         -2   -1    0    0    0  501 -0.00000000000E+00  0.00000000000E+00  0.21640702265E+03  0.21640702265E+03  0.00000000000E+00 0.  1.
          2   -1    0    0  501    0  0.00000000000E+00 -0.00000000000E+00 -0.57784793664E+02  0.57784793664E+02  0.00000000000E+00 0. -1.
         25    2    1    2    0    0  0.52187835426E+02  0.27086901843E+02  0.79908227876E+02  0.15966099689E+03  0.12509611756E+03 0.  0.
         23    2    1    2    0    0 -0.52187835426E+02 -0.27086901843E+02  0.78714001111E+02  0.11453081942E+03  0.58856980969E+02 0.  0.
          5    1    3    3  502    0  0.41015248546E+02  0.75907832837E+02  0.61919473776E+02  0.10628143456E+03  0.41800000000E+01 0. -1.
         -5    1    3    3    0  502  0.11172586879E+02 -0.48820930994E+02  0.17988754100E+02  0.53379562332E+02  0.41800000000E+01 0. -1.
        -11    1    4    4    0    0  0.95547062099E+01  0.74191242584E+01  0.15556561319E+02  0.19706405445E+02  0.00000000000E+00 0.  1.
         11    1    4    4    0    0 -0.61742541636E+02 -0.34506026101E+02  0.63157439792E+02  0.94824413977E+02  0.00000000000E+00 0. -1.
</event>
<event>
 8    1  0.6684013E-009  0.1186324E+03  0.7561462E-02  0.1245370E+00
          1   -1    0    0  501    0  0.00000000000E+00  0.00000000000E+00  0.43990085805E+03  0.43990085805E+03  0.00000000000E+00 0. -1.
         -1   -1    0    0    0  501 -0.00000000000E+00 -0.00000000000E+00 -0.46417697248E+02  0.46417697248E+02  0.00000000000E+00 0.  1.
         25    2    1    2    0    0 -0.64494738284E+01 -0.91016719077E+02  0.19564494142E+03  0.24949819520E+03  0.12508703946E+03 0.  0.
         23    2    1    2    0    0  0.64494738284E+01  0.91016719077E+02  0.19783821938E+03  0.23682036010E+03  0.92834708189E+02 0.  0.
          5    1    3    3  502    0  0.20274381931E+02 -0.72423859888E+02  0.30734773437E+02  0.81353332704E+02  0.41800000000E+01 0.  1.
         -5    1    3    3    0  502 -0.26723855760E+02 -0.18592859189E+02  0.16491016798E+03  0.16814486250E+03  0.41800000000E+01 0.  1.
        -11    1    4    4    0    0  0.48851639856E+02  0.54153254396E+02  0.12643411920E+03  0.14596110501E+03  0.00000000000E+00 0. -1.
         11    1    4    4    0    0 -0.42402166028E+02  0.36863464681E+02  0.71404100186E+02  0.90859255090E+02  0.00000000000E+00 0.  1.
</event>
<event>
 8    1  0.6684013E-009  0.7674657E+02  0.7561462E-02  0.1338546E+00
          1   -1    0    0  501    0  0.00000000000E+00  0.00000000000E+00  0.90528649560E+02  0.90528649560E+02  0.00000000000E+00 0. -1.
         -1   -1    0    0    0  501 -0.00000000000E+00 -0.00000000000E+00 -0.19265915793E+03  0.19265915793E+03  0.00000000000E+00 0.  1.
         25    2    1    2    0    0  0.62895255833E+02 -0.40600906596E+02 -0.62574951328E+02  0.15864327003E+03  0.12509122979E+03 0.  0.
         23    2    1    2    0    0 -0.62895255833E+02  0.40600906596E+02 -0.39555557041E+02  0.12454453746E+03  0.91337029160E+02 0.  0.
          5    1    3    3  502    0  0.37303523718E+02 -0.28398613267E+02 -0.10057717530E+03  0.11104627283E+03  0.41800000000E+01 0.  1.
         -5    1    3    3    0  502  0.25591732115E+02 -0.12202293329E+02  0.38002223977E+02  0.47596997199E+02  0.41800000000E+01 0.  1.
        -11    1    4    4    0    0 -0.41498806443E+02  0.37896758557E+02  0.21207813337E+02  0.60067350465E+02  0.00000000000E+00 0. -1.
         11    1    4    4    0    0 -0.21396449390E+02  0.27041480390E+01 -0.60763370379E+02  0.64477186996E+02  0.00000000000E+00 0.  1.
</event>
<event>
 8    1  0.6684013E-009  0.8773559E+02  0.7561462E-02  0.1308430E+00
         -2   -1    0    0    0  501 -0.00000000000E+00  0.00000000000E+00  0.43564227801E+02  0.43564227801E+02  0.00000000000E+00 0.  1.
          2   -1    0    0  501    0  0.00000000000E+00 -0.00000000000E+00 -0.27421547179E+03  0.27421547179E+03  0.00000000000E+00 0. -1.
         25    2    1    2    0    0 -0.20290656805E+02 -0.38721033907E+01 -0.13550624021E+03  0.18556457585E+03  0.12508223990E+03 0.  0.
         23    2    1    2    0    0  0.20290656805E+02  0.38721033907E+01 -0.95145003778E+02  0.13221512373E+03  0.89451457574E+02 0.  0.
          5    1    3    3  502    0  0.32975261070E+02 -0.14032432982E+02 -0.12508951910E+03  0.13018885208E+03  0.41800000000E+01 0. -1.
         -5    1    3    3    0  502 -0.53265917875E+02  0.10160329591E+02 -0.10416721108E+02  0.55375723771E+02  0.41800000000E+01 0. -1.
        -11    1    4    4    0    0 -0.16955335132E+02  0.33410843335E+02 -0.67560821367E+02  0.77254335966E+02  0.00000000000E+00 0.  1.
         11    1    4    4    0    0  0.37245991937E+02 -0.29538739944E+02 -0.27584182411E+02  0.54960787769E+02  0.00000000000E+00 0. -1.
</event>
<event>
 8    1  0.6684013E-009  0.1196766E+03  0.7561462E-02  0.1243631E+00
          3   -1    0    0  501    0  0.00000000000E+00  0.00000000000E+00  0.46677981707E+03  0.46677981707E+03  0.00000000000E+00 0. -1.
         -3   -1    0    0    0  501 -0.00000000000E+00 -0.00000000000E+00 -0.40712458248E+02  0.40712458248E+02  0.00000000000E+00 0.  1.
         25    2    1    2    0    0 -0.15518510895E+02 -0.81318223589E+02  0.25123754405E+03  0.29261108662E+03  0.12508983495E+03 0.  0.
         23    2    1    2    0    0  0.15518510895E+02  0.81318223589E+02  0.17482981478E+03  0.21488118870E+03  0.93568068548E+02 0.  0.
          5    1    3    3  502    0 -0.45953737402E+02 -0.64775379878E+02  0.63813312094E+02  0.10196669564E+03  0.41800000000E+01 0.  1.
         -5    1    3    3    0  502  0.30435226506E+02 -0.16542843711E+02  0.18742423195E+03  0.19064439098E+03  0.41800000000E+01 0.  1.
        -11    1    4    4    0    0  0.37228537128E+02  0.93073449135E+02  0.14084103043E+03  0.17287228454E+03  0.00000000000E+00 0.  1.
         11    1    4    4    0    0 -0.21710026232E+02 -0.11755225546E+02  0.33988784352E+02  0.42008904156E+02  0.00000000000E+00 0. -1.
</event>
<event>
 8    1  0.6684013E-009  0.9050260E+02  0.7561462E-02  0.1301639E+00
         -2   -1    0    0    0  501 -0.00000000000E+00  0.00000000000E+00  0.15754741703E+02  0.15754741703E+02  0.00000000000E+00 0. -1.
          2   -1    0    0  501    0  0.00000000000E+00 -0.00000000000E+00 -0.10163567201E+04  0.10163567201E+04  0.00000000000E+00 0.  1.
         25    2    1    2    0    0 -0.35885760731E+01  0.22435588216E+02 -0.80128967464E+03  0.81131310025E+03  0.12509024927E+03 0.  0.
         23    2    1    2    0    0  0.35885760731E+01 -0.22435588216E+02 -0.19931230371E+03  0.22079836151E+03  0.92251225116E+02 0.  0.
          5    1    3    3  502    0  0.39282570863E+02  0.18359649430E+02 -0.69759497751E+03  0.69895380545E+03  0.41800000000E+01 0. -1.
         -5    1    3    3    0  502 -0.42871146936E+02  0.40759387858E+01 -0.10369469713E+03  0.11235929480E+03  0.41800000000E+01 0. -1.
        -11    1    4    4    0    0  0.15282510517E-01  0.35815506388E+02 -0.90376384897E+02  0.97214410858E+02  0.00000000000E+00 0.  1.
         11    1    4    4    0    0  0.35732935626E+01 -0.58251094604E+02 -0.10893591882E+03  0.12358395065E+03  0.00000000000E+00 0. -1.
</event>
<event>
 8    1  0.6684013E-009  0.1140386E+03  0.7561462E-02  0.1253269E+00
         -3   -1    0    0    0  501 -0.00000000000E+00  0.00000000000E+00  0.22679447118E+03  0.22679447118E+03  0.00000000000E+00 0.  1.
          3   -1    0    0  501    0  0.00000000000E+00 -0.00000000000E+00 -0.93149819209E+02  0.93149819209E+02  0.00000000000E+00 0. -1.
         25    2    1    2    0    0  0.79754074286E+01  0.53878525023E+02 -0.17077330081E+02  0.13750015828E+03  0.12509258867E+03 0.  0.
         23    2    1    2    0    0 -0.79754074286E+01 -0.53878525023E+02  0.15072198205E+03  0.18244413211E+03  0.87190841756E+02 0.  0.
          5    1    3    3  502    0  0.58459417529E+02 -0.40602932339E+01 -0.38885242666E+00  0.58750430511E+02  0.41800000000E+01 0. -1.
         -5    1    3    3    0  502 -0.50484010101E+02  0.57938818257E+02 -0.16688477654E+02  0.78749727766E+02  0.41800000000E+01 0. -1.
        -11    1    4    4    0    0 -0.36503304886E+02 -0.52321253289E+02  0.13618660604E+03  0.15038881766E+03  0.00000000000E+00 0.  1.
         11    1    4    4    0    0  0.28527897457E+02 -0.15572717339E+01  0.14535376011E+02  0.32055314448E+02  0.00000000000E+00 0. -1.
</event>
<event>
 8    1  0.6684013E-009  0.1684559E+03  0.7561462E-02  0.1179468E+00
         -2   -1    0    0    0  501 -0.00000000000E+00  0.00000000000E+00  0.28883153041E+02  0.28883153041E+02  0.00000000000E+00 0.  1.
          2   -1    0    0  501    0  0.00000000000E+00 -0.00000000000E+00 -0.10252504442E+04  0.10252504442E+04  0.00000000000E+00 0. -1.
         25    2    1    2    0    0  0.39688570770E+01  0.13148562917E+03 -0.58397583931E+03  0.61153846054E+03  0.12508910953E+03 0.  0.
         23    2    1    2    0    0 -0.39688570770E+01 -0.13148562917E+03 -0.41239145185E+03  0.44259513670E+03  0.92301261996E+02 0.  0.
          5    1    3    3  502    0 -0.25102955958E+02 -0.13400670652E+02 -0.52232404803E+02  0.59627450753E+02  0.41800000000E+01 0. -1.
         -5    1    3    3    0  502  0.29071813035E+02  0.14488629982E+03 -0.53174343450E+03  0.55191100979E+03  0.41800000000E+01 0. -1.
        -11    1    4    4    0    0 -0.25753097536E+02 -0.13570591842E+03 -0.36514645555E+03  0.39039883750E+03  0.00000000000E+00 0.  1.
         11    1    4    4    0    0  0.21784240459E+02  0.42202892541E+01 -0.47244996309E+02  0.52196299198E+02  0.00000000000E+00 0. -1.
</event>
<event>
 8    1  0.6684013E-009  0.1586647E+03  0.7561462E-02  0.1190213E+00
         -1   -1    0    0    0  501 -0.00000000000E+00  0.00000000000E+00  0.17938159021E+03  0.17938159021E+03  0.00000000000E+00 0.  1.
          1   -1    0    0  501    0  0.00000000000E+00 -0.00000000000E+00 -0.20571583877E+03  0.20571583877E+03  0.00000000000E+00 0. -1.
         25    2    1    2    0    0 -0.12312866506E+03  0.78536444961E+02 -0.76436379920E+02  0.20692554533E+03  0.12508804814E+03 0.  0.
         23    2    1    2    0    0  0.12312866506E+03 -0.78536444961E+02  0.50102131360E+02  0.17817188365E+03  0.88917687825E+02 0.  0.
          5    1    3    3  502    0 -0.67729123704E+02  0.45692168837E+02 -0.10767204572E+03  0.13522481399E+03  0.41800000000E+01 0. -1.
         -5    1    3    3    0  502 -0.55399541361E+02  0.32844276125E+02  0.31235665796E+02  0.71700731341E+02  0.41800000000E+01 0. -1.
        -11    1    4    4    0    0  0.12278630610E+03 -0.35320997898E+02  0.37489371363E+02  0.13315217919E+03  0.00000000000E+00 0. -1.
         11    1    4    4    0    0  0.34235896343E+00 -0.43215447063E+02  0.12612759997E+02  0.45019704456E+02  0.00000000000E+00 0.  1.
</event>
<event>
 8    1  0.6684013E-009  0.1332790E+03  0.7561462E-02  0.1222670E+00
         -2   -1    0    0    0  501 -0.00000000000E+00  0.00000000000E+00  0.41562647039E+02  0.41562647039E+02  0.00000000000E+00 0.  1.
          2   -1    0    0  501    0  0.00000000000E+00 -0.00000000000E+00 -0.51488895555E+03  0.51488895555E+03  0.00000000000E+00 0. -1.
         25    2    1    2    0    0 -0.80243717710E+02  0.34639810578E+02 -0.33912113059E+03  0.37187603619E+03  0.12509865857E+03 0.  0.
         23    2    1    2    0    0  0.80243717710E+02 -0.34639810578E+02 -0.13420517792E+03  0.18457556640E+03  0.91750418092E+02 0.  0.
          5    1    3    3  502    0 -0.60319428836E+01  0.69602854937E+02 -0.17072273074E+03  0.18451196422E+03  0.41800000000E+01 0. -1.
         -5    1    3    3    0  502 -0.74211774827E+02 -0.34963044359E+02 -0.16839839985E+03  0.18736407197E+03  0.41800000000E+01 0. -1.
        -11    1    4    4    0    0  0.25315114282E+02 -0.51149595874E+02 -0.10661334263E+03  0.12092783384E+03  0.00000000000E+00 0. -1.
         11    1    4    4    0    0  0.54928603428E+02  0.16509785296E+02 -0.27591835289E+02  0.63647732557E+02  0.00000000000E+00 0.  1.
</event>
<event>
 8    1  0.6684013E-009  0.9067586E+02  0.7561462E-02  0.1301223E+00
          2   -1    0    0  501    0  0.00000000000E+00  0.00000000000E+00  0.97546931765E+02  0.97546931765E+02  0.00000000000E+00 0. -1.
         -2   -1    0    0    0  501 -0.00000000000E+00 -0.00000000000E+00 -0.12293190004E+03  0.12293190004E+03  0.00000000000E+00 0.  1.
         25    2    1    2    0    0  0.75631102054E+01 -0.41465117004E+01 -0.27764194019E+02  0.12842522630E+03  0.12509114311E+03 0.  0.
         23    2    1    2    0    0 -0.75631102054E+01  0.41465117004E+01  0.23792257424E+01  0.92053605510E+02  0.91617745972E+02 0.  0.
          5    1    3    3  502    0  0.57300252790E+02  0.29074966129E+02 -0.22616483458E+02  0.68246980514E+02  0.41800000000E+01 0.  1.
         -5    1    3    3    0  502 -0.49737142585E+02 -0.33221477829E+02 -0.51477105606E+01  0.60178245784E+02  0.41800000000E+01 0.  1.
        -11    1    4    4    0    0 -0.10463019620E+02  0.29595100514E+02  0.37297336189E+02  0.48748702965E+02  0.00000000000E+00 0. -1.
         11    1    4    4    0    0  0.28999094149E+01 -0.25448588814E+02 -0.34918110447E+02  0.43304902544E+02  0.00000000000E+00 0.  1.
</event>
<event>
 8    1  0.6684013E-009  0.1244002E+03  0.7561462E-02  0.1236010E+00
         -2   -1    0    0    0  501 -0.00000000000E+00  0.00000000000E+00  0.63409203455E+02  0.63409203455E+02  0.00000000000E+00 0.  1.
          2   -1    0    0  501    0  0.00000000000E+00 -0.00000000000E+00 -0.32554657570E+03  0.32554657570E+03  0.00000000000E+00 0. -1.
         25    2    1    2    0    0 -0.89624596317E+02 -0.19730573854E+02 -0.11804917258E+03  0.19494057844E+03  0.12507740870E+03 0.  0.
         23    2    1    2    0    0  0.89624596317E+02  0.19730573854E+02 -0.14408819966E+03  0.19401520071E+03  0.91970783487E+02 0.  0.
          5    1    3    3  502    0  0.10021152941E+02 -0.16052527853E+02 -0.88873893611E+02  0.90962346728E+02  0.41800000000E+01 0.  1.
         -5    1    3    3    0  502 -0.99645749259E+02 -0.36780460013E+01 -0.29175278973E+02  0.10397823172E+03  0.41800000000E+01 0.  1.
        -11    1    4    4    0    0  0.21232986594E+02  0.50381764535E+02 -0.54260211176E+02  0.77028127552E+02  0.00000000000E+00 0.  1.
         11    1    4    4    0    0  0.68391609723E+02 -0.30651190681E+02 -0.89827988483E+02  0.11698707316E+03  0.00000000000E+00 0. -1.
</event>
<event>
 8    1  0.6684013E-009  0.1099767E+03  0.7561462E-02  0.1260613E+00
          1   -1    0    0  501    0  0.00000000000E+00  0.00000000000E+00  0.11718679192E+03  0.11718679192E+03  0.00000000000E+00 0. -1.
         -1   -1    0    0    0  501 -0.00000000000E+00 -0.00000000000E+00 -0.12861892772E+03  0.12861892772E+03  0.00000000000E+00 0.  1.
         25    2    1    2    0    0  0.49607573365E+02 -0.10979349072E+02 -0.30328466750E+02  0.13837904534E+03  0.12508991507E+03 0.  0.
         23    2    1    2    0    0 -0.49607573365E+02  0.10979349072E+02  0.18896330956E+02  0.10742667430E+03  0.92746760522E+02 0.  0.
          5    1    3    3  502    0 -0.35177592561E+02  0.88105686077E+00  0.18247764470E+02  0.39858406738E+02  0.41800000000E+01 0. -1.
         -5    1    3    3    0  502  0.84785165926E+02 -0.11860405933E+02 -0.48576231220E+02  0.98520638597E+02  0.41800000000E+01 0. -1.
        -11    1    4    4    0    0 -0.36020371133E+02  0.47629910658E+02 -0.76090538084E+01  0.60199445394E+02  0.00000000000E+00 0.  1.
         11    1    4    4    0    0 -0.13587202232E+02 -0.36650561586E+02  0.26505384765E+02  0.47227228911E+02  0.00000000000E+00 0. -1.
</event>
<event>
 8    1  0.6684013E-009  0.8233507E+02  0.7561462E-02  0.1322552E+00
         -2   -1    0    0    0  501 -0.00000000000E+00  0.00000000000E+00  0.16398114680E+03  0.16398114680E+03  0.00000000000E+00 0.  1.
          2   -1    0    0  501    0  0.00000000000E+00 -0.00000000000E+00 -0.79070587038E+02  0.79070587038E+02  0.00000000000E+00 0. -1.
         25    2    1    2    0    0  0.20584032305E+02 -0.21539726702E+02  0.42556692992E+02  0.13544575147E+03  0.12508723860E+03 0.  0.
         23    2    1    2    0    0 -0.20584032305E+02  0.21539726702E+02  0.42353866766E+02  0.10760598236E+03  0.94326746990E+02 0.  0.
          5    1    3    3  502    0  0.91013679909E+00 -0.42357867392E+02  0.78496408734E+02  0.89298241097E+02  0.41800000000E+01 0. -1.
         -5    1    3    3    0  502  0.19673895506E+02  0.20818140690E+02 -0.35939715742E+02  0.46147510374E+02  0.41800000000E+01 0. -1.
        -11    1    4    4    0    0 -0.44082556020E+02 -0.17625836677E+02  0.34358442729E+01  0.47599862287E+02  0.00000000000E+00 0. -1.
         11    1    4    4    0    0  0.23498523716E+02  0.39165563379E+02  0.38918022494E+02  0.60006120075E+02  0.00000000000E+00 0.  1.
</event>
<event>
 7    1  0.6684013E-009  0.8887173E+02  0.7561462E-02  0.1305607E+00
          2   -1    0    0  501    0  0.00000000000E+00  0.00000000000E+00  0.19295641787E+03  0.19295641787E+03  0.00000000000E+00 0. -1.
         -2   -1    0    0    0  501 -0.00000000000E+00 -0.00000000000E+00 -0.90799724017E+02  0.90799724017E+02  0.00000000000E+00 0.  1.
         23    2    1    2    0    0  0.88996750958E+01  0.46493083777E+02 -0.17188632223E+02  0.10455421095E+03  0.91625994638E+02 0.  0.
          5    1    1    2  502    0  0.45373221458E+02 -0.23354739354E+02  0.62608677750E+01  0.51583368841E+02  0.41800000000E+01 0. -1.
         -5    1    1    2    0  502 -0.54272896553E+02 -0.23138344423E+02  0.11308445830E+03  0.12761856210E+03  0.41800000000E+01 0. -1.
        -11    1    3    3    0    0  0.37584626933E+01 -0.99920458441E+01  0.29321473319E+02  0.31204419873E+02  0.00000000000E+00 0. -1.
         11    1    3    3    0    0  0.51412124025E+01  0.56485129621E+02 -0.46510105542E+02  0.73349791075E+02  0.00000000000E+00 0.  1.
</event>
<event>
 8    1  0.6684013E-009  0.1132778E+03  0.7561462E-02  0.1254618E+00
         -4   -1    0    0    0  501 -0.00000000000E+00  0.00000000000E+00  0.48244546908E+03  0.48244546908E+03  0.00000000000E+00 0.  1.
          4   -1    0    0  501    0  0.00000000000E+00 -0.00000000000E+00 -0.56332901090E+02  0.56332901090E+02  0.00000000000E+00 0. -1.
         25    2    1    2    0    0  0.75444473153E+02 -0.55604210904E+02  0.97526501735E+02  0.18423716885E+03  0.12509284171E+03 0.  0.
         23    2    1    2    0    0 -0.75444473153E+02  0.55604210904E+02  0.32858606626E+03  0.35454120132E+03  0.94588390922E+02 0.  0.
          5    1    3    3  502    0  0.65416132354E+02 -0.34372116017E+02 -0.94668544824E+01  0.74617735596E+02  0.41800000000E+01 0.  1.
         -5    1    3    3    0  502  0.10028340799E+02 -0.21232094887E+02  0.10699335622E+03  0.10961943326E+03  0.41800000000E+01 0.  1.
        -11    1    4    4    0    0 -0.94020737756E+02  0.33484915228E+02  0.21033082017E+03  0.23280934816E+03  0.00000000000E+00 0. -1.
         11    1    4    4    0    0  0.18576264604E+02  0.22119295677E+02  0.11825524609E+03  0.12173185316E+03  0.00000000000E+00 0.  1.
</event>
<event>
 8    1  0.6684013E-009  0.1663938E+03  0.7561462E-02  0.1181662E+00
         -1   -1    0    0    0  501 -0.00000000000E+00  0.00000000000E+00  0.40542020590E+02  0.40542020590E+02  0.00000000000E+00 0.  1.
          1   -1    0    0  501    0  0.00000000000E+00 -0.00000000000E+00 -0.90776574589E+03  0.90776574589E+03  0.00000000000E+00 0. -1.
         25    2    1    2    0    0  0.14864211340E+03  0.32653029137E+02 -0.52096073915E+03  0.55696519510E+03  0.12509771629E+03 0.  0.
         23    2    1    2    0    0 -0.14864211340E+03 -0.32653029137E+02 -0.34626298614E+03  0.39134257138E+03  0.10045025840E+03 0.  0.
          5    1    3    3  502    0  0.83419828118E+02 -0.30906821038E+02 -0.37038318043E+03  0.38093998484E+03  0.41800000000E+01 0. -1.
         -5    1    3    3    0  502  0.65222285285E+02  0.63559850176E+02 -0.15057755872E+03  0.17602521025E+03  0.41800000000E+01 0. -1.
        -11    1    4    4    0    0 -0.35380648744E+02 -0.12486113083E+02 -0.14541600315E+02  0.40238681206E+02  0.00000000000E+00 0.  1.
         11    1    4    4    0    0 -0.11326146466E+03 -0.20166916054E+02 -0.33172138583E+03  0.35110389018E+03  0.00000000000E+00 0. -1.
</event>
<event>
 8    1  0.6684013E-009  0.1371806E+03  0.7561462E-02  0.1217174E+00
         -1   -1    0    0    0  501 -0.00000000000E+00  0.00000000000E+00  0.26043623972E+02  0.26043623972E+02  0.00000000000E+00 0.  1.
          1   -1    0    0  501    0  0.00000000000E+00 -0.00000000000E+00 -0.11127981070E+04  0.11127981070E+04  0.00000000000E+00 0. -1.
         25    2    1    2    0    0 -0.10138517212E+03 -0.70946623559E+02 -0.74606438528E+03  0.76653300518E+03  0.12509358307E+03 0.  0.
         23    2    1    2    0    0  0.10138517212E+03  0.70946623559E+02 -0.34069009772E+03  0.37230872577E+03  0.85039214941E+02 0.  0.
          5    1    3    3  502    0 -0.74355306174E+02 -0.58950185654E+02 -0.22007399600E+03  0.23969537347E+03  0.41800000000E+01 0. -1.
         -5    1    3    3    0  502 -0.27029865942E+02 -0.11996437905E+02 -0.52599038928E+03  0.52683763171E+03  0.41800000000E+01 0. -1.
        -11    1    4    4    0    0  0.11513856763E+03  0.71872667056E+02 -0.31806978233E+03  0.34581925402E+03  0.00000000000E+00 0. -1.
         11    1    4    4    0    0 -0.13753395511E+02 -0.92604349729E+00 -0.22620315398E+02  0.26489471745E+02  0.00000000000E+00 0.  1.
</event>
<event>
 8    1  0.6684013E-009  0.1022135E+03  0.7561462E-02  0.1275709E+00
          1   -1    0    0  501    0  0.00000000000E+00  0.00000000000E+00  0.12739905854E+03  0.12739905854E+03  0.00000000000E+00 0. -1.
         -1   -1    0    0    0  501 -0.00000000000E+00 -0.00000000000E+00 -0.13934650611E+03  0.13934650611E+03  0.00000000000E+00 0.  1.
         25    2    1    2    0    0 -0.36162726987E+02 -0.26180230756E+02 -0.66132308732E+02  0.14837167521E+03  0.12509006531E+03 0.  0.
         23    2    1    2    0    0  0.36162726987E+02  0.26180230756E+02  0.54184861167E+02  0.11837388944E+03  0.95305987309E+02 0.  0.
          5    1    3    3  502    0 -0.15709070937E+02  0.36677726210E+02  0.15710824397E+02  0.43085182057E+02  0.41800000000E+01 0.  1.
         -5    1    3    3    0  502 -0.20453656050E+02 -0.62857956966E+02 -0.81843133129E+02  0.10528649315E+03  0.41800000000E+01 0.  1.
        -11    1    4    4    0    0  0.46894700952E+02 -0.19766901359E+02  0.65227380325E+01  0.51306817073E+02  0.00000000000E+00 0.  1.
         11    1    4    4    0    0 -0.10731973965E+02  0.45947132115E+02  0.47662123134E+02  0.67067072371E+02  0.00000000000E+00 0. -1.
</event>
<event>
 8    1  0.6684013E-009  0.1140171E+03  0.7561462E-02  0.1253307E+00
          1   -1    0    0  501    0  0.00000000000E+00  0.00000000000E+00  0.34148247785E+03  0.34148247785E+03  0.00000000000E+00 0. -1.
         -1   -1    0    0    0  501 -0.00000000000E+00 -0.00000000000E+00 -0.50570194506E+02  0.50570194506E+02  0.00000000000E+00 0.  1.
         25    2    1    2    0    0  0.77550293224E+01  0.46635696939E+02  0.24570028757E+03  0.27972938803E+03  0.12507945678E+03 0.  0.
         23    2    1    2    0    0 -0.77550293224E+01 -0.46635696939E+02  0.45211995773E+02  0.11232328432E+03  0.91309183168E+02 0.  0.
          5    1    3    3  502    0  0.11325582794E+02  0.86892438645E+02  0.20107095769E+03  0.21937540233E+03  0.41800000000E+01 0.  1.
         -5    1    3    3    0  502 -0.35705534712E+01 -0.40256741706E+02  0.44629329879E+02  0.60353985704E+02  0.41800000000E+01 0.  1.
        -11    1    4    4    0    0  0.38524797190E+02 -0.34781567585E+02  0.37259605902E+02  0.63892062685E+02  0.00000000000E+00 0.  1.
         11    1    4    4    0    0 -0.46279826512E+02 -0.11854129354E+02  0.79523898708E+01  0.48431221639E+02  0.00000000000E+00 0. -1.
</event>
<event>
 7    1  0.6684013E-009  0.1327195E+03  0.7561462E-02  0.1223475E+00
          1   -1    0    0  501    0  0.00000000000E+00  0.00000000000E+00  0.13648518545E+04  0.13648518545E+04  0.00000000000E+00 0.  1.
         -1   -1    0    0    0  501 -0.00000000000E+00 -0.00000000000E+00 -0.26426682881E+02  0.26426682881E+02  0.00000000000E+00 0. -1.
         25    2    1    2    0    0 -0.53095947315E+02  0.27701221652E+02  0.10472045108E+04  0.10563462487E+04  0.12507426776E+03 0.  0.
          5    1    3    3  502    0 -0.48688183291E+01 -0.34141413972E+02  0.99439909599E+02  0.10533332598E+03  0.41800000000E+01 0. -1.
         -5    1    3    3    0  502 -0.48227128986E+02  0.61842635624E+02  0.94776460115E+03  0.95101292270E+03  0.41800000000E+01 0. -1.
        -11    1    1    2    0    0  0.51805306268E+02  0.51443856760E+02  0.74951761999E+02  0.10463281886E+03  0.00000000000E+00 0.  1.
         11    1    1    2    0    0  0.12906410474E+01 -0.79145078412E+02  0.21626889885E+03  0.23029946982E+03  0.00000000000E+00 0. -1.
</event>
<event>
 8    1  0.6684013E-009  0.1081670E+03  0.7561462E-02  0.1264002E+00
          1   -1    0    0  501    0  0.00000000000E+00  0.00000000000E+00  0.31736696407E+03  0.31736696407E+03  0.00000000000E+00 0. -1.
         -1   -1    0    0    0  501 -0.00000000000E+00 -0.00000000000E+00 -0.11927736393E+03  0.11927736393E+03  0.00000000000E+00 0.  1.
         25    2    1    2    0    0  0.67505463937E+02  0.45405046478E+02 -0.52472286014E+02  0.15817600321E+03  0.12509077218E+03 0.  0.
         23    2    1    2    0    0 -0.67505463937E+02 -0.45405046478E+02  0.25056188615E+03  0.27846832479E+03  0.90248231093E+02 0.  0.
          5    1    3    3  502    0  0.79261883417E+01 -0.25719522243E+02  0.25197420181E+02  0.37103917176E+02  0.41800000000E+01 0.  1.
         -5    1    3    3    0  502  0.59579275595E+02  0.71124568721E+02 -0.77669706194E+02  0.12107208603E+03  0.41800000000E+01 0.  1.
        -11    1    4    4    0    0 -0.63508815545E+01 -0.33276263171E+02  0.18468710825E+03  0.18776839815E+03  0.00000000000E+00 0.  1.
         11    1    4    4    0    0 -0.61154582382E+02 -0.12128783307E+02  0.65874777891E+02  0.90699926643E+02  0.00000000000E+00 0. -1.
</event>
<event>
 8    1  0.6684013E-009  0.1011579E+03  0.7561462E-02  0.1277880E+00
          2   -1    0    0  501    0  0.00000000000E+00  0.00000000000E+00  0.29523463736E+02  0.29523463736E+02  0.00000000000E+00 0.  1.
         -2   -1    0    0    0  501 -0.00000000000E+00 -0.00000000000E+00 -0.46746645002E+03  0.46746645002E+03  0.00000000000E+00 0. -1.
         25    2    1    2    0    0  0.64918545625E+00 -0.97051338630E+01 -0.34188398873E+03  0.36418185417E+03  0.12509656306E+03 0.  0.
         23    2    1    2    0    0 -0.64918545625E+00  0.97051338630E+01 -0.96058997551E+02  0.13280805959E+03  0.91192316647E+02 0.  0.
          5    1    3    3  502    0 -0.10479617923E+02 -0.58989195818E+02 -0.96866286326E+02  0.11397410865E+03  0.41800000000E+01 0. -1.
         -5    1    3    3    0  502  0.11128803380E+02  0.49284061955E+02 -0.24501770240E+03  0.25020774552E+03  0.41800000000E+01 0. -1.
        -11    1    4    4    0    0  0.44672573038E+02  0.11749846971E+02 -0.52253703488E+02  0.69743438500E+02  0.00000000000E+00 0.  1.
         11    1    4    4    0    0 -0.45321758494E+02 -0.20447131084E+01 -0.43805294063E+02  0.63064621085E+02  0.00000000000E+00 0. -1.
</event>
<event>
 8    1  0.6684013E-009  0.9135251E+02  0.7561462E-02  0.1299609E+00
          2   -1    0    0  501    0  0.00000000000E+00  0.00000000000E+00  0.14410978315E+03  0.14410978315E+03  0.00000000000E+00 0. -1.
         -2   -1    0    0    0  501 -0.00000000000E+00 -0.00000000000E+00 -0.12363155069E+03  0.12363155069E+03  0.00000000000E+00 0.  1.
         25    2    1    2    0    0 -0.65467212024E+02  0.41266086011E+02  0.26886785461E+02  0.14953054760E+03  0.12509052613E+03 0.  0.
         23    2    1    2    0    0  0.65467212024E+02 -0.41266086011E+02 -0.64085530019E+01  0.11821078625E+03  0.89128417066E+02 0.  0.
          5    1    3    3  502    0 -0.35361469281E+02  0.52232099312E+02  0.70861851678E+02  0.94960518804E+02  0.41800000000E+01 0. -1.
         -5    1    3    3    0  502 -0.30105742743E+02 -0.10966013302E+02 -0.43975066216E+02  0.54570028794E+02  0.41800000000E+01 0. -1.
        -11    1    4    4    0    0  0.20318288205E+02 -0.36505321302E+02  0.36697308778E+02  0.55607227862E+02  0.00000000000E+00 0. -1.
         11    1    4    4    0    0  0.45148923818E+02 -0.47607647088E+01 -0.43105861780E+02  0.62603558384E+02  0.00000000000E+00 0.  1.
</event>
<event>
 8    1  0.6684013E-009  0.1301090E+03  0.7561462E-02  0.1227294E+00
         -3   -1    0    0    0  501 -0.00000000000E+00  0.00000000000E+00  0.23670394543E+03  0.23670394543E+03  0.00000000000E+00 0.  1.
          3   -1    0    0  501    0  0.00000000000E+00 -0.00000000000E+00 -0.91668139535E+02  0.91668139535E+02  0.00000000000E+00 0. -1.
         25    2    1    2    0    0  0.49641953404E+02  0.76700604342E+02  0.34676143036E+02  0.15873832675E+03  0.12509242679E+03 0.  0.
         23    2    1    2    0    0 -0.49641953404E+02 -0.76700604342E+02  0.11035966286E+03  0.16963375821E+03  0.90824283613E+02 0.  0.
          5    1    3    3  502    0  0.45210506665E+02 -0.89564985002E+01 -0.26475588761E+02  0.53316395025E+02  0.41800000000E+01 0.  1.
         -5    1    3    3    0  502  0.44314467390E+01  0.85657102842E+02  0.61151731797E+02  0.10542193173E+03  0.41800000000E+01 0.  1.
        -11    1    4    4    0    0 -0.64745819924E+02 -0.17641168722E+02  0.66988941117E+02  0.94819566881E+02  0.00000000000E+00 0. -1.
         11    1    4    4    0    0  0.15103866520E+02 -0.59059435621E+02  0.43370721739E+02  0.74814191327E+02  0.00000000000E+00 0.  1.
</event>
<event>
 8    1  0.6684013E-009  0.8872985E+02  0.7561462E-02  0.1305957E+00
          1   -1    0    0  501    0  0.00000000000E+00  0.00000000000E+00  0.84489025188E+03  0.84489025188E+03  0.00000000000E+00 0. -1.
         -1   -1    0    0    0  501 -0.00000000000E+00 -0.00000000000E+00 -0.16796270963E+02  0.16796270963E+02  0.00000000000E+00 0.  1.
         25    2    1    2    0    0 -0.29188346791E+02 -0.31723788714E+02  0.55963669515E+03  0.57506431132E+03  0.12508946092E+03 0.  0.
         23    2    1    2    0    0  0.29188346791E+02  0.31723788714E+02  0.26845728577E+03  0.28662221153E+03  0.90689687949E+02 0.  0.
          5    1    3    3  502    0 -0.36621368569E+02 -0.47324419312E+02  0.11180715025E+03  0.12688197881E+03  0.41800000000E+01 0. -1.
         -5    1    3    3    0  502  0.74330217774E+01  0.15600630598E+02  0.44782954490E+03  0.44818233251E+03  0.41800000000E+01 0. -1.
        -11    1    4    4    0    0  0.89842512653E+01 -0.31795450158E+02  0.73489094643E+02  0.80574899647E+02  0.00000000000E+00 0.  1.
         11    1    4    4    0    0  0.20204095526E+02  0.63519238872E+02  0.19496819112E+03  0.20604731188E+03  0.00000000000E+00 0. -1.
</event>
<event>
 8    1  0.6684013E-009  0.2540530E+03  0.7561462E-02  0.1110770E+00
         -1   -1    0    0    0  501 -0.00000000000E+00  0.00000000000E+00  0.15373816651E+03  0.15373816651E+03  0.00000000000E+00 0.  1.
          1   -1    0    0  501    0  0.00000000000E+00 -0.00000000000E+00 -0.47738383034E+03  0.47738383034E+03  0.00000000000E+00 0. -1.
         25    2    1    2    0    0 -0.13351310160E+03  0.19811260639E+03 -0.24365996340E+03  0.36345152403E+03  0.12510986949E+03 0.  0.
         23    2    1    2    0    0  0.13351310160E+03 -0.19811260639E+03 -0.79985700419E+02  0.26767047282E+03  0.90418010582E+02 0.  0.
          5    1    3    3  502    0 -0.12222670112E+03  0.92887741008E+02 -0.19126177818E+03  0.24528766599E+03  0.41800000000E+01 0.  1.
         -5    1    3    3    0  502 -0.11286400480E+02  0.10522486539E+03 -0.52398185221E+02  0.11816385804E+03  0.41800000000E+01 0.  1.
        -11    1    4    4    0    0  0.62419858464E+02 -0.15084179096E+03 -0.81115158607E+02  0.18228865458E+03  0.00000000000E+00 0. -1.
         11    1    4    4    0    0  0.71093243133E+02 -0.47270815432E+02  0.11294581877E+01  0.85381818244E+02  0.00000000000E+00 0.  1.
</event>
<event>
 8    1  0.6684013E-009  0.1764720E+03  0.7561462E-02  0.1171262E+00
          1   -1    0    0  501    0  0.00000000000E+00  0.00000000000E+00  0.69326022409E+03  0.69326022409E+03  0.00000000000E+00 0. -1.
         -1   -1    0    0    0  501 -0.00000000000E+00 -0.00000000000E+00 -0.77257981057E+02  0.77257981057E+02  0.00000000000E+00 0.  1.
         25    2    1    2    0    0 -0.88382798428E+02  0.15092337726E+03  0.49220468432E+03  0.53712235904E+03  0.12508234270E+03 0.  0.
         23    2    1    2    0    0  0.88382798428E+02 -0.15092337726E+03  0.12379755871E+03  0.23339584610E+03  0.92511623995E+02 0.  0.
          5    1    3    3  502    0 -0.45373031507E+02  0.87222796818E+02  0.11150623667E+03  0.14872001039E+03  0.41800000000E+01 0. -1.
         -5    1    3    3    0  502 -0.43009766921E+02  0.63700580439E+02  0.38069844765E+03  0.38840234865E+03  0.41800000000E+01 0. -1.
        -11    1    4    4    0    0  0.67154893258E+02 -0.85131200093E+02  0.22473672715E+02  0.11073466884E+03  0.00000000000E+00 0.  1.
         11    1    4    4    0    0  0.21227905170E+02 -0.65792177164E+02  0.10132388600E+03  0.12266117726E+03  0.00000000000E+00 0. -1.
</event>
<event>
 8    1  0.6684013E-009  0.1150005E+03  0.7561462E-02  0.1251580E+00
          1   -1    0    0  501    0  0.00000000000E+00  0.00000000000E+00  0.96878395630E+03  0.96878395630E+03  0.00000000000E+00 0. -1.
         -1   -1    0    0    0  501 -0.00000000000E+00 -0.00000000000E+00 -0.20320191576E+02  0.20320191576E+02  0.00000000000E+00 0.  1.
         25    2    1    2    0    0 -0.18307959766E+02 -0.66458658131E+02  0.32225327443E+03  0.35248647120E+03  0.12509038680E+03 0.  0.
         23    2    1    2    0    0  0.18307959766E+02  0.66458658131E+02  0.62621049030E+03  0.63661767667E+03  0.91599964325E+02 0.  0.
          5    1    3    3  502    0 -0.30478530174E+02 -0.86740836148E+02  0.13313951675E+03  0.16185338049E+03  0.41800000000E+01 0. -1.
         -5    1    3    3    0  502  0.12170570408E+02  0.20282178018E+02  0.18911375768E+03  0.19063309071E+03  0.41800000000E+01 0. -1.
        -11    1    4    4    0    0 -0.36437917998E+02  0.17165851442E+02  0.18900276610E+03  0.19324707997E+03  0.00000000000E+00 0.  1.
         11    1    4    4    0    0  0.54745877764E+02  0.49292806689E+02  0.43720772419E+03  0.44337059670E+03  0.00000000000E+00 0. -1.
</event>
<event>
 8    1  0.6684013E-009  0.1067266E+03  0.7561462E-02  0.1266755E+00
          3   -1    0    0  501    0  0.00000000000E+00  0.00000000000E+00  0.61430179089E+02  0.61430179089E+02  0.00000000000E+00 0. -1.
         -3   -1    0    0    0  501 -0.00000000000E+00 -0.00000000000E+00 -0.22654085202E+03  0.22654085202E+03  0.00000000000E+00 0.  1.
         25    2    1    2    0    0 -0.87984163969E+01 -0.43489454414E+02 -0.11254763355E+03  0.17401988546E+03  0.12508879223E+03 0.  0.
         23    2    1    2    0    0  0.87984163969E+01  0.43489454414E+02 -0.52563039381E+02  0.11395114564E+03  0.90847375904E+02 0.  0.
          5    1    3    3  502    0  0.45316803474E+02  0.18984916175E+02 -0.33799828810E+02  0.59782443467E+02  0.41800000000E+01 0. -1.
         -5    1    3    3    0  502 -0.54115219871E+02 -0.62474370589E+02 -0.78747804737E+02  0.11423744199E+03  0.41800000000E+01 0. -1.
        -11    1    4    4    0    0  0.15279656272E+02 -0.15660888590E+02 -0.49786278060E+02  0.54382026538E+02  0.00000000000E+00 0.  1.
         11    1    4    4    0    0 -0.64812398754E+01  0.59150343004E+02 -0.27767613202E+01  0.59569119107E+02  0.00000000000E+00 0. -1.
</event>
<event>
 8    1  0.6684013E-009  0.8521331E+02  0.7561462E-02  0.1314876E+00
         -3   -1    0    0    0  501 -0.00000000000E+00  0.00000000000E+00  0.64124443777E+02  0.64124443777E+02  0.00000000000E+00 0.  1.
          3   -1    0    0  501    0  0.00000000000E+00 -0.00000000000E+00 -0.20652694601E+03  0.20652694601E+03  0.00000000000E+00 0. -1.
         25    2    1    2    0    0 -0.33231833145E+02 -0.10746908083E+02 -0.64714262563E+02  0.14510721557E+03  0.12509323508E+03 0.  0.
         23    2    1    2    0    0  0.33231833145E+02  0.10746908083E+02 -0.77688239666E+02  0.12554417422E+03  0.92228121145E+02 0.  0.
          5    1    3    3  502    0 -0.68317640956E+02 -0.38435965241E+02 -0.18438603743E+02  0.80635463648E+02  0.41800000000E+01 0.  1.
         -5    1    3    3    0  502  0.35085807812E+02  0.27689057158E+02 -0.46275658820E+02  0.64471751917E+02  0.41800000000E+01 0.  1.
        -11    1    4    4    0    0  0.20267740327E+02 -0.99784408279E+01  0.16666837623E+02  0.28073725361E+02  0.00000000000E+00 0.  1.
         11    1    4    4    0    0  0.12964092818E+02  0.20725348911E+02 -0.94355077288E+02  0.97470448856E+02  0.00000000000E+00 0. -1.
</event>
<event>
 8    1  0.6684013E-009  0.1408749E+03  0.7561462E-02  0.1212157E+00
          2   -1    0    0  501    0  0.00000000000E+00  0.00000000000E+00  0.13422374591E+03  0.13422374591E+03  0.00000000000E+00 0. -1.
         -2   -1    0    0    0  501 -0.00000000000E+00 -0.00000000000E+00 -0.21853875301E+03  0.21853875301E+03  0.00000000000E+00 0.  1.
         25    2    1    2    0    0  0.86091862437E+02 -0.73487233001E+02  0.26478909517E+02  0.17076583554E+03  0.12509059015E+03 0.  0.
         23    2    1    2    0    0 -0.86091862437E+02  0.73487233001E+02 -0.11079391662E+03  0.18199666338E+03  0.89639898086E+02 0.  0.
          5    1    3    3  502    0  0.32544077490E+02  0.30113801689E+02 -0.14882230621E+02  0.46956482194E+02  0.41800000000E+01 0. -1.
         -5    1    3    3    0  502  0.53547784948E+02 -0.10360103469E+03  0.41361140138E+02  0.12380935334E+03  0.41800000000E+01 0. -1.
        -11    1    4    4    0    0 -0.16836926666E+02  0.40393715978E+02  0.39578915496E+01  0.43940861343E+02  0.00000000000E+00 0.  1.
         11    1    4    4    0    0 -0.69254935772E+02  0.33093517023E+02 -0.11475180817E+03  0.13805580203E+03  0.00000000000E+00 0. -1.
</event>
<event>
 8    1  0.6684013E-009  0.1762950E+03  0.7561462E-02  0.1171438E+00
         -2   -1    0    0    0  501 -0.00000000000E+00  0.00000000000E+00  0.39046061688E+02  0.39046061688E+02  0.00000000000E+00 0.  1.
          2   -1    0    0  501    0  0.00000000000E+00 -0.00000000000E+00 -0.86117616449E+03  0.86117616449E+03  0.00000000000E+00 0. -1.
         25    2    1    2    0    0  0.12083963921E+03  0.78702974062E+02 -0.51300450031E+03  0.54737302574E+03  0.12508891010E+03 0.  0.
         23    2    1    2    0    0 -0.12083963921E+03 -0.78702974062E+02 -0.30912560249E+03  0.35284920044E+03  0.90263744707E+02 0.  0.
          5    1    3    3  502    0  0.11067632896E+03  0.81293878889E+01 -0.38605572435E+03  0.40171112935E+03  0.41800000000E+01 0.  1.
         -5    1    3    3    0  502  0.10163310250E+02  0.70573586173E+02 -0.12694877597E+03  0.14566189639E+03  0.41800000000E+01 0.  1.
        -11    1    4    4    0    0 -0.59933572566E+02 -0.90037611780E+02 -0.19418709033E+03  0.22227782325E+03  0.00000000000E+00 0. -1.
         11    1    4    4    0    0 -0.60906066642E+02  0.11334637718E+02 -0.11493851215E+03  0.13057137719E+03  0.00000000000E+00 0.  1.
</event>
<event>
 8    1  0.6684013E-009  0.1060792E+03  0.7561462E-02  0.1268008E+00
         -1   -1    0    0    0  501 -0.00000000000E+00  0.00000000000E+00  0.33084548999E+02  0.33084548999E+02  0.00000000000E+00 0.  1.
          1   -1    0    0  501    0  0.00000000000E+00 -0.00000000000E+00 -0.65310742024E+03  0.65310742024E+03  0.00000000000E+00 0. -1.
         25    2    1    2    0    0  0.23879639299E+02 -0.35587340782E+02 -0.54681793738E+03  0.56257799459E+03  0.12508975722E+03 0.  0.
         23    2    1    2    0    0 -0.23879639299E+02  0.35587340782E+02 -0.73204933866E+02  0.12361397465E+03  0.89915273397E+02 0.  0.
          5    1    3    3  502    0 -0.40053850227E+02 -0.52241788749E+02 -0.28183211182E+03  0.28944831501E+03  0.41800000000E+01 0. -1.
         -5    1    3    3    0  502  0.63933489526E+02  0.16654447967E+02 -0.26498582556E+03  0.27312967958E+03  0.41800000000E+01 0. -1.
        -11    1    4    4    0    0 -0.56269457226E+00  0.51669093832E+02 -0.76940281418E+01  0.52241841005E+02  0.00000000000E+00 0.  1.
         11    1    4    4    0    0 -0.23316944726E+02 -0.16081753050E+02 -0.65510905724E+02  0.71372133647E+02  0.00000000000E+00 0. -1.
</event>
<event>
 8    1  0.6684013E-009  0.1494153E+03  0.7561462E-02  0.1201193E+00
         -1   -1    0    0    0  501 -0.00000000000E+00  0.00000000000E+00  0.34688462616E+02  0.34688462616E+02  0.00000000000E+00 0.  1.
          1   -1    0    0  501    0  0.00000000000E+00 -0.00000000000E+00 -0.89273686976E+03  0.89273686976E+03  0.00000000000E+00 0. -1.
         25    2    1    2    0    0  0.25449334223E+02 -0.12418376517E+03 -0.59576612915E+03  0.62181547961E+03  0.12509170191E+03 0.  0.
         23    2    1    2    0    0 -0.25449334223E+02  0.12418376517E+03 -0.26228227799E+03  0.30560985276E+03  0.92391085157E+02 0.  0.
          5    1    3    3  502    0 -0.30582084781E+02 -0.86525818335E+02 -0.19717162387E+03  0.21752264895E+03  0.41800000000E+01 0.  1.
         -5    1    3    3    0  502  0.56031419003E+02 -0.37657946838E+02 -0.39859450529E+03  0.40429283066E+03  0.41800000000E+01 0.  1.
        -11    1    4    4    0    0 -0.37872003994E+02  0.12058322322E+03 -0.26387065762E+03  0.29257875241E+03  0.00000000000E+00 0. -1.
         11    1    4    4    0    0  0.12422669772E+02  0.36005419489E+01  0.15883796331E+01  0.13031100354E+02  0.00000000000E+00 0.  1.
</event>
<event>
 8    1  0.6684013E-009  0.1745289E+03  0.7561462E-02  0.1173206E+00
          4   -1    0    0  501    0  0.00000000000E+00  0.00000000000E+00  0.71746030189E+03  0.71746030189E+03  0.00000000000E+00 0. -1.
         -4   -1    0    0    0  501 -0.00000000000E+00 -0.00000000000E+00 -0.45863842635E+02  0.45863842635E+02  0.00000000000E+00 0.  1.
         25    2    1    2    0    0  0.78639803909E+01  0.14191966372E+03  0.43500070060E+03  0.47442038443E+03  0.12508420566E+03 0.  0.
         23    2    1    2    0    0 -0.78639803909E+01 -0.14191966372E+03  0.23659575866E+03  0.28890376009E+03  0.85351018986E+02 0.  0.
          5    1    3    3  502    0 -0.56528823322E+02  0.43976017426E+02  0.17837338677E+03  0.19226007251E+03  0.41800000000E+01 0. -1.
         -5    1    3    3    0  502  0.64392803713E+02  0.97943646297E+02  0.25662731383E+03  0.28216031192E+03  0.41800000000E+01 0. -1.
        -11    1    4    4    0    0 -0.23523123251E+02 -0.74885033118E+01  0.13963391607E+02  0.28361793217E+02  0.00000000000E+00 0.  1.
         11    1    4    4    0    0  0.15659142860E+02 -0.13443116041E+03  0.22263236705E+03  0.26054196688E+03  0.00000000000E+00 0. -1.
</event>
<event>
 8    1  0.6684013E-009  0.1010332E+03  0.7561462E-02  0.1278138E+00
          1   -1    0    0  501    0  0.00000000000E+00  0.00000000000E+00  0.23587179074E+03  0.23587179074E+03  0.00000000000E+00 0. -1.
         -1   -1    0    0    0  501 -0.00000000000E+00 -0.00000000000E+00 -0.90503660700E+02  0.90503660700E+02  0.00000000000E+00 0.  1.
         25    2    1    2    0    0  0.95163751078E+02 -0.14053403508E+02  0.62645276906E+02  0.16978004177E+03  0.12508874528E+03 0.  0.
         23    2    1    2    0    0 -0.95163751078E+02  0.14053403508E+02  0.82722853130E+02  0.15659540966E+03  0.91790055170E+02 0.  0.
          5    1    3    3  502    0  0.63714410589E+02 -0.19046940174E+01 -0.30387047270E+02  0.70738949792E+02  0.41800000000E+01 0.  1.
         -5    1    3    3    0  502  0.31449340489E+02 -0.12148709490E+02  0.93032324176E+02  0.99041091982E+02  0.41800000000E+01 0.  1.
        -11    1    4    4    0    0 -0.29116169957E+02 -0.14179461953E+02 -0.14692099736E+02  0.35562146854E+02  0.00000000000E+00 0.  1.
         11    1    4    4    0    0 -0.66047581121E+02  0.28232865460E+02  0.97414952867E+02  0.12103326281E+03  0.00000000000E+00 0. -1.
</event>
<event>
 8    1  0.6684013E-009  0.1562093E+03  0.7561462E-02  0.1193044E+00
          1   -1    0    0  501    0  0.00000000000E+00  0.00000000000E+00  0.10933990528E+04  0.10933990528E+04  0.00000000000E+00 0.  1.
         -1   -1    0    0    0  501 -0.00000000000E+00 -0.00000000000E+00 -0.28250036881E+02  0.28250036881E+02  0.00000000000E+00 0. -1.
         25    2    1    2    0    0 -0.10711262805E+03 -0.87244846493E+02  0.59880659845E+03  0.62713771732E+03  0.12509035060E+03 0.  0.
         23    2    1    2    0    0  0.10711262805E+03  0.87244846493E+02  0.46634241742E+03  0.49451137231E+03  0.89339066101E+02 0.  0.
          5    1    3    3  502    0 -0.11103904735E+03 -0.90685952497E+02  0.35008263436E+03  0.37832384976E+03  0.41800000000E+01 0. -1.
         -5    1    3    3    0  502  0.39264192971E+01  0.34411060043E+01  0.24872396409E+03  0.24881386756E+03  0.41800000000E+01 0. -1.
        -11    1    4    4    0    0  0.68969967799E+00 -0.14827635601E+02  0.71667280604E+02  0.73188343145E+02  0.00000000000E+00 0.  1.
         11    1    4    4    0    0  0.10642292837E+03  0.10207248209E+03  0.39467513682E+03  0.42132302917E+03  0.00000000000E+00 0. -1.
</event>
<event>
 8    1  0.6684013E-009  0.1304924E+03  0.7561462E-02  0.1226727E+00
          2   -1    0    0  501    0  0.00000000000E+00  0.00000000000E+00  0.40382761543E+03  0.40382761543E+03  0.00000000000E+00 0. -1.
         -2   -1    0    0    0  501 -0.00000000000E+00 -0.00000000000E+00 -0.56357943257E+02  0.56357943257E+02  0.00000000000E+00 0.  1.
         25    2    1    2    0    0  0.62823961625E+02 -0.80694183716E+02  0.21940932882E+03  0.27248092395E+03  0.12508796468E+03 0.  0.
         23    2    1    2    0    0 -0.62823961625E+02  0.80694183716E+02  0.12806034336E+03  0.18770463473E+03  0.91515992701E+02 0.  0.
          5    1    3    3  502    0  0.30815588701E+02 -0.85625354385E+02  0.22175970162E+03  0.23974181838E+03  0.41800000000E+01 0.  1.
         -5    1    3    3    0  502  0.32008372924E+02  0.49311706689E+01 -0.23503727987E+01  0.32739105573E+02  0.41800000000E+01 0.  1.
        -11    1    4    4    0    0 -0.86709839948E+02  0.58269439436E+02  0.96964933001E+02  0.14253463491E+03  0.00000000000E+00 0. -1.
         11    1    4    4    0    0  0.23885878323E+02  0.22424744280E+02  0.31095410357E+02  0.45169999828E+02  0.00000000000E+00 0.  1.
</event>
<event>
 8    1  0.6684013E-009  0.3218657E+03  0.7561462E-02  0.1074794E+00
         -2   -1    0    0    0  501 -0.00000000000E+00  0.00000000000E+00  0.20676464427E+03  0.20676464427E+03  0.00000000000E+00 0.  1.
          2   -1    0    0  501    0  0.00000000000E+00 -0.00000000000E+00 -0.51542922004E+03  0.51542922004E+03  0.00000000000E+00 0. -1.
         25    2    1    2    0    0  0.29733538375E+03 -0.68479445660E+02 -0.14751621983E+03  0.36125639791E+03  0.12508950800E+03 0.  0.
         23    2    1    2    0    0 -0.29733538375E+03  0.68479445660E+02 -0.16114835595E+03  0.36093746640E+03  0.10587396809E+03 0.  0.
          5    1    3    3  502    0  0.17366715088E+03 -0.95834499582E+02 -0.11903643706E+03  0.23136913440E+03  0.41800000000E+01 0.  1.
         -5    1    3    3    0  502  0.12366823286E+03  0.27355053922E+02 -0.28479782772E+02  0.12988726351E+03  0.41800000000E+01 0.  1.
        -11    1    4    4    0    0 -0.18201678502E+03 -0.46121886069E+01 -0.62526100310E+02  0.19251206594E+03  0.00000000000E+00 0. -1.
         11    1    4    4    0    0 -0.11531859873E+03  0.73091634267E+02 -0.98622255636E+02  0.16842540046E+03  0.00000000000E+00 0.  1.
</event>
<event>
 8    1  0.6684013E-009  0.5260816E+02  0.7561462E-02  0.1431761E+00
         -2   -1    0    0    0  501 -0.00000000000E+00  0.00000000000E+00  0.59317279927E+02  0.59317279927E+02  0.00000000000E+00 0. -1.
          2   -1    0    0  501    0  0.00000000000E+00 -0.00000000000E+00 -0.22863079214E+03  0.22863079214E+03  0.00000000000E+00 0.  1.
         25    2    1    2    0    0 -0.19908100823E+02 -0.40116968369E+02 -0.11302613483E+03  0.17443431355E+03  0.12508684566E+03 0.  0.
         23    2    1    2    0    0  0.19908100823E+02  0.40116968369E+02 -0.56287377378E+02  0.11351375852E+03  0.87814582451E+02 0.  0.
          5    1    3    3  502    0 -0.30400420525E+02 -0.31455289375E+02 -0.13847232540E+03  0.14527793397E+03  0.41800000000E+01 0.  1.
         -5    1    3    3    0  502  0.10492319702E+02 -0.86616789942E+01  0.25446190565E+02  0.29156379577E+02  0.41800000000E+01 0.  1.
        -11    1    4    4    0    0  0.10562114814E+02  0.71051497150E+01  0.23464511203E+02  0.26695031519E+02  0.00000000000E+00 0. -1.
         11    1    4    4    0    0  0.93459860085E+01  0.33011818654E+02 -0.79751888581E+02  0.86818726998E+02  0.00000000000E+00 0.  1.
</event>
<event>
 8    1  0.6684013E-009  0.2200530E+03  0.7561462E-02  0.1133844E+00
         -1   -1    0    0    0  501 -0.00000000000E+00  0.00000000000E+00  0.78725972508E+02  0.78725972508E+02  0.00000000000E+00 0.  1.
          1   -1    0    0  501    0  0.00000000000E+00 -0.00000000000E+00 -0.12620448081E+04  0.12620448081E+04  0.00000000000E+00 0. -1.
         25    2    1    2    0    0 -0.14137649456E+03  0.15131867427E+03 -0.10579386225E+04  0.10852498396E+04  0.12509368871E+03 0.  0.
         23    2    1    2    0    0  0.14137649456E+03 -0.15131867427E+03 -0.12538021311E+03  0.25552094103E+03  0.81768570188E+02 0.  0.
          5    1    3    3  502    0 -0.63534867565E+01  0.53988913795E+02 -0.50094827378E+03  0.50390655385E+03  0.41800000000E+01 0.  1.
         -5    1    3    3    0  502 -0.13502300781E+03  0.97329760475E+02 -0.55699034869E+03  0.58134328572E+03  0.41800000000E+01 0.  1.
        -11    1    4    4    0    0  0.28139195658E+02 -0.81102025137E+02 -0.71790191578E+02  0.11190703472E+03  0.00000000000E+00 0. -1.
         11    1    4    4    0    0  0.11323729890E+03 -0.70216649132E+02 -0.53590021531E+02  0.14361390631E+03  0.00000000000E+00 0.  1.
</event>
<event>
 8    1  0.6684013E-009  0.3098244E+03  0.7561462E-02  0.1080430E+00
         -1   -1    0    0    0  501 -0.00000000000E+00  0.00000000000E+00  0.65444410258E+03  0.65444410258E+03  0.00000000000E+00 0.  1.
          1   -1    0    0  501    0  0.00000000000E+00 -0.00000000000E+00 -0.17641869423E+03  0.17641869423E+03  0.00000000000E+00 0. -1.
         25    2    1    2    0    0 -0.17313109817E+03 -0.24208133276E+03  0.93604680328E+02  0.33613573151E+03  0.12509054718E+03 0.  0.
         23    2    1    2    0    0  0.17313109817E+03  0.24208133276E+03  0.38442072803E+03  0.49472706530E+03  0.91639643082E+02 0.  0.
          5    1    3    3  502    0 -0.14487366234E+03 -0.13407338974E+03  0.10537206066E+03  0.22379632580E+03  0.41800000000E+01 0. -1.
         -5    1    3    3    0  502 -0.28257435827E+02 -0.10800794302E+03 -0.11767380327E+02  0.11233940571E+03  0.41800000000E+01 0. -1.
        -11    1    4    4    0    0  0.30040799032E+01  0.64488031696E+02  0.65155229622E+02  0.91722051194E+02  0.00000000000E+00 0.  1.
         11    1    4    4    0    0  0.17012701826E+03  0.17759330106E+03  0.31926549840E+03  0.40300501411E+03  0.00000000000E+00 0. -1.
</event>
<event>
 8    1  0.6684013E-009  0.7504010E+02  0.7561462E-02  0.1343747E+00
          1   -1    0    0  501    0  0.00000000000E+00  0.00000000000E+00  0.28550716167E+03  0.28550716167E+03  0.00000000000E+00 0. -1.
         -1   -1    0    0    0  501 -0.00000000000E+00 -0.00000000000E+00 -0.52277905768E+02  0.52277905768E+02  0.00000000000E+00 0.  1.
         25    2    1    2    0    0  0.96806560582E+01  0.54613801056E+02  0.11036917280E+03  0.17579844817E+03  0.12508939886E+03 0.  0.
         23    2    1    2    0    0 -0.96806560582E+01 -0.54613801056E+02  0.12286008310E+03  0.16198661927E+03  0.89825845025E+02 0.  0.
          5    1    3    3  502    0  0.83110976809E+01  0.50912381904E+02  0.13809917748E+03  0.14747881270E+03  0.41800000000E+01 0.  1.
         -5    1    3    3    0  502  0.13695583773E+01  0.37014191517E+01 -0.27730004675E+02  0.28319635470E+02  0.41800000000E+01 0.  1.
        -11    1    4    4    0    0 -0.16725150399E+02  0.15084459144E+02  0.24164064105E+01  0.22651944364E+02  0.00000000000E+00 0.  1.
         11    1    4    4    0    0  0.70444943406E+01 -0.69698260201E+02  0.12044367669E+03  0.13933467490E+03  0.00000000000E+00 0. -1.
</event>
<event>
 8    1  0.6684013E-009  0.8686714E+02  0.7561462E-02  0.1310621E+00
         -2   -1    0    0    0  501 -0.00000000000E+00  0.00000000000E+00  0.16916092513E+02  0.16916092513E+02  0.00000000000E+00 0.  1.
          2   -1    0    0  501    0  0.00000000000E+00 -0.00000000000E+00 -0.16985279824E+04  0.16985279824E+04  0.00000000000E+00 0. -1.
         25    2    1    2    0    0  0.73995932503E+01  0.71152632249E+02 -0.14639371256E+04  0.14710100470E+04  0.12506478214E+03 0.  0.
         23    2    1    2    0    0 -0.73995932503E+01 -0.71152632249E+02 -0.21767476427E+03  0.24443402785E+03  0.85136595639E+02 0.  0.
          5    1    3    3  502    0 -0.26378569101E+02  0.21647259079E+02 -0.99888666165E+02  0.10563924821E+03  0.41800000000E+01 0.  1.
         -5    1    3    3    0  502  0.33778162352E+02  0.49505373170E+02 -0.13640484594E+04  0.13653707988E+04  0.41800000000E+01 0.  1.
        -11    1    4    4    0    0  0.10868146072E+02 -0.50716760048E+02 -0.20950760026E+03  0.21583266878E+03  0.00000000000E+00 0. -1.
         11    1    4    4    0    0 -0.18267739322E+02 -0.20435872201E+02 -0.81671640094E+01  0.28601359068E+02  0.00000000000E+00 0.  1.
</event>
<event>
 8    1  0.6684013E-009  0.1293849E+03  0.7561462E-02  0.1228371E+00
         -1   -1    0    0    0  501 -0.00000000000E+00  0.00000000000E+00  0.33236351734E+02  0.33236351734E+02  0.00000000000E+00 0.  1.
          1   -1    0    0  501    0  0.00000000000E+00 -0.00000000000E+00 -0.77041631791E+03  0.77041631791E+03  0.00000000000E+00 0. -1.
         25    2    1    2    0    0 -0.75535626662E+02  0.86391387668E+02 -0.45498867074E+03  0.48562483041E+03  0.12509069770E+03 0.  0.
         23    2    1    2    0    0  0.75535626662E+02 -0.86391387668E+02 -0.28219129544E+03  0.31802783923E+03  0.91327304511E+02 0.  0.
          5    1    3    3  502    0  0.92810845059E+00  0.95511358034E+01 -0.27688952475E+03  0.27708729111E+03  0.41800000000E+01 0. -1.
         -5    1    3    3    0  502 -0.76463735113E+02  0.76840251865E+02 -0.17809914600E+03  0.20853753930E+03  0.41800000000E+01 0. -1.
        -11    1    4    4    0    0  0.12387591736E+02 -0.74548510296E+02 -0.10361940442E+03  0.12824942023E+03  0.00000000000E+00 0.  1.
         11    1    4    4    0    0  0.63148034926E+02 -0.11842877373E+02 -0.17857189102E+03  0.18977841901E+03  0.00000000000E+00 0. -1.
</event>
<event>
 8    1  0.6684013E-009  0.1142290E+03  0.7561462E-02  0.1252933E+00
          1   -1    0    0  501    0  0.00000000000E+00  0.00000000000E+00  0.24723697233E+03  0.24723697233E+03  0.00000000000E+00 0. -1.
         -1   -1    0    0    0  501 -0.00000000000E+00 -0.00000000000E+00 -0.74671379606E+02  0.74671379606E+02  0.00000000000E+00 0.  1.
         25    2    1    2    0    0  0.49837948087E+02  0.61895480951E+02  0.10769372470E+03  0.18321347753E+03  0.12511741836E+03 0.  0.
         23    2    1    2    0    0 -0.49837948087E+02 -0.61895480951E+02  0.64871868018E+02  0.13869487440E+03  0.93343651601E+02 0.  0.
          5    1    3    3  502    0  0.83798577051E+02  0.66676347106E+02  0.55680799998E+02  0.12077152259E+03  0.41800000000E+01 0.  1.
         -5    1    3    3    0  502 -0.33960628964E+02 -0.47808661544E+01  0.52012924707E+02  0.62441954945E+02  0.41800000000E+01 0.  1.
        -11    1    4    4    0    0 -0.35863690200E+02 -0.16943600328E+02 -0.17866189530E+02  0.43502765374E+02  0.00000000000E+00 0.  1.
         11    1    4    4    0    0 -0.13974257887E+02 -0.44951880623E+02  0.82738057547E+02  0.95192109031E+02  0.00000000000E+00 0. -1.
</event>
<event>
 8    1  0.6684013E-009  0.3399377E+03  0.7561462E-02  0.1066822E+00
         -1   -1    0    0    0  501 -0.00000000000E+00  0.00000000000E+00  0.99754432753E+02  0.99754432753E+02  0.00000000000E+00 0.  1.
          1   -1    0    0  501    0  0.00000000000E+00 -0.00000000000E+00 -0.12310640423E+04  0.12310640423E+04  0.00000000000E+00 0. -1.
         25    2    1    2    0    0 -0.49052225528E+02 -0.32921000780E+03 -0.54134452938E+03  0.64767813177E+03  0.12509081827E+03 0.  0.
         23    2    1    2    0    0  0.49052225528E+02  0.32921000780E+03 -0.58996508012E+03  0.68314034324E+03  0.88524475301E+02 0.  0.
          5    1    3    3  502    0 -0.73603341026E+02 -0.20047914881E+03 -0.40877685325E+03  0.46122156181E+03  0.41800000000E+01 0.  1.
         -5    1    3    3    0  502  0.24551115498E+02 -0.12873085900E+03 -0.13256767612E+03  0.18645656996E+03  0.41800000000E+01 0.  1.
        -11    1    4    4    0    0  0.36528530391E+02  0.31048416816E+03 -0.49435134173E+03  0.58490854095E+03  0.00000000000E+00 0. -1.
         11    1    4    4    0    0  0.12523695137E+02  0.18725839642E+02 -0.95613738397E+02  0.98231802286E+02  0.00000000000E+00 0.  1.
</event>
<event>
 8    1  0.6684013E-009  0.9834971E+02  0.7561462E-02  0.1283805E+00
         -2   -1    0    0    0  501 -0.00000000000E+00  0.00000000000E+00  0.52916724583E+02  0.52916724583E+02  0.00000000000E+00 0.  1.
          2   -1    0    0  501    0  0.00000000000E+00 -0.00000000000E+00 -0.28451186265E+03  0.28451186265E+03  0.00000000000E+00 0. -1.
         25    2    1    2    0    0  0.12233362102E+02  0.28406103232E+02 -0.69215645415E+02  0.14627148915E+03  0.12509189070E+03 0.  0.
         23    2    1    2    0    0 -0.12233362102E+02 -0.28406103232E+02 -0.16237949265E+03  0.19115709808E+03  0.96007159444E+02 0.  0.
          5    1    3    3  502    0  0.21993201826E+02 -0.39890473208E+02  0.35893972849E+01  0.45883624009E+02  0.41800000000E+01 0.  1.
         -5    1    3    3    0  502 -0.97598397244E+01  0.68296576440E+02 -0.72805042700E+02  0.10038786514E+03  0.41800000000E+01 0.  1.
        -11    1    4    4    0    0 -0.37717425439E+02  0.68530478616E+01 -0.13360903348E+03  0.13899979235E+03  0.00000000000E+00 0. -1.
         11    1    4    4    0    0  0.25484063337E+02 -0.35259151094E+02 -0.28770459170E+02  0.52157305728E+02  0.00000000000E+00 0.  1.
</event>
<event>
 8    1  0.6684013E-009  0.9603568E+02  0.7561462E-02  0.1288860E+00
         -2   -1    0    0    0  501 -0.00000000000E+00  0.00000000000E+00  0.24728895488E+02  0.24728895488E+02  0.00000000000E+00 0.  1.
          2   -1    0    0  501    0  0.00000000000E+00 -0.00000000000E+00 -0.58633979155E+03  0.58633979155E+03  0.00000000000E+00 0. -1.
         25    2    1    2    0    0  0.33019883457E+02 -0.25593393996E+02 -0.39936816643E+03  0.42057909673E+03  0.12508600933E+03 0.  0.
         23    2    1    2    0    0 -0.33019883457E+02  0.25593393996E+02 -0.16224272963E+03  0.19048959030E+03  0.90654543055E+02 0.  0.
          5    1    3    3  502    0 -0.16844197749E+02 -0.55408291108E+02 -0.29855280248E+03  0.30414643511E+03  0.41800000000E+01 0. -1.
         -5    1    3    3    0  502  0.49864081206E+02  0.29814897112E+02 -0.10081536395E+03  0.11643266162E+03  0.41800000000E+01 0. -1.
        -11    1    4    4    0    0 -0.17913520401E+02  0.46578156700E+02 -0.35766978181E+02  0.61397847055E+02  0.00000000000E+00 0.  1.
         11    1    4    4    0    0 -0.15106363056E+02 -0.20984762704E+02 -0.12647575145E+03  0.12909174325E+03  0.00000000000E+00 0. -1.
</event>
<event>
 8    1  0.6684013E-009  0.1044692E+03  0.7561462E-02  0.1271169E+00
          1   -1    0    0  501    0  0.00000000000E+00  0.00000000000E+00  0.12618905769E+03  0.12618905769E+03  0.00000000000E+00 0. -1.
         -1   -1    0    0    0  501 -0.00000000000E+00 -0.00000000000E+00 -0.13249899702E+03  0.13249899702E+03  0.00000000000E+00 0.  1.
         25    2    1    2    0    0 -0.52363922463E+02 -0.49773919963E+02 -0.24426780406E+01  0.14448352268E+03  0.12510035238E+03 0.  0.
         23    2    1    2    0    0  0.52363922463E+02  0.49773919963E+02 -0.38672612838E+01  0.11420453203E+03  0.88364562711E+02 0.  0.
          5    1    3    3  502    0 -0.21236974275E+02 -0.85816747172E+02 -0.24501918431E+02  0.91833216095E+02  0.41800000000E+01 0. -1.
         -5    1    3    3    0  502 -0.31126948188E+02  0.36042827209E+02  0.22059240391E+02  0.52650306583E+02  0.41800000000E+01 0. -1.
        -11    1    4    4    0    0  0.68028658949E+01  0.10307482848E+02 -0.41395869482E+02  0.43198856434E+02  0.00000000000E+00 0.  1.
         11    1    4    4    0    0  0.45561056568E+02  0.39466437115E+02  0.37528608198E+02  0.71005675600E+02  0.00000000000E+00 0. -1.
</event>
<event>
 8    1  0.6684013E-009  0.2052524E+03  0.7561462E-02  0.1145382E+00
          4   -1    0    0  501    0  0.00000000000E+00  0.00000000000E+00  0.30328017448E+03  0.30328017448E+03  0.00000000000E+00 0. -1.
         -4   -1    0    0    0  501 -0.00000000000E+00 -0.00000000000E+00 -0.16834764436E+03  0.16834764436E+03  0.00000000000E+00 0.  1.
         25    2    1    2    0    0 -0.45242610365E+02 -0.19139020397E+03  0.86209805349E+02  0.24850788570E+03  0.12508770821E+03 0.  0.
         23    2    1    2    0    0  0.45242610365E+02  0.19139020397E+03  0.48722724771E+02  0.22311993315E+03  0.93442477961E+02 0.  0.
          5    1    3    3  502    0 -0.24319596626E+02 -0.83690128919E+02  0.10563460594E+03  0.13700957204E+03  0.41800000000E+01 0.  1.
         -5    1    3    3    0  502 -0.20923013739E+02 -0.10770007506E+03 -0.19424800588E+02  0.11149831366E+03  0.41800000000E+01 0.  1.
        -11    1    4    4    0    0  0.26498460610E+02  0.19284669901E+03  0.30678874056E+02  0.19706143978E+03  0.00000000000E+00 0.  1.
         11    1    4    4    0    0  0.18744149755E+02 -0.14564950384E+01  0.18043850715E+02  0.26058493365E+02  0.00000000000E+00 0. -1.
</event>
<event>
 8    1  0.6684013E-009  0.1071780E+03  0.7561462E-02  0.1265887E+00
         -2   -1    0    0    0  501 -0.00000000000E+00  0.00000000000E+00  0.83949048335E+02  0.83949048335E+02  0.00000000000E+00 0.  1.
          2   -1    0    0  501    0  0.00000000000E+00 -0.00000000000E+00 -0.16962294882E+03  0.16962294882E+03  0.00000000000E+00 0. -1.
         25    2    1    2    0    0 -0.13729125694E+01 -0.49954351721E+02 -0.41056800947E+02  0.14082193017E+03  0.12509129853E+03 0.  0.
         23    2    1    2    0    0  0.13729125694E+01  0.49954351721E+02 -0.44617099542E+02  0.11275006699E+03  0.90689414426E+02 0.  0.
          5    1    3    3  502    0  0.17990598427E+02 -0.89007015213E+02 -0.28558718153E+02  0.95283698351E+02  0.41800000000E+01 0.  1.
         -5    1    3    3    0  502 -0.19363510996E+02  0.39052663492E+02 -0.12498082794E+02  0.45538231822E+02  0.41800000000E+01 0.  1.
        -11    1    4    4    0    0  0.16025511190E+02 -0.93648833277E+01  0.17577006090E+02  0.25563043476E+02  0.00000000000E+00 0.  1.
         11    1    4    4    0    0 -0.14652598621E+02  0.59319235048E+02 -0.62194105632E+02  0.87187023509E+02  0.00000000000E+00 0. -1.
</event>
<event>
 8    1  0.6684013E-009  0.1280516E+03  0.7561462E-02  0.1230376E+00
         -4   -1    0    0    0  501 -0.00000000000E+00  0.00000000000E+00  0.18363287974E+03  0.18363287974E+03  0.00000000000E+00 0.  1.
          4   -1    0    0  501    0  0.00000000000E+00 -0.00000000000E+00 -0.10183546515E+03  0.10183546515E+03  0.00000000000E+00 0. -1.
         25    2    1    2    0    0 -0.13895468799E+02 -0.78902240331E+02  0.62491720932E+02  0.16115646044E+03  0.12509013539E+03 0.  0.
         23    2    1    2    0    0  0.13895468799E+02  0.78902240331E+02  0.19305693656E+02  0.12431188445E+03  0.93070334828E+02 0.  0.
          5    1    3    3  502    0  0.53593835224E+02 -0.54199706446E+02  0.36542063105E+02  0.84632748560E+02  0.41800000000E+01 0.  1.
         -5    1    3    3    0  502 -0.67489304023E+02 -0.24702533885E+02  0.25949657827E+02  0.76523711876E+02  0.41800000000E+01 0.  1.
        -11    1    4    4    0    0  0.76130305797E+01 -0.13319035004E+02 -0.18856550228E+02  0.24308936928E+02  0.00000000000E+00 0. -1.
         11    1    4    4    0    0  0.62824382198E+01  0.92221275335E+02  0.38162243884E+02  0.10000294752E+03  0.00000000000E+00 0.  1.
</event>
<event>
 8    1  0.6684013E-009  0.1111591E+03  0.7561462E-02  0.1258438E+00
          1   -1    0    0  501    0  0.00000000000E+00  0.00000000000E+00  0.18152353289E+03  0.18152353289E+03  0.00000000000E+00 0. -1.
         -1   -1    0    0    0  501 -0.00000000000E+00 -0.00000000000E+00 -0.81199132121E+02  0.81199132121E+02  0.00000000000E+00 0.  1.
         25    2    1    2    0    0 -0.55618382296E+02  0.17233664658E+02  0.54062788109E+02  0.14819707155E+03  0.12509669584E+03 0.  0.
         23    2    1    2    0    0  0.55618382296E+02 -0.17233664658E+02  0.46261612662E+02  0.11452559347E+03  0.87095184175E+02 0.  0.
          5    1    3    3  502    0  0.39575061202E+02 -0.21331942969E+01  0.23540119079E+02  0.46285479292E+02  0.41800000000E+01 0.  1.
         -5    1    3    3    0  502 -0.95193443498E+02  0.19366858955E+02  0.30522669030E+02  0.10191159225E+03  0.41800000000E+01 0.  1.
        -11    1    4    4    0    0 -0.63421894950E+01 -0.22185669446E+02  0.47004862988E+02  0.52363006415E+02  0.00000000000E+00 0. -1.
         11    1    4    4    0    0  0.61960571791E+02  0.49520047885E+01 -0.74325032511E+00  0.62162587053E+02  0.00000000000E+00 0.  1.
</event>
<event>
 8    1  0.6684013E-009  0.9660210E+02  0.7561462E-02  0.1287608E+00
          3   -1    0    0  501    0  0.00000000000E+00  0.00000000000E+00  0.38039259868E+02  0.38039259868E+02  0.00000000000E+00 0. -1.
         -3   -1    0    0    0  501 -0.00000000000E+00 -0.00000000000E+00 -0.43895712398E+03  0.43895712398E+03  0.00000000000E+00 0.  1.
         25    2    1    2    0    0 -0.73379452572E+01 -0.69039501650E+02 -0.21218731175E+03  0.25591390565E+03  0.12509266008E+03 0.  0.
         23    2    1    2    0    0  0.73379452572E+01  0.69039501650E+02 -0.18873055237E+03  0.22108247821E+03  0.91858274231E+02 0.  0.
          5    1    3    3  502    0  0.11918167291E+02  0.13050725505E+02 -0.14991127525E+03  0.15100737398E+03  0.41800000000E+01 0.  1.
         -5    1    3    3    0  502 -0.19256112548E+02 -0.82090227156E+02 -0.62276036497E+02  0.10490653167E+03  0.41800000000E+01 0.  1.
        -11    1    4    4    0    0  0.32769750220E+02  0.44643558709E+02 -0.17449945643E+03  0.18307638886E+03  0.00000000000E+00 0.  1.
         11    1    4    4    0    0 -0.25431804963E+02  0.24395942941E+02 -0.14231095932E+02  0.38006089342E+02  0.00000000000E+00 0. -1.
</event>
<event>
 8    1  0.6684013E-009  0.1651633E+03  0.7561462E-02  0.1182988E+00
          2   -1    0    0  501    0  0.00000000000E+00  0.00000000000E+00  0.14308205810E+04  0.14308205810E+04  0.00000000000E+00 0. -1.
         -2   -1    0    0    0  501 -0.00000000000E+00 -0.00000000000E+00 -0.22192117386E+02  0.22192117386E+02  0.00000000000E+00 0.  1.
         25    2    1    2    0    0 -0.11092982072E+03  0.57344966991E+02  0.10098448796E+04  0.10251960056E+04  0.12508516508E+03 0.  0.
         23    2    1    2    0    0  0.11092982072E+03 -0.57344966991E+02  0.39878358394E+03  0.42781669278E+03  0.91678271380E+02 0.  0.
          5    1    3    3  502    0  0.25615654422E+02 -0.46118490830E+01  0.17665446827E+03  0.17861048251E+03  0.41800000000E+01 0.  1.
         -5    1    3    3    0  502 -0.13654547514E+03  0.61956816074E+02  0.83319041137E+03  0.84658552306E+03  0.41800000000E+01 0.  1.
        -11    1    4    4    0    0  0.33870435771E+02 -0.68195416886E+02  0.22092952092E+03  0.23368285029E+03  0.00000000000E+00 0. -1.
         11    1    4    4    0    0  0.77059384951E+02  0.10850449895E+02  0.17785406301E+03  0.19413384250E+03  0.00000000000E+00 0.  1.
</event>
<event>
 8    1  0.6684013E-009  0.8647701E+02  0.7561462E-02  0.1311615E+00
         -1   -1    0    0    0  501 -0.00000000000E+00  0.00000000000E+00  0.45990093458E+03  0.45990093458E+03  0.00000000000E+00 0.  1.
          1   -1    0    0  501    0  0.00000000000E+00 -0.00000000000E+00 -0.28886918261E+02  0.28886918261E+02  0.00000000000E+00 0. -1.
         25    2    1    2    0    0 -0.37181133353E+02  0.84733519091E+01  0.23608052502E+03  0.26987957939E+03  0.12508692461E+03 0.  0.
         23    2    1    2    0    0  0.37181133353E+02 -0.84733519091E+01  0.19493349130E+03  0.21890827345E+03  0.92019192482E+02 0.  0.
          5    1    3    3  502    0 -0.22766316882E+02 -0.48192296586E+02  0.18351285822E+03  0.19114194769E+03  0.41800000000E+01 0.  1.
         -5    1    3    3    0  502 -0.14414816471E+02  0.56665648495E+02  0.52567666805E+02  0.78737631705E+02  0.41800000000E+01 0.  1.
        -11    1    4    4    0    0  0.20985668175E+02 -0.28324792041E+02  0.18945829168E+03  0.19270998002E+03  0.00000000000E+00 0.  1.
         11    1    4    4    0    0  0.16195465179E+02  0.19851440131E+02  0.54751996146E+01  0.26198293427E+02  0.00000000000E+00 0. -1.
</event>
<event>
 8    1  0.6684013E-009  0.9616072E+02  0.7561462E-02  0.1288583E+00
         -4   -1    0    0    0  501 -0.00000000000E+00  0.00000000000E+00  0.67297102031E+02  0.67297102031E+02  0.00000000000E+00 0.  1.
          4   -1    0    0  501    0  0.00000000000E+00 -0.00000000000E+00 -0.21623797817E+03  0.21623797817E+03  0.00000000000E+00 0. -1.
         25    2    1    2    0    0 -0.42635676913E+02  0.72866863081E+01 -0.12182590118E+03  0.17988749209E+03  0.12508822035E+03 0.  0.
         23    2    1    2    0    0  0.42635676913E+02 -0.72866863081E+01 -0.27114974960E+02  0.10364758810E+03  0.90203680133E+02 0.  0.
          5    1    3    3  502    0 -0.67030674013E+02  0.11093006489E+02 -0.13529447224E+03  0.15145373112E+03  0.41800000000E+01 0. -1.
         -5    1    3    3    0  502  0.24394997100E+02 -0.38063201813E+01  0.13468571061E+02  0.28433760976E+02  0.41800000000E+01 0. -1.
        -11    1    4    4    0    0 -0.16962489834E+02  0.25925535267E+02 -0.14730435958E+02  0.34305177215E+02  0.00000000000E+00 0. -1.
         11    1    4    4    0    0  0.59598166748E+02 -0.33212221575E+02 -0.12384539002E+02  0.69342410889E+02  0.00000000000E+00 0.  1.
</event>
<event>
 8    1  0.6684013E-009  0.7620691E+02  0.7561462E-02  0.1340174E+00
          2   -1    0    0  501    0  0.00000000000E+00  0.00000000000E+00  0.76670673180E+02  0.76670673180E+02  0.00000000000E+00 0. -1.
         -2   -1    0    0    0  501 -0.00000000000E+00 -0.00000000000E+00 -0.15759250660E+03  0.15759250660E+03  0.00000000000E+00 0.  1.
         25    2    1    2    0    0 -0.45251756497E+00  0.22174551112E+02 -0.30083049752E+02  0.13055341915E+03  0.12508912775E+03 0.  0.
         23    2    1    2    0    0  0.45251756497E+00 -0.22174551112E+02 -0.50838783667E+02  0.10370976063E+03  0.87631141927E+02 0.  0.
          5    1    3    3  502    0 -0.23938718345E+02  0.45146252327E+02  0.31824025200E+02  0.60344737261E+02  0.41800000000E+01 0. -1.
         -5    1    3    3    0  502  0.23486200780E+02 -0.22971701215E+02 -0.61907074952E+02  0.70208681891E+02  0.41800000000E+01 0. -1.
        -11    1    4    4    0    0 -0.31834203198E+02 -0.13612716845E+02  0.84682667444E+01  0.35643149339E+02  0.00000000000E+00 0. -1.
         11    1    4    4    0    0  0.32286720763E+02 -0.85618342678E+01 -0.59307050411E+02  0.68066611287E+02  0.00000000000E+00 0.  1.
</event>
<event>
 8    1  0.6684013E-009  0.1064176E+03  0.7561462E-02  0.1267352E+00
         -1   -1    0    0    0  501 -0.00000000000E+00  0.00000000000E+00  0.82257188028E+02  0.82257188028E+02  0.00000000000E+00 0.  1.
          1   -1    0    0  501    0  0.00000000000E+00 -0.00000000000E+00 -0.23064499612E+03  0.23064499612E+03  0.00000000000E+00 0. -1.
         25    2    1    2    0    0  0.47421091194E+02  0.31409126755E+02 -0.43242618844E+02  0.14404982781E+03  0.12508051677E+03 0.  0.
         23    2    1    2    0    0 -0.47421091194E+02 -0.31409126755E+02 -0.10514518925E+03  0.16885235634E+03  0.11924895926E+03 0.  0.
          5    1    3    3  502    0  0.51755328467E+02 -0.20689225158E+02 -0.66336811412E+02  0.86745046030E+02  0.41800000000E+01 0. -1.
         -5    1    3    3    0  502 -0.43342372737E+01  0.52098351913E+02  0.23094192568E+02  0.57304781783E+02  0.41800000000E+01 0. -1.
        -11    1    4    4    0    0 -0.82133658412E+01 -0.57056671869E+02 -0.10745888434E+03  0.12194398307E+03  0.00000000000E+00 0. -1.
         11    1    4    4    0    0 -0.39207725352E+02  0.25647545113E+02  0.23136950904E+01  0.46908373268E+02  0.00000000000E+00 0.  1.
</event>
<event>
 8    1  0.6684013E-009  0.1319467E+03  0.7561462E-02  0.1224595E+00
         -1   -1    0    0    0  501 -0.00000000000E+00  0.00000000000E+00  0.16336207631E+03  0.16336207631E+03  0.00000000000E+00 0.  1.
          1   -1    0    0  501    0  0.00000000000E+00 -0.00000000000E+00 -0.11549801720E+03  0.11549801720E+03  0.00000000000E+00 0. -1.
         25    2    1    2    0    0 -0.71650007451E+02 -0.36059412832E+02  0.52068643450E+02  0.15744778283E+03  0.12507859875E+03 0.  0.
         23    2    1    2    0    0  0.71650007451E+02  0.36059412832E+02 -0.42045843372E+01  0.12141231068E+03  0.91045405342E+02 0.  0.
          5    1    3    3  502    0 -0.10713746248E+03 -0.21331614709E+02  0.32047692734E+02  0.11392102819E+03  0.41800000000E+01 0. -1.
         -5    1    3    3    0  502  0.35487455033E+02 -0.14727798123E+02  0.20020950716E+02  0.43526754644E+02  0.41800000000E+01 0. -1.
        -11    1    4    4    0    0  0.30764480168E+02  0.60796797552E+02  0.15240240549E+02  0.69820976537E+02  0.00000000000E+00 0.  1.
         11    1    4    4    0    0  0.40885527283E+02 -0.24737384720E+02 -0.19444824886E+02  0.51591334144E+02  0.00000000000E+00 0. -1.
</event>
<event>
 8    1  0.6684013E-009  0.8701342E+02  0.7561462E-02  0.1310250E+00
          2   -1    0    0  501    0  0.00000000000E+00  0.00000000000E+00  0.10363265287E+04  0.10363265287E+04  0.00000000000E+00 0. -1.
         -2   -1    0    0    0  501 -0.00000000000E+00 -0.00000000000E+00 -0.12668342190E+02  0.12668342190E+02  0.00000000000E+00 0.  1.
         25    2    1    2    0    0  0.13176863031E+01 -0.25184185699E+02  0.70313975401E+03  0.71462488178E+03  0.12508888235E+03 0.  0.
         23    2    1    2    0    0 -0.13176863031E+01  0.25184185699E+02  0.32051843255E+03  0.33436998915E+03  0.91843587349E+02 0.  0.
          5    1    3    3  502    0 -0.26571209670E+02 -0.46609296209E+02  0.63977552579E+03  0.64203477436E+03  0.41800000000E+01 0.  1.
         -5    1    3    3    0  502  0.27888895973E+02  0.21425110511E+02  0.63364228215E+02  0.72590107427E+02  0.41800000000E+01 0.  1.
        -11    1    4    4    0    0  0.36156595415E+02  0.30042498475E+02  0.98306470471E+02  0.10896794594E+03  0.00000000000E+00 0.  1.
         11    1    4    4    0    0 -0.37474281718E+02 -0.48583127767E+01  0.22221196208E+03  0.22540204321E+03  0.00000000000E+00 0. -1.
</event>
<event>
 8    1  0.6684013E-009  0.1373113E+03  0.7561462E-02  0.1216993E+00
         -1   -1    0    0    0  501 -0.00000000000E+00  0.00000000000E+00  0.83357375194E+02  0.83357375194E+02  0.00000000000E+00 0.  1.
          1   -1    0    0  501    0  0.00000000000E+00 -0.00000000000E+00 -0.30931311210E+03  0.30931311210E+03  0.00000000000E+00 0. -1.
         25    2    1    2    0    0 -0.64822510944E+02  0.98312847707E+02 -0.96270210382E+02  0.19693474222E+03  0.12509182761E+03 0.  0.
         23    2    1    2    0    0  0.64822510944E+02 -0.98312847707E+02 -0.12968552653E+03  0.19573574508E+03  0.87331392763E+02 0.  0.
          5    1    3    3  502    0 -0.41984573919E+01  0.86764753160E+02 -0.55630817811E+01  0.87144533474E+02  0.41800000000E+01 0.  1.
         -5    1    3    3    0  502 -0.60624053552E+02  0.11548094547E+02 -0.90707128601E+02  0.10979020874E+03  0.41800000000E+01 0.  1.
        -11    1    4    4    0    0  0.60445947741E+02 -0.53341739344E+02 -0.29521166476E+02  0.85851924991E+02  0.00000000000E+00 0.  1.
         11    1    4    4    0    0  0.43765632035E+01 -0.44971108363E+02 -0.10016436005E+03  0.10988382009E+03  0.00000000000E+00 0. -1.
</event>
<event>
 8    1  0.6684013E-009  0.1518557E+03  0.7561462E-02  0.1198211E+00
          2   -1    0    0  501    0  0.00000000000E+00  0.00000000000E+00  0.16271156741E+04  0.16271156741E+04  0.00000000000E+00 0. -1.
         -2   -1    0    0    0  501 -0.00000000000E+00 -0.00000000000E+00 -0.16875892796E+02  0.16875892796E+02  0.00000000000E+00 0.  1.
         25    2    1    2    0    0  0.71349123685E+02 -0.96164075456E+02  0.10388629964E+04  0.10531963271E+04  0.12509177130E+03 0.  0.
         23    2    1    2    0    0 -0.71349123685E+02  0.96164075456E+02  0.57137678489E+03  0.59079523979E+03  0.90715810035E+02 0.  0.
          5    1    3    3  502    0 -0.11379882476E+02  0.16225273607E+02  0.42280791006E+02  0.46881754627E+02  0.41800000000E+01 0.  1.
         -5    1    3    3    0  502  0.82729006162E+02 -0.11238934906E+03  0.99658220542E+03  0.10063145725E+04  0.41800000000E+01 0.  1.
        -11    1    4    4    0    0  0.17338854609E+02  0.23390863037E+02  0.59788700890E+02  0.66501557177E+02  0.00000000000E+00 0. -1.
         11    1    4    4    0    0 -0.88687978294E+02  0.72773212419E+02  0.51158808400E+03  0.52429368262E+03  0.00000000000E+00 0.  1.
</event>
<event>
 8    1  0.6684013E-009  0.1097913E+03  0.7561462E-02  0.1260957E+00
         -3   -1    0    0    0  501 -0.00000000000E+00  0.00000000000E+00  0.37616271494E+03  0.37616271494E+03  0.00000000000E+00 0.  1.
          3   -1    0    0  501    0  0.00000000000E+00 -0.00000000000E+00 -0.43286510181E+02  0.43286510181E+02  0.00000000000E+00 0. -1.
         25    2    1    2    0    0  0.66965704972E+02  0.29901622451E+01  0.17099873584E+03  0.22221890420E+03  0.12508927618E+03 0.  0.
         23    2    1    2    0    0 -0.66965704972E+02 -0.29901622451E+01  0.16187746892E+03  0.19723032091E+03  0.90565654811E+02 0.  0.
          5    1    3    3  502    0 -0.17027611571E+02  0.32091606248E+02  0.94322506464E+01  0.37765731817E+02  0.41800000000E+01 0. -1.
         -5    1    3    3    0  502  0.83993316543E+02 -0.29101444003E+02  0.16156648519E+03  0.18445317239E+03  0.41800000000E+01 0. -1.
        -11    1    4    4    0    0  0.43679101399E+01  0.18906872546E+02  0.95211327854E+02  0.97168644224E+02  0.00000000000E+00 0.  1.
         11    1    4    4    0    0 -0.71333615112E+02 -0.21897034791E+02  0.66666141065E+02  0.10006167669E+03  0.00000000000E+00 0. -1.
</event>
<event>
 8    1  0.6684013E-009  0.1098104E+03  0.7561462E-02  0.1260921E+00
          2   -1    0    0  501    0  0.00000000000E+00  0.00000000000E+00  0.27159004241E+03  0.27159004241E+03  0.00000000000E+00 0. -1.
         -2   -1    0    0    0  501 -0.00000000000E+00 -0.00000000000E+00 -0.78125310652E+02  0.78125310652E+02  0.00000000000E+00 0.  1.
         25    2    1    2    0    0  0.62772176331E+01 -0.41372180384E+02  0.37144010159E+00  0.13190128125E+03  0.12508696678E+03 0.  0.
         23    2    1    2    0    0 -0.62772176331E+01  0.41372180384E+02  0.19309329166E+03  0.21781407181E+03  0.91689093265E+02 0.  0.
          5    1    3    3  502    0 -0.37882801940E+01  0.38166047766E+02 -0.26991029780E+02  0.47084884597E+02  0.41800000000E+01 0. -1.
         -5    1    3    3    0  502  0.10065497827E+02 -0.79538228151E+02  0.27362469882E+02  0.84816396657E+02  0.41800000000E+01 0. -1.
        -11    1    4    4    0    0 -0.46578744898E+02  0.56790762934E+01  0.92486489151E+02  0.10370912235E+03  0.00000000000E+00 0.  1.
         11    1    4    4    0    0  0.40301527265E+02  0.35693104091E+02  0.10060680251E+03  0.11410494945E+03  0.00000000000E+00 0. -1.
</event>
<event>
 8    1  0.6684013E-009  0.1078508E+03  0.7561462E-02  0.1264602E+00
         -2   -1    0    0    0  501 -0.00000000000E+00  0.00000000000E+00  0.26439012760E+02  0.26439012760E+02  0.00000000000E+00 0.  1.
          2   -1    0    0  501    0  0.00000000000E+00 -0.00000000000E+00 -0.73008297513E+03  0.73008297513E+03  0.00000000000E+00 0. -1.
         25    2    1    2    0    0 -0.30559501532E+02 -0.80300160547E+02 -0.35272484610E+03  0.38398310653E+03  0.12508481173E+03 0.  0.
         23    2    1    2    0    0  0.30559501532E+02  0.80300160547E+02 -0.35091911626E+03  0.37253888135E+03  0.90879002215E+02 0.  0.
          5    1    3    3  502    0 -0.55648162572E+01  0.67036080774E+01  0.76905885745E+01  0.12350024043E+02  0.41800000000E+01 0. -1.
         -5    1    3    3    0  502 -0.24994685274E+02 -0.87003768625E+02 -0.36041543468E+03  0.37163308249E+03  0.41800000000E+01 0. -1.
        -11    1    4    4    0    0 -0.19108175101E+02  0.57829644060E+02 -0.11209734386E+03  0.12757431006E+03  0.00000000000E+00 0. -1.
         11    1    4    4    0    0  0.49667676633E+02  0.22470516488E+02 -0.23882177241E+03  0.24496457129E+03  0.00000000000E+00 0.  1.
</event>
<event>
 8    1  0.6684013E-009  0.8818203E+02  0.7561462E-02  0.1307315E+00
         -1   -1    0    0    0  501 -0.00000000000E+00  0.00000000000E+00  0.22210081252E+03  0.22210081252E+03  0.00000000000E+00 0.  1.
          1   -1    0    0  501    0  0.00000000000E+00 -0.00000000000E+00 -0.57441820069E+02  0.57441820069E+02  0.00000000000E+00 0. -1.
         25    2    1    2    0    0  0.22713135911E+02  0.36546652431E+01  0.70977241109E+02  0.14566621015E+03  0.12510648625E+03 0.  0.
         23    2    1    2    0    0 -0.22713135911E+02 -0.36546652431E+01  0.93681751338E+02  0.13387642244E+03  0.92829859584E+02 0.  0.
          5    1    3    3  502    0 -0.21067007680E+01  0.39784458990E+02  0.89377252740E+02  0.97943897577E+02  0.41800000000E+01 0. -1.
         -5    1    3    3    0  502  0.24819836679E+02 -0.36129793747E+02 -0.18400011630E+02  0.47722312569E+02  0.41800000000E+01 0. -1.
        -11    1    4    4    0    0 -0.54770826760E+02  0.12788363267E+02  0.73596417380E+02  0.92627308880E+02  0.00000000000E+00 0.  1.
         11    1    4    4    0    0  0.32057690850E+02 -0.16443028510E+02  0.20085333957E+02  0.41249113559E+02  0.00000000000E+00 0. -1.
</event>
<event>
 8    1  0.6684013E-009  0.2204947E+03  0.7561462E-02  0.1133515E+00
         -1   -1    0    0    0  501 -0.00000000000E+00  0.00000000000E+00  0.15785976676E+03  0.15785976676E+03  0.00000000000E+00 0.  1.
          1   -1    0    0  501    0  0.00000000000E+00 -0.00000000000E+00 -0.50533014269E+03  0.50533014269E+03  0.00000000000E+00 0. -1.
         25    2    1    2    0    0  0.11414829733E+03 -0.18281884385E+03 -0.35010817030E+03  0.42973681694E+03  0.12508172318E+03 0.  0.
         23    2    1    2    0    0 -0.11414829733E+03  0.18281884385E+03  0.26377943593E+01  0.23345309251E+03  0.89670647334E+02 0.  0.
          5    1    3    3  502    0  0.84698916950E+01 -0.64914865667E+01 -0.12239593695E+03  0.12293134769E+03  0.41800000000E+01 0. -1.
         -5    1    3    3    0  502  0.10567840564E+03 -0.17632735728E+03 -0.22771223334E+03  0.30680546925E+03  0.41800000000E+01 0. -1.
        -11    1    4    4    0    0 -0.11160713273E+03  0.13126110267E+03  0.30220803274E+02  0.17492548728E+03  0.00000000000E+00 0.  1.
         11    1    4    4    0    0 -0.25411646043E+01  0.51557741181E+02 -0.27583008915E+02  0.58527605231E+02  0.00000000000E+00 0. -1.
</event>
<event>
 8    1  0.6684013E-009  0.8691803E+02  0.7561462E-02  0.1310492E+00
         -2   -1    0    0    0  501 -0.00000000000E+00  0.00000000000E+00  0.53156464564E+02  0.53156464564E+02  0.00000000000E+00 0.  1.
          2   -1    0    0  501    0  0.00000000000E+00 -0.00000000000E+00 -0.28316531175E+03  0.28316531175E+03  0.00000000000E+00 0. -1.
         25    2    1    2    0    0 -0.48919616202E+02  0.44191531150E+01 -0.87688104515E+02  0.16046580099E+03  0.12508961528E+03 0.  0.
         23    2    1    2    0    0  0.48919616202E+02 -0.44191531150E+01 -0.14232074267E+03  0.17585597532E+03  0.90870636068E+02 0.  0.
          5    1    3    3  502    0 -0.59673142864E+02  0.63524886570E+01 -0.11553716217E+03  0.13025953452E+03  0.41800000000E+01 0.  1.
         -5    1    3    3    0  502  0.10753526662E+02 -0.19333355420E+01  0.27849057651E+02  0.30206266470E+02  0.41800000000E+01 0.  1.
        -11    1    4    4    0    0 -0.25376828477E+02  0.81002357099E+01 -0.25704743377E+02  0.37017983119E+02  0.00000000000E+00 0.  1.
         11    1    4    4    0    0  0.74296444679E+02 -0.12519388825E+02 -0.11661599929E+03  0.13883799220E+03  0.00000000000E+00 0. -1.
</event>
<event>
 8    1  0.6684013E-009  0.1735792E+03  0.7561462E-02  0.1174166E+00
          3   -1    0    0  501    0  0.00000000000E+00  0.00000000000E+00  0.25012362348E+03  0.25012362348E+03  0.00000000000E+00 0. -1.
         -3   -1    0    0    0  501 -0.00000000000E+00 -0.00000000000E+00 -0.16752159345E+03  0.16752159345E+03  0.00000000000E+00 0.  1.
         25    2    1    2    0    0 -0.56478818625E+02  0.14794109764E+03  0.10436508839E+03  0.22719262749E+03  0.12509193814E+03 0.  0.
         23    2    1    2    0    0  0.56478818625E+02 -0.14794109764E+03 -0.21763058363E+02  0.19045258945E+03  0.10354773196E+03 0.  0.
          5    1    3    3  502    0 -0.23323033057E+02  0.15311449080E+03  0.49333731333E+02  0.16260166239E+03  0.41800000000E+01 0.  1.
         -5    1    3    3    0  502 -0.33155785568E+02 -0.51733931620E+01  0.55031357058E+02  0.64590965104E+02  0.41800000000E+01 0.  1.
        -11    1    4    4    0    0  0.28378676959E+02 -0.68778557609E+02 -0.62429193328E+02  0.97124885958E+02  0.00000000000E+00 0.  1.
         11    1    4    4    0    0  0.28100141666E+02 -0.79162540029E+02  0.40666134965E+02  0.93327703489E+02  0.00000000000E+00 0. -1.
</event>
<event>
 8    1  0.6684013E-009  0.9453594E+02  0.7561462E-02  0.1292225E+00
         -1   -1    0    0    0  501 -0.00000000000E+00  0.00000000000E+00  0.23061249405E+02  0.23061249405E+02  0.00000000000E+00 0.  1.
          1   -1    0    0  501    0  0.00000000000E+00 -0.00000000000E+00 -0.87279454732E+03  0.87279454732E+03  0.00000000000E+00 0. -1.
         25    2    1    2    0    0  0.28186066416E+01  0.62112174467E+02 -0.25164460880E+03  0.28781511166E+03  0.12508662039E+03 0.  0.
         23    2    1    2    0    0 -0.28186066416E+01 -0.62112174467E+02 -0.59808868912E+03  0.60804068507E+03  0.90208247329E+02 0.  0.
          5    1    3    3  502    0  0.26612232529E+02  0.35512290179E+02 -0.24768620773E+03  0.25166498281E+03  0.41800000000E+01 0. -1.
         -5    1    3    3    0  502 -0.23793625887E+02  0.26599884288E+02 -0.39584010740E+01  0.36150128852E+02  0.41800000000E+01 0. -1.
        -11    1    4    4    0    0 -0.21661632301E+02  0.16813828220E+02 -0.11811969056E+03  0.12126084460E+03  0.00000000000E+00 0.  1.
         11    1    4    4    0    0  0.18843025659E+02 -0.78926002687E+02 -0.47996899855E+03  0.48677984047E+03  0.00000000000E+00 0. -1.
</event>
<event>
 8    1  0.6684013E-009  0.1195955E+03  0.7561462E-02  0.1243766E+00
          1   -1    0    0  501    0  0.00000000000E+00  0.00000000000E+00  0.15880222461E+03  0.15880222461E+03  0.00000000000E+00 0. -1.
         -1   -1    0    0    0  501 -0.00000000000E+00 -0.00000000000E+00 -0.16208279535E+03  0.16208279535E+03  0.00000000000E+00 0.  1.
         25    2    1    2    0    0 -0.48152273017E+01 -0.90487940623E+02  0.46157980352E+02  0.16121439962E+03  0.12509304410E+03 0.  0.
         23    2    1    2    0    0  0.48152273017E+01  0.90487940623E+02 -0.49438551090E+02  0.15967062033E+03  0.12181659514E+03 0.  0.
          5    1    3    3  502    0 -0.42161955834E+02 -0.60321120322E+02 -0.22734623973E+02  0.77140155586E+02  0.41800000000E+01 0.  1.
         -5    1    3    3    0  502  0.37346728532E+02 -0.30166820301E+02  0.68892604325E+02  0.84074244034E+02  0.41800000000E+01 0.  1.
        -11    1    4    4    0    0  0.32263162057E+02  0.82677207327E+02 -0.78830205976E+02  0.11870397471E+03  0.00000000000E+00 0.  1.
         11    1    4    4    0    0 -0.27447934755E+02  0.78107332956E+01  0.29391654886E+02  0.40966645626E+02  0.00000000000E+00 0. -1.
</event>
<event>
 8    1  0.6684013E-009  0.1045965E+03  0.7561462E-02  0.1270917E+00
         -2   -1    0    0    0  501 -0.00000000000E+00  0.00000000000E+00  0.18125688228E+03  0.18125688228E+03  0.00000000000E+00 0.  1.
          2   -1    0    0  501    0  0.00000000000E+00 -0.00000000000E+00 -0.81349189016E+02  0.81349189016E+02  0.00000000000E+00 0. -1.
         25    2    1    2    0    0 -0.11078456515E+02  0.36739681871E+01  0.80059705349E+00  0.12563545913E+03  0.12508955750E+03 0.  0.
         23    2    1    2    0    0  0.11078456515E+02 -0.36739681871E+01  0.99107096212E+02  0.13697061217E+03  0.93821649084E+02 0.  0.
          5    1    3    3  502    0 -0.15781234648E+02 -0.57188083369E+02  0.17893893005E+02  0.62106264203E+02  0.41800000000E+01 0. -1.
         -5    1    3    3    0  502  0.47027781326E+01  0.60862051556E+02 -0.17093295951E+02  0.63529194928E+02  0.41800000000E+01 0. -1.
        -11    1    4    4    0    0  0.47305659884E+02 -0.16503980106E+02  0.31435292696E+02  0.59147142308E+02  0.00000000000E+00 0. -1.
         11    1    4    4    0    0 -0.36227203369E+02  0.12830011918E+02  0.67671803515E+02  0.77823469858E+02  0.00000000000E+00 0.  1.
</event>
<event>
 8    1  0.6684013E-009  0.1301523E+03  0.7561462E-02  0.1227230E+00
         -2   -1    0    0    0  501 -0.00000000000E+00  0.00000000000E+00  0.39911428442E+02  0.39911428442E+02  0.00000000000E+00 0.  1.
          2   -1    0    0  501    0  0.00000000000E+00 -0.00000000000E+00 -0.52012569758E+03  0.52012569758E+03  0.00000000000E+00 0. -1.
         25    2    1    2    0    0  0.69123732942E+02  0.68357195095E+02 -0.33596507377E+03  0.37144194611E+03  0.12508314018E+03 0.  0.
         23    2    1    2    0    0 -0.69123732942E+02 -0.68357195095E+02 -0.14424919537E+03  0.18859517992E+03  0.72866418510E+02 0.  0.
          5    1    3    3  502    0 -0.30521029299E+02  0.44131480815E+02 -0.14461846211E+03  0.15430843402E+03  0.41800000000E+01 0. -1.
         -5    1    3    3    0  502  0.99644762241E+02  0.24225714280E+02 -0.19134661167E+03  0.21713351208E+03  0.41800000000E+01 0. -1.
        -11    1    4    4    0    0 -0.50788275228E+02 -0.24648826809E+02 -0.27920309503E+02  0.62980610083E+02  0.00000000000E+00 0.  1.
         11    1    4    4    0    0 -0.18335457713E+02 -0.43708368286E+02 -0.11632888587E+03  0.12561456983E+03  0.00000000000E+00 0. -1.
</event>
<event>
 8    1  0.6684013E-009  0.9269616E+02  0.7561462E-02  0.1296451E+00
          2   -1    0    0  501    0  0.00000000000E+00  0.00000000000E+00  0.10658043285E+03  0.10658043285E+03  0.00000000000E+00 0. -1.
         -2   -1    0    0    0  501 -0.00000000000E+00 -0.00000000000E+00 -0.13806977177E+03  0.13806977177E+03  0.00000000000E+00 0.  1.
         25    2    1    2    0    0  0.50039477766E+02  0.26991673061E+01 -0.93960421950E+00  0.13476016212E+03  0.12509270002E+03 0.  0.
         23    2    1    2    0    0 -0.50039477766E+02 -0.26991673061E+01 -0.30549734708E+02  0.10989004251E+03  0.92904791651E+02 0.  0.
          5    1    3    3  502    0 -0.62689231442E+01  0.54514914009E+02  0.13761055644E+02  0.56727544449E+02  0.41800000000E+01 0. -1.
         -5    1    3    3    0  502  0.56308400911E+02 -0.51815746703E+02 -0.14700659863E+02  0.78032617667E+02  0.41800000000E+01 0. -1.
        -11    1    4    4    0    0 -0.25171918264E+02 -0.11051431432E+02 -0.62660654283E+02  0.68425997990E+02  0.00000000000E+00 0.  1.
         11    1    4    4    0    0 -0.24867559503E+02  0.83522641258E+01  0.32110919575E+02  0.41464044515E+02  0.00000000000E+00 0. -1.
</event>
<event>
 8    1  0.6684013E-009  0.1963946E+03  0.7561462E-02  0.1152817E+00
          1   -1    0    0  501    0  0.00000000000E+00  0.00000000000E+00  0.14032639450E+04  0.14032639450E+04  0.00000000000E+00 0. -1.
         -1   -1    0    0    0  501 -0.00000000000E+00 -0.00000000000E+00 -0.35797098710E+02  0.35797098710E+02  0.00000000000E+00 0.  1.
         25    2    1    2    0    0 -0.12463865794E+03  0.14464922530E+03  0.84510036423E+03  0.87538741248E+03  0.12510117052E+03 0.  0.
         23    2    1    2    0    0  0.12463865794E+03 -0.14464922530E+03  0.52236648209E+03  0.56367363127E+03  0.91668028994E+02 0.  0.
          5    1    3    3  502    0 -0.10035209581E+03  0.13044769807E+03  0.44839621383E+03  0.47766492654E+03  0.41800000000E+01 0. -1.
         -5    1    3    3    0  502 -0.24286562131E+02  0.14201527221E+02  0.39670415040E+03  0.39772248594E+03  0.41800000000E+01 0. -1.
        -11    1    4    4    0    0  0.12098925300E+03 -0.10589510978E+03  0.32609712318E+03  0.36358150030E+03  0.00000000000E+00 0.  1.
         11    1    4    4    0    0  0.36494049453E+01 -0.38754115519E+02  0.19626935891E+03  0.20009213097E+03  0.00000000000E+00 0. -1.
</event>
<event>
 8    1  0.6684013E-009  0.1008483E+03  0.7561462E-02  0.1278522E+00
         -1   -1    0    0    0  501 -0.00000000000E+00  0.00000000000E+00  0.13817186813E+03  0.13817186813E+03  0.00000000000E+00 0.  1.
          1   -1    0    0  501    0  0.00000000000E+00 -0.00000000000E+00 -0.11817364498E+03  0.11817364498E+03  0.00000000000E+00 0. -1.
         25    2    1    2    0    0  0.56784395884E+02 -0.30597207782E+02 -0.99740841760E+01  0.14109082941E+03  0.12508590267E+03 0.  0.
         23    2    1    2    0    0 -0.56784395884E+02  0.30597207782E+02  0.29972307329E+02  0.11525468371E+03  0.90689834988E+02 0.  0.
          5    1    3    3  502    0 -0.31014838175E+02 -0.14725563958E+01  0.27024219380E+02  0.41374744017E+02  0.41800000000E+01 0. -1.
         -5    1    3    3    0  502  0.87799234059E+02 -0.29124651387E+02 -0.36998303556E+02  0.99716085391E+02  0.41800000000E+01 0. -1.
        -11    1    4    4    0    0 -0.59129956921E+02  0.13683081654E+02  0.57014707836E+02  0.83272176858E+02  0.00000000000E+00 0.  1.
         11    1    4    4    0    0  0.23455610372E+01  0.16914126129E+02 -0.27042400507E+02  0.31982506850E+02  0.00000000000E+00 0. -1.
</event>
<event>
 8    1  0.6684013E-009  0.1297692E+03  0.7561462E-02  0.1227799E+00
         -1   -1    0    0    0  501 -0.00000000000E+00  0.00000000000E+00  0.36172467728E+02  0.36172467728E+02  0.00000000000E+00 0.  1.
          1   -1    0    0  501    0  0.00000000000E+00 -0.00000000000E+00 -0.68556363153E+03  0.68556363153E+03  0.00000000000E+00 0. -1.
         25    2    1    2    0    0  0.77414112482E+02  0.14847300472E+02 -0.53915117402E+03  0.55905936456E+03  0.12509995012E+03 0.  0.
         23    2    1    2    0    0 -0.77414112482E+02 -0.14847300472E+02 -0.11023998978E+03  0.16267673469E+03  0.89985985130E+02 0.  0.
          5    1    3    3  502    0  0.37564280311E+02 -0.55325307179E+02 -0.23696517862E+03  0.24625582845E+03  0.41800000000E+01 0. -1.
         -5    1    3    3    0  502  0.39849832171E+02  0.70172607651E+02 -0.30218599540E+03  0.31280353611E+03  0.41800000000E+01 0. -1.
        -11    1    4    4    0    0 -0.43521642188E+02  0.31919442179E+02 -0.82543717521E+02  0.98622763245E+02  0.00000000000E+00 0.  1.
         11    1    4    4    0    0 -0.33892470294E+02 -0.46766742651E+02 -0.27696272261E+02  0.64053971446E+02  0.00000000000E+00 0. -1.
</event>
<event>
 7    1  0.6684013E-009  0.1502035E+03  0.7561462E-02  0.1200223E+00
          1   -1    0    0  501    0  0.00000000000E+00  0.00000000000E+00  0.66422083095E+03  0.66422083095E+03  0.00000000000E+00 0. -1.
         -1   -1    0    0    0  501 -0.00000000000E+00 -0.00000000000E+00 -0.41163220885E+02  0.41163220885E+02  0.00000000000E+00 0.  1.
         23    2    1    2    0    0  0.40227457175E+02  0.10981306536E+03  0.38341877689E+03  0.41065708069E+03  0.89174670224E+02 0.  0.
          5    1    1    2  502    0 -0.74080615496E+02 -0.97210450026E+02  0.22386380981E+03  0.25508878244E+03  0.41800000000E+01 0.  1.
         -5    1    1    2    0  502  0.33853158320E+02 -0.12602615330E+02  0.15775023358E+02  0.39638188699E+02  0.41800000000E+01 0.  1.
        -11    1    3    3    0    0  0.64238548379E+02  0.68072392844E+02  0.19676728908E+03  0.21789402887E+03  0.00000000000E+00 0.  1.
         11    1    3    3    0    0 -0.24011091204E+02  0.41740672512E+02  0.18665148781E+03  0.19276305182E+03  0.00000000000E+00 0. -1.
</event>
<event>
 8    1  0.6684013E-009  0.1084495E+03  0.7561462E-02  0.1263468E+00
         -2   -1    0    0    0  501 -0.00000000000E+00  0.00000000000E+00  0.24996873503E+02  0.24996873503E+02  0.00000000000E+00 0.  1.
          2   -1    0    0  501    0  0.00000000000E+00 -0.00000000000E+00 -0.70601855852E+03  0.70601855852E+03  0.00000000000E+00 0. -1.
         25    2    1    2    0    0  0.10350194764E+02 -0.62144217091E+02 -0.49529711460E+03  0.51470620369E+03  0.12503685112E+03 0.  0.
         23    2    1    2    0    0 -0.10350194764E+02  0.62144217091E+02 -0.18572457042E+03  0.21630922833E+03  0.91252594238E+02 0.  0.
          5    1    3    3  502    0  0.45990399157E+02  0.46675832583E+01 -0.79569166997E+02  0.92117467859E+02  0.41800000000E+01 0.  1.
         -5    1    3    3    0  502 -0.35640204393E+02 -0.66811800350E+02 -0.41572794760E+03  0.42258873583E+03  0.41800000000E+01 0.  1.
        -11    1    4    4    0    0 -0.89126992544E+01  0.78108899525E+02 -0.91077327295E+02  0.12031423831E+03  0.00000000000E+00 0.  1.
         11    1    4    4    0    0 -0.14374955094E+01 -0.15964682434E+02 -0.94647243120E+02  0.95994990019E+02  0.00000000000E+00 0. -1.
</event>
<event>
 8    1  0.6684013E-009  0.1679478E+03  0.7561462E-02  0.1180005E+00
         -1   -1    0    0    0  501 -0.00000000000E+00  0.00000000000E+00  0.45564749224E+03  0.45564749224E+03  0.00000000000E+00 0.  1.
          1   -1    0    0  501    0  0.00000000000E+00 -0.00000000000E+00 -0.85679162072E+02  0.85679162072E+02  0.00000000000E+00 0. -1.
         25    2    1    2    0    0  0.12878031753E+02 -0.16111540147E+03  0.14594974477E+03  0.25114362972E+03  0.12509108065E+03 0.  0.
         23    2    1    2    0    0 -0.12878031753E+02  0.16111540147E+03  0.22401858541E+03  0.29018302459E+03  0.88869819741E+02 0.  0.
          5    1    3    3  502    0  0.34036275552E+02 -0.11526064066E+03  0.29019761336E+02  0.12370570838E+03  0.41800000000E+01 0.  1.
         -5    1    3    3    0  502 -0.21158243800E+02 -0.45854760814E+02  0.11692998343E+03  0.12743792134E+03  0.41800000000E+01 0.  1.
        -11    1    4    4    0    0  0.10294678612E+02  0.78235395342E+02  0.17297881607E+03  0.19012740018E+03  0.00000000000E+00 0.  1.
         11    1    4    4    0    0 -0.23172710365E+02  0.82880006132E+02  0.51039769339E+02  0.10005562441E+03  0.00000000000E+00 0. -1.
</event>
<event>
 8    1  0.6684013E-009  0.1033716E+03  0.7561462E-02  0.1273362E+00
          2   -1    0    0  501    0  0.00000000000E+00  0.00000000000E+00  0.58588513971E+02  0.58588513971E+02  0.00000000000E+00 0. -1.
         -2   -1    0    0    0  501 -0.00000000000E+00 -0.00000000000E+00 -0.27300792915E+03  0.27300792915E+03  0.00000000000E+00 0.  1.
         25    2    1    2    0    0 -0.58879738288E+02  0.21501813111E+02 -0.83680150324E+02  0.16303012561E+03  0.12508917919E+03 0.  0.
         23    2    1    2    0    0  0.58879738288E+02 -0.21501813111E+02 -0.13073926486E+03  0.16856631751E+03  0.85980791315E+02 0.  0.
          5    1    3    3  502    0  0.28601712351E+02  0.87077470264E+01  0.12183137423E+02  0.32554324523E+02  0.41800000000E+01 0.  1.
         -5    1    3    3    0  502 -0.87481450639E+02  0.12794066084E+02 -0.95863287747E+02  0.13047580109E+03  0.41800000000E+01 0.  1.
        -11    1    4    4    0    0 -0.10699280774E+02 -0.14631912089E+02  0.23018772493E+01  0.18272003156E+02  0.00000000000E+00 0. -1.
         11    1    4    4    0    0  0.69579019062E+02 -0.68699010219E+01 -0.13304114211E+03  0.15029431435E+03  0.00000000000E+00 0.  1.
</event>
<event>
 8    1  0.6684013E-009  0.2275803E+03  0.7561462E-02  0.1128355E+00
         -1   -1    0    0    0  501 -0.00000000000E+00  0.00000000000E+00  0.15963356854E+03  0.15963356854E+03  0.00000000000E+00 0.  1.
          1   -1    0    0  501    0  0.00000000000E+00 -0.00000000000E+00 -0.36217214488E+03  0.36217214488E+03  0.00000000000E+00 0. -1.
         25    2    1    2    0    0 -0.20621166683E+03 -0.50570324985E+02 -0.73680834623E+02  0.25720973245E+03  0.12508945507E+03 0.  0.
         23    2    1    2    0    0  0.20621166683E+03  0.50570324985E+02 -0.12885774171E+03  0.26459598097E+03  0.91247499907E+02 0.  0.
          5    1    3    3  502    0 -0.20333987214E+03 -0.62947371874E+02 -0.94124074472E+02  0.23277948583E+03  0.41800000000E+01 0. -1.
         -5    1    3    3    0  502 -0.28717946910E+01  0.12377046888E+02  0.20443239849E+02  0.24430246621E+02  0.41800000000E+01 0. -1.
        -11    1    4    4    0    0  0.77501798500E+02  0.62581909028E+02 -0.38116795395E+02  0.10665793079E+03  0.00000000000E+00 0. -1.
         11    1    4    4    0    0  0.12870986833E+03 -0.12011584043E+02 -0.90740946318E+02  0.15793805018E+03  0.00000000000E+00 0.  1.
</event>
<event>
 8    1  0.6684013E-009  0.6440420E+02  0.7561462E-02  0.1380227E+00
         -1   -1    0    0    0  501 -0.00000000000E+00  0.00000000000E+00  0.78361309290E+03  0.78361309290E+03  0.00000000000E+00 0.  1.
          1   -1    0    0  501    0  0.00000000000E+00 -0.00000000000E+00 -0.17132672853E+02  0.17132672853E+02  0.00000000000E+00 0. -1.
         25    2    1    2    0    0 -0.56179129732E+01 -0.10521764838E+02  0.57683564916E+03  0.59036369085E+03  0.12509057858E+03 0.  0.
         23    2    1    2    0    0  0.56179129732E+01  0.10521764838E+02  0.18964477089E+03  0.21038207491E+03  0.90295126307E+02 0.  0.
          5    1    3    3  502    0  0.23807588907E+02 -0.12677568871E+02  0.22904499742E+02  0.35631594835E+02  0.41800000000E+01 0. -1.
         -5    1    3    3    0  502 -0.29425501880E+02  0.21558040338E+01  0.55393114942E+03  0.55473209601E+03  0.41800000000E+01 0. -1.
        -11    1    4    4    0    0  0.37797886224E+02 -0.19152321541E+00  0.16279162599E+03  0.16712220193E+03  0.00000000000E+00 0.  1.
         11    1    4    4    0    0 -0.32179973251E+02  0.10713288053E+02  0.26853144901E+02  0.43259872981E+02  0.00000000000E+00 0. -1.
</event>
<event>
 8    1  0.6684013E-009  0.7489478E+02  0.7561462E-02  0.1344197E+00
          2   -1    0    0  501    0  0.00000000000E+00  0.00000000000E+00  0.93936490452E+03  0.93936490452E+03  0.00000000000E+00 0.  1.
         -2   -1    0    0    0  501 -0.00000000000E+00 -0.00000000000E+00 -0.15937955155E+02  0.15937955155E+02  0.00000000000E+00 0. -1.
         25    2    1    2    0    0 -0.40846677362E+02  0.24684105491E+02  0.64055498498E+03  0.65439462442E+03  0.12507549546E+03 0.  0.
         23    2    1    2    0    0  0.40846677362E+02 -0.24684105491E+02  0.28287196438E+03  0.30090823526E+03  0.90837556642E+02 0.  0.
          5    1    3    3  502    0  0.13950935265E+01  0.29876378303E+02  0.57701037136E+03  0.57780012576E+03  0.41800000000E+01 0. -1.
         -5    1    3    3    0  502 -0.42241770888E+02 -0.51922728122E+01  0.63544613621E+02  0.76594498660E+02  0.41800000000E+01 0. -1.
        -11    1    4    4    0    0  0.17984709812E+01 -0.36098418199E+02  0.37111819106E+02  0.51803642842E+02  0.00000000000E+00 0. -1.
         11    1    4    4    0    0  0.39048206381E+02  0.11414312708E+02  0.24576014528E+03  0.24910459242E+03  0.00000000000E+00 0.  1.
</event>
<event>
 8    1  0.6684013E-009  0.1194501E+03  0.7561462E-02  0.1244007E+00
         -4   -1    0    0    0  501 -0.00000000000E+00  0.00000000000E+00  0.20520425458E+02  0.20520425458E+02  0.00000000000E+00 0.  1.
          4   -1    0    0  501    0  0.00000000000E+00 -0.00000000000E+00 -0.78163070523E+03  0.78163070523E+03  0.00000000000E+00 0. -1.
         25    2    1    2    0    0 -0.50252847076E+02 -0.38681374623E+02 -0.46015391790E+03  0.48105072797E+03  0.12508627956E+03 0.  0.
         23    2    1    2    0    0  0.50252847076E+02  0.38681374623E+02 -0.30095636187E+03  0.32110040272E+03  0.92244997133E+02 0.  0.
          5    1    3    3  502    0  0.15623966304E+02  0.33593296983E+02 -0.76423325849E+02  0.85033023344E+02  0.41800000000E+01 0.  1.
         -5    1    3    3    0  502 -0.65876813380E+02 -0.72274671605E+02 -0.38373059205E+03  0.39601770462E+03  0.41800000000E+01 0.  1.
        -11    1    4    4    0    0  0.71263948085E+02  0.16435368019E+02 -0.14765136385E+03  0.16477134722E+03  0.00000000000E+00 0.  1.
         11    1    4    4    0    0 -0.21011101009E+02  0.22246006604E+02 -0.15330499802E+03  0.15632905550E+03  0.00000000000E+00 0. -1.
</event>
<event>
 8    1  0.6684013E-009  0.9524771E+02  0.7561462E-02  0.1290619E+00
         -3   -1    0    0    0  501 -0.00000000000E+00  0.00000000000E+00  0.10087395673E+03  0.10087395673E+03  0.00000000000E+00 0.  1.
          3   -1    0    0  501    0  0.00000000000E+00 -0.00000000000E+00 -0.17276940005E+03  0.17276940005E+03  0.00000000000E+00 0. -1.
         25    2    1    2    0    0 -0.19723234053E+02  0.69735359029E+02 -0.20224152525E+02  0.14597567954E+03  0.12509139224E+03 0.  0.
         23    2    1    2    0    0  0.19723234053E+02 -0.69735359029E+02 -0.51671290792E+02  0.12766767724E+03  0.91526429287E+02 0.  0.
          5    1    3    3  502    0 -0.12224128135E+02  0.62047552208E+02  0.46282157169E+02  0.78478267794E+02  0.41800000000E+01 0.  1.
         -5    1    3    3    0  502 -0.74991059181E+01  0.76878068209E+01 -0.66506309695E+02  0.67497411747E+02  0.41800000000E+01 0.  1.
        -11    1    4    4    0    0  0.22510470684E+02  0.17376095780E+02 -0.52409019312E+01  0.28915688614E+02  0.00000000000E+00 0.  1.
         11    1    4    4    0    0 -0.27872366304E+01 -0.87111454809E+02 -0.46430388861E+02  0.98751988622E+02  0.00000000000E+00 0. -1.
</event>
<event>
 8    1  0.6684013E-009  0.1320116E+03  0.7561462E-02  0.1224501E+00
          2   -1    0    0  501    0  0.00000000000E+00  0.00000000000E+00  0.81356221833E+03  0.81356221833E+03  0.00000000000E+00 0.  1.
         -2   -1    0    0    0  501 -0.00000000000E+00 -0.00000000000E+00 -0.31691899495E+02  0.31691899495E+02  0.00000000000E+00 0. -1.
         25    2    1    2    0    0  0.10013118950E+03  0.51801868013E+02  0.33544432230E+03  0.37534020858E+03  0.12509072776E+03 0.  0.
         23    2    1    2    0    0 -0.10013118950E+03 -0.51801868013E+02  0.44642599654E+03  0.46991390925E+03  0.93878767997E+02 0.  0.
          5    1    3    3  502    0  0.11456970786E+03  0.55435246721E+02  0.33654944273E+03  0.35983646888E+03  0.41800000000E+01 0.  1.
         -5    1    3    3    0  502 -0.14438518363E+02 -0.36333787077E+01 -0.11051204276E+01  0.15503739695E+02  0.41800000000E+01 0.  1.
        -11    1    4    4    0    0 -0.77373788024E+02 -0.59047499909E+02  0.43012099027E+03  0.44099589181E+03  0.00000000000E+00 0.  1.
         11    1    4    4    0    0 -0.22757401475E+02  0.72456318954E+01  0.16305006268E+02  0.28918017443E+02  0.00000000000E+00 0. -1.
</event>
<event>
 8    1  0.6684013E-009  0.1367695E+03  0.7561462E-02  0.1217743E+00
          1   -1    0    0  501    0  0.00000000000E+00  0.00000000000E+00  0.62785375630E+02  0.62785375630E+02  0.00000000000E+00 0. -1.
         -1   -1    0    0    0  501 -0.00000000000E+00 -0.00000000000E+00 -0.42657910028E+03  0.42657910028E+03  0.00000000000E+00 0.  1.
         25    2    1    2    0    0 -0.41737710759E+02  0.10272063916E+03 -0.96652388811E+02  0.19308523331E+03  0.12508659742E+03 0.  0.
         23    2    1    2    0    0  0.41737710759E+02 -0.10272063916E+03 -0.26714133584E+03  0.29627924260E+03  0.64213161196E+02 0.  0.
          5    1    3    3  502    0 -0.71885685870E+02  0.39251902383E+02 -0.90950732445E+02  0.12246539024E+03  0.41800000000E+01 0. -1.
         -5    1    3    3    0  502  0.30147975111E+02  0.63468736774E+02 -0.57016563668E+01  0.70619843078E+02  0.41800000000E+01 0. -1.
        -11    1    4    4    0    0  0.44594642658E+02 -0.45020415050E+02 -0.90874395452E+02  0.11078662227E+03  0.00000000000E+00 0.  1.
         11    1    4    4    0    0 -0.28569318995E+01 -0.57700224108E+02 -0.17626694039E+03  0.18549262033E+03  0.00000000000E+00 0. -1.
</event>
<event>
 8    1  0.6684013E-009  0.1055634E+03  0.7561462E-02  0.1269014E+00
         -1   -1    0    0    0  501 -0.00000000000E+00  0.00000000000E+00  0.35562098726E+02  0.35562098726E+02  0.00000000000E+00 0.  1.
          1   -1    0    0  501    0  0.00000000000E+00 -0.00000000000E+00 -0.37530790947E+03  0.37530790947E+03  0.00000000000E+00 0. -1.
         25    2    1    2    0    0 -0.33171877770E+02  0.19993837360E+02 -0.20781468130E+03  0.24563098578E+03  0.12509001721E+03 0.  0.
         23    2    1    2    0    0  0.33171877770E+02 -0.19993837360E+02 -0.13193112944E+03  0.16523902241E+03  0.91640518351E+02 0.  0.
          5    1    3    3  502    0 -0.73027208116E+02  0.42724169645E+02 -0.14045841434E+03  0.16402550520E+03  0.41800000000E+01 0. -1.
         -5    1    3    3    0  502  0.39855330346E+02 -0.22730332285E+02 -0.67356266962E+02  0.81605480587E+02  0.41800000000E+01 0. -1.
        -11    1    4    4    0    0  0.48890139431E+02 -0.33790255383E+02 -0.13151589143E+03  0.14432067347E+03  0.00000000000E+00 0. -1.
         11    1    4    4    0    0 -0.15718261661E+02  0.13796418023E+02 -0.41523801774E+00  0.20918348943E+02  0.00000000000E+00 0.  1.
</event>
<event>
 8    1  0.6684013E-009  0.8746786E+02  0.7561462E-02  0.1309102E+00
          3   -1    0    0  501    0  0.00000000000E+00  0.00000000000E+00  0.35448720176E+03  0.35448720176E+03  0.00000000000E+00 0. -1.
         -3   -1    0    0    0  501 -0.00000000000E+00 -0.00000000000E+00 -0.69605556712E+02  0.69605556712E+02  0.00000000000E+00 0.  1.
         25    2    1    2    0    0 -0.49011810387E+02  0.42409005821E+02  0.27887675517E+02  0.14362183116E+03  0.12509527013E+03 0.  0.
         23    2    1    2    0    0  0.49011810387E+02 -0.42409005821E+02  0.25699396953E+03  0.28047092730E+03  0.91746168082E+02 0.  0.
          5    1    3    3  502    0 -0.16617571440E+02  0.39596254404E+02 -0.45829800177E+02  0.62943228609E+02  0.41800000000E+01 0.  1.
         -5    1    3    3    0  502 -0.32394238947E+02  0.28127514164E+01  0.73717475695E+02  0.80678602555E+02  0.41800000000E+01 0.  1.
        -11    1    4    4    0    0  0.49455658907E+02  0.66900545780E+01  0.19555133505E+03  0.20181908648E+03  0.00000000000E+00 0. -1.
         11    1    4    4    0    0 -0.44384852012E+00 -0.49099060399E+02  0.61442634480E+02  0.78651840826E+02  0.00000000000E+00 0.  1.
</event>
<event>
 8    1  0.6684013E-009  0.1478447E+03  0.7561462E-02  0.1203147E+00
         -2   -1    0    0    0  501 -0.00000000000E+00  0.00000000000E+00  0.23901388348E+02  0.23901388348E+02  0.00000000000E+00 0.  1.
          2   -1    0    0  501    0  0.00000000000E+00 -0.00000000000E+00 -0.12114110165E+04  0.12114110165E+04  0.00000000000E+00 0. -1.
         25    2    1    2    0    0 -0.90968793179E+02  0.86522057189E+02 -0.49893547157E+03  0.52947695498E+03  0.12509138001E+03 0.  0.
         23    2    1    2    0    0  0.90968793179E+02 -0.86522057189E+02 -0.68857415655E+03  0.70583544983E+03  0.91147822027E+02 0.  0.
          5    1    3    3  502    0 -0.73661545980E+02 -0.60087535528E+01 -0.13983591979E+03  0.15822036955E+03  0.41800000000E+01 0.  1.
         -5    1    3    3    0  502 -0.17307247199E+02  0.92530810742E+02 -0.35909955177E+03  0.37125658543E+03  0.41800000000E+01 0.  1.
        -11    1    4    4    0    0  0.86518739708E+02 -0.72999098354E+02 -0.67969506665E+03  0.68905714154E+03  0.00000000000E+00 0. -1.
         11    1    4    4    0    0  0.44500534712E+01 -0.13522958836E+02 -0.88790898923E+01  0.16778308284E+02  0.00000000000E+00 0.  1.
</event>
<event>
 8    1  0.6684013E-009  0.1086830E+03  0.7561462E-02  0.1263028E+00
         -2   -1    0    0    0  501 -0.00000000000E+00  0.00000000000E+00  0.55029939843E+02  0.55029939843E+02  0.00000000000E+00 0.  1.
          2   -1    0    0  501    0  0.00000000000E+00 -0.00000000000E+00 -0.27491232529E+03  0.27491232529E+03  0.00000000000E+00 0. -1.
         25    2    1    2    0    0  0.48996929114E+02 -0.28942234113E+02 -0.10919281551E+03  0.17551844273E+03  0.12508117685E+03 0.  0.
         23    2    1    2    0    0 -0.48996929114E+02  0.28942234113E+02 -0.11068956994E+03  0.15442382240E+03  0.91412165788E+02 0.  0.
          5    1    3    3  502    0  0.60125182154E+02 -0.65313030704E+02 -0.42233188539E+02  0.98396870494E+02  0.41800000000E+01 0. -1.
         -5    1    3    3    0  502 -0.11128253040E+02  0.36370796591E+02 -0.66959626967E+02  0.77121572235E+02  0.41800000000E+01 0. -1.
        -11    1    4    4    0    0  0.18228241738E+02  0.56626242916E+01 -0.69811648017E+02  0.72374030629E+02  0.00000000000E+00 0. -1.
         11    1    4    4    0    0 -0.67225170852E+02  0.23279609821E+02 -0.40877921926E+02  0.82049791776E+02  0.00000000000E+00 0.  1.
</event>
<event>
 8    1  0.6684013E-009  0.9816483E+02  0.7561462E-02  0.1284203E+00
         -3   -1    0    0    0  501 -0.00000000000E+00  0.00000000000E+00  0.25605357702E+03  0.25605357702E+03  0.00000000000E+00 0.  1.
          3   -1    0    0  501    0  0.00000000000E+00 -0.00000000000E+00 -0.49285864714E+02  0.49285864714E+02  0.00000000000E+00 0. -1.
         25    2    1    2    0    0 -0.27042773308E+02  0.13940026998E+01  0.12707689768E+03  0.18035965179E+03  0.12509121167E+03 0.  0.
         23    2    1    2    0    0  0.27042773308E+02 -0.13940026998E+01  0.79690814620E+02  0.12497978994E+03  0.92390838978E+02 0.  0.
          5    1    3    3  502    0  0.27693997128E+02 -0.46894836666E+02  0.60000537211E+02  0.81139509786E+02  0.41800000000E+01 0. -1.
         -5    1    3    3    0  502 -0.54736770437E+02  0.48288839365E+02  0.67076360474E+02  0.99220142005E+02  0.41800000000E+01 0. -1.
        -11    1    4    4    0    0 -0.12069762978E+02 -0.21471053557E+02  0.77100187470E+02  0.80939015481E+02  0.00000000000E+00 0.  1.
         11    1    4    4    0    0  0.39112536287E+02  0.20077050858E+02  0.25906271500E+01  0.44040774459E+02  0.00000000000E+00 0. -1.
</event>
<event>
 8    1  0.6684013E-009  0.1184674E+03  0.7561462E-02  0.1245647E+00
          1   -1    0    0  501    0  0.00000000000E+00  0.00000000000E+00  0.24849585395E+03  0.24849585395E+03  0.00000000000E+00 0. -1.
         -1   -1    0    0    0  501 -0.00000000000E+00 -0.00000000000E+00 -0.12687672693E+03  0.12687672693E+03  0.00000000000E+00 0.  1.
         25    2    1    2    0    0 -0.95611436843E+02  0.24530074246E+02 -0.41101303457E+02  0.16455960012E+03  0.12508906207E+03 0.  0.
         23    2    1    2    0    0  0.95611436843E+02 -0.24530074246E+02  0.16272043048E+03  0.21081298075E+03  0.90669195214E+02 0.  0.
          5    1    3    3  502    0 -0.82410351492E+00 -0.19937766447E+01 -0.63380412415E+02  0.63554727360E+02  0.41800000000E+01 0.  1.
         -5    1    3    3    0  502 -0.94787333328E+02  0.26523850891E+02  0.22279108958E+02  0.10100487276E+03  0.41800000000E+01 0.  1.
        -11    1    4    4    0    0  0.66062351859E+02 -0.58816508429E+02  0.10066006749E+03  0.13400024322E+03  0.00000000000E+00 0.  1.
         11    1    4    4    0    0  0.29549084984E+02  0.34286434182E+02  0.62060362990E+02  0.76812737530E+02  0.00000000000E+00 0. -1.
</event>
<event>
 8    1  0.6684013E-009  0.1112241E+03  0.7561462E-02  0.1258320E+00
          1   -1    0    0  501    0  0.00000000000E+00  0.00000000000E+00  0.29815964824E+03  0.29815964824E+03  0.00000000000E+00 0. -1.
         -1   -1    0    0    0  501 -0.00000000000E+00 -0.00000000000E+00 -0.78787677622E+02  0.78787677622E+02  0.00000000000E+00 0.  1.
         25    2    1    2    0    0 -0.52916443926E+02 -0.63389872836E+02  0.20394550875E+03  0.25310025138E+03  0.12509013028E+03 0.  0.
         23    2    1    2    0    0  0.52916443926E+02  0.63389872836E+02  0.15426461869E+02  0.12384707448E+03  0.91003824736E+02 0.  0.
          5    1    3    3  502    0 -0.76881229949E+02 -0.31364295163E+02  0.19488154846E+03  0.21187433271E+03  0.41800000000E+01 0. -1.
         -5    1    3    3    0  502  0.23964786023E+02 -0.32025577673E+02  0.90639602923E+01  0.41225918675E+02  0.41800000000E+01 0. -1.
        -11    1    4    4    0    0 -0.21321032700E+01  0.38704257775E+02 -0.29429388665E+02  0.48668823198E+02  0.00000000000E+00 0.  1.
         11    1    4    4    0    0  0.55048547196E+02  0.24685615060E+02  0.44855850534E+02  0.75178251286E+02  0.00000000000E+00 0. -1.
</event>
<event>
 8    1  0.6684013E-009  0.1828349E+03  0.7561462E-02  0.1165087E+00
         -1   -1    0    0    0  501 -0.00000000000E+00  0.00000000000E+00  0.11324906677E+03  0.11324906677E+03  0.00000000000E+00 0.  1.
          1   -1    0    0  501    0  0.00000000000E+00 -0.00000000000E+00 -0.30689203712E+03  0.30689203712E+03  0.00000000000E+00 0. -1.
         25    2    1    2    0    0  0.32588892109E+02  0.14776140862E+03 -0.93087616872E+02  0.21727621681E+03  0.12509268647E+03 0.  0.
         23    2    1    2    0    0 -0.32588892109E+02 -0.14776140862E+03 -0.10055535348E+03  0.20286488708E+03  0.90262470214E+02 0.  0.
          5    1    3    3  502    0  0.46137952779E+02 -0.13151434387E+01 -0.26531217328E+02  0.53402417378E+02  0.41800000000E+01 0.  1.
         -5    1    3    3    0  502 -0.13549060670E+02  0.14907655206E+03 -0.66556399543E+02  0.16387379943E+03  0.41800000000E+01 0.  1.
        -11    1    4    4    0    0  0.14957306597E+02 -0.65070247765E+00 -0.28719045911E+02  0.32387158449E+02  0.00000000000E+00 0.  1.
         11    1    4    4    0    0 -0.47546198705E+02 -0.14711070614E+03 -0.71836307567E+02  0.17047772863E+03  0.00000000000E+00 0. -1.
</event>
<event>
 8    1  0.6684013E-009  0.9071356E+02  0.7561462E-02  0.1301133E+00
         -1   -1    0    0    0  501 -0.00000000000E+00  0.00000000000E+00  0.34368636430E+02  0.34368636430E+02  0.00000000000E+00 0.  1.
          1   -1    0    0  501    0  0.00000000000E+00 -0.00000000000E+00 -0.67743802566E+03  0.67743802566E+03  0.00000000000E+00 0. -1.
         25    2    1    2    0    0 -0.73225418748E+02 -0.35197082227E+02 -0.50994697879E+03  0.53131414450E+03  0.12509197584E+03 0.  0.
         23    2    1    2    0    0  0.73225418748E+02  0.35197082227E+02 -0.13312241044E+03  0.18049251759E+03  0.90858000184E+02 0.  0.
          5    1    3    3  502    0 -0.88834241050E+01  0.65676167258E+01 -0.38124549866E+03  0.38142843557E+03  0.41800000000E+01 0.  1.
         -5    1    3    3    0  502 -0.64341994643E+02 -0.41764698952E+02 -0.12870148013E+03  0.14988570893E+03  0.41800000000E+01 0.  1.
        -11    1    4    4    0    0  0.12076809190E+02  0.28898942675E+02 -0.11072116437E+03  0.11506595695E+03  0.00000000000E+00 0. -1.
         11    1    4    4    0    0  0.61148609557E+02  0.62981395514E+01 -0.22401246067E+02  0.65426560646E+02  0.00000000000E+00 0.  1.
</event>
<event>
 8    1  0.6684013E-009  0.9336753E+02  0.7561462E-02  0.1294896E+00
         -1   -1    0    0    0  501 -0.00000000000E+00  0.00000000000E+00  0.15935993874E+02  0.15935993874E+02  0.00000000000E+00 0.  1.
          1   -1    0    0  501    0  0.00000000000E+00 -0.00000000000E+00 -0.83155763422E+03  0.83155763422E+03  0.00000000000E+00 0. -1.
         25    2    1    2    0    0 -0.27798614038E+02 -0.21942670335E+02 -0.40449662999E+03  0.42487499683E+03  0.12508795119E+03 0.  0.
         23    2    1    2    0    0  0.27798614038E+02  0.21942670335E+02 -0.41112501036E+03  0.42261863127E+03  0.91260558988E+02 0.  0.
          5    1    3    3  502    0 -0.18407920458E+02 -0.55731286785E+02 -0.84692988563E+02  0.10312711852E+03  0.41800000000E+01 0. -1.
         -5    1    3    3    0  502 -0.93906935801E+01  0.33788616450E+02 -0.31980364143E+03  0.32174787831E+03  0.41800000000E+01 0. -1.
        -11    1    4    4    0    0 -0.24305253182E+02  0.31310409593E+02 -0.11110036579E+03  0.11795922329E+03  0.00000000000E+00 0.  1.
         11    1    4    4    0    0  0.52103867220E+02 -0.93677392579E+01 -0.30002464457E+03  0.30465940797E+03  0.00000000000E+00 0. -1.
</event>
<event>
 8    1  0.6684013E-009  0.1046371E+03  0.7561462E-02  0.1270836E+00
          1   -1    0    0  501    0  0.00000000000E+00  0.00000000000E+00  0.21244252282E+03  0.21244252282E+03  0.00000000000E+00 0. -1.
         -1   -1    0    0    0  501 -0.00000000000E+00 -0.00000000000E+00 -0.68115548207E+02  0.68115548207E+02  0.00000000000E+00 0.  1.
         25    2    1    2    0    0  0.17238688815E+02  0.41700525538E+02  0.52522522034E+02  0.14296997049E+03  0.12508273629E+03 0.  0.
         23    2    1    2    0    0 -0.17238688815E+02 -0.41700525538E+02  0.91804452584E+02  0.13758810054E+03  0.92012616934E+02 0.  0.
          5    1    3    3  502    0  0.96213049978E+01 -0.32162282623E+02 -0.19827384076E+02  0.39211981494E+02  0.41800000000E+01 0.  1.
         -5    1    3    3    0  502  0.76173838169E+01  0.73862808161E+02  0.72349906110E+02  0.10375798899E+03  0.41800000000E+01 0.  1.
        -11    1    4    4    0    0 -0.54222240328E+02 -0.17936203573E+02  0.40437209963E+02  0.69978044374E+02  0.00000000000E+00 0.  1.
         11    1    4    4    0    0  0.36983551513E+02 -0.23764321965E+02  0.51367242620E+02  0.67610056171E+02  0.00000000000E+00 0. -1.
</event>
<event>
 8    1  0.6684013E-009  0.3482293E+03  0.7561462E-02  0.1063344E+00
         -2   -1    0    0    0  501 -0.00000000000E+00  0.00000000000E+00  0.49093461466E+03  0.49093461466E+03  0.00000000000E+00 0.  1.
          2   -1    0    0  501    0  0.00000000000E+00 -0.00000000000E+00 -0.27445027157E+03  0.27445027157E+03  0.00000000000E+00 0. -1.
         25    2    1    2    0    0 -0.32700249522E+03 -0.64577183473E+02  0.22049887073E+03  0.41877161863E+03  0.12509625124E+03 0.  0.
         23    2    1    2    0    0  0.32700249522E+03  0.64577183473E+02 -0.40145276378E+01  0.34661326759E+03  0.94993664699E+02 0.  0.
          5    1    3    3  502    0 -0.25094102885E+03 -0.98739883185E+02  0.18992449378E+03  0.32986322958E+03  0.41800000000E+01 0.  1.
         -5    1    3    3    0  502 -0.76061466374E+02  0.34162699712E+02  0.30574376953E+02  0.88908389057E+02  0.41800000000E+01 0.  1.
        -11    1    4    4    0    0  0.26723586487E+03  0.18629072345E+02  0.16782919013E+02  0.26840960523E+03  0.00000000000E+00 0. -1.
         11    1    4    4    0    0  0.59766630352E+02  0.45948111127E+02 -0.20797446651E+02  0.78203662363E+02  0.00000000000E+00 0.  1.
</event>
<event>
 8    1  0.6684013E-009  0.1258318E+03  0.7561462E-02  0.1233775E+00
         -1   -1    0    0    0  501 -0.00000000000E+00  0.00000000000E+00  0.43726811151E+03  0.43726811151E+03  0.00000000000E+00 0.  1.
          1   -1    0    0  501    0  0.00000000000E+00 -0.00000000000E+00 -0.40087564944E+02  0.40087564944E+02  0.00000000000E+00 0. -1.
         25    2    1    2    0    0 -0.73965477812E+02 -0.19708786868E+02  0.20698034774E+03  0.25366804361E+03  0.12508910349E+03 0.  0.
         23    2    1    2    0    0  0.73965477812E+02  0.19708786868E+02  0.19020019883E+03  0.22368763284E+03  0.89446706289E+02 0.  0.
          5    1    3    3  502    0  0.18502333437E+02 -0.45120794946E+02  0.52346583034E+02  0.71664912157E+02  0.41800000000E+01 0. -1.
         -5    1    3    3    0  502 -0.92467811249E+02  0.25412008078E+02  0.15463376471E+03  0.18200313146E+03  0.41800000000E+01 0. -1.
        -11    1    4    4    0    0  0.86405797688E+01  0.37938354972E+02  0.11968392009E+03  0.12584998659E+03  0.00000000000E+00 0.  1.
         11    1    4    4    0    0  0.65324898044E+02 -0.18229568105E+02  0.70516278740E+02  0.97837646257E+02  0.00000000000E+00 0. -1.
</event>
<event>
 8    1  0.6684013E-009  0.1264755E+03  0.7561462E-02  0.1232781E+00
          3   -1    0    0  501    0  0.00000000000E+00  0.00000000000E+00  0.36912403310E+02  0.36912403310E+02  0.00000000000E+00 0. -1.
         -3   -1    0    0    0  501 -0.00000000000E+00 -0.00000000000E+00 -0.56347355256E+03  0.56347355256E+03  0.00000000000E+00 0.  1.
         25    2    1    2    0    0 -0.87333266315E+02  0.21978600688E+02 -0.22418190735E+03  0.27205589335E+03  0.12508686273E+03 0.  0.
         23    2    1    2    0    0  0.87333266315E+02 -0.21978600688E+02 -0.30237924189E+03  0.32833006252E+03  0.90869498363E+02 0.  0.
          5    1    3    3  502    0 -0.23177294016E+02  0.51833133849E+02 -0.27970261307E+02  0.63432394249E+02  0.41800000000E+01 0.  1.
         -5    1    3    3    0  502 -0.64155972299E+02 -0.29854533161E+02 -0.19621164605E+03  0.20862349910E+03  0.41800000000E+01 0.  1.
        -11    1    4    4    0    0  0.77905247322E+02 -0.52000184690E+02 -0.25294573334E+03  0.26973096000E+03  0.00000000000E+00 0.  1.
         11    1    4    4    0    0  0.94280189934E+01  0.30021584002E+02 -0.49433508553E+02  0.58599102518E+02  0.00000000000E+00 0. -1.
</event>
<event>
 8    1  0.6684013E-009  0.8637808E+02  0.7561462E-02  0.1311868E+00
         -2   -1    0    0    0  501 -0.00000000000E+00  0.00000000000E+00  0.21913497153E+02  0.21913497153E+02  0.00000000000E+00 0.  1.
          2   -1    0    0  501    0  0.00000000000E+00 -0.00000000000E+00 -0.70484590873E+03  0.70484590873E+03  0.00000000000E+00 0. -1.
         25    2    1    2    0    0 -0.44371775379E+02  0.67254198940E+01 -0.49616678537E+03  0.51365644566E+03  0.12508948615E+03 0.  0.
         23    2    1    2    0    0  0.44371775379E+02 -0.67254198940E+01 -0.18676562621E+03  0.21310296022E+03  0.92289689559E+02 0.  0.
          5    1    3    3  502    0  0.12298359456E+02 -0.12058867701E+02 -0.44009100797E+01  0.18262156090E+02  0.41800000000E+01 0.  1.
         -5    1    3    3    0  502 -0.56670134835E+02  0.18784287595E+02 -0.49176587529E+03  0.49539428957E+03  0.41800000000E+01 0.  1.
        -11    1    4    4    0    0  0.40127001156E+02  0.34998001737E+02 -0.63339031113E+02  0.82745810828E+02  0.00000000000E+00 0.  1.
         11    1    4    4    0    0  0.42447742233E+01 -0.41723421631E+02 -0.12342659510E+03  0.13035714939E+03  0.00000000000E+00 0. -1.
</event>
<event>
 8    1  0.6684013E-009  0.1278662E+03  0.7561462E-02  0.1230657E+00
         -1   -1    0    0    0  501 -0.00000000000E+00  0.00000000000E+00  0.40797579292E+02  0.40797579292E+02  0.00000000000E+00 0.  1.
          1   -1    0    0  501    0  0.00000000000E+00 -0.00000000000E+00 -0.56010565760E+03  0.56010565760E+03  0.00000000000E+00 0. -1.
         25    2    1    2    0    0 -0.88769128306E+02 -0.14316085288E+02 -0.38800444062E+03  0.41746763807E+03  0.12508746722E+03 0.  0.
         23    2    1    2    0    0  0.88769128306E+02  0.14316085288E+02 -0.13130363769E+03  0.18343559882E+03  0.91230834738E+02 0.  0.
          5    1    3    3  502    0  0.75349326861E+01 -0.49713768104E+02 -0.14989556565E+03  0.15815937200E+03  0.41800000000E+01 0. -1.
         -5    1    3    3    0  502 -0.96304060993E+02  0.35397682816E+02 -0.23810887497E+03  0.25930826607E+03  0.41800000000E+01 0. -1.
        -11    1    4    4    0    0  0.95689674381E+01 -0.15288707523E+02  0.85881752558E+01  0.19976648111E+02  0.00000000000E+00 0.  1.
         11    1    4    4    0    0  0.79200160868E+02  0.29604792811E+02 -0.13989181294E+03  0.16345895071E+03  0.00000000000E+00 0. -1.
</event>
<event>
 8    1  0.6684013E-009  0.1000570E+03  0.7561462E-02  0.1280176E+00
         -2   -1    0    0    0  501 -0.00000000000E+00  0.00000000000E+00  0.12646837249E+02  0.12646837249E+02  0.00000000000E+00 0.  1.
          2   -1    0    0  501    0  0.00000000000E+00 -0.00000000000E+00 -0.14168463194E+04  0.14168463194E+04  0.00000000000E+00 0. -1.
         25    2    1    2    0    0 -0.65337703994E+02  0.32251457232E+02 -0.11156333483E+04  0.11249864061E+04  0.12508986334E+03 0.  0.
         23    2    1    2    0    0  0.65337703994E+02 -0.32251457232E+02 -0.28856613385E+03  0.30450675059E+03  0.64379930843E+02 0.  0.
          5    1    3    3  502    0 -0.59652550324E+02  0.68086555021E+02 -0.49140251099E+03  0.49968800861E+03  0.41800000000E+01 0.  1.
         -5    1    3    3    0  502 -0.56851536698E+01 -0.35835097789E+02 -0.62423083733E+03  0.62529839747E+03  0.41800000000E+01 0.  1.
        -11    1    4    4    0    0  0.44026569747E+02 -0.23789438559E+02 -0.27110657169E+03  0.27568650574E+03  0.00000000000E+00 0. -1.
         11    1    4    4    0    0  0.21311134247E+02 -0.84620186723E+01 -0.17459562158E+02  0.28820244857E+02  0.00000000000E+00 0.  1.
</event>
<event>
 8    1  0.6684013E-009  0.1226477E+03  0.7561462E-02  0.1238792E+00
          1   -1    0    0  501    0  0.00000000000E+00  0.00000000000E+00  0.81825670014E+02  0.81825670014E+02  0.00000000000E+00 0. -1.
         -1   -1    0    0    0  501 -0.00000000000E+00 -0.00000000000E+00 -0.22244470836E+03  0.22244470836E+03  0.00000000000E+00 0.  1.
         25    2    1    2    0    0  0.44267063301E+02  0.60144812214E+02 -0.10997732498E+03  0.18253666577E+03  0.12509057123E+03 0.  0.
         23    2    1    2    0    0 -0.44267063301E+02 -0.60144812214E+02 -0.30641713359E+02  0.12173371260E+03  0.91121955953E+02 0.  0.
          5    1    3    3  502    0  0.19780361758E+02 -0.35331832040E+02 -0.58470320047E+02  0.71245012408E+02  0.41800000000E+01 0.  1.
         -5    1    3    3    0  502  0.24486701543E+02  0.95476644255E+02 -0.51507004938E+02  0.11129165336E+03  0.41800000000E+01 0.  1.
        -11    1    4    4    0    0 -0.10391557109E+02 -0.69909937702E+02  0.59421126517E+01  0.70927375191E+02  0.00000000000E+00 0. -1.
         11    1    4    4    0    0 -0.33875506192E+02  0.97651254877E+01 -0.36583826011E+02  0.50806337412E+02  0.00000000000E+00 0.  1.
</event>
<event>
 8    1  0.6684013E-009  0.1022188E+03  0.7561462E-02  0.1275698E+00
         -1   -1    0    0    0  501 -0.00000000000E+00  0.00000000000E+00  0.13549790145E+02  0.13549790145E+02  0.00000000000E+00 0.  1.
          1   -1    0    0  501    0  0.00000000000E+00 -0.00000000000E+00 -0.18760196510E+04  0.18760196510E+04  0.00000000000E+00 0. -1.
         25    2    1    2    0    0  0.58950278403E+02 -0.16695112875E+02 -0.15892214279E+04  0.15953132665E+04  0.12508320984E+03 0.  0.
         23    2    1    2    0    0 -0.58950278403E+02  0.16695112875E+02 -0.27324843299E+03  0.29425617464E+03  0.90377696721E+02 0.  0.
          5    1    3    3  502    0 -0.13209346505E+02  0.15445748161E+02 -0.10608721622E+04  0.10610750562E+04  0.41800000000E+01 0. -1.
         -5    1    3    3    0  502  0.72159624908E+02 -0.32140861035E+02 -0.52834926566E+03  0.53423821029E+03  0.41800000000E+01 0. -1.
        -11    1    4    4    0    0  0.21875571074E+02  0.79964536339E+01 -0.31293217461E+02  0.39009605735E+02  0.00000000000E+00 0.  1.
         11    1    4    4    0    0 -0.80825849477E+02  0.86986592409E+01 -0.24195521553E+03  0.25524656890E+03  0.00000000000E+00 0. -1.
</event>
<event>
 8    1  0.6684013E-009  0.1127130E+03  0.7561462E-02  0.1255627E+00
         -2   -1    0    0    0  501 -0.00000000000E+00  0.00000000000E+00  0.97753581489E+02  0.97753581489E+02  0.00000000000E+00 0. -1.
          2   -1    0    0  501    0  0.00000000000E+00 -0.00000000000E+00 -0.14165923617E+03  0.14165923617E+03  0.00000000000E+00 0.  1.
         25    2    1    2    0    0  0.36735956959E+02 -0.10084851111E+02  0.54317184075E+00  0.13076145151E+03  0.12508807861E+03 0.  0.
         23    2    1    2    0    0 -0.36735956959E+02  0.10084851111E+02 -0.44448826523E+02  0.10865136615E+03  0.91532433770E+02 0.  0.
          5    1    3    3  502    0  0.77565953227E+02  0.17578020681E+02  0.10323960342E+02  0.80308906531E+02  0.41800000000E+01 0.  1.
         -5    1    3    3    0  502 -0.40829996268E+02 -0.27662871792E+02 -0.97807885011E+01  0.50452544977E+02  0.41800000000E+01 0.  1.
        -11    1    4    4    0    0 -0.37673401220E+01 -0.37890152290E+02 -0.51667458911E+01  0.38425925561E+02  0.00000000000E+00 0.  1.
         11    1    4    4    0    0 -0.32968616837E+02  0.47975003401E+02 -0.39282080632E+02  0.70225440591E+02  0.00000000000E+00 0. -1.
</event>
<event>
 8    1  0.6684013E-009  0.8728181E+02  0.7561462E-02  0.1309571E+00
         -2   -1    0    0    0  501 -0.00000000000E+00  0.00000000000E+00  0.79892369415E+02  0.79892369415E+02  0.00000000000E+00 0. -1.
          2   -1    0    0  501    0  0.00000000000E+00 -0.00000000000E+00 -0.24521253320E+03  0.24521253320E+03  0.00000000000E+00 0.  1.
         25    2    1    2    0    0  0.15198286427E+02  0.88386859025E+01 -0.18909181903E+03  0.22740510118E+03  0.12509298038E+03 0.  0.
         23    2    1    2    0    0 -0.15198286427E+02 -0.88386859025E+01  0.23771655241E+02  0.97699801435E+02  0.93118469322E+02 0.  0.
          5    1    3    3  502    0  0.63471786380E+02 -0.23064623456E+02 -0.90273067581E+02  0.11281552930E+03  0.41800000000E+01 0.  1.
         -5    1    3    3    0  502 -0.48273499953E+02  0.31903309358E+02 -0.98818751446E+02  0.11458957188E+03  0.41800000000E+01 0.  1.
        -11    1    4    4    0    0  0.11963261832E+02 -0.16762842695E+02  0.53096672636E+02  0.56950585370E+02  0.00000000000E+00 0. -1.
         11    1    4    4    0    0 -0.27161548259E+02  0.79241567928E+01 -0.29325017396E+02  0.40749216066E+02  0.00000000000E+00 0.  1.
</event>
<event>
 8    1  0.6684013E-009  0.1743011E+03  0.7561462E-02  0.1173435E+00
         -2   -1    0    0    0  501 -0.00000000000E+00  0.00000000000E+00  0.89223963642E+02  0.89223963642E+02  0.00000000000E+00 0.  1.
          2   -1    0    0  501    0  0.00000000000E+00 -0.00000000000E+00 -0.40033435970E+03  0.40033435970E+03  0.00000000000E+00 0. -1.
         25    2    1    2    0    0  0.14042519018E+03  0.15284618644E+02 -0.81905818484E+02  0.20569065317E+03  0.12508888078E+03 0.  0.
         23    2    1    2    0    0 -0.14042519018E+03 -0.15284618644E+02 -0.22920457757E+03  0.28386767018E+03  0.89962559908E+02 0.  0.
          5    1    3    3  502    0  0.54115090802E+02 -0.49292539786E+02 -0.61945850627E+02  0.95984156719E+02  0.41800000000E+01 0. -1.
         -5    1    3    3    0  502  0.86310099380E+02  0.64577158430E+02 -0.19959967857E+02  0.10970649645E+03  0.41800000000E+01 0. -1.
        -11    1    4    4    0    0 -0.43790414830E+02 -0.48387347462E+02 -0.93134076551E+02  0.11372287387E+03  0.00000000000E+00 0.  1.
         11    1    4    4    0    0 -0.96634775352E+02  0.33102728818E+02 -0.13607050102E+03  0.17014479631E+03  0.00000000000E+00 0. -1.
</event>
<event>
 8    1  0.6684013E-009  0.3758968E+03  0.7561462E-02  0.1052461E+00
         -1   -1    0    0    0  501 -0.00000000000E+00  0.00000000000E+00  0.14631327517E+03  0.14631327517E+03  0.00000000000E+00 0.  1.
          1   -1    0    0  501    0  0.00000000000E+00 -0.00000000000E+00 -0.10033132433E+04  0.10033132433E+04  0.00000000000E+00 0. -1.
         25    2    1    2    0    0  0.25111694200E+03  0.26221112517E+03 -0.34661054391E+03  0.51730164383E+03  0.12509088231E+03 0.  0.
         23    2    1    2    0    0 -0.25111694200E+03 -0.26221112517E+03 -0.51038942419E+03  0.63232487462E+03  0.86735171680E+02 0.  0.
          5    1    3    3  502    0  0.76604851051E+02  0.16476346122E+03 -0.19362591640E+03  0.26556311728E+03  0.41800000000E+01 0.  1.
         -5    1    3    3    0  502  0.17451209094E+03  0.97447663955E+02 -0.15298462751E+03  0.25173852655E+03  0.41800000000E+01 0.  1.
        -11    1    4    4    0    0 -0.57493092938E+02 -0.21918258779E+02 -0.11846221464E+03  0.13348843433E+03  0.00000000000E+00 0.  1.
         11    1    4    4    0    0 -0.19362384906E+03 -0.24029286640E+03 -0.39192720955E+03  0.49883644028E+03  0.00000000000E+00 0. -1.
</event>
<event>
 8    1  0.6684013E-009  0.1032620E+03  0.7561462E-02  0.1273582E+00
          1   -1    0    0  501    0  0.00000000000E+00  0.00000000000E+00  0.18231602555E+03  0.18231602555E+03  0.00000000000E+00 0. -1.
         -1   -1    0    0    0  501 -0.00000000000E+00 -0.00000000000E+00 -0.69236720344E+02  0.69236720344E+02  0.00000000000E+00 0.  1.
         25    2    1    2    0    0  0.47888791479E+01  0.27070486733E+02  0.68639577102E+02  0.14531189632E+03  0.12509360915E+03 0.  0.
         23    2    1    2    0    0 -0.47888791479E+01 -0.27070486733E+02  0.44439728104E+02  0.10624084958E+03  0.92501265231E+02 0.  0.
          5    1    3    3  502    0  0.63477737605E+02  0.18779212596E+01  0.40183823280E+02  0.75267269202E+02  0.41800000000E+01 0. -1.
         -5    1    3    3    0  502 -0.58688858458E+02  0.25192565473E+02  0.28455753822E+02  0.70044627115E+02  0.41800000000E+01 0. -1.
        -11    1    4    4    0    0  0.17082832862E+02  0.20401289051E+02  0.46891722826E+02  0.53915391523E+02  0.00000000000E+00 0. -1.
         11    1    4    4    0    0 -0.21871712010E+02 -0.47471775784E+02 -0.24519947219E+01  0.52325458053E+02  0.00000000000E+00 0.  1.
</event>
<event>
 8    1  0.6684013E-009  0.1640109E+03  0.7561462E-02  0.1184241E+00
          1   -1    0    0  501    0  0.00000000000E+00  0.00000000000E+00  0.11188794879E+03  0.11188794879E+03  0.00000000000E+00 0. -1.
         -1   -1    0    0    0  501 -0.00000000000E+00 -0.00000000000E+00 -0.36511885529E+03  0.36511885529E+03  0.00000000000E+00 0.  1.
         25    2    1    2    0    0  0.11933242115E+03  0.52956452111E+02 -0.32904536957E+01  0.18083897769E+03  0.12508915304E+03 0.  0.
         23    2    1    2    0    0 -0.11933242115E+03 -0.52956452111E+02 -0.24994045280E+03  0.29616782640E+03  0.90556826850E+02 0.  0.
          5    1    3    3  502    0  0.88629815677E+02 -0.27380838828E+02  0.11173434770E+02  0.93526855001E+02  0.41800000000E+01 0.  1.
         -5    1    3    3    0  502  0.30702605474E+02  0.80337290939E+02 -0.14463888466E+02  0.87312122685E+02  0.41800000000E+01 0.  1.
        -11    1    4    4    0    0 -0.84067360170E+02 -0.70458995680E+02 -0.22283644349E+03  0.24837043235E+03  0.00000000000E+00 0.  1.
         11    1    4    4    0    0 -0.35265060981E+02  0.17502543569E+02 -0.27104009319E+02  0.47797394056E+02  0.00000000000E+00 0. -1.
</event>
<event>
 8    1  0.6684013E-009  0.1340441E+03  0.7561462E-02  0.1221575E+00
          2   -1    0    0  501    0  0.00000000000E+00  0.00000000000E+00  0.71094088267E+03  0.71094088267E+03  0.00000000000E+00 0. -1.
         -2   -1    0    0    0  501 -0.00000000000E+00 -0.00000000000E+00 -0.32328566609E+02  0.32328566609E+02  0.00000000000E+00 0.  1.
         25    2    1    2    0    0  0.23431582567E+02 -0.98442384581E+02  0.29494079136E+03  0.33597422433E+03  0.12509463163E+03 0.  0.
         23    2    1    2    0    0 -0.23431582567E+02  0.98442384581E+02  0.38367152470E+03  0.40729522494E+03  0.91900050353E+02 0.  0.
          5    1    3    3  502    0  0.58291377384E+02 -0.40900252414E+02  0.23562250298E+03  0.24618316684E+03  0.41800000000E+01 0.  1.
         -5    1    3    3    0  502 -0.34859794817E+02 -0.57542132167E+02  0.59318288381E+02  0.89791057492E+02  0.41800000000E+01 0.  1.
        -11    1    4    4    0    0 -0.21788149110E+02 -0.77639750482E+01  0.29199085637E+02  0.37250360431E+02  0.00000000000E+00 0.  1.
         11    1    4    4    0    0 -0.16434334573E+01  0.10620635963E+03  0.35447243906E+03  0.37004486451E+03  0.00000000000E+00 0. -1.
</event>
<event>
 8    1  0.6684013E-009  0.5849664E+02  0.7561462E-02  0.1404251E+00
         -1   -1    0    0    0  501 -0.00000000000E+00  0.00000000000E+00  0.17140061046E+03  0.17140061046E+03  0.00000000000E+00 0.  1.
          1   -1    0    0  501    0  0.00000000000E+00 -0.00000000000E+00 -0.77801255540E+02  0.77801255540E+02  0.00000000000E+00 0. -1.
         25    2    1    2    0    0  0.37353094681E+02  0.20101805568E+01  0.67971760617E+02  0.14721850929E+03  0.12511528574E+03 0.  0.
         23    2    1    2    0    0 -0.37353094681E+02 -0.20101805568E+01  0.25627594299E+02  0.10198335671E+03  0.91348437031E+02 0.  0.
          5    1    3    3  502    0  0.41889173994E+01  0.98139410043E+01 -0.35972181452E+02  0.37753552223E+02  0.41800000000E+01 0. -1.
         -5    1    3    3    0  502  0.33164177282E+02 -0.78037604475E+01  0.10394394207E+03  0.10946495706E+03  0.41800000000E+01 0. -1.
        -11    1    4    4    0    0 -0.17523517202E+02 -0.31279622992E+02  0.48173998203E+02  0.60051832382E+02  0.00000000000E+00 0.  1.
         11    1    4    4    0    0 -0.19829577479E+02  0.29269442435E+02 -0.22546403903E+02  0.41931524327E+02  0.00000000000E+00 0. -1.
</event>
<event>
 8    1  0.6684013E-009  0.1501486E+03  0.7561462E-02  0.1200291E+00
          1   -1    0    0  501    0  0.00000000000E+00  0.00000000000E+00  0.91820331400E+03  0.91820331400E+03  0.00000000000E+00 0. -1.
         -1   -1    0    0    0  501 -0.00000000000E+00 -0.00000000000E+00 -0.28292843403E+02  0.28292843403E+02  0.00000000000E+00 0.  1.
         25    2    1    2    0    0 -0.10763179142E+03  0.42201791056E+02  0.39276604919E+03  0.42811042936E+03  0.12509107339E+03 0.  0.
         23    2    1    2    0    0  0.10763179142E+03 -0.42201791056E+02  0.49714442141E+03  0.51838572804E+03  0.90584731647E+02 0.  0.
          5    1    3    3  502    0 -0.24533851900E+02 -0.37544353097E+02  0.54242725712E+02  0.70506978599E+02  0.41800000000E+01 0.  1.
         -5    1    3    3    0  502 -0.83097939516E+02  0.79746144153E+02  0.33852332348E+03  0.35760345077E+03  0.41800000000E+01 0.  1.
        -11    1    4    4    0    0  0.46894566646E+02  0.21849485499E+02  0.26549258028E+03  0.27048624842E+03  0.00000000000E+00 0. -1.
         11    1    4    4    0    0  0.60737224770E+02 -0.64051276554E+02  0.23165184112E+03  0.24789947962E+03  0.00000000000E+00 0.  1.
</event>
<event>
 8    1  0.6684013E-009  0.1490814E+03  0.7561462E-02  0.1201606E+00
         -1   -1    0    0    0  501 -0.00000000000E+00  0.00000000000E+00  0.76633828777E+03  0.76633828777E+03  0.00000000000E+00 0.  1.
          1   -1    0    0  501    0  0.00000000000E+00 -0.00000000000E+00 -0.35693207253E+02  0.35693207253E+02  0.00000000000E+00 0. -1.
         25    2    1    2    0    0 -0.65037310770E+02  0.82820653437E+02  0.23066004001E+03  0.28275160136E+03  0.12512114764E+03 0.  0.
         23    2    1    2    0    0  0.65037310770E+02 -0.82820653437E+02  0.49998504051E+03  0.51927989366E+03  0.92614549615E+02 0.  0.
          5    1    3    3  502    0 -0.97616300289E+02  0.43857696314E+02  0.18767592902E+03  0.21608370216E+03  0.41800000000E+01 0.  1.
         -5    1    3    3    0  502  0.32578989519E+02  0.38962957123E+02  0.42984110993E+02  0.66667899200E+02  0.41800000000E+01 0.  1.
        -11    1    4    4    0    0  0.84967602916E+01 -0.83130067630E+02  0.30920904028E+03  0.32030147310E+03  0.00000000000E+00 0.  1.
         11    1    4    4    0    0  0.56540550478E+02  0.30941419292E+00  0.19077600023E+03  0.19897842056E+03  0.00000000000E+00 0. -1.
</event>
<event>
 8    1  0.6684013E-009  0.1019050E+03  0.7561462E-02  0.1276340E+00
          2   -1    0    0  501    0  0.00000000000E+00  0.00000000000E+00  0.10011698690E+04  0.10011698690E+04  0.00000000000E+00 0. -1.
         -2   -1    0    0    0  501 -0.00000000000E+00 -0.00000000000E+00 -0.21483308266E+02  0.21483308266E+02  0.00000000000E+00 0.  1.
         25    2    1    2    0    0 -0.30303679886E+02 -0.75670226022E+02  0.72933298171E+03  0.74445912686E+03  0.12509395362E+03 0.  0.
         23    2    1    2    0    0  0.30303679886E+02  0.75670226022E+02  0.25035357898E+03  0.27819405037E+03  0.89837180659E+02 0.  0.
          5    1    3    3  502    0 -0.38769655473E+02 -0.57122517903E+02  0.71687345680E+03  0.72020212003E+03  0.41800000000E+01 0. -1.
         -5    1    3    3    0  502  0.84659755871E+01 -0.18547708119E+02  0.12459524909E+02  0.24257006824E+02  0.41800000000E+01 0. -1.
        -11    1    4    4    0    0  0.20181531749E+02 -0.13377871786E+02  0.10231329461E+03  0.10513929775E+03  0.00000000000E+00 0. -1.
         11    1    4    4    0    0  0.10122148137E+02  0.89048097809E+02  0.14804028438E+03  0.17305475262E+03  0.00000000000E+00 0.  1.
</event>
<event>
 8    1  0.6684013E-009  0.1397374E+03  0.7561462E-02  0.1213683E+00
          4   -1    0    0  501    0  0.00000000000E+00  0.00000000000E+00  0.17239968664E+03  0.17239968664E+03  0.00000000000E+00 0. -1.
         -4   -1    0    0    0  501 -0.00000000000E+00 -0.00000000000E+00 -0.15186772961E+03  0.15186772961E+03  0.00000000000E+00 0.  1.
         25    2    1    2    0    0  0.35610903378E+02 -0.10796972091E+03  0.47480305643E+02  0.17556027715E+03  0.12506572039E+03 0.  0.
         23    2    1    2    0    0 -0.35610903378E+02  0.10796972091E+03 -0.26948348604E+02  0.14870713910E+03  0.91989144222E+02 0.  0.
          5    1    3    3  502    0  0.48520668492E+02 -0.27506016188E+02 -0.29626033679E+02  0.63293052296E+02  0.41800000000E+01 0. -1.
         -5    1    3    3    0  502 -0.12909765114E+02 -0.80463704719E+02  0.77106339322E+02  0.11226722485E+03  0.41800000000E+01 0. -1.
        -11    1    4    4    0    0 -0.57767464305E+02  0.39507005055E+02  0.46011699244E+01  0.70135968984E+02  0.00000000000E+00 0.  1.
         11    1    4    4    0    0  0.22156560928E+02  0.68462715852E+02 -0.31549518529E+02  0.78571170116E+02  0.00000000000E+00 0. -1.
</event>
<event>
 8    1  0.6684013E-009  0.6962157E+02  0.7561462E-02  0.1361385E+00
         -2   -1    0    0    0  501 -0.00000000000E+00  0.00000000000E+00  0.24426402333E+02  0.24426402333E+02  0.00000000000E+00 0.  1.
          2   -1    0    0  501    0  0.00000000000E+00 -0.00000000000E+00 -0.92102040889E+03  0.92102040889E+03  0.00000000000E+00 0. -1.
         25    2    1    2    0    0  0.22877491147E+02  0.50396130344E+02 -0.75423517823E+03  0.76653902607E+03  0.12509286489E+03 0.  0.
         23    2    1    2    0    0 -0.22877491147E+02 -0.50396130344E+02 -0.14235882832E+03  0.17890778516E+03  0.93160131133E+02 0.  0.
          5    1    3    3  502    0  0.68893164090E+01  0.37846877879E+02 -0.74081983413E+03  0.74182972972E+03  0.41800000000E+01 0. -1.
         -5    1    3    3    0  502  0.15988174738E+02  0.12549252464E+02 -0.13415344098E+02  0.24709296351E+02  0.41800000000E+01 0. -1.
        -11    1    4    4    0    0 -0.32814043270E+02 -0.48384803295E+01 -0.46183512993E+01  0.33488826440E+02  0.00000000000E+00 0.  1.
         11    1    4    4    0    0  0.99365521228E+01 -0.45557650014E+02 -0.13774047702E+03  0.14541895872E+03  0.00000000000E+00 0. -1.
</event>
<event>
 8    1  0.6684013E-009  0.2067028E+03  0.7561462E-02  0.1144204E+00
          4   -1    0    0  501    0  0.00000000000E+00  0.00000000000E+00  0.13504157556E+03  0.13504157556E+03  0.00000000000E+00 0. -1.
         -4   -1    0    0    0  501 -0.00000000000E+00 -0.00000000000E+00 -0.35846005801E+03  0.35846005801E+03  0.00000000000E+00 0.  1.
         25    2    1    2    0    0 -0.18382163814E+03  0.36416881670E+02 -0.15438865029E+03  0.27313481142E+03  0.12510070324E+03 0.  0.
         23    2    1    2    0    0  0.18382163814E+03 -0.36416881670E+02 -0.69029832161E+02  0.22036682215E+03  0.93165630222E+02 0.  0.
          5    1    3    3  502    0 -0.46121753217E+02  0.67973000194E+02 -0.73426427685E+02  0.11025632661E+03  0.41800000000E+01 0. -1.
         -5    1    3    3    0  502 -0.13769988493E+03 -0.31556118524E+02 -0.80962222603E+02  0.16287848481E+03  0.41800000000E+01 0. -1.
        -11    1    4    4    0    0  0.17052618124E+03 -0.41645707840E+02 -0.88206472879E+02  0.19645336680E+03  0.00000000000E+00 0.  1.
         11    1    4    4    0    0  0.13295456909E+02  0.52288261699E+01  0.19176640719E+02  0.23913455350E+02  0.00000000000E+00 0. -1.
</event>
<event>
 8    1  0.6684013E-009  0.1489295E+03  0.7561462E-02  0.1201795E+00
         -1   -1    0    0    0  501 -0.00000000000E+00  0.00000000000E+00  0.59263779254E+02  0.59263779254E+02  0.00000000000E+00 0.  1.
          1   -1    0    0  501    0  0.00000000000E+00 -0.00000000000E+00 -0.52292232181E+03  0.52292232181E+03  0.00000000000E+00 0. -1.
         25    2    1    2    0    0  0.68989112090E+02 -0.11564699922E+03 -0.30403059473E+03  0.35526954467E+03  0.12509244912E+03 0.  0.
         23    2    1    2    0    0 -0.68989112090E+02  0.11564699922E+03 -0.15962794783E+03  0.22691655639E+03  0.88748610235E+02 0.  0.
          5    1    3    3  502    0  0.30126806824E+02 -0.31428415486E+02 -0.72858760789E+01  0.44338766104E+02  0.41800000000E+01 0. -1.
         -5    1    3    3    0  502  0.38862305266E+02 -0.84218583737E+02 -0.29674471865E+03  0.31093077857E+03  0.41800000000E+01 0. -1.
        -11    1    4    4    0    0  0.12493997464E+02 -0.67777341124E+01 -0.14101786962E+02  0.20022438609E+02  0.00000000000E+00 0.  1.
         11    1    4    4    0    0 -0.81483109554E+02  0.12242473334E+03 -0.14552616086E+03  0.20689411778E+03  0.00000000000E+00 0. -1.
</event>
<event>
 8    1  0.6684013E-009  0.1142668E+03  0.7561462E-02  0.1252866E+00
          1   -1    0    0  501    0  0.00000000000E+00  0.00000000000E+00  0.61099232897E+02  0.61099232897E+02  0.00000000000E+00 0. -1.
         -1   -1    0    0    0  501 -0.00000000000E+00 -0.00000000000E+00 -0.25367307353E+03  0.25367307353E+03  0.00000000000E+00 0.  1.
         25    2    1    2    0    0 -0.49257662798E+02 -0.55322755866E+00 -0.15718086514E+03  0.20683179713E+03  0.12508774734E+03 0.  0.
         23    2    1    2    0    0  0.49257662798E+02  0.55322755866E+00 -0.35392975497E+02  0.10794050930E+03  0.89285314737E+02 0.  0.
          5    1    3    3  502    0  0.22267055267E+02  0.38931178787E+02 -0.25365857843E+02  0.51694850576E+02  0.41800000000E+01 0. -1.
         -5    1    3    3    0  502 -0.71524718065E+02 -0.39484406345E+02 -0.13181500729E+03  0.15513694655E+03  0.41800000000E+01 0. -1.
        -11    1    4    4    0    0 -0.17998731302E+02  0.24404009931E+02 -0.14314386142E+02  0.33532248356E+02  0.00000000000E+00 0. -1.
         11    1    4    4    0    0  0.67256394100E+02 -0.23850782372E+02 -0.21078589355E+02  0.74408260941E+02  0.00000000000E+00 0.  1.
</event>
<event>
 8    1  0.6684013E-009  0.8998809E+02  0.7561462E-02  0.1302881E+00
         -2   -1    0    0    0  501 -0.00000000000E+00  0.00000000000E+00  0.87836166582E+02  0.87836166582E+02  0.00000000000E+00 0.  1.
          2   -1    0    0  501    0  0.00000000000E+00 -0.00000000000E+00 -0.15167808283E+03  0.15167808283E+03  0.00000000000E+00 0. -1.
         25    2    1    2    0    0  0.33757934257E+02 -0.39568573004E+01 -0.10782654928E+02  0.13007200849E+03  0.12508879607E+03 0.  0.
         23    2    1    2    0    0 -0.33757934257E+02  0.39568573004E+01 -0.53059261316E+02  0.10944224091E+03  0.89482199571E+02 0.  0.
          5    1    3    3  502    0  0.61124325498E+02  0.40929617139E+01 -0.51527215414E+02  0.80158978483E+02  0.41800000000E+01 0. -1.
         -5    1    3    3    0  502 -0.27366391241E+02 -0.80498190144E+01  0.40744560486E+02  0.49913030011E+02  0.41800000000E+01 0. -1.
        -11    1    4    4    0    0  0.27879464396E+02 -0.10709079963E+01 -0.35507872934E+02  0.45157728233E+02  0.00000000000E+00 0.  1.
         11    1    4    4    0    0 -0.61637398652E+02  0.50277652967E+01 -0.17551388383E+02  0.64284512681E+02  0.00000000000E+00 0. -1.
</event>
<event>
 8    1  0.6684013E-009  0.1148657E+03  0.7561462E-02  0.1251816E+00
          1   -1    0    0  501    0  0.00000000000E+00  0.00000000000E+00  0.41195781729E+03  0.41195781729E+03  0.00000000000E+00 0.  1.
         -1   -1    0    0    0  501 -0.00000000000E+00 -0.00000000000E+00 -0.51599107387E+02  0.51599107387E+02  0.00000000000E+00 0. -1.
         25    2    1    2    0    0 -0.43819207176E+02  0.79206348160E+02  0.25381205679E+03  0.29708856557E+03  0.12508911667E+03 0.  0.
         23    2    1    2    0    0  0.43819207176E+02 -0.79206348160E+02  0.10654665311E+03  0.16646835911E+03  0.90364577073E+02 0.  0.
          5    1    3    3  502    0 -0.73196892276E+01 -0.20153861578E+02 -0.22716221745E+00  0.21846738648E+02  0.41800000000E+01 0.  1.
         -5    1    3    3    0  502 -0.36499517948E+02  0.99360209738E+02  0.25403921901E+03  0.27524182692E+03  0.41800000000E+01 0.  1.
        -11    1    4    4    0    0  0.65538809755E+01 -0.59379085840E+02  0.10888013585E+03  0.12419224281E+03  0.00000000000E+00 0.  1.
         11    1    4    4    0    0  0.37265326200E+02 -0.19827262320E+02 -0.23334827395E+01  0.42276116302E+02  0.00000000000E+00 0. -1.
</event>
<event>
 8    1  0.6684013E-009  0.1133171E+03  0.7561462E-02  0.1254548E+00
         -2   -1    0    0    0  501 -0.00000000000E+00  0.00000000000E+00  0.18073301985E+02  0.18073301985E+02  0.00000000000E+00 0.  1.
          2   -1    0    0  501    0  0.00000000000E+00 -0.00000000000E+00 -0.12097220795E+04  0.12097220795E+04  0.00000000000E+00 0. -1.
         25    2    1    2    0    0 -0.70224994547E+02  0.21005011549E+02 -0.91043349286E+03  0.92190595999E+03  0.12509473918E+03 0.  0.
         23    2    1    2    0    0  0.70224994547E+02 -0.21005011549E+02 -0.28121528466E+03  0.30588942150E+03  0.95464870456E+02 0.  0.
          5    1    3    3  502    0  0.13395399691E+02 -0.39194899338E+02 -0.28628089699E+03  0.28929206911E+03  0.41800000000E+01 0.  1.
         -5    1    3    3    0  502 -0.83620394238E+02  0.60199910887E+02 -0.62415259587E+03  0.63261389088E+03  0.41800000000E+01 0.  1.
        -11    1    4    4    0    0  0.49015221947E+02  0.38996246045E+01 -0.26473071927E+03  0.26925833836E+03  0.00000000000E+00 0. -1.
         11    1    4    4    0    0  0.21209772600E+02 -0.24904636153E+02 -0.16484565391E+02  0.36631083137E+02  0.00000000000E+00 0.  1.
</event>
<event>
 8    1  0.6684013E-009  0.1751554E+03  0.7561462E-02  0.1172576E+00
         -1   -1    0    0    0  501 -0.00000000000E+00  0.00000000000E+00  0.26621049125E+03  0.26621049125E+03  0.00000000000E+00 0.  1.
          1   -1    0    0  501    0  0.00000000000E+00 -0.00000000000E+00 -0.17204101402E+03  0.17204101402E+03  0.00000000000E+00 0. -1.
         25    2    1    2    0    0  0.16336602585E+03 -0.43398073169E+02 -0.29157729688E+02  0.21226912823E+03  0.12504462580E+03 0.  0.
         23    2    1    2    0    0 -0.16336602585E+03  0.43398073169E+02  0.12332720692E+03  0.22598237704E+03  0.85361487862E+02 0.  0.
          5    1    3    3  502    0  0.98613101281E+02  0.70958697646E+01 -0.69264728397E+02  0.12078894863E+03  0.41800000000E+01 0. -1.
         -5    1    3    3    0  502  0.64752924570E+02 -0.50493942934E+02  0.40106998708E+02  0.91480179595E+02  0.41800000000E+01 0. -1.
        -11    1    4    4    0    0 -0.84917576748E+02  0.25603620804E+02  0.11482832169E+03  0.14509336202E+03  0.00000000000E+00 0.  1.
         11    1    4    4    0    0 -0.78448449103E+02  0.17794452365E+02  0.84988852294E+01  0.80889015025E+02  0.00000000000E+00 0. -1.
</event>
<event>
 8    1  0.6684013E-009  0.1010081E+03  0.7561462E-02  0.1278190E+00
          1   -1    0    0  501    0  0.00000000000E+00  0.00000000000E+00  0.95360517540E+03  0.95360517540E+03  0.00000000000E+00 0.  1.
         -1   -1    0    0    0  501 -0.00000000000E+00 -0.00000000000E+00 -0.18741202045E+02  0.18741202045E+02  0.00000000000E+00 0. -1.
         25    2    1    2    0    0  0.30841369732E+02 -0.40937949843E+02  0.73207019386E+03  0.74444763517E+03  0.12509359276E+03 0.  0.
         23    2    1    2    0    0 -0.30841369732E+02  0.40937949843E+02  0.20279377949E+03  0.22789874227E+03  0.90473277292E+02 0.  0.
          5    1    3    3  502    0  0.76019139077E+02 -0.35645289613E+02  0.56604350456E+03  0.57225188304E+03  0.41800000000E+01 0. -1.
         -5    1    3    3    0  502 -0.45177769345E+02 -0.52926602301E+01  0.16602668930E+03  0.17219575214E+03  0.41800000000E+01 0. -1.
        -11    1    4    4    0    0 -0.65285574178E+00  0.42058127351E+02  0.19082316378E+03  0.19540417634E+03  0.00000000000E+00 0.  1.
         11    1    4    4    0    0 -0.30188513990E+02 -0.11201775079E+01  0.11970615717E+02  0.32494565934E+02  0.00000000000E+00 0. -1.
</event>
<event>
 8    1  0.6684013E-009  0.1362958E+03  0.7561462E-02  0.1218402E+00
          2   -1    0    0  501    0  0.00000000000E+00  0.00000000000E+00  0.41048297487E+02  0.41048297487E+02  0.00000000000E+00 0. -1.
         -2   -1    0    0    0  501 -0.00000000000E+00 -0.00000000000E+00 -0.50739561311E+03  0.50739561311E+03  0.00000000000E+00 0.  1.
         25    2    1    2    0    0  0.29936804175E+02 -0.87822126246E+02 -0.29114310502E+03  0.33019700111E+03  0.12512719065E+03 0.  0.
         23    2    1    2    0    0 -0.29936804175E+02  0.87822126246E+02 -0.17520421060E+03  0.21824690949E+03  0.91248342367E+02 0.  0.
          5    1    3    3  502    0  0.24837025145E+02  0.29180699297E+02 -0.68898486035E+02  0.78948494649E+02  0.41800000000E+01 0.  1.
         -5    1    3    3    0  502  0.50997790297E+01 -0.11700282554E+03 -0.22224461899E+03  0.25124850646E+03  0.41800000000E+01 0.  1.
        -11    1    4    4    0    0 -0.19358932507E+00 -0.12355182817E+02 -0.65816080917E+02  0.66965995300E+02  0.00000000000E+00 0.  1.
         11    1    4    4    0    0 -0.29743214850E+02  0.10017730906E+03 -0.10938812968E+03  0.15128091418E+03  0.00000000000E+00 0. -1.
</event>
<event>
 8    1  0.6684013E-009  0.1220772E+03  0.7561462E-02  0.1239709E+00
         -4   -1    0    0    0  501 -0.00000000000E+00  0.00000000000E+00  0.47720391816E+03  0.47720391816E+03  0.00000000000E+00 0.  1.
          4   -1    0    0  501    0  0.00000000000E+00 -0.00000000000E+00 -0.35663328958E+02  0.35663328958E+02  0.00000000000E+00 0. -1.
         25    2    1    2    0    0 -0.73171382459E+02 -0.80515760117E+01  0.24301100410E+03  0.28305948460E+03  0.12509774028E+03 0.  0.
         23    2    1    2    0    0  0.73171382459E+02  0.80515760117E+01  0.19852958511E+03  0.22980776252E+03  0.89323750835E+02 0.  0.
          5    1    3    3  502    0  0.28371374048E+02  0.53295407714E+00  0.13081534370E+02  0.31524876635E+02  0.41800000000E+01 0.  1.
         -5    1    3    3    0  502 -0.10154275651E+03 -0.85845300888E+01  0.22992946973E+03  0.25153460797E+03  0.41800000000E+01 0.  1.
        -11    1    4    4    0    0  0.34233140772E+02  0.47172363724E+02  0.12448284279E+03  0.13745223889E+03  0.00000000000E+00 0.  1.
         11    1    4    4    0    0  0.38938241687E+02 -0.39120787713E+02  0.74046742316E+02  0.92355523628E+02  0.00000000000E+00 0. -1.
</event>
<event>
 8    1  0.6684013E-009  0.9906634E+02  0.7561462E-02  0.1282272E+00
          1   -1    0    0  501    0  0.00000000000E+00  0.00000000000E+00  0.33478928064E+03  0.33478928064E+03  0.00000000000E+00 0. -1.
         -1   -1    0    0    0  501 -0.00000000000E+00 -0.00000000000E+00 -0.46325751529E+02  0.46325751529E+02  0.00000000000E+00 0.  1.
         25    2    1    2    0    0 -0.53665290939E+02 -0.29256436554E+02  0.16997179248E+03  0.21972063475E+03  0.12510333555E+03 0.  0.
         23    2    1    2    0    0  0.53665290939E+02  0.29256436554E+02  0.11849173664E+03  0.16139439742E+03  0.90950301464E+02 0.  0.
          5    1    3    3  502    0  0.29569319639E+02  0.23674041239E+02  0.66908102276E+02  0.76999814562E+02  0.41800000000E+01 0.  1.
         -5    1    3    3    0  502 -0.83234610578E+02 -0.52930477793E+02  0.10306369020E+03  0.14272082019E+03  0.41800000000E+01 0.  1.
        -11    1    4    4    0    0  0.29814986736E+02  0.13628893825E+02 -0.63036662928E+01  0.33382875695E+02  0.00000000000E+00 0.  1.
         11    1    4    4    0    0  0.23850304203E+02  0.15627542730E+02  0.12479540293E+03  0.12801152173E+03  0.00000000000E+00 0. -1.
</event>
<event>
 8    1  0.6684013E-009  0.1314702E+03  0.7561462E-02  0.1225290E+00
          1   -1    0    0  501    0  0.00000000000E+00  0.00000000000E+00  0.16482117665E+04  0.16482117665E+04  0.00000000000E+00 0. -1.
         -1   -1    0    0    0  501 -0.00000000000E+00 -0.00000000000E+00 -0.15800514990E+02  0.15800514990E+02  0.00000000000E+00 0.  1.
         25    2    1    2    0    0  0.91438835708E+02  0.68158072504E+02  0.10270535122E+04  0.10409097920E+04  0.12509074509E+03 0.  0.
         23    2    1    2    0    0 -0.91438835708E+02 -0.68158072504E+02  0.60535773927E+03  0.62310248951E+03  0.93766392806E+02 0.  0.
          5    1    3    3  502    0  0.26737600727E+02  0.49557886145E+02  0.13531215618E+03  0.14662106050E+03  0.41800000000E+01 0.  1.
         -5    1    3    3    0  502  0.64701234981E+02  0.18600186359E+02  0.89174135607E+03  0.89428873148E+03  0.41800000000E+01 0.  1.
        -11    1    4    4    0    0 -0.25975962388E+02 -0.68818108709E+02  0.42303772522E+03  0.42938514141E+03  0.00000000000E+00 0.  1.
         11    1    4    4    0    0 -0.65462873320E+02  0.66003620521E+00  0.18232001406E+03  0.19371734810E+03  0.00000000000E+00 0. -1.
</event>
<event>
 8    1  0.6684013E-009  0.8940778E+02  0.7561462E-02  0.1304292E+00
          2   -1    0    0  501    0  0.00000000000E+00  0.00000000000E+00  0.90912295894E+02  0.90912295894E+02  0.00000000000E+00 0. -1.
         -2   -1    0    0    0  501 -0.00000000000E+00 -0.00000000000E+00 -0.14564293740E+03  0.14564293740E+03  0.00000000000E+00 0.  1.
         25    2    1    2    0    0 -0.18110025317E+01  0.43038773641E+02 -0.31942862507E+02  0.13614703595E+03  0.12514013412E+03 0.  0.
         23    2    1    2    0    0  0.18110025317E+01 -0.43038773641E+02 -0.22787778995E+02  0.10040819734E+03  0.87788993926E+02 0.  0.
          5    1    3    3  502    0  0.32327960073E+02  0.72301649482E+02 -0.42200373696E+02  0.89838574456E+02  0.41800000000E+01 0.  1.
         -5    1    3    3    0  502 -0.34138962605E+02 -0.29262875841E+02  0.10257511189E+02  0.46308461495E+02  0.41800000000E+01 0.  1.
        -11    1    4    4    0    0  0.16163695024E+02 -0.11937569509E+02 -0.51773799049E+02  0.55536446327E+02  0.00000000000E+00 0.  1.
         11    1    4    4    0    0 -0.14352692492E+02 -0.31101204133E+02  0.28986020055E+02  0.44871751012E+02  0.00000000000E+00 0. -1.
</event>
<event>
 8    1  0.6684013E-009  0.1152411E+03  0.7561462E-02  0.1251161E+00
         -2   -1    0    0    0  501 -0.00000000000E+00  0.00000000000E+00  0.71154598871E+02  0.71154598871E+02  0.00000000000E+00 0.  1.
          2   -1    0    0  501    0  0.00000000000E+00 -0.00000000000E+00 -0.28495249856E+03  0.28495249856E+03  0.00000000000E+00 0. -1.
         25    2    1    2    0    0 -0.66963996052E+02 -0.19228265042E+01 -0.19785190024E+03  0.24347912646E+03  0.12509530992E+03 0.  0.
         23    2    1    2    0    0  0.66963996052E+02  0.19228265042E+01 -0.15945999452E+02  0.11262797097E+03  0.89123010039E+02 0.  0.
          5    1    3    3  502    0 -0.78633329035E+02 -0.35051886065E+02 -0.70642786344E+02  0.11144375628E+03  0.41800000000E+01 0. -1.
         -5    1    3    3    0  502  0.11669332984E+02  0.33129059561E+02 -0.12720911390E+03  0.13203537018E+03  0.41800000000E+01 0. -1.
        -11    1    4    4    0    0  0.27311091869E+02  0.43563336196E+02  0.44707236128E+01  0.51610535448E+02  0.00000000000E+00 0.  1.
         11    1    4    4    0    0  0.39652904182E+02 -0.41640509692E+02 -0.20416723065E+02  0.61017435526E+02  0.00000000000E+00 0. -1.
</event>
<event>
 8    1  0.6684013E-009  0.1155461E+03  0.7561462E-02  0.1250631E+00
          1   -1    0    0  501    0  0.00000000000E+00  0.00000000000E+00  0.23710887162E+03  0.23710887162E+03  0.00000000000E+00 0. -1.
         -1   -1    0    0    0  501 -0.00000000000E+00 -0.00000000000E+00 -0.60430928991E+02  0.60430928991E+02  0.00000000000E+00 0.  1.
         25    2    1    2    0    0 -0.23139489943E+02 -0.12631168864E+02  0.13180589677E+03  0.18361790870E+03  0.12509100508E+03 0.  0.
         23    2    1    2    0    0  0.23139489943E+02  0.12631168864E+02  0.44872045863E+02  0.11392189191E+03  0.10133960003E+03 0.  0.
          5    1    3    3  502    0 -0.72368075514E+02  0.78942736420E+01  0.62305902597E+02  0.95911187087E+02  0.41800000000E+01 0.  1.
         -5    1    3    3    0  502  0.49228585571E+02 -0.20525442506E+02  0.69499994169E+02  0.87706721618E+02  0.41800000000E+01 0.  1.
        -11    1    4    4    0    0  0.62405123592E+02 -0.28443331456E+01  0.28268182333E+02  0.68568067014E+02  0.00000000000E+00 0.  1.
         11    1    4    4    0    0 -0.39265633649E+02  0.15475502010E+02  0.16603863530E+02  0.45353824893E+02  0.00000000000E+00 0. -1.
</event>
<event>
 8    1  0.6684013E-009  0.3021971E+03  0.7561462E-02  0.1084147E+00
         -4   -1    0    0    0  501 -0.00000000000E+00  0.00000000000E+00  0.32869113711E+03  0.32869113711E+03  0.00000000000E+00 0.  1.
          4   -1    0    0  501    0  0.00000000000E+00 -0.00000000000E+00 -0.37049021962E+03  0.37049021962E+03  0.00000000000E+00 0. -1.
         25    2    1    2    0    0 -0.13504205704E+03  0.26411573290E+03  0.12695149836E+03  0.34605930636E+03  0.12508750155E+03 0.  0.
         23    2    1    2    0    0  0.13504205704E+03 -0.26411573290E+03 -0.16875058087E+03  0.35312205037E+03  0.90691490104E+02 0.  0.
          5    1    3    3  502    0 -0.41483648103E+02  0.85655157957E+02  0.10741605538E+03  0.14357360655E+03  0.41800000000E+01 0.  1.
         -5    1    3    3    0  502 -0.93558408937E+02  0.17846057495E+03  0.19535442975E+02  0.20248569980E+03  0.41800000000E+01 0.  1.
        -11    1    4    4    0    0  0.14329674099E+03 -0.21893612986E+03 -0.12616913121E+03  0.29049205601E+03  0.00000000000E+00 0.  1.
         11    1    4    4    0    0 -0.82546839458E+01 -0.45179603043E+02 -0.42581449664E+02  0.62629994361E+02  0.00000000000E+00 0. -1.
</event>
<event>
 8    1  0.6684013E-009  0.1467277E+03  0.7561462E-02  0.1204553E+00
          2   -1    0    0  501    0  0.00000000000E+00  0.00000000000E+00  0.28342931484E+03  0.28342931484E+03  0.00000000000E+00 0.  1.
         -2   -1    0    0    0  501 -0.00000000000E+00 -0.00000000000E+00 -0.14620893313E+03  0.14620893313E+03  0.00000000000E+00 0. -1.
         25    2    1    2    0    0 -0.13023915927E+03  0.58558283720E+02 -0.29793540689E+02  0.19216307862E+03  0.12509069717E+03 0.  0.
         23    2    1    2    0    0  0.13023915927E+03 -0.58558283720E+02  0.16701392240E+03  0.23747516934E+03  0.90052732214E+02 0.  0.
          5    1    3    3  502    0 -0.60298925139E+02  0.39641734823E+02 -0.76980464553E+02  0.10559778329E+03  0.41800000000E+01 0.  1.
         -5    1    3    3    0  502 -0.69940234133E+02  0.18916548897E+02  0.47186923863E+02  0.86565295335E+02  0.41800000000E+01 0.  1.
        -11    1    4    4    0    0  0.81196235675E+02 -0.57589254006E+02  0.51719202790E+02  0.11217944019E+03  0.00000000000E+00 0. -1.
         11    1    4    4    0    0  0.49042923597E+02 -0.96902971391E+00  0.11529471961E+03  0.12529572915E+03  0.00000000000E+00 0.  1.
</event>
<event>
 8    1  0.6684013E-009  0.1248372E+03  0.7561462E-02  0.1235324E+00
          2   -1    0    0  501    0  0.00000000000E+00  0.00000000000E+00  0.14817249597E+03  0.14817249597E+03  0.00000000000E+00 0. -1.
         -2   -1    0    0    0  501 -0.00000000000E+00 -0.00000000000E+00 -0.13784032288E+03  0.13784032288E+03  0.00000000000E+00 0.  1.
         25    2    1    2    0    0 -0.50774901149E+02 -0.71348997051E+02 -0.18677110665E+02  0.15383849107E+03  0.12509467177E+03 0.  0.
         23    2    1    2    0    0  0.50774901149E+02  0.71348997051E+02  0.29009283756E+02  0.13217432778E+03  0.94655926454E+02 0.  0.
          5    1    3    3  502    0  0.21190630864E+02  0.17749412825E+02  0.18299462302E+02  0.33412979703E+02  0.41800000000E+01 0.  1.
         -5    1    3    3    0  502 -0.71965532014E+02 -0.89098409876E+02 -0.36976572968E+02  0.12042551137E+03  0.41800000000E+01 0.  1.
        -11    1    4    4    0    0  0.65277401234E+02  0.60453511211E+02 -0.96288780469E+01  0.89490119131E+02  0.00000000000E+00 0.  1.
         11    1    4    4    0    0 -0.14502500085E+02  0.10895485840E+02  0.38638161803E+02  0.42684208648E+02  0.00000000000E+00 0. -1.
</event>
<event>
 8    1  0.6684013E-009  0.1294433E+03  0.7561462E-02  0.1228284E+00
          2   -1    0    0  501    0  0.00000000000E+00  0.00000000000E+00  0.11111786398E+03  0.11111786398E+03  0.00000000000E+00 0. -1.
         -2   -1    0    0    0  501 -0.00000000000E+00 -0.00000000000E+00 -0.18697959141E+03  0.18697959141E+03  0.00000000000E+00 0.  1.
         25    2    1    2    0    0  0.52743412586E+02 -0.49835530645E+02 -0.10360475810E+03  0.17789623799E+03  0.12509067872E+03 0.  0.
         23    2    1    2    0    0 -0.52743412586E+02  0.49835530645E+02  0.27743030668E+02  0.12020121740E+03  0.91723547843E+02 0.  0.
          5    1    3    3  502    0  0.20615481412E+02 -0.89097213699E+02 -0.80854599556E+02  0.12214028914E+03  0.41800000000E+01 0. -1.
         -5    1    3    3    0  502  0.32127931174E+02  0.39261683054E+02 -0.22750158547E+02  0.55755948846E+02  0.41800000000E+01 0. -1.
        -11    1    4    4    0    0  0.39172401940E+01  0.58921934562E+02  0.19724513591E+02  0.62259100376E+02  0.00000000000E+00 0.  1.
         11    1    4    4    0    0 -0.56660652780E+02 -0.90864039170E+01  0.80185170775E+01  0.57942117029E+02  0.00000000000E+00 0. -1.
</event>
<event>
 8    1  0.6684013E-009  0.9690697E+02  0.7561462E-02  0.1286938E+00
          2   -1    0    0  501    0  0.00000000000E+00  0.00000000000E+00  0.24787740586E+03  0.24787740586E+03  0.00000000000E+00 0. -1.
         -2   -1    0    0    0  501 -0.00000000000E+00 -0.00000000000E+00 -0.74263842345E+02  0.74263842345E+02  0.00000000000E+00 0.  1.
         25    2    1    2    0    0  0.42832717690E+02 -0.66490315881E+02  0.67773103930E+02  0.16277686283E+03  0.12509000618E+03 0.  0.
         23    2    1    2    0    0 -0.42832717690E+02  0.66490315881E+02  0.10584045959E+03  0.15936438538E+03  0.89102192063E+02 0.  0.
          5    1    3    3  502    0  0.32273339236E+02  0.12519964570E+02  0.74918727527E+02  0.82635380272E+02  0.41800000000E+01 0.  1.
         -5    1    3    3    0  502  0.10559378454E+02 -0.79010280451E+02 -0.71456235972E+01  0.80141482559E+02  0.41800000000E+01 0.  1.
        -11    1    4    4    0    0 -0.19624707228E+02  0.32510340585E+02 -0.75682394276E+01  0.38721178014E+02  0.00000000000E+00 0.  1.
         11    1    4    4    0    0 -0.23208010462E+02  0.33979975296E+02  0.11340869901E+03  0.12064320736E+03  0.00000000000E+00 0. -1.
</event>
<event>
 8    1  0.6684013E-009  0.8408576E+02  0.7561462E-02  0.1317841E+00
          1   -1    0    0  501    0  0.00000000000E+00  0.00000000000E+00  0.13107057298E+02  0.13107057298E+02  0.00000000000E+00 0. -1.
         -1   -1    0    0    0  501 -0.00000000000E+00 -0.00000000000E+00 -0.10439589779E+04  0.10439589779E+04  0.00000000000E+00 0.  1.
         25    2    1    2    0    0  0.36622345424E+02 -0.19580263339E+02 -0.62783356896E+03  0.64151921060E+03  0.12508926558E+03 0.  0.
         23    2    1    2    0    0 -0.36622345424E+02  0.19580263339E+02 -0.40301835164E+03  0.41554682459E+03  0.92362269203E+02 0.  0.
          5    1    3    3  502    0  0.38123855120E+02  0.79549601757E+01 -0.52456481503E+02  0.65466514893E+02  0.41800000000E+01 0.  1.
         -5    1    3    3    0  502 -0.15015096956E+01 -0.27535223514E+02 -0.57537708745E+03  0.57605269571E+03  0.41800000000E+01 0.  1.
        -11    1    4    4    0    0 -0.52274773060E+02  0.46505647243E+02 -0.26795734794E+03  0.27694145129E+03  0.00000000000E+00 0.  1.
         11    1    4    4    0    0  0.15652427635E+02 -0.26925383905E+02 -0.13506100369E+03  0.13860537330E+03  0.00000000000E+00 0. -1.
</event>
<event>
 8    1  0.6684013E-009  0.2822448E+03  0.7561462E-02  0.1094469E+00
         -1   -1    0    0    0  501 -0.00000000000E+00  0.00000000000E+00  0.99268243469E+02  0.99268243469E+02  0.00000000000E+00 0.  1.
          1   -1    0    0  501    0  0.00000000000E+00 -0.00000000000E+00 -0.84379011039E+03  0.84379011039E+03  0.00000000000E+00 0. -1.
         25    2    1    2    0    0 -0.20126449924E+03 -0.16461143921E+03 -0.27676390506E+03  0.39981321375E+03  0.12509205481E+03 0.  0.
         23    2    1    2    0    0  0.20126449924E+03  0.16461143921E+03 -0.46775796186E+03  0.54324514011E+03  0.93345845089E+02 0.  0.
          5    1    3    3  502    0 -0.13841180499E+03 -0.32686366467E+02 -0.13235335964E+03  0.19432218227E+03  0.41800000000E+01 0. -1.
         -5    1    3    3    0  502 -0.62852694244E+02 -0.13192507274E+03 -0.14441054542E+03  0.20549103148E+03  0.41800000000E+01 0. -1.
        -11    1    4    4    0    0  0.29883779155E+01  0.43658685688E+02 -0.66169146538E+02  0.79330745567E+02  0.00000000000E+00 0.  1.
         11    1    4    4    0    0  0.19827612132E+03  0.12095275352E+03 -0.40158881532E+03  0.46391439454E+03  0.00000000000E+00 0. -1.
</event>
<event>
 8    1  0.6684013E-009  0.1852125E+03  0.7561462E-02  0.1162852E+00
          1   -1    0    0  501    0  0.00000000000E+00  0.00000000000E+00  0.11038151447E+04  0.11038151447E+04  0.00000000000E+00 0. -1.
         -1   -1    0    0    0  501 -0.00000000000E+00 -0.00000000000E+00 -0.50010715810E+02  0.50010715810E+02  0.00000000000E+00 0.  1.
         25    2    1    2    0    0 -0.13742604052E+03 -0.83987412504E+02  0.86673001600E+03  0.89039787851E+03  0.12509060456E+03 0.  0.
         23    2    1    2    0    0  0.13742604052E+03  0.83987412504E+02  0.18707441293E+03  0.26342798204E+03  0.91965557009E+02 0.  0.
          5    1    3    3  502    0 -0.15078480981E+03 -0.98540943898E+02  0.71604564647E+03  0.73836658695E+03  0.41800000000E+01 0.  1.
         -5    1    3    3    0  502  0.13358769293E+02  0.14553531394E+02  0.15068436953E+03  0.15203129156E+03  0.41800000000E+01 0.  1.
        -11    1    4    4    0    0  0.10343566594E+03  0.88031584594E+02  0.96540330065E+02  0.16663892764E+03  0.00000000000E+00 0.  1.
         11    1    4    4    0    0  0.33990374574E+02 -0.40441720896E+01  0.90534082861E+02  0.96789054397E+02  0.00000000000E+00 0. -1.
</event>
<event>
 8    1  0.6684013E-009  0.1443247E+03  0.7561462E-02  0.1207625E+00
         -2   -1    0    0    0  501 -0.00000000000E+00  0.00000000000E+00  0.15787306281E+02  0.15787306281E+02  0.00000000000E+00 0.  1.
          2   -1    0    0  501    0  0.00000000000E+00 -0.00000000000E+00 -0.20374676066E+04  0.20374676066E+04  0.00000000000E+00 0. -1.
         25    2    1    2    0    0  0.38658593213E+02  0.10149699160E+03 -0.15998483487E+04  0.16084025600E+04  0.12509168741E+03 0.  0.
         23    2    1    2    0    0 -0.38658593213E+02 -0.10149699160E+03 -0.42183195161E+03  0.44485235280E+03  0.90306667871E+02 0.  0.
          5    1    3    3  502    0 -0.20467606564E+02 -0.11972801298E+02 -0.58731445979E+03  0.58780780700E+03  0.41800000000E+01 0. -1.
         -5    1    3    3    0  502  0.59126199777E+02  0.11346979290E+03 -0.10125338889E+04  0.10205947530E+04  0.41800000000E+01 0. -1.
        -11    1    4    4    0    0  0.12157052019E+02 -0.80758320050E+02 -0.19373168006E+03  0.21024191787E+03  0.00000000000E+00 0.  1.
         11    1    4    4    0    0 -0.50815645232E+02 -0.20738671554E+02 -0.22810027155E+03  0.23461043493E+03  0.00000000000E+00 0. -1.
</event>
<event>
 7    1  0.6684013E-009  0.1087729E+03  0.7561462E-02  0.1262859E+00
         -2   -1    0    0    0  501 -0.00000000000E+00  0.00000000000E+00  0.15375635685E+02  0.15375635685E+02  0.00000000000E+00 0. -1.
          2   -1    0    0  501    0  0.00000000000E+00 -0.00000000000E+00 -0.12036917322E+04  0.12036917322E+04  0.00000000000E+00 0.  1.
         23    2    1    2    0    0  0.68117271744E+00  0.88398655154E+02 -0.37923733310E+03  0.39635972756E+03  0.73927617204E+02 0.  0.
          5    1    1    2  502    0 -0.14858655567E+02 -0.10001849039E+03 -0.78795930883E+03  0.79443176096E+03  0.41800000000E+01 0. -1.
         -5    1    1    2    0  502  0.14177482849E+02  0.11619835232E+02 -0.21119454544E+02  0.28275879314E+02  0.41800000000E+01 0. -1.
        -11    1    3    3    0    0  0.20907168775E+02  0.48305925281E+02 -0.30567859179E+03  0.31017732606E+03  0.00000000000E+00 0.  1.
         11    1    3    3    0    0 -0.20225996057E+02  0.40092729872E+02 -0.73558741311E+02  0.86182401500E+02  0.00000000000E+00 0. -1.
</event>
<event>
 8    1  0.6684013E-009  0.8065874E+02  0.7561462E-02  0.1327192E+00
         -1   -1    0    0    0  501 -0.00000000000E+00  0.00000000000E+00  0.10072360893E+03  0.10072360893E+03  0.00000000000E+00 0.  1.
          1   -1    0    0  501    0  0.00000000000E+00 -0.00000000000E+00 -0.16387955488E+03  0.16387955488E+03  0.00000000000E+00 0. -1.
         25    2    1    2    0    0 -0.26273443005E+01 -0.52710046166E+02 -0.81975545607E+02  0.15859850706E+03  0.12509294328E+03 0.  0.
         23    2    1    2    0    0  0.26273443005E+01  0.52710046166E+02  0.18819599651E+02  0.10600465675E+03  0.89986432406E+02 0.  0.
          5    1    3    3  502    0 -0.20605153444E+01  0.10656560137E+02  0.28716468689E+02  0.30982510735E+02  0.41800000000E+01 0. -1.
         -5    1    3    3    0  502 -0.56682895609E+00 -0.63366606303E+02 -0.11069201430E+03  0.12761599633E+03  0.41800000000E+01 0. -1.
        -11    1    4    4    0    0  0.37527359234E+01  0.69375139926E+02  0.39106386345E+02  0.79726422970E+02  0.00000000000E+00 0.  1.
         11    1    4    4    0    0 -0.11253916229E+01 -0.16665093759E+02 -0.20286786694E+02  0.26278233782E+02  0.00000000000E+00 0. -1.
</event>
<event>
 8    1  0.6684013E-009  0.1068914E+03  0.7561462E-02  0.1266437E+00
         -3   -1    0    0    0  501 -0.00000000000E+00  0.00000000000E+00  0.18789323638E+03  0.18789323638E+03  0.00000000000E+00 0.  1.
          3   -1    0    0  501    0  0.00000000000E+00 -0.00000000000E+00 -0.10129265095E+03  0.10129265095E+03  0.00000000000E+00 0. -1.
         25    2    1    2    0    0 -0.30706528217E+02  0.45676100563E+02 -0.21133549136E+02  0.13828623522E+03  0.12508900397E+03 0.  0.
         23    2    1    2    0    0  0.30706528217E+02 -0.45676100563E+02  0.10773413456E+03  0.15089965211E+03  0.90193482129E+02 0.  0.
          5    1    3    3  502    0 -0.41251209897E+02 -0.18616902432E+02 -0.49414502332E+02  0.67138042978E+02  0.41800000000E+01 0.  1.
         -5    1    3    3    0  502  0.10544681680E+02  0.64293002995E+02  0.28280953196E+02  0.71148192244E+02  0.41800000000E+01 0.  1.
        -11    1    4    4    0    0 -0.29921640056E+02 -0.24996263866E+02  0.57603315479E+02  0.69557599909E+02  0.00000000000E+00 0. -1.
         11    1    4    4    0    0  0.60628168273E+02 -0.20679836697E+02  0.50130819084E+02  0.81342052199E+02  0.00000000000E+00 0.  1.
</event>
<event>
 8    1  0.6684013E-009  0.1217229E+03  0.7561462E-02  0.1240282E+00
         -1   -1    0    0    0  501 -0.00000000000E+00  0.00000000000E+00  0.52135468029E+03  0.52135468029E+03  0.00000000000E+00 0.  1.
          1   -1    0    0  501    0  0.00000000000E+00 -0.00000000000E+00 -0.46373016671E+02  0.46373016671E+02  0.00000000000E+00 0. -1.
         25    2    1    2    0    0 -0.15957892480E+01 -0.96986710439E+02  0.35416744790E+03  0.38793460661E+03  0.12509879818E+03 0.  0.
         23    2    1    2    0    0  0.15957892480E+01  0.96986710439E+02  0.12081421571E+03  0.17979309035E+03  0.91216840953E+02 0.  0.
          5    1    3    3  502    0  0.23336434738E+02 -0.85230684969E+02  0.34841038324E+03  0.35946644683E+03  0.41800000000E+01 0.  1.
         -5    1    3    3    0  502 -0.24932223986E+02 -0.11756025470E+02  0.57570646621E+01  0.28468159780E+02  0.41800000000E+01 0.  1.
        -11    1    4    4    0    0 -0.32504760020E+02  0.10541740418E+02  0.59008877798E+02  0.68188968125E+02  0.00000000000E+00 0.  1.
         11    1    4    4    0    0  0.34100549268E+02  0.86444970021E+02  0.61805337914E+02  0.11160412222E+03  0.00000000000E+00 0. -1.
</event>
<event>
 8    1  0.6684013E-009  0.1489623E+03  0.7561462E-02  0.1201754E+00
          1   -1    0    0  501    0  0.00000000000E+00  0.00000000000E+00  0.97721319888E+02  0.97721319888E+02  0.00000000000E+00 0. -1.
         -1   -1    0    0    0  501 -0.00000000000E+00 -0.00000000000E+00 -0.24983533519E+03  0.24983533519E+03  0.00000000000E+00 0.  1.
         25    2    1    2    0    0 -0.46846247110E+02 -0.10200235060E+03 -0.70631621594E+02  0.18231273947E+03  0.12510019428E+03 0.  0.
         23    2    1    2    0    0  0.46846247110E+02  0.10200235060E+03 -0.81482393704E+02  0.16524391560E+03  0.89817151832E+02 0.  0.
          5    1    3    3  502    0 -0.76521675868E+02 -0.10330817493E+03 -0.30477271672E+02  0.13219108281E+03  0.41800000000E+01 0.  1.
         -5    1    3    3    0  502  0.29675428758E+02  0.13058243283E+01 -0.40154349922E+02  0.50121656665E+02  0.41800000000E+01 0.  1.
        -11    1    4    4    0    0  0.70803513117E+02  0.73315847846E+02 -0.76712093393E+02  0.12756604677E+03  0.00000000000E+00 0. -1.
         11    1    4    4    0    0 -0.23957266007E+02  0.28686502757E+02 -0.47703003112E+01  0.37677868836E+02  0.00000000000E+00 0.  1.
</event>
<event>
 8    1  0.6684013E-009  0.1669946E+03  0.7561462E-02  0.1181019E+00
          3   -1    0    0  501    0  0.00000000000E+00  0.00000000000E+00  0.65324113084E+03  0.65324113084E+03  0.00000000000E+00 0. -1.
         -3   -1    0    0    0  501 -0.00000000000E+00 -0.00000000000E+00 -0.48307635622E+02  0.48307635622E+02  0.00000000000E+00 0.  1.
         25    2    1    2    0    0 -0.92594351234E+02  0.10442774717E+03  0.39764849221E+03  0.43960303537E+03  0.12509051559E+03 0.  0.
         23    2    1    2    0    0  0.92594351234E+02 -0.10442774717E+03  0.20728500302E+03  0.26194573110E+03  0.78546962435E+02 0.  0.
          5    1    3    3  502    0  0.31086474172E+02  0.15357064999E+02  0.71412287744E+02  0.79494625999E+02  0.41800000000E+01 0. -1.
         -5    1    3    3    0  502 -0.12368082541E+03  0.89070682168E+02  0.32623620446E+03  0.36010840937E+03  0.41800000000E+01 0. -1.
        -11    1    4    4    0    0  0.97698867379E+01 -0.41335854882E+02  0.18449302178E+02  0.46308534165E+02  0.00000000000E+00 0.  1.
         11    1    4    4    0    0  0.82824464496E+02 -0.63091892285E+02  0.18883570084E+03  0.21563719694E+03  0.00000000000E+00 0. -1.
</event>
<event>
 8    1  0.6684013E-009  0.1437512E+03  0.7561462E-02  0.1208369E+00
         -2   -1    0    0    0  501 -0.00000000000E+00  0.00000000000E+00  0.12257613036E+03  0.12257613036E+03  0.00000000000E+00 0.  1.
          2   -1    0    0  501    0  0.00000000000E+00 -0.00000000000E+00 -0.19745384740E+03  0.19745384740E+03  0.00000000000E+00 0. -1.
         25    2    1    2    0    0 -0.71674926203E+02  0.71151495102E+02 -0.88284731081E+02  0.18341753993E+03  0.12509184591E+03 0.  0.
         23    2    1    2    0    0  0.71674926203E+02 -0.71151495102E+02  0.13407014041E+02  0.13661243783E+03  0.91013075126E+02 0.  0.
          5    1    3    3  502    0 -0.77422988331E+02 -0.10781251816E+02 -0.37942555820E+02  0.86992324115E+02  0.41800000000E+01 0.  1.
         -5    1    3    3    0  502  0.57480621274E+01  0.81932746918E+02 -0.50342175261E+02  0.96425215819E+02  0.41800000000E+01 0.  1.
        -11    1    4    4    0    0  0.49512455078E+02  0.29846427570E+01 -0.18464659084E+02  0.52927638671E+02  0.00000000000E+00 0. -1.
         11    1    4    4    0    0  0.22162471125E+02 -0.74136137859E+02  0.31871673125E+02  0.83684799162E+02  0.00000000000E+00 0.  1.
</event>
<event>
 8    1  0.6684013E-009  0.2138243E+03  0.7561462E-02  0.1138573E+00
          2   -1    0    0  501    0  0.00000000000E+00  0.00000000000E+00  0.11601180503E+04  0.11601180503E+04  0.00000000000E+00 0. -1.
         -2   -1    0    0    0  501 -0.00000000000E+00 -0.00000000000E+00 -0.51095493601E+02  0.51095493601E+02  0.00000000000E+00 0.  1.
         25    2    1    2    0    0 -0.81168358940E+02 -0.19555383626E+03  0.44726669544E+03  0.51041693436E+03  0.12509334383E+03 0.  0.
         23    2    1    2    0    0  0.81168358940E+02  0.19555383626E+03  0.66175586130E+03  0.70079660957E+03  0.91462903181E+02 0.  0.
          5    1    3    3  502    0 -0.11192327212E+02 -0.34996144498E+02  0.84671306866E+01  0.37936302142E+02  0.41800000000E+01 0.  1.
         -5    1    3    3    0  502 -0.69976031728E+02 -0.16055769176E+03  0.43879956475E+03  0.47248063222E+03  0.41800000000E+01 0.  1.
        -11    1    4    4    0    0  0.34752653758E+02  0.13370022487E+03  0.53292035384E+03  0.55053392322E+03  0.00000000000E+00 0.  1.
         11    1    4    4    0    0  0.46415705181E+02  0.61853611393E+02  0.12883550746E+03  0.15026268636E+03  0.00000000000E+00 0. -1.
</event>
<event>
 8    1  0.6684013E-009  0.1937052E+03  0.7561462E-02  0.1155161E+00
         -2   -1    0    0    0  501 -0.00000000000E+00  0.00000000000E+00  0.29369445154E+02  0.29369445154E+02  0.00000000000E+00 0.  1.
          2   -1    0    0  501    0  0.00000000000E+00 -0.00000000000E+00 -0.16463354874E+04  0.16463354874E+04  0.00000000000E+00 0. -1.
         25    2    1    2    0    0 -0.11314987382E+02  0.18528073095E+03 -0.66231856734E+03  0.69912104193E+03  0.12508944171E+03 0.  0.
         23    2    1    2    0    0  0.11314987382E+02 -0.18528073095E+03 -0.95464747487E+03  0.97658389059E+03  0.88923089693E+02 0.  0.
          5    1    3    3  502    0 -0.12525188661E+02  0.13594203933E+03 -0.25931397976E+03  0.29308417035E+03  0.41800000000E+01 0. -1.
         -5    1    3    3    0  502  0.12102012795E+01  0.49338691620E+02 -0.40300458757E+03  0.40603687158E+03  0.41800000000E+01 0. -1.
        -11    1    4    4    0    0  0.35593147689E+02 -0.16741078180E+03 -0.87133148504E+03  0.88798186854E+03  0.00000000000E+00 0.  1.
         11    1    4    4    0    0 -0.24278160307E+02 -0.17869949147E+02 -0.83315989823E+02  0.88602022046E+02  0.00000000000E+00 0. -1.
</event>
<event>
 8    1  0.6684013E-009  0.1754102E+03  0.7561462E-02  0.1172320E+00
          2   -1    0    0  501    0  0.00000000000E+00  0.00000000000E+00  0.41575655178E+03  0.41575655178E+03  0.00000000000E+00 0. -1.
         -2   -1    0    0    0  501 -0.00000000000E+00 -0.00000000000E+00 -0.75678644300E+02  0.75678644300E+02  0.00000000000E+00 0.  1.
         25    2    1    2    0    0 -0.13058908974E+03 -0.50171053487E+02  0.19254935635E+03  0.26887361776E+03  0.12508845963E+03 0.  0.
         23    2    1    2    0    0  0.13058908974E+03  0.50171053487E+02  0.14752855113E+03  0.22256157832E+03  0.90544672825E+02 0.  0.
          5    1    3    3  502    0 -0.94010492580E+02 -0.92188141619E+02  0.13839460719E+03  0.19106848476E+03  0.41800000000E+01 0.  1.
         -5    1    3    3    0  502 -0.36578597156E+02  0.42017088132E+02  0.54154749156E+02  0.77805133000E+02  0.41800000000E+01 0.  1.
        -11    1    4    4    0    0  0.12709229573E+03  0.15112188914E+02  0.13261337508E+03  0.18430175565E+03  0.00000000000E+00 0.  1.
         11    1    4    4    0    0  0.34967940069E+01  0.35058864572E+02  0.14915176057E+02  0.38259822664E+02  0.00000000000E+00 0. -1.
</event>
<event>
 8    1  0.6684013E-009  0.1128512E+03  0.7561462E-02  0.1255379E+00
         -1   -1    0    0    0  501 -0.00000000000E+00  0.00000000000E+00  0.34621378814E+02  0.34621378814E+02  0.00000000000E+00 0.  1.
          1   -1    0    0  501    0  0.00000000000E+00 -0.00000000000E+00 -0.37250910884E+03  0.37250910884E+03  0.00000000000E+00 0. -1.
         25    2    1    2    0    0  0.30960345631E+02 -0.17952695528E+02 -0.19079627097E+03  0.23093614515E+03  0.12508974315E+03 0.  0.
         23    2    1    2    0    0 -0.30960345631E+02  0.17952695528E+02 -0.14709145905E+03  0.17619434250E+03  0.90153794850E+02 0.  0.
          5    1    3    3  502    0  0.10098741792E+02 -0.70870715460E+02 -0.89467581241E+02  0.11465846410E+03  0.41800000000E+01 0. -1.
         -5    1    3    3    0  502  0.20861603839E+02  0.52918019932E+02 -0.10132868973E+03  0.11627768105E+03  0.41800000000E+01 0. -1.
        -11    1    4    4    0    0  0.25254617904E+02  0.30258396555E+02 -0.62250337037E+02  0.73678156524E+02  0.00000000000E+00 0.  1.
         11    1    4    4    0    0 -0.56214963535E+02 -0.12305701027E+02 -0.84841122016E+02  0.10251618598E+03  0.00000000000E+00 0. -1.
</event>
<event>
 8    1  0.6684013E-009  0.1609017E+03  0.7561462E-02  0.1187682E+00
          1   -1    0    0  501    0  0.00000000000E+00  0.00000000000E+00  0.16103733006E+04  0.16103733006E+04  0.00000000000E+00 0. -1.
         -1   -1    0    0    0  501 -0.00000000000E+00 -0.00000000000E+00 -0.19341573265E+02  0.19341573265E+02  0.00000000000E+00 0.  1.
         25    2    1    2    0    0 -0.10385776081E+03 -0.77516328000E+02  0.11006192347E+04  0.11152604671E+04  0.12509194243E+03 0.  0.
         23    2    1    2    0    0  0.10385776081E+03  0.77516328000E+02  0.49041249263E+03  0.51445440678E+03  0.85812051246E+02 0.  0.
          5    1    3    3  502    0  0.20899838512E+02 -0.18824323358E+02  0.71646224964E+02  0.77083152188E+02  0.41800000000E+01 0.  1.
         -5    1    3    3    0  502 -0.12475759932E+03 -0.58692004642E+02  0.10289730098E+04  0.10381773149E+04  0.41800000000E+01 0.  1.
        -11    1    4    4    0    0  0.11390210184E+03  0.46850909306E+02  0.38955435268E+03  0.40856002031E+03  0.00000000000E+00 0. -1.
         11    1    4    4    0    0 -0.10044341033E+02  0.30665418695E+02  0.10085813995E+03  0.10589438647E+03  0.00000000000E+00 0.  1.
</event>
<event>
 8    1  0.6684013E-009  0.1373435E+03  0.7561462E-02  0.1216949E+00
         -2   -1    0    0    0  501 -0.00000000000E+00  0.00000000000E+00  0.57913204848E+02  0.57913204848E+02  0.00000000000E+00 0.  1.
          2   -1    0    0  501    0  0.00000000000E+00 -0.00000000000E+00 -0.47015086443E+03  0.47015086443E+03  0.00000000000E+00 0. -1.
         25    2    1    2    0    0 -0.38576096835E+02 -0.10924249331E+03 -0.29027589104E+03  0.33664476092E+03  0.12509022562E+03 0.  0.
         23    2    1    2    0    0  0.38576096835E+02  0.10924249331E+03 -0.12196176854E+03  0.19141930835E+03  0.91349006742E+02 0.  0.
          5    1    3    3  502    0 -0.69744474844E+02 -0.79207115367E+02 -0.11537597766E+03  0.15641977981E+03  0.41800000000E+01 0. -1.
         -5    1    3    3    0  502  0.31168378009E+02 -0.30035377943E+02 -0.17489991337E+03  0.18022498111E+03  0.41800000000E+01 0. -1.
        -11    1    4    4    0    0  0.50201821272E+02  0.91544330994E+02 -0.48786675450E+02  0.11524203703E+03  0.00000000000E+00 0.  1.
         11    1    4    4    0    0 -0.11625724436E+02  0.17698162317E+02 -0.73175093091E+02  0.76177271328E+02  0.00000000000E+00 0. -1.
</event>
<event>
 8    1  0.6684013E-009  0.1610571E+03  0.7561462E-02  0.1187508E+00
          2   -1    0    0  501    0  0.00000000000E+00  0.00000000000E+00  0.70527918198E+02  0.70527918198E+02  0.00000000000E+00 0. -1.
         -2   -1    0    0    0  501 -0.00000000000E+00 -0.00000000000E+00 -0.52297556618E+03  0.52297556618E+03  0.00000000000E+00 0.  1.
         25    2    1    2    0    0  0.12914644137E+03 -0.84124909217E+02 -0.28976549418E+03  0.35123636048E+03  0.12508851121E+03 0.  0.
         23    2    1    2    0    0 -0.12914644137E+03  0.84124909217E+02 -0.16268215379E+03  0.24226712389E+03  0.92043861759E+02 0.  0.
          5    1    3    3  502    0  0.10309410793E+03 -0.44807030994E+02 -0.84795338395E+02  0.14086797695E+03  0.41800000000E+01 0. -1.
         -5    1    3    3    0  502  0.26052333432E+02 -0.39317878222E+02 -0.20497015579E+03  0.21036838353E+03  0.41800000000E+01 0. -1.
        -11    1    4    4    0    0 -0.12655430810E+03  0.63690631918E+02 -0.92683310695E+02  0.16930057759E+03  0.00000000000E+00 0. -1.
         11    1    4    4    0    0 -0.25921332697E+01  0.20434277299E+02 -0.69998843099E+02  0.72966546300E+02  0.00000000000E+00 0.  1.
</event>
<event>
 8    1  0.6684013E-009  0.1050387E+03  0.7561462E-02  0.1270043E+00
          1   -1    0    0  501    0  0.00000000000E+00  0.00000000000E+00  0.30815850690E+03  0.30815850690E+03  0.00000000000E+00 0. -1.
         -1   -1    0    0    0  501 -0.00000000000E+00 -0.00000000000E+00 -0.53840877218E+02  0.53840877218E+02  0.00000000000E+00 0.  1.
         25    2    1    2    0    0  0.50786832398E+02  0.60500762445E+01  0.74525531903E+02  0.15432894555E+03  0.12508981878E+03 0.  0.
         23    2    1    2    0    0 -0.50786832398E+02 -0.60500762445E+01  0.17979209778E+03  0.20767043857E+03  0.90476001592E+02 0.  0.
          5    1    3    3  502    0  0.25110491852E+02  0.63933572788E+02  0.22911773972E+02  0.72529030856E+02  0.41800000000E+01 0. -1.
         -5    1    3    3    0  502  0.25676340546E+02 -0.57883496543E+02  0.51613757932E+02  0.81799914692E+02  0.41800000000E+01 0. -1.
        -11    1    4    4    0    0 -0.17199273777E+02  0.26132598573E+02  0.11929827907E+02  0.33482062668E+02  0.00000000000E+00 0.  1.
         11    1    4    4    0    0 -0.33587558621E+02 -0.32182674817E+02  0.16786226987E+03  0.17418837590E+03  0.00000000000E+00 0. -1.
</event>
<event>
 8    1  0.6684013E-009  0.1077170E+03  0.7561462E-02  0.1264857E+00
         -1   -1    0    0    0  501 -0.00000000000E+00  0.00000000000E+00  0.34216519873E+03  0.34216519873E+03  0.00000000000E+00 0.  1.
          1   -1    0    0  501    0  0.00000000000E+00 -0.00000000000E+00 -0.62432683647E+02  0.62432683647E+02  0.00000000000E+00 0. -1.
         25    2    1    2    0    0  0.76985953627E+02 -0.28353223588E+02  0.80019070308E+02  0.16965105762E+03  0.12509071666E+03 0.  0.
         23    2    1    2    0    0 -0.76985953627E+02  0.28353223588E+02  0.19971344477E+03  0.23494682476E+03  0.92648842936E+02 0.  0.
          5    1    3    3  502    0  0.34826720506E+02 -0.42068138472E+02 -0.21463404042E+02  0.58828384720E+02  0.41800000000E+01 0.  1.
         -5    1    3    3    0  502  0.42159233122E+02  0.13714914884E+02  0.10148247435E+03  0.11082267290E+03  0.41800000000E+01 0.  1.
        -11    1    4    4    0    0 -0.88034642702E+02  0.25617795798E+01  0.18079689739E+03  0.20110738211E+03  0.00000000000E+00 0.  1.
         11    1    4    4    0    0  0.11048689074E+02  0.25791444008E+02  0.18916547378E+02  0.33839442652E+02  0.00000000000E+00 0. -1.
</event>
<event>
 8    1  0.6684013E-009  0.1073544E+03  0.7561462E-02  0.1265549E+00
         -1   -1    0    0    0  501 -0.00000000000E+00  0.00000000000E+00  0.38161248623E+02  0.38161248623E+02  0.00000000000E+00 0. -1.
          1   -1    0    0  501    0  0.00000000000E+00 -0.00000000000E+00 -0.42868240664E+03  0.42868240664E+03  0.00000000000E+00 0.  1.
         25    2    1    2    0    0  0.25409396799E+01  0.19652239241E+02 -0.33822217398E+03  0.36115675229E+03  0.12508914368E+03 0.  0.
         23    2    1    2    0    0 -0.25409396799E+01 -0.19652239241E+02 -0.52298984030E+02  0.10568690297E+03  0.89676478788E+02 0.  0.
          5    1    3    3  502    0 -0.48649290428E+02  0.47326723662E+02 -0.16945469785E+03  0.18258953764E+03  0.41800000000E+01 0. -1.
         -5    1    3    3    0  502  0.51190230108E+02 -0.27674484421E+02 -0.16876747613E+03  0.17856721465E+03  0.41800000000E+01 0. -1.
        -11    1    4    4    0    0 -0.42899787885E+02  0.12459982023E+01 -0.39845844683E+02  0.58563091197E+02  0.00000000000E+00 0.  1.
         11    1    4    4    0    0  0.40358848205E+02 -0.20898237443E+02 -0.12453139347E+02  0.47123811776E+02  0.00000000000E+00 0. -1.
</event>
<event>
 8    1  0.6684013E-009  0.1123445E+03  0.7561462E-02  0.1256289E+00
          2   -1    0    0  501    0  0.00000000000E+00  0.00000000000E+00  0.76748425931E+03  0.76748425931E+03  0.00000000000E+00 0. -1.
         -2   -1    0    0    0  501 -0.00000000000E+00 -0.00000000000E+00 -0.27115959935E+02  0.27115959935E+02  0.00000000000E+00 0.  1.
         25    2    1    2    0    0 -0.50691454781E+02  0.50745641374E+02  0.22296231853E+03  0.26552660808E+03  0.12508972942E+03 0.  0.
         23    2    1    2    0    0  0.50691454781E+02 -0.50745641374E+02  0.51740598085E+03  0.52907361117E+03  0.84054704291E+02 0.  0.
          5    1    3    3  502    0 -0.63744253351E+02 -0.21673536324E+01  0.41981457559E+02  0.76471840804E+02  0.41800000000E+01 0.  1.
         -5    1    3    3    0  502  0.13052798570E+02  0.52912995007E+02  0.18098086097E+03  0.18905476727E+03  0.41800000000E+01 0.  1.
        -11    1    4    4    0    0 -0.14137689316E+02 -0.37318655200E+02  0.12790042149E+03  0.13398161852E+03  0.00000000000E+00 0.  1.
         11    1    4    4    0    0  0.64829144097E+02 -0.13426986174E+02  0.38950555936E+03  0.39509199265E+03  0.00000000000E+00 0. -1.
</event>
<event>
 8    1  0.6684013E-009  0.1654425E+03  0.7561462E-02  0.1182686E+00
          1   -1    0    0  501    0  0.00000000000E+00  0.00000000000E+00  0.28370143139E+03  0.28370143139E+03  0.00000000000E+00 0. -1.
         -1   -1    0    0    0  501 -0.00000000000E+00 -0.00000000000E+00 -0.18195375297E+03  0.18195375297E+03  0.00000000000E+00 0.  1.
         25    2    1    2    0    0 -0.27747713115E+02  0.13430885907E+03 -0.95634831773E+02  0.20881253420E+03  0.12509135934E+03 0.  0.
         23    2    1    2    0    0  0.27747713115E+02 -0.13430885907E+03  0.19738251019E+03  0.25684265016E+03  0.90551015488E+02 0.  0.
          5    1    3    3  502    0  0.37273201790E+02  0.77075369913E+02 -0.89302513475E+01  0.86180775165E+02  0.41800000000E+01 0. -1.
         -5    1    3    3    0  502 -0.65020914905E+02  0.57233489158E+02 -0.86704580426E+02  0.12263175903E+03  0.41800000000E+01 0. -1.
        -11    1    4    4    0    0  0.55151328159E+02 -0.74839362932E+02  0.80992960958E+02  0.12329825208E+03  0.00000000000E+00 0.  1.
         11    1    4    4    0    0 -0.27403615044E+02 -0.59469496139E+02  0.11638954923E+03  0.13354439808E+03  0.00000000000E+00 0. -1.
</event>
<event>
 8    1  0.6684013E-009  0.9962002E+02  0.7561462E-02  0.1281097E+00
          2   -1    0    0  501    0  0.00000000000E+00  0.00000000000E+00  0.44890388591E+03  0.44890388591E+03  0.00000000000E+00 0. -1.
         -2   -1    0    0    0  501 -0.00000000000E+00 -0.00000000000E+00 -0.29621062197E+02  0.29621062197E+02  0.00000000000E+00 0.  1.
         25    2    1    2    0    0 -0.42672970045E+01 -0.15841527930E+02  0.16981605544E+03  0.21155207906E+03  0.12509046982E+03 0.  0.
         23    2    1    2    0    0  0.42672970045E+01  0.15841527930E+02  0.24946676828E+03  0.26697286905E+03  0.93657250123E+02 0.  0.
          5    1    3    3  502    0  0.46571885822E+02 -0.40197146914E+02  0.51170671044E+02  0.80129028099E+02  0.41800000000E+01 0. -1.
         -5    1    3    3    0  502 -0.50839182827E+02  0.24355618984E+02  0.11864538439E+03  0.13142305096E+03  0.41800000000E+01 0. -1.
        -11    1    4    4    0    0  0.34437335766E+02 -0.15307603060E+02  0.18805331275E+03  0.19179233885E+03  0.00000000000E+00 0. -1.
         11    1    4    4    0    0 -0.30170038762E+02  0.31149130990E+02  0.61413455528E+02  0.75180530194E+02  0.00000000000E+00 0.  1.
</event>
<event>
 8    1  0.6684013E-009  0.1949438E+03  0.7561462E-02  0.1154076E+00
          1   -1    0    0  501    0  0.00000000000E+00  0.00000000000E+00  0.34038622727E+03  0.34038622727E+03  0.00000000000E+00 0.  1.
         -1   -1    0    0    0  501 -0.00000000000E+00 -0.00000000000E+00 -0.13190804311E+03  0.13190804311E+03  0.00000000000E+00 0. -1.
         25    2    1    2    0    0 -0.11662078543E+03 -0.11293203621E+03  0.19849529676E+03  0.28530884648E+03  0.12508678047E+03 0.  0.
         23    2    1    2    0    0  0.11662078543E+03  0.11293203621E+03  0.99828874049E+01  0.18698542390E+03  0.92248784895E+02 0.  0.
          5    1    3    3  502    0 -0.17846115173E+02  0.26620625703E+02  0.45687704527E+02  0.55964098174E+02  0.41800000000E+01 0. -1.
         -5    1    3    3    0  502 -0.98774670260E+02 -0.13955266191E+03  0.15280759223E+03  0.22934474831E+03  0.41800000000E+01 0. -1.
        -11    1    4    4    0    0  0.17748656192E+02  0.80583210422E+02  0.40207230712E+00  0.82515636462E+02  0.00000000000E+00 0. -1.
         11    1    4    4    0    0  0.98872129241E+02  0.32348825786E+02  0.95808150978E+01  0.10446978744E+03  0.00000000000E+00 0.  1.
</event>
<event>
 8    1  0.6684013E-009  0.9299679E+02  0.7561462E-02  0.1295753E+00
         -1   -1    0    0    0  501 -0.00000000000E+00  0.00000000000E+00  0.24350993953E+03  0.24350993953E+03  0.00000000000E+00 0. -1.
          1   -1    0    0  501    0  0.00000000000E+00 -0.00000000000E+00 -0.82381969499E+02  0.82381969499E+02  0.00000000000E+00 0.  1.
         25    2    1    2    0    0 -0.35818269613E+02  0.63647783318E+02  0.29318627553E+02  0.14778927955E+03  0.12509236775E+03 0.  0.
         23    2    1    2    0    0  0.35818269613E+02 -0.63647783318E+02  0.13180934248E+03  0.17810262947E+03  0.94936057965E+02 0.  0.
          5    1    3    3  502    0  0.34092743571E+01  0.19918913810E+02 -0.47034025472E+02  0.51362031026E+02  0.41800000000E+01 0.  1.
         -5    1    3    3    0  502 -0.39227543970E+02  0.43728869508E+02  0.76352653025E+02  0.96427248526E+02  0.41800000000E+01 0.  1.
        -11    1    4    4    0    0  0.55774915649E+02 -0.21400326069E+02  0.31706326992E+02  0.67632139866E+02  0.00000000000E+00 0.  1.
         11    1    4    4    0    0 -0.19956646036E+02 -0.42247457249E+02  0.10010301548E+03  0.11047048961E+03  0.00000000000E+00 0. -1.
</event>
<event>
 8    1  0.6684013E-009  0.1672705E+03  0.7561462E-02  0.1180725E+00
          2   -1    0    0  501    0  0.00000000000E+00  0.00000000000E+00  0.67143946280E+03  0.67143946280E+03  0.00000000000E+00 0.  1.
         -2   -1    0    0    0  501 -0.00000000000E+00 -0.00000000000E+00 -0.69129754714E+02  0.69129754714E+02  0.00000000000E+00 0. -1.
         25    2    1    2    0    0  0.22057384774E+01  0.13898339941E+03  0.10127599654E+03  0.21266415437E+03  0.12509182422E+03 0.  0.
         23    2    1    2    0    0 -0.22057384774E+01 -0.13898339941E+03  0.50103371155E+03  0.52790506314E+03  0.91256369598E+02 0.  0.
          5    1    3    3  502    0 -0.35414535141E+01 -0.14065773007E+02  0.48214112731E+02  0.50521885651E+02  0.41800000000E+01 0.  1.
         -5    1    3    3    0  502  0.57471919915E+01  0.15304917241E+03  0.53061883808E+02  0.16214226872E+03  0.41800000000E+01 0.  1.
        -11    1    4    4    0    0 -0.35165486190E+02 -0.15508241156E+02  0.12126737253E+03  0.12721199866E+03  0.00000000000E+00 0.  1.
         11    1    4    4    0    0  0.32959747712E+02 -0.12347515825E+03  0.37976633902E+03  0.40069306449E+03  0.00000000000E+00 0. -1.
</event>
<event>
 8    1  0.6684013E-009  0.1300031E+03  0.7561462E-02  0.1227451E+00
          1   -1    0    0  501    0  0.00000000000E+00  0.00000000000E+00  0.24098064486E+02  0.24098064486E+02  0.00000000000E+00 0. -1.
         -1   -1    0    0    0  501 -0.00000000000E+00 -0.00000000000E+00 -0.89444163650E+03  0.89444163650E+03  0.00000000000E+00 0.  1.
         25    2    1    2    0    0  0.43277588966E+02  0.75140725534E+02 -0.62243585783E+03  0.64077426794E+03  0.12508471929E+03 0.  0.
         23    2    1    2    0    0 -0.43277588966E+02 -0.75140725534E+02 -0.24790771419E+03  0.27776543305E+03  0.90423020876E+02 0.  0.
          5    1    3    3  502    0 -0.29685008812E+02  0.50827820988E+02 -0.42100798190E+03  0.42512334723E+03  0.41800000000E+01 0. -1.
         -5    1    3    3    0  502  0.72962597778E+02  0.24312904545E+02 -0.20142787593E+03  0.21565092071E+03  0.41800000000E+01 0. -1.
        -11    1    4    4    0    0  0.27503194298E+02 -0.16608414336E+02 -0.83059313836E+02  0.89056806243E+02  0.00000000000E+00 0.  1.
         11    1    4    4    0    0 -0.70780783263E+02 -0.58532311197E+02 -0.16484840035E+03  0.18870862681E+03  0.00000000000E+00 0. -1.
</event>
<event>
 8    1  0.6684013E-009  0.8952718E+02  0.7561462E-02  0.1304001E+00
         -2   -1    0    0    0  501 -0.00000000000E+00  0.00000000000E+00  0.18927484012E+03  0.18927484012E+03  0.00000000000E+00 0. -1.
          2   -1    0    0  501    0  0.00000000000E+00 -0.00000000000E+00 -0.86037904759E+02  0.86037904759E+02  0.00000000000E+00 0.  1.
         25    2    1    2    0    0 -0.22984020690E+02 -0.34633217864E+02  0.11203718735E+03  0.17299899889E+03  0.12509435352E+03 0.  0.
         23    2    1    2    0    0  0.22984020690E+02  0.34633217864E+02 -0.88002519886E+01  0.10231374598E+03  0.93074879509E+02 0.  0.
          5    1    3    3  502    0 -0.66555429088E+02 -0.44055978312E+01  0.25726250000E+02  0.71612476374E+02  0.41800000000E+01 0.  1.
         -5    1    3    3    0  502  0.43571408398E+02 -0.30227620033E+02  0.86310937347E+02  0.10138652252E+03  0.41800000000E+01 0.  1.
        -11    1    4    4    0    0  0.19597580743E+02 -0.42039831610E+01  0.37053794872E+02  0.42127453754E+02  0.00000000000E+00 0. -1.
         11    1    4    4    0    0  0.33864399473E+01  0.38837201025E+02 -0.45854046861E+02  0.60186292231E+02  0.00000000000E+00 0.  1.
</event>
<event>
 8    1  0.6684013E-009  0.1471229E+03  0.7561462E-02  0.1204054E+00
         -3   -1    0    0    0  501 -0.00000000000E+00  0.00000000000E+00  0.43074559850E+02  0.43074559850E+02  0.00000000000E+00 0.  1.
          3   -1    0    0  501    0  0.00000000000E+00 -0.00000000000E+00 -0.59762640610E+03  0.59762640610E+03  0.00000000000E+00 0. -1.
         25    2    1    2    0    0  0.72965622004E+02  0.76505632750E+02 -0.41221032009E+03  0.44355601280E+03  0.12508994630E+03 0.  0.
         23    2    1    2    0    0 -0.72965622004E+02 -0.76505632750E+02 -0.14234152616E+03  0.19714495315E+03  0.86185431752E+02 0.  0.
          5    1    3    3  502    0  0.98899652977E+02  0.27139986065E+02 -0.20978142648E+03  0.23354536925E+03  0.41800000000E+01 0. -1.
         -5    1    3    3    0  502 -0.25934030973E+02  0.49365646685E+02 -0.20242889362E+03  0.21001064355E+03  0.41800000000E+01 0. -1.
        -11    1    4    4    0    0 -0.50886984361E+02  0.51033259146E+01 -0.44060498150E+02  0.67504493258E+02  0.00000000000E+00 0.  1.
         11    1    4    4    0    0 -0.22078637642E+02 -0.81608958665E+02 -0.98281028005E+02  0.12964045989E+03  0.00000000000E+00 0. -1.
</event>
<event>
 8    1  0.6684013E-009  0.1849740E+03  0.7561462E-02  0.1163074E+00
         -1   -1    0    0    0  501 -0.00000000000E+00  0.00000000000E+00  0.16250978048E+03  0.16250978048E+03  0.00000000000E+00 0.  1.
          1   -1    0    0  501    0  0.00000000000E+00 -0.00000000000E+00 -0.23988792656E+03  0.23988792656E+03  0.00000000000E+00 0. -1.
         25    2    1    2    0    0  0.14616832485E+03  0.76508627168E+02 -0.45449067188E+02  0.21197315522E+03  0.12509297185E+03 0.  0.
         23    2    1    2    0    0 -0.14616832485E+03 -0.76508627168E+02 -0.31929078893E+02  0.19042455183E+03  0.89572845439E+02 0.  0.
          5    1    3    3  502    0  0.76801396197E+02  0.10376959176E+03 -0.10630017950E+02  0.12960344252E+03  0.41800000000E+01 0.  1.
         -5    1    3    3    0  502  0.69366928648E+02 -0.27260964591E+02 -0.34819049238E+02  0.82369712701E+02  0.41800000000E+01 0.  1.
        -11    1    4    4    0    0 -0.48433289903E+02 -0.35944241464E+02  0.30474677686E+02  0.67575720827E+02  0.00000000000E+00 0.  1.
         11    1    4    4    0    0 -0.97735034942E+02 -0.40564385704E+02 -0.62403756579E+02  0.12284883100E+03  0.00000000000E+00 0. -1.
</event>
<event>
 8    1  0.6684013E-009  0.1768134E+03  0.7561462E-02  0.1170923E+00
          1   -1    0    0  501    0  0.00000000000E+00  0.00000000000E+00  0.35744330229E+03  0.35744330229E+03  0.00000000000E+00 0. -1.
         -1   -1    0    0    0  501 -0.00000000000E+00 -0.00000000000E+00 -0.11677002533E+03  0.11677002533E+03  0.00000000000E+00 0.  1.
         25    2    1    2    0    0  0.58781410131E+02  0.15681931491E+03  0.77582978191E+02  0.22296787626E+03  0.12509198069E+03 0.  0.
         23    2    1    2    0    0 -0.58781410131E+02 -0.15681931491E+03  0.16309029877E+03  0.25124545135E+03  0.92077573634E+02 0.  0.
          5    1    3    3  502    0  0.70167555663E+01  0.13631297723E+02  0.68569121765E+02  0.70386390701E+02  0.41800000000E+01 0. -1.
         -5    1    3    3    0  502  0.51764654565E+02  0.14318801719E+03  0.90138564256E+01  0.15258148556E+03  0.41800000000E+01 0. -1.
        -11    1    4    4    0    0 -0.75472819138E+02 -0.94687457550E+02  0.75969178709E+02  0.14294466468E+03  0.00000000000E+00 0.  1.
         11    1    4    4    0    0  0.16691409006E+02 -0.62131857359E+02  0.87121120063E+02  0.10830078668E+03  0.00000000000E+00 0. -1.
</event>
<event>
 8    1  0.6684013E-009  0.1563045E+03  0.7561462E-02  0.1192933E+00
         -2   -1    0    0    0  501 -0.00000000000E+00  0.00000000000E+00  0.65229254097E+02  0.65229254097E+02  0.00000000000E+00 0.  1.
          2   -1    0    0  501    0  0.00000000000E+00 -0.00000000000E+00 -0.47375548414E+03  0.47375548414E+03  0.00000000000E+00 0. -1.
         25    2    1    2    0    0  0.82758392800E+02  0.10306427063E+03 -0.25780792613E+03  0.31556838394E+03  0.12508909908E+03 0.  0.
         23    2    1    2    0    0 -0.82758392800E+02 -0.10306427063E+03 -0.15071830391E+03  0.22341635429E+03  0.98628924623E+02 0.  0.
          5    1    3    3  502    0  0.11269386997E+03  0.61044610268E+02 -0.16136366500E+03  0.20611175986E+03  0.41800000000E+01 0. -1.
         -5    1    3    3    0  502 -0.29935477167E+02  0.42019660364E+02 -0.96444261121E+02  0.10945662407E+03  0.41800000000E+01 0. -1.
        -11    1    4    4    0    0 -0.58690867724E+02 -0.64973605956E+02 -0.26808858077E+02  0.91569112131E+02  0.00000000000E+00 0.  1.
         11    1    4    4    0    0 -0.24067525076E+02 -0.38090664676E+02 -0.12390944584E+03  0.13184724216E+03  0.00000000000E+00 0. -1.
</event>
<event>
 8    1  0.6684013E-009  0.1543524E+03  0.7561462E-02  0.1195225E+00
         -1   -1    0    0    0  501 -0.00000000000E+00  0.00000000000E+00  0.68309474384E+02  0.68309474384E+02  0.00000000000E+00 0.  1.
          1   -1    0    0  501    0  0.00000000000E+00 -0.00000000000E+00 -0.42156114038E+03  0.42156114038E+03  0.00000000000E+00 0. -1.
         25    2    1    2    0    0  0.51839145927E+02 -0.96667847588E+02 -0.28515575707E+03  0.33014133834E+03  0.12509007827E+03 0.  0.
         23    2    1    2    0    0 -0.51839145927E+02  0.96667847588E+02 -0.68095908924E+02  0.15972927642E+03  0.94044771929E+02 0.  0.
          5    1    3    3  502    0 -0.33389421566E+02 -0.65026307999E+02 -0.15380235643E+03  0.17034057488E+03  0.41800000000E+01 0.  1.
         -5    1    3    3    0  502  0.85228567493E+02 -0.31641539589E+02 -0.13135340064E+03  0.15980076346E+03  0.41800000000E+01 0.  1.
        -11    1    4    4    0    0 -0.55731768116E+02  0.11390468446E+03 -0.59228503747E+02  0.13995828941E+03  0.00000000000E+00 0. -1.
         11    1    4    4    0    0  0.38926221887E+01 -0.17236836872E+02 -0.88674051769E+01  0.19770987012E+02  0.00000000000E+00 0.  1.
</event>
<event>
 8    1  0.6684013E-009  0.1280272E+03  0.7561462E-02  0.1230413E+00
          1   -1    0    0  501    0  0.00000000000E+00  0.00000000000E+00  0.25309269386E+03  0.25309269386E+03  0.00000000000E+00 0. -1.
         -1   -1    0    0    0  501 -0.00000000000E+00 -0.00000000000E+00 -0.15775923092E+03  0.15775923092E+03  0.00000000000E+00 0.  1.
         25    2    1    2    0    0  0.39052154675E+01  0.81258255416E+02 -0.10012848555E+03  0.17969836440E+03  0.12509050232E+03 0.  0.
         23    2    1    2    0    0 -0.39052154675E+01 -0.81258255416E+02  0.19546194849E+03  0.23115356038E+03  0.92781681322E+02 0.  0.
          5    1    3    3  502    0 -0.49646203271E+02  0.28618259901E+02 -0.85608148714E+02  0.10310178381E+03  0.41800000000E+01 0. -1.
         -5    1    3    3    0  502  0.53551418738E+02  0.52639995514E+02 -0.14520336837E+02  0.76596580593E+02  0.41800000000E+01 0. -1.
        -11    1    4    4    0    0  0.41371076451E+02 -0.16872867827E+02  0.69722976807E+02  0.82810344344E+02  0.00000000000E+00 0.  1.
         11    1    4    4    0    0 -0.45276291919E+02 -0.64385387589E+02  0.12573897168E+03  0.14834321604E+03  0.00000000000E+00 0. -1.
</event>
<event>
 8    1  0.6684013E-009  0.1071758E+03  0.7561462E-02  0.1265891E+00
          1   -1    0    0  501    0  0.00000000000E+00  0.00000000000E+00  0.23014013496E+03  0.23014013496E+03  0.00000000000E+00 0. -1.
         -1   -1    0    0    0  501 -0.00000000000E+00 -0.00000000000E+00 -0.84502495206E+02  0.84502495206E+02  0.00000000000E+00 0.  1.
         25    2    1    2    0    0 -0.40646499882E+02 -0.75505518604E+02  0.61954612429E+02  0.16382419494E+03  0.12508705590E+03 0.  0.
         23    2    1    2    0    0  0.40646499882E+02  0.75505518604E+02  0.83683027327E+02  0.15081843523E+03  0.91597653076E+02 0.  0.
          5    1    3    3  502    0 -0.62622894187E+02 -0.34280105744E+02  0.85398845631E+02  0.11138755658E+03  0.41800000000E+01 0. -1.
         -5    1    3    3    0  502  0.21976394305E+02 -0.41225412861E+02 -0.23444233202E+02  0.52436638361E+02  0.41800000000E+01 0. -1.
        -11    1    4    4    0    0  0.11779833503E+02  0.63644700521E+02  0.97224312768E+02  0.11679888431E+03  0.00000000000E+00 0.  1.
         11    1    4    4    0    0  0.28866666379E+02  0.11860818084E+02 -0.13541285441E+02  0.34019550921E+02  0.00000000000E+00 0. -1.
</event>
<event>
 8    1  0.6684013E-009  0.1308167E+03  0.7561462E-02  0.1226249E+00
         -1   -1    0    0    0  501 -0.00000000000E+00  0.00000000000E+00  0.13311121426E+02  0.13311121426E+02  0.00000000000E+00 0.  1.
          1   -1    0    0  501    0  0.00000000000E+00 -0.00000000000E+00 -0.12919577407E+04  0.12919577407E+04  0.00000000000E+00 0. -1.
         25    2    1    2    0    0 -0.68253319772E+02 -0.27867924437E+02 -0.72204910912E+03  0.73650360885E+03  0.12509001958E+03 0.  0.
         23    2    1    2    0    0  0.68253319772E+02  0.27867924437E+02 -0.55659751011E+03  0.56876525323E+03  0.90873473296E+02 0.  0.
          5    1    3    3  502    0 -0.37475157031E+02 -0.77763892175E+02 -0.42852360484E+03  0.43715164717E+03  0.41800000000E+01 0.  1.
         -5    1    3    3    0  502 -0.30778162741E+02  0.49895967739E+02 -0.29352550428E+03  0.29935196168E+03  0.41800000000E+01 0.  1.
        -11    1    4    4    0    0  0.54089309116E+01 -0.30314490303E+02 -0.17352577439E+03  0.17623682712E+03  0.00000000000E+00 0.  1.
         11    1    4    4    0    0  0.62844388861E+02  0.58182414740E+02 -0.38307173572E+03  0.39252842611E+03  0.00000000000E+00 0. -1.
</event>
<event>
 8    1  0.6684013E-009  0.1002671E+03  0.7561462E-02  0.1279735E+00
         -1   -1    0    0    0  501 -0.00000000000E+00  0.00000000000E+00  0.15985955663E+04  0.15985955663E+04  0.00000000000E+00 0.  1.
          1   -1    0    0  501    0  0.00000000000E+00 -0.00000000000E+00 -0.98825205797E+01  0.98825205797E+01  0.00000000000E+00 0. -1.
         25    2    1    2    0    0 -0.26195167816E+02 -0.10933066239E+02  0.12660191542E+04  0.12725005993E+04  0.12509019852E+03 0.  0.
         23    2    1    2    0    0  0.26195167816E+02  0.10933066239E+02  0.32269389152E+03  0.33597748754E+03  0.89128030129E+02 0.  0.
          5    1    3    3  502    0  0.26037192347E+02 -0.54085575734E+02  0.55806730680E+03  0.56130185836E+03  0.41800000000E+01 0.  1.
         -5    1    3    3    0  502 -0.52232360162E+02  0.43152509495E+02  0.70795184739E+03  0.71119874096E+03  0.41800000000E+01 0.  1.
        -11    1    4    4    0    0  0.44339551281E+02  0.23718419843E+02  0.30017665091E+03  0.30435929589E+03  0.00000000000E+00 0.  1.
         11    1    4    4    0    0 -0.18144383465E+02 -0.12785353605E+02  0.22517240616E+02  0.31618191648E+02  0.00000000000E+00 0. -1.
</event>
<event>
 8    1  0.6684013E-009  0.1149546E+03  0.7561462E-02  0.1251660E+00
          1   -1    0    0  501    0  0.00000000000E+00  0.00000000000E+00  0.17851161799E+02  0.17851161799E+02  0.00000000000E+00 0. -1.
         -1   -1    0    0    0  501 -0.00000000000E+00 -0.00000000000E+00 -0.11432193835E+04  0.11432193835E+04  0.00000000000E+00 0.  1.
         25    2    1    2    0    0  0.23378532613E+02  0.40202760396E+02 -0.94237804708E+03  0.95178089135E+03  0.12509062231E+03 0.  0.
         23    2    1    2    0    0 -0.23378532613E+02 -0.40202760396E+02 -0.18299017457E+03  0.20928965390E+03  0.90299155640E+02 0.  0.
          5    1    3    3  502    0 -0.46677600797E+02 -0.19828285886E+01 -0.47238661223E+03  0.47470971534E+03  0.41800000000E+01 0.  1.
         -5    1    3    3    0  502  0.70056133410E+02  0.42185588984E+02 -0.46999143485E+03  0.47707117601E+03  0.41800000000E+01 0.  1.
        -11    1    4    4    0    0 -0.14414959778E+02  0.28444804800E+02 -0.48834193350E+02  0.58323892408E+02  0.00000000000E+00 0. -1.
         11    1    4    4    0    0 -0.89635728344E+01 -0.68647565196E+02 -0.13415598122E+03  0.15096576149E+03  0.00000000000E+00 0.  1.
</event>
<event>
 8    1  0.6684013E-009  0.2331232E+03  0.7561462E-02  0.1124461E+00
         -1   -1    0    0    0  501 -0.00000000000E+00  0.00000000000E+00  0.10907881590E+03  0.10907881590E+03  0.00000000000E+00 0.  1.
          1   -1    0    0  501    0  0.00000000000E+00 -0.00000000000E+00 -0.89386127053E+03  0.89386127053E+03  0.00000000000E+00 0. -1.
         25    2    1    2    0    0  0.22104064851E+03 -0.72353724328E+02 -0.11420277759E+03  0.28772140756E+03  0.12508918513E+03 0.  0.
         23    2    1    2    0    0 -0.22104064851E+03  0.72353724328E+02 -0.67057967704E+03  0.71521867888E+03  0.88128460992E+02 0.  0.
          5    1    3    3  502    0  0.16070597936E+02 -0.12015948725E+01  0.24902942355E+02  0.29955581887E+02  0.41800000000E+01 0. -1.
         -5    1    3    3    0  502  0.20497005058E+03 -0.71152129455E+02 -0.13910571995E+03  0.25776582567E+03  0.41800000000E+01 0. -1.
        -11    1    4    4    0    0 -0.15104324846E+03  0.48519817950E+02 -0.32295760757E+03  0.35981919338E+03  0.00000000000E+00 0.  1.
         11    1    4    4    0    0 -0.69997400056E+02  0.23833906378E+02 -0.34762206947E+03  0.35539948550E+03  0.00000000000E+00 0. -1.
</event>
<event>
 8    1  0.6684013E-009  0.1059618E+03  0.7561462E-02  0.1268236E+00
         -1   -1    0    0    0  501 -0.00000000000E+00  0.00000000000E+00  0.15406900127E+02  0.15406900127E+02  0.00000000000E+00 0.  1.
          1   -1    0    0  501    0  0.00000000000E+00 -0.00000000000E+00 -0.84171962755E+03  0.84171962755E+03  0.00000000000E+00 0. -1.
         25    2    1    2    0    0  0.35791689959E+02  0.13314261926E+02 -0.51239941398E+03  0.52882755717E+03  0.12508841329E+03 0.  0.
         23    2    1    2    0    0 -0.35791689959E+02 -0.13314261926E+02 -0.31391331344E+03  0.32829897050E+03  0.88206184796E+02 0.  0.
          5    1    3    3  502    0  0.19601735558E+02  0.66561839775E+02 -0.35712395374E+03  0.36382646589E+03  0.41800000000E+01 0.  1.
         -5    1    3    3    0  502  0.16189954400E+02 -0.53247577848E+02 -0.15527546024E+03  0.16500109128E+03  0.41800000000E+01 0.  1.
        -11    1    4    4    0    0 -0.19442819903E+02  0.32545936205E+02 -0.21187824069E+03  0.21524323471E+03  0.00000000000E+00 0. -1.
         11    1    4    4    0    0 -0.16348870055E+02 -0.45860198132E+02 -0.10203507275E+03  0.11305573580E+03  0.00000000000E+00 0.  1.
</event>
<event>
 8    1  0.6684013E-009  0.1717666E+03  0.7561462E-02  0.1176018E+00
         -3   -1    0    0    0  501 -0.00000000000E+00  0.00000000000E+00  0.14753376837E+04  0.14753376837E+04  0.00000000000E+00 0.  1.
          3   -1    0    0  501    0  0.00000000000E+00 -0.00000000000E+00 -0.32508588637E+02  0.32508588637E+02  0.00000000000E+00 0. -1.
         25    2    1    2    0    0 -0.13426082707E+03 -0.27473523465E+02  0.12016332480E+04  0.12158746354E+04  0.12509157569E+03 0.  0.
         23    2    1    2    0    0  0.13426082707E+03  0.27473523465E+02  0.24119584715E+03  0.29197163695E+03  0.91056223976E+02 0.  0.
          5    1    3    3  502    0 -0.35675479124E+02 -0.68689823336E+02  0.44087938945E+03  0.44764175418E+03  0.41800000000E+01 0.  1.
         -5    1    3    3    0  502 -0.98585347946E+02  0.41216299872E+02  0.76075385850E+03  0.76823288125E+03  0.41800000000E+01 0.  1.
        -11    1    4    4    0    0  0.79810081694E+02 -0.24827179173E+02  0.89097864736E+02  0.12216573769E+03  0.00000000000E+00 0. -1.
         11    1    4    4    0    0  0.54450745375E+02  0.52300702638E+02  0.15209798241E+03  0.16980589926E+03  0.00000000000E+00 0.  1.
</event>
<event>
 8    1  0.6684013E-009  0.1238846E+03  0.7561462E-02  0.1236823E+00
          2   -1    0    0  501    0  0.00000000000E+00  0.00000000000E+00  0.12285301363E+03  0.12285301363E+03  0.00000000000E+00 0. -1.
         -2   -1    0    0    0  501 -0.00000000000E+00 -0.00000000000E+00 -0.21475313447E+03  0.21475313447E+03  0.00000000000E+00 0.  1.
         25    2    1    2    0    0  0.12399679856E+02  0.10440350435E+03  0.87480342392E+01  0.16361594194E+03  0.12505920426E+03 0.  0.
         23    2    1    2    0    0 -0.12399679856E+02 -0.10440350435E+03 -0.10064815508E+03  0.17399020617E+03  0.95334657602E+02 0.  0.
          5    1    3    3  502    0 -0.21825768253E+02  0.10503146129E+03  0.42405352209E+02  0.11542815218E+03  0.41800000000E+01 0.  1.
         -5    1    3    3    0  502  0.34225448109E+02 -0.62795694079E+00 -0.33657317970E+02  0.48187789751E+02  0.41800000000E+01 0.  1.
        -11    1    4    4    0    0 -0.14671420568E+02 -0.74091479922E+02 -0.11716146739E+03  0.13939730062E+03  0.00000000000E+00 0.  1.
         11    1    4    4    0    0  0.22717407122E+01 -0.30312024427E+02  0.16513312312E+02  0.34592905548E+02  0.00000000000E+00 0. -1.
</event>
<event>
 8    1  0.6684013E-009  0.8743415E+02  0.7561462E-02  0.1309187E+00
          1   -1    0    0  501    0  0.00000000000E+00  0.00000000000E+00  0.11780914403E+03  0.11780914403E+03  0.00000000000E+00 0. -1.
         -1   -1    0    0    0  501 -0.00000000000E+00 -0.00000000000E+00 -0.15369834084E+03  0.15369834084E+03  0.00000000000E+00 0.  1.
         25    2    1    2    0    0 -0.59651591040E+01  0.44607083300E+02  0.46985120797E+02  0.14103716507E+03  0.12513394964E+03 0.  0.
         23    2    1    2    0    0  0.59651591040E+01 -0.44607083300E+02 -0.82874317608E+02  0.13047031980E+03  0.90160838643E+02 0.  0.
          5    1    3    3  502    0 -0.45437493194E+02  0.45471068319E+02  0.70013454106E+02  0.95139581656E+02  0.41800000000E+01 0. -1.
         -5    1    3    3    0  502  0.39472334090E+02 -0.86398501889E+00 -0.23028333309E+02  0.45897583418E+02  0.41800000000E+01 0. -1.
        -11    1    4    4    0    0  0.30105627588E+02 -0.30162662534E+02  0.35246920918E+00  0.42617593294E+02  0.00000000000E+00 0. -1.
         11    1    4    4    0    0 -0.24140468484E+02 -0.14444420766E+02 -0.83226786817E+02  0.87852726502E+02  0.00000000000E+00 0.  1.
</event>
<event>
 8    1  0.6684013E-009  0.3561627E+03  0.7561462E-02  0.1060114E+00
          1   -1    0    0  501    0  0.00000000000E+00  0.00000000000E+00  0.11008517597E+04  0.11008517597E+04  0.00000000000E+00 0. -1.
         -1   -1    0    0    0  501 -0.00000000000E+00 -0.00000000000E+00 -0.11593439453E+03  0.11593439453E+03  0.00000000000E+00 0.  1.
         25    2    1    2    0    0 -0.20976553695E+03  0.26666155335E+03  0.54151814494E+03  0.65115307252E+03  0.12509379692E+03 0.  0.
         23    2    1    2    0    0  0.20976553695E+03 -0.26666155335E+03  0.44339922027E+03  0.56563308174E+03  0.90708048714E+02 0.  0.
          5    1    3    3  502    0 -0.75739306306E+02  0.19502744748E+03  0.30006509321E+03  0.36582602471E+03  0.41800000000E+01 0.  1.
         -5    1    3    3    0  502 -0.13402623064E+03  0.71634105871E+02  0.24145305172E+03  0.28532704781E+03  0.41800000000E+01 0.  1.
        -11    1    4    4    0    0  0.56091683042E+02 -0.18340711351E+02  0.80965706422E+02  0.10019033993E+03  0.00000000000E+00 0. -1.
         11    1    4    4    0    0  0.15367385391E+03 -0.24832084200E+03  0.36243351385E+03  0.46544274181E+03  0.00000000000E+00 0.  1.
</event>
<event>
 8    1  0.6684013E-009  0.1091919E+03  0.7561462E-02  0.1262074E+00
          3   -1    0    0  501    0  0.00000000000E+00  0.00000000000E+00  0.38662647005E+03  0.38662647005E+03  0.00000000000E+00 0. -1.
         -3   -1    0    0    0  501 -0.00000000000E+00 -0.00000000000E+00 -0.39935848026E+02  0.39935848026E+02  0.00000000000E+00 0.  1.
         25    2    1    2    0    0  0.42413674679E+02  0.42768737964E+02  0.18106369985E+03  0.22816548259E+03  0.12508932526E+03 0.  0.
         23    2    1    2    0    0 -0.42413674679E+02 -0.42768737964E+02  0.16562692218E+03  0.19839683549E+03  0.91109506835E+02 0.  0.
          5    1    3    3  502    0  0.59434397276E+02 -0.12098513443E+02  0.32743190547E+02  0.69053678644E+02  0.41800000000E+01 0.  1.
         -5    1    3    3    0  502 -0.17020722597E+02  0.54867251407E+02  0.14832050931E+03  0.15911180395E+03  0.41800000000E+01 0.  1.
        -11    1    4    4    0    0 -0.66353748721E+02 -0.33331306436E+02  0.15225434998E+03  0.16939652607E+03  0.00000000000E+00 0.  1.
         11    1    4    4    0    0  0.23940074042E+02 -0.94374315282E+01  0.13372572195E+02  0.29000309414E+02  0.00000000000E+00 0. -1.
</event>
<event>
 8    1  0.6684013E-009  0.1666529E+03  0.7561462E-02  0.1181384E+00
         -2   -1    0    0    0  501 -0.00000000000E+00  0.00000000000E+00  0.92253512512E+02  0.92253512512E+02  0.00000000000E+00 0.  1.
          2   -1    0    0  501    0  0.00000000000E+00 -0.00000000000E+00 -0.34498550279E+03  0.34498550279E+03  0.00000000000E+00 0. -1.
         25    2    1    2    0    0 -0.12191055319E+03 -0.54215195791E+02 -0.66439265871E+02  0.19458312124E+03  0.12508774755E+03 0.  0.
         23    2    1    2    0    0  0.12191055319E+03  0.54215195791E+02 -0.18629272441E+03  0.24265589407E+03  0.79846310650E+02 0.  0.
          5    1    3    3  502    0 -0.21979540033E+02  0.37710814620E+02 -0.11527272386E+01  0.43863503046E+02  0.41800000000E+01 0.  1.
         -5    1    3    3    0  502 -0.99931013158E+02 -0.91926010411E+02 -0.65286538632E+02  0.15071961819E+03  0.41800000000E+01 0.  1.
        -11    1    4    4    0    0  0.72630989193E+02  0.70983431756E+02 -0.14026288757E+03  0.17316924035E+03  0.00000000000E+00 0. -1.
         11    1    4    4    0    0  0.49279563998E+02 -0.16768235964E+02 -0.46029836841E+02  0.69486653717E+02  0.00000000000E+00 0.  1.
</event>
<event>
 8    1  0.6684013E-009  0.1154120E+03  0.7561462E-02  0.1250864E+00
          1   -1    0    0  501    0  0.00000000000E+00  0.00000000000E+00  0.23541877805E+03  0.23541877805E+03  0.00000000000E+00 0. -1.
         -1   -1    0    0    0  501 -0.00000000000E+00 -0.00000000000E+00 -0.71928066713E+02  0.71928066713E+02  0.00000000000E+00 0.  1.
         25    2    1    2    0    0  0.74177798499E+02 -0.14857252683E+01  0.11315310184E+03  0.18427224715E+03  0.12509229970E+03 0.  0.
         23    2    1    2    0    0 -0.74177798499E+02  0.14857252683E+01  0.50337609499E+02  0.12307459761E+03  0.84314461855E+02 0.  0.
          5    1    3    3  502    0 -0.22115664397E+02  0.16964850317E+02  0.72980309419E+02  0.78233667439E+02  0.41800000000E+01 0.  1.
         -5    1    3    3    0  502  0.96293462896E+02 -0.18450575586E+02  0.40172792416E+02  0.10603857971E+03  0.41800000000E+01 0.  1.
        -11    1    4    4    0    0 -0.65902122959E+02  0.31734363994E+02  0.54803490687E+02  0.91397933566E+02  0.00000000000E+00 0. -1.
         11    1    4    4    0    0 -0.82756755396E+01 -0.30248638725E+02 -0.44658811889E+01  0.31676664047E+02  0.00000000000E+00 0.  1.
</event>
<event>
 8    1  0.6684013E-009  0.2085227E+03  0.7561462E-02  0.1142741E+00
          2   -1    0    0  501    0  0.00000000000E+00  0.00000000000E+00  0.55121346854E+03  0.55121346854E+03  0.00000000000E+00 0. -1.
         -2   -1    0    0    0  501 -0.00000000000E+00 -0.00000000000E+00 -0.82934914126E+02  0.82934914126E+02  0.00000000000E+00 0.  1.
         25    2    1    2    0    0 -0.13617207384E+03 -0.11617591078E+03  0.29227956053E+03  0.36484869648E+03  0.12509018301E+03 0.  0.
         23    2    1    2    0    0  0.13617207384E+03  0.11617591078E+03  0.17599899389E+03  0.26929968618E+03  0.97503841917E+02 0.  0.
          5    1    3    3  502    0  0.15947117051E+02 -0.45236360496E+02  0.89069500002E+02  0.10124962757E+03  0.41800000000E+01 0. -1.
         -5    1    3    3    0  502 -0.15211919089E+03 -0.70939550283E+02  0.20321006052E+03  0.26359906891E+03  0.41800000000E+01 0. -1.
        -11    1    4    4    0    0  0.13607365453E+03  0.66732885981E+02  0.15082610820E+03  0.21381728752E+03  0.00000000000E+00 0.  1.
         11    1    4    4    0    0  0.98419315568E-01  0.49443024798E+02  0.25172885689E+02  0.55482398664E+02  0.00000000000E+00 0. -1.
</event>
<event>
 8    1  0.6684013E-009  0.1365698E+03  0.7561462E-02  0.1218020E+00
         -2   -1    0    0    0  501 -0.00000000000E+00  0.00000000000E+00  0.94587137510E+02  0.94587137510E+02  0.00000000000E+00 0.  1.
          2   -1    0    0  501    0  0.00000000000E+00 -0.00000000000E+00 -0.22574623134E+03  0.22574623134E+03  0.00000000000E+00 0. -1.
         25    2    1    2    0    0 -0.49146625480E+01  0.99217243528E+02 -0.54032751049E+02  0.16862982173E+03  0.12509301847E+03 0.  0.
         23    2    1    2    0    0  0.49146625480E+01 -0.99217243528E+02 -0.77126342782E+02  0.15170354712E+03  0.84836773500E+02 0.  0.
          5    1    3    3  502    0  0.50358030258E+02  0.12546357334E+02  0.75398584636E+00  0.52070943802E+02  0.41800000000E+01 0.  1.
         -5    1    3    3    0  502 -0.55272692806E+02  0.86670886193E+02 -0.54786736895E+02  0.11655887793E+03  0.41800000000E+01 0.  1.
        -11    1    4    4    0    0  0.20614816205E+02 -0.31525442801E+01  0.80549886482E+01  0.22356028823E+02  0.00000000000E+00 0.  1.
         11    1    4    4    0    0 -0.15700153657E+02 -0.96064699248E+02 -0.85181331430E+02  0.12934751830E+03  0.00000000000E+00 0. -1.
</event>
<event>
 8    1  0.6684013E-009  0.2062793E+03  0.7561462E-02  0.1144547E+00
         -1   -1    0    0    0  501 -0.00000000000E+00  0.00000000000E+00  0.13965732618E+03  0.13965732618E+03  0.00000000000E+00 0.  1.
          1   -1    0    0  501    0  0.00000000000E+00 -0.00000000000E+00 -0.35120488780E+03  0.35120488780E+03  0.00000000000E+00 0. -1.
         25    2    1    2    0    0  0.11427381530E+03  0.14381361566E+03 -0.17366124227E+03  0.28203974214E+03  0.12508928078E+03 0.  0.
         23    2    1    2    0    0 -0.11427381530E+03 -0.14381361566E+03 -0.37886319347E+02  0.20882247183E+03  0.91818247847E+02 0.  0.
          5    1    3    3  502    0 -0.13133607936E+02  0.67303619183E+02 -0.83633638295E+02  0.10823274305E+03  0.41800000000E+01 0. -1.
         -5    1    3    3    0  502  0.12740742324E+03  0.76509996472E+02 -0.90027603975E+02  0.17380699909E+03  0.41800000000E+01 0. -1.
        -11    1    4    4    0    0 -0.10331269567E+03 -0.80616969772E+02 -0.55492733822E+02  0.14230970595E+03  0.00000000000E+00 0. -1.
         11    1    4    4    0    0 -0.10961119635E+02 -0.63196645884E+02  0.17606414475E+02  0.66512765882E+02  0.00000000000E+00 0.  1.
</event>
<event>
 8    1  0.6684013E-009  0.1199994E+03  0.7561462E-02  0.1243098E+00
         -1   -1    0    0    0  501 -0.00000000000E+00  0.00000000000E+00  0.40889539614E+02  0.40889539614E+02  0.00000000000E+00 0.  1.
          1   -1    0    0  501    0  0.00000000000E+00 -0.00000000000E+00 -0.60629049520E+03  0.60629049520E+03  0.00000000000E+00 0. -1.
         25    2    1    2    0    0  0.77591883904E+02  0.17035215825E+02 -0.46974047996E+03  0.49256017778E+03  0.12509480884E+03 0.  0.
         23    2    1    2    0    0 -0.77591883904E+02 -0.17035215825E+02 -0.95660475623E+02  0.15461985703E+03  0.91900351279E+02 0.  0.
          5    1    3    3  502    0  0.12139946003E+01  0.45816481722E+02 -0.30721114751E+03  0.31063931711E+03  0.41800000000E+01 0. -1.
         -5    1    3    3    0  502  0.76377889304E+02 -0.28781265898E+02 -0.16252933246E+03  0.18192086068E+03  0.41800000000E+01 0. -1.
        -11    1    4    4    0    0 -0.27473061301E+02 -0.46573428604E+02 -0.16798699656E+02  0.56621989185E+02  0.00000000000E+00 0.  1.
         11    1    4    4    0    0 -0.50118822603E+02  0.29538212779E+02 -0.78861775966E+02  0.97997867844E+02  0.00000000000E+00 0. -1.
</event>
<event>
 8    1  0.6684013E-009  0.1007078E+03  0.7561462E-02  0.1278815E+00
          1   -1    0    0  501    0  0.00000000000E+00  0.00000000000E+00  0.10586848182E+03  0.10586848182E+03  0.00000000000E+00 0. -1.
         -1   -1    0    0    0  501 -0.00000000000E+00 -0.00000000000E+00 -0.21096519025E+03  0.21096519025E+03  0.00000000000E+00 0.  1.
         25    2    1    2    0    0  0.13527587248E+02 -0.70702227666E+02  0.20919613583E+02  0.14583299367E+03  0.12509129145E+03 0.  0.
         23    2    1    2    0    0 -0.13527587248E+02  0.70702227666E+02 -0.12601632201E+03  0.17100067840E+03  0.90439581979E+02 0.  0.
          5    1    3    3  502    0 -0.10073735192E+02 -0.89295850807E+02  0.50750664358E+02  0.10328761516E+03  0.41800000000E+01 0. -1.
         -5    1    3    3    0  502  0.23601322440E+02  0.18593623141E+02 -0.29831050775E+02  0.42545378512E+02  0.41800000000E+01 0. -1.
        -11    1    4    4    0    0 -0.26628421285E+02  0.45594761591E+02 -0.12846721366E+02  0.54341451531E+02  0.00000000000E+00 0. -1.
         11    1    4    4    0    0  0.13100834037E+02  0.25107466075E+02 -0.11316960064E+03  0.11665922687E+03  0.00000000000E+00 0.  1.
</event>
<event>
 8    1  0.6684013E-009  0.1042665E+03  0.7561462E-02  0.1271572E+00
         -1   -1    0    0    0  501 -0.00000000000E+00  0.00000000000E+00  0.12467346794E+03  0.12467346794E+03  0.00000000000E+00 0.  1.
          1   -1    0    0  501    0  0.00000000000E+00 -0.00000000000E+00 -0.16814418536E+03  0.16814418536E+03  0.00000000000E+00 0. -1.
         25    2    1    2    0    0 -0.50945248430E+02  0.10961177506E+02  0.57543321972E+02  0.14722354568E+03  0.12509185724E+03 0.  0.
         23    2    1    2    0    0  0.50945248430E+02 -0.10961177506E+02 -0.10101403939E+03  0.14559410762E+03  0.90984846372E+02 0.  0.
          5    1    3    3  502    0 -0.24300556736E+02  0.58154367060E+02 -0.61787422206E+01  0.63467288593E+02  0.41800000000E+01 0. -1.
         -5    1    3    3    0  502 -0.26644691694E+02 -0.47193189554E+02  0.63722064192E+02  0.83756257084E+02  0.41800000000E+01 0. -1.
        -11    1    4    4    0    0  0.65393822428E+02 -0.25800408395E+02 -0.39390237614E+02  0.80582900819E+02  0.00000000000E+00 0. -1.
         11    1    4    4    0    0 -0.14448573999E+02  0.14839230889E+02 -0.61623801780E+02  0.65011206801E+02  0.00000000000E+00 0.  1.
</event>
<event>
 8    1  0.6684013E-009  0.1483786E+03  0.7561462E-02  0.1202480E+00
         -1   -1    0    0    0  501 -0.00000000000E+00  0.00000000000E+00  0.21566157467E+02  0.21566157467E+02  0.00000000000E+00 0.  1.
          1   -1    0    0  501    0  0.00000000000E+00 -0.00000000000E+00 -0.11489439895E+04  0.11489439895E+04  0.00000000000E+00 0. -1.
         25    2    1    2    0    0  0.10005854676E+02  0.10415688243E+03 -0.58293796785E+03  0.60531952898E+03  0.12508510909E+03 0.  0.
         23    2    1    2    0    0 -0.10005854676E+02 -0.10415688243E+03 -0.54443986413E+03  0.56519061794E+03  0.10989493011E+03 0.  0.
          5    1    3    3  502    0 -0.27511694685E+02 -0.11806482684E+02 -0.48540185260E+02  0.57183112567E+02  0.41800000000E+01 0. -1.
         -5    1    3    3    0  502  0.37517549361E+02  0.11596336511E+03 -0.53439778259E+03  0.54813641641E+03  0.41800000000E+01 0. -1.
        -11    1    4    4    0    0  0.29689527224E+01 -0.12226389574E+03 -0.50772120101E+03  0.52224332723E+03  0.00000000000E+00 0.  1.
         11    1    4    4    0    0 -0.12974807399E+02  0.18107013306E+02 -0.36718663129E+02  0.42947290716E+02  0.00000000000E+00 0. -1.
</event>
<event>
 8    1  0.6684013E-009  0.1155135E+03  0.7561462E-02  0.1250687E+00
          1   -1    0    0  501    0  0.00000000000E+00  0.00000000000E+00  0.46576386160E+03  0.46576386160E+03  0.00000000000E+00 0. -1.
         -1   -1    0    0    0  501 -0.00000000000E+00 -0.00000000000E+00 -0.47877520067E+02  0.47877520067E+02  0.00000000000E+00 0.  1.
         25    2    1    2    0    0  0.78892224611E+02  0.38458946326E+02  0.31525528518E+03  0.35033794908E+03  0.12509080731E+03 0.  0.
         23    2    1    2    0    0 -0.78892224611E+02 -0.38458946326E+02  0.10263105635E+03  0.16330343259E+03  0.91824853450E+02 0.  0.
          5    1    3    3  502    0  0.53185847643E+02 -0.89568415973E+01  0.33925936638E+02  0.63854529813E+02  0.41800000000E+01 0.  1.
         -5    1    3    3    0  502  0.25706376968E+02  0.47415787924E+02  0.28132934855E+03  0.28648341927E+03  0.41800000000E+01 0.  1.
        -11    1    4    4    0    0 -0.43704429617E+02  0.24942819335E+02  0.63125643419E+02  0.80728360949E+02  0.00000000000E+00 0.  1.
         11    1    4    4    0    0 -0.35187794995E+02 -0.63401765661E+02  0.39505412932E+02  0.82575071641E+02  0.00000000000E+00 0. -1.
</event>
<event>
 8    1  0.6684013E-009  0.3266452E+03  0.7561462E-02  0.1072631E+00
          1   -1    0    0  501    0  0.00000000000E+00  0.00000000000E+00  0.70253500847E+03  0.70253500847E+03  0.00000000000E+00 0. -1.
         -1   -1    0    0    0  501 -0.00000000000E+00 -0.00000000000E+00 -0.32851035162E+03  0.32851035162E+03  0.00000000000E+00 0.  1.
         25    2    1    2    0    0  0.29422785212E+03 -0.99117786006E+02 -0.18693920033E+03  0.38338596564E+03  0.12507665472E+03 0.  0.
         23    2    1    2    0    0 -0.29422785212E+03  0.99117786006E+02  0.56096385719E+03  0.64765939445E+03  0.91585357383E+02 0.  0.
          5    1    3    3  502    0  0.90455907931E+02  0.26655315854E+02 -0.65203007354E+02  0.11472437278E+03  0.41800000000E+01 0. -1.
         -5    1    3    3    0  502  0.20377194419E+03 -0.12577310186E+03 -0.12173619298E+03  0.26866159285E+03  0.41800000000E+01 0. -1.
        -11    1    4    4    0    0 -0.38165707456E+02  0.42556369052E+02  0.64436379144E+02  0.86137754381E+02  0.00000000000E+00 0.  1.
         11    1    4    4    0    0 -0.25606214467E+03  0.56561416954E+02  0.49652747804E+03  0.56152164007E+03  0.00000000000E+00 0. -1.
</event>
<event>
 8    1  0.6684013E-009  0.1043911E+03  0.7561462E-02  0.1271324E+00
          1   -1    0    0  501    0  0.00000000000E+00  0.00000000000E+00  0.10542612756E+03  0.10542612756E+03  0.00000000000E+00 0. -1.
         -1   -1    0    0    0  501 -0.00000000000E+00 -0.00000000000E+00 -0.17598360304E+03  0.17598360304E+03  0.00000000000E+00 0.  1.
         25    2    1    2    0    0 -0.45133610434E+02 -0.63566177065E+02 -0.12285704219E+02  0.14790664936E+03  0.12509091390E+03 0.  0.
         23    2    1    2    0    0  0.45133610434E+02  0.63566177065E+02 -0.58271771263E+02  0.13350308123E+03  0.91377085287E+02 0.  0.
          5    1    3    3  502    0 -0.53386436671E+02 -0.62907608377E+02 -0.58206193334E+02  0.10105895386E+03  0.41800000000E+01 0.  1.
         -5    1    3    3    0  502  0.82528262365E+01 -0.65856868782E+00  0.45920489115E+02  0.46847695506E+02  0.41800000000E+01 0.  1.
        -11    1    4    4    0    0  0.26803937507E+02 -0.18653880656E+02 -0.30945994268E+01  0.32802360815E+02  0.00000000000E+00 0. -1.
         11    1    4    4    0    0  0.18329672927E+02  0.82220057721E+02 -0.55177171836E+02  0.10070072042E+03  0.00000000000E+00 0.  1.
</event>
<event>
 8    1  0.6684013E-009  0.1427368E+03  0.7561462E-02  0.1209693E+00
         -2   -1    0    0    0  501 -0.00000000000E+00  0.00000000000E+00  0.14544789730E+03  0.14544789730E+03  0.00000000000E+00 0. -1.
          2   -1    0    0  501    0  0.00000000000E+00 -0.00000000000E+00 -0.23555126597E+03  0.23555126597E+03  0.00000000000E+00 0.  1.
         25    2    1    2    0    0  0.65536958684E+02  0.72183589560E+02 -0.16434080046E+03  0.22838802456E+03  0.12509047730E+03 0.  0.
         23    2    1    2    0    0 -0.65536958684E+02 -0.72183589560E+02  0.74237431798E+02  0.15261113871E+03  0.90958231198E+02 0.  0.
          5    1    3    3  502    0  0.10004934691E+03  0.31683835104E+02 -0.11423635956E+03  0.15518104095E+03  0.41800000000E+01 0.  1.
         -5    1    3    3    0  502 -0.34512388225E+02  0.40499754456E+02 -0.50104440898E+02  0.73206983613E+02  0.41800000000E+01 0.  1.
        -11    1    4    4    0    0 -0.56214548702E+02 -0.90488233970E+02  0.77601026590E+02  0.13179573324E+03  0.00000000000E+00 0. -1.
         11    1    4    4    0    0 -0.93224099822E+01  0.18304644410E+02 -0.33635947920E+01  0.20815405468E+02  0.00000000000E+00 0.  1.
</event>
<event>
 7    1  0.6684013E-009  0.1036174E+03  0.7561462E-02  0.1272868E+00
         -2   -1    0    0    0  501 -0.00000000000E+00  0.00000000000E+00  0.19374024111E+02  0.19374024111E+02  0.00000000000E+00 0.  1.
          2   -1    0    0  501    0  0.00000000000E+00 -0.00000000000E+00 -0.64247463659E+03  0.64247463659E+03  0.00000000000E+00 0. -1.
         23    2    1    2    0    0 -0.34871500854E+01  0.20730726199E+02 -0.31196819993E+03  0.32581237649E+03  0.91583970658E+02 0.  0.
          5    1    1    2  502    0 -0.34201328949E+02  0.37970669841E+02 -0.84159049003E+02  0.98548062381E+02  0.41800000000E+01 0. -1.
         -5    1    1    2    0  502  0.37688479034E+02 -0.58701396041E+02 -0.22697336354E+03  0.23748822182E+03  0.41800000000E+01 0. -1.
        -11    1    3    3    0    0 -0.34740209273E+02  0.37075648456E+02 -0.11517839572E+03  0.12588704735E+03  0.00000000000E+00 0.  1.
         11    1    3    3    0    0  0.31253059188E+02 -0.16344922257E+02 -0.19678980421E+03  0.19992532914E+03  0.00000000000E+00 0. -1.
</event>
<event>
 8    1  0.6684013E-009  0.3449091E+03  0.7561462E-02  0.1064724E+00
          1   -1    0    0  501    0  0.00000000000E+00  0.00000000000E+00  0.55849846940E+03  0.55849846940E+03  0.00000000000E+00 0. -1.
         -1   -1    0    0    0  501 -0.00000000000E+00 -0.00000000000E+00 -0.21935701811E+03  0.21935701811E+03  0.00000000000E+00 0.  1.
         25    2    1    2    0    0 -0.30113631991E+03 -0.14077572712E+03  0.18250381869E+03  0.39931956512E+03  0.12509029835E+03 0.  0.
         23    2    1    2    0    0  0.30113631991E+03  0.14077572712E+03  0.15663763260E+03  0.37853592239E+03  0.90847168821E+02 0.  0.
          5    1    3    3  502    0 -0.84446677979E+02  0.13641443841E+02  0.69126161957E+02  0.11006011575E+03  0.41800000000E+01 0.  1.
         -5    1    3    3    0  502 -0.21668964193E+03 -0.15441717096E+03  0.11337765673E+03  0.28925944937E+03  0.41800000000E+01 0.  1.
        -11    1    4    4    0    0  0.16346147589E+03  0.10988606610E+03  0.12700405813E+03  0.23436004866E+03  0.00000000000E+00 0. -1.
         11    1    4    4    0    0  0.13767484401E+03  0.30889661019E+02  0.29633574466E+02  0.14417587374E+03  0.00000000000E+00 0.  1.
</event>
<event>
 8    1  0.6684013E-009  0.1252106E+03  0.7561462E-02  0.1234740E+00
         -2   -1    0    0    0  501 -0.00000000000E+00  0.00000000000E+00  0.16532020602E+02  0.16532020602E+02  0.00000000000E+00 0.  1.
          2   -1    0    0  501    0  0.00000000000E+00 -0.00000000000E+00 -0.12081717423E+04  0.12081717423E+04  0.00000000000E+00 0. -1.
         25    2    1    2    0    0  0.83466648386E+02  0.22702936208E+02 -0.72545307135E+03  0.74122171170E+03  0.12508142332E+03 0.  0.
         23    2    1    2    0    0 -0.83466648386E+02 -0.22702936208E+02 -0.46618665031E+03  0.48348205117E+03  0.94566358524E+02 0.  0.
          5    1    3    3  502    0  0.71337131649E+02 -0.24381326266E+02 -0.62497697741E+03  0.62952135001E+03  0.41800000000E+01 0.  1.
         -5    1    3    3    0  502  0.12129516737E+02  0.47084262474E+02 -0.10047609394E+03  0.11170036169E+03  0.41800000000E+01 0.  1.
        -11    1    4    4    0    0  0.13934442713E+02  0.16080035617E+02 -0.50936392897E+02  0.55201923522E+02  0.00000000000E+00 0.  1.
         11    1    4    4    0    0 -0.97401091100E+02 -0.38782971825E+02 -0.41525025742E+03  0.42828012764E+03  0.00000000000E+00 0. -1.
</event>
<event>
 8    1  0.6684013E-009  0.9134222E+02  0.7561462E-02  0.1299633E+00
         -1   -1    0    0    0  501 -0.00000000000E+00  0.00000000000E+00  0.87383836578E+02  0.87383836578E+02  0.00000000000E+00 0.  1.
          1   -1    0    0  501    0  0.00000000000E+00 -0.00000000000E+00 -0.14353090252E+03  0.14353090252E+03  0.00000000000E+00 0. -1.
         25    2    1    2    0    0 -0.84857692747E+01  0.13064990277E+02 -0.38692452471E+01  0.12611716326E+03  0.12509142880E+03 0.  0.
         23    2    1    2    0    0  0.84857692747E+01 -0.13064990277E+02 -0.52277820696E+02  0.10479757584E+03  0.89481054499E+02 0.  0.
          5    1    3    3  502    0  0.33251766880E+02 -0.19588463422E+02 -0.44616022071E+02  0.59139240148E+02  0.41800000000E+01 0. -1.
         -5    1    3    3    0  502 -0.41737536155E+02  0.32653453699E+02  0.40746776824E+02  0.66977923111E+02  0.41800000000E+01 0. -1.
        -11    1    4    4    0    0 -0.10143285542E+02  0.36434177658E+02 -0.24448489181E+02  0.45034033424E+02  0.00000000000E+00 0.  1.
         11    1    4    4    0    0  0.18629054817E+02 -0.49499167935E+02 -0.27829331515E+02  0.59763542417E+02  0.00000000000E+00 0. -1.
</event>
<event>
 8    1  0.6684013E-009  0.3752133E+03  0.7561462E-02  0.1052717E+00
          2   -1    0    0  501    0  0.00000000000E+00  0.00000000000E+00  0.65955583280E+03  0.65955583280E+03  0.00000000000E+00 0. -1.
         -2   -1    0    0    0  501 -0.00000000000E+00 -0.00000000000E+00 -0.23437798437E+03  0.23437798437E+03  0.00000000000E+00 0.  1.
         25    2    1    2    0    0  0.32616283197E+03  0.15418337539E+03  0.34123375872E+03  0.51209704911E+03  0.12509277923E+03 0.  0.
         23    2    1    2    0    0 -0.32616283197E+03 -0.15418337539E+03  0.83944089706E+02  0.38183676807E+03  0.92725406696E+02 0.  0.
          5    1    3    3  502    0  0.32848629772E+02 -0.18390372466E+02  0.15274352959E+02  0.40841358152E+02  0.41800000000E+01 0.  1.
         -5    1    3    3    0  502  0.29331420220E+03  0.17257374785E+03  0.32595940576E+03  0.47125569096E+03  0.41800000000E+01 0.  1.
        -11    1    4    4    0    0 -0.25474610585E+03 -0.15955611524E+03  0.73669848636E+02  0.30948502218E+03  0.00000000000E+00 0. -1.
         11    1    4    4    0    0 -0.71416726116E+02  0.53727398544E+01  0.10274241070E+02  0.72351745882E+02  0.00000000000E+00 0.  1.
</event>
<event>
 8    1  0.6684013E-009  0.1504860E+03  0.7561462E-02  0.1199877E+00
         -2   -1    0    0    0  501 -0.00000000000E+00  0.00000000000E+00  0.19638875199E+02  0.19638875199E+02  0.00000000000E+00 0.  1.
          2   -1    0    0  501    0  0.00000000000E+00 -0.00000000000E+00 -0.16642015842E+04  0.16642015842E+04  0.00000000000E+00 0. -1.
         25    2    1    2    0    0  0.39311721379E+02  0.13329961585E+03 -0.10442865174E+04  0.10608937186E+04  0.12508778005E+03 0.  0.
         23    2    1    2    0    0 -0.39311721379E+02 -0.13329961585E+03 -0.60027619166E+03  0.62294674086E+03  0.91743864369E+02 0.  0.
          5    1    3    3  502    0  0.25663122171E+02  0.47952500774E+02 -0.11176653458E+03  0.12436747494E+03  0.41800000000E+01 0. -1.
         -5    1    3    3    0  502  0.13648599208E+02  0.85347115072E+02 -0.93251998280E+03  0.93652624364E+03  0.41800000000E+01 0. -1.
        -11    1    4    4    0    0  0.20742157339E+02 -0.10623108803E+02 -0.40296160408E+02  0.46549630239E+02  0.00000000000E+00 0.  1.
         11    1    4    4    0    0 -0.60053878718E+02 -0.12267650704E+03 -0.55998003125E+03  0.57639711062E+03  0.00000000000E+00 0. -1.
</event>
<event>
 8    1  0.6684013E-009  0.1308871E+03  0.7561462E-02  0.1226145E+00
         -2   -1    0    0    0  501 -0.00000000000E+00  0.00000000000E+00  0.52081473558E+03  0.52081473558E+03  0.00000000000E+00 0.  1.
          2   -1    0    0  501    0  0.00000000000E+00 -0.00000000000E+00 -0.10694282297E+03  0.10694282297E+03  0.00000000000E+00 0. -1.
         25    2    1    2    0    0  0.11553088044E+03  0.30768900597E+02 -0.14479977283E+02  0.17362960073E+03  0.12507381392E+03 0.  0.
         23    2    1    2    0    0 -0.11553088044E+03 -0.30768900597E+02  0.42835188989E+03  0.45412795783E+03  0.91938843402E+02 0.  0.
          5    1    3    3  502    0  0.18538216792E+02  0.98074478798E+01  0.50568295318E+02  0.54904247624E+02  0.41800000000E+01 0.  1.
         -5    1    3    3    0  502  0.96992663649E+02  0.20961452717E+02 -0.65048272602E+02  0.11872535311E+03  0.41800000000E+01 0.  1.
        -11    1    4    4    0    0 -0.38519152495E+02 -0.48606606068E+02  0.27136045392E+03  0.27835736601E+03  0.00000000000E+00 0.  1.
         11    1    4    4    0    0 -0.77011727946E+02  0.17837705471E+02  0.15699143597E+03  0.17577059181E+03  0.00000000000E+00 0. -1.
</event>
<event>
 8    1  0.6684013E-009  0.8841446E+02  0.7561462E-02  0.1306737E+00
         -1   -1    0    0    0  501 -0.00000000000E+00  0.00000000000E+00  0.14757174218E+03  0.14757174218E+03  0.00000000000E+00 0.  1.
          1   -1    0    0  501    0  0.00000000000E+00 -0.00000000000E+00 -0.10689213289E+03  0.10689213289E+03  0.00000000000E+00 0. -1.
         25    2    1    2    0    0  0.18591961266E+02 -0.23244624499E+02 -0.34576329145E+02  0.13314835392E+03  0.12508792117E+03 0.  0.
         23    2    1    2    0    0 -0.18591961266E+02  0.23244624499E+02  0.75255938437E+02  0.12131552114E+03  0.90377131003E+02 0.  0.
          5    1    3    3  502    0  0.69633267808E+02 -0.29039639726E+02 -0.30375107184E+02  0.81438395106E+02  0.41800000000E+01 0. -1.
         -5    1    3    3    0  502 -0.51041306542E+02  0.57950152273E+01 -0.42012219616E+01  0.51709958818E+02  0.41800000000E+01 0. -1.
        -11    1    4    4    0    0 -0.10590308498E+02 -0.10580226441E+02 -0.17045866829E+02  0.22686061835E+02  0.00000000000E+00 0. -1.
         11    1    4    4    0    0 -0.80016527683E+01  0.33824850940E+02  0.92301805265E+02  0.98629459308E+02  0.00000000000E+00 0.  1.
</event>
<event>
 8    1  0.6684013E-009  0.1805919E+03  0.7561462E-02  0.1167231E+00
         -2   -1    0    0    0  501 -0.00000000000E+00  0.00000000000E+00  0.21894267468E+03  0.21894267468E+03  0.00000000000E+00 0. -1.
          2   -1    0    0  501    0  0.00000000000E+00 -0.00000000000E+00 -0.19179262077E+03  0.19179262077E+03  0.00000000000E+00 0.  1.
         25    2    1    2    0    0  0.16099210700E+03 -0.65902082570E+02 -0.70578881465E+01  0.21437995902E+03  0.12508960804E+03 0.  0.
         23    2    1    2    0    0 -0.16099210700E+03  0.65902082570E+02  0.34207942059E+02  0.19635533643E+03  0.84401965847E+02 0.  0.
          5    1    3    3  502    0  0.22897146868E+02 -0.26036666469E+02 -0.52958343858E+02  0.63436944438E+02  0.41800000000E+01 0. -1.
         -5    1    3    3    0  502  0.13809496014E+03 -0.39865416101E+02  0.45900455711E+02  0.15094301458E+03  0.41800000000E+01 0. -1.
        -11    1    4    4    0    0 -0.14674757663E+03  0.38708497707E+02  0.18863764419E+01  0.15177864625E+03  0.00000000000E+00 0.  1.
         11    1    4    4    0    0 -0.14244530376E+02  0.27193584862E+02  0.32321565617E+02  0.44576690178E+02  0.00000000000E+00 0. -1.
</event>
<event>
 8    1  0.6684013E-009  0.1138624E+03  0.7561462E-02  0.1253580E+00
          3   -1    0    0  501    0  0.00000000000E+00  0.00000000000E+00  0.71085901507E+02  0.71085901507E+02  0.00000000000E+00 0. -1.
         -3   -1    0    0    0  501 -0.00000000000E+00 -0.00000000000E+00 -0.45687431406E+03  0.45687431406E+03  0.00000000000E+00 0.  1.
         25    2    1    2    0    0 -0.53750650638E+02  0.52965106640E+02 -0.24802105931E+02  0.14817897209E+03  0.12508968122E+03 0.  0.
         23    2    1    2    0    0  0.53750650638E+02 -0.52965106640E+02 -0.36098630662E+03  0.37978124348E+03  0.90709670712E+02 0.  0.
          5    1    3    3  502    0 -0.95288199942E+00  0.56747540145E+02 -0.61379067715E+02  0.83702172315E+02  0.41800000000E+01 0. -1.
         -5    1    3    3    0  502 -0.52797768638E+02 -0.37824335056E+01  0.36576961784E+02  0.64476799779E+02  0.41800000000E+01 0. -1.
        -11    1    4    4    0    0 -0.25616342604E+02 -0.10297274414E+02 -0.74087864069E+02  0.79064799191E+02  0.00000000000E+00 0. -1.
         11    1    4    4    0    0  0.79366993241E+02 -0.42667832226E+02 -0.28689844255E+03  0.30071644428E+03  0.00000000000E+00 0.  1.
</event>
<event>
 8    1  0.6684013E-009  0.1256671E+03  0.7561462E-02  0.1234030E+00
          3   -1    0    0  501    0  0.00000000000E+00  0.00000000000E+00  0.12456843854E+04  0.12456843854E+04  0.00000000000E+00 0. -1.
         -3   -1    0    0    0  501 -0.00000000000E+00 -0.00000000000E+00 -0.13250476777E+02  0.13250476777E+02  0.00000000000E+00 0.  1.
         25    2    1    2    0    0 -0.15228511687E+02 -0.73715872361E+02  0.76404846304E+03  0.77787051765E+03  0.12508617409E+03 0.  0.
         23    2    1    2    0    0  0.15228511687E+02  0.73715872361E+02  0.46838544558E+03  0.48106434452E+03  0.79825062080E+02 0.  0.
          5    1    3    3  502    0 -0.67133317459E+02 -0.63792480333E+02  0.50866374959E+03  0.51704220854E+03  0.41800000000E+01 0.  1.
         -5    1    3    3    0  502  0.51904805772E+02 -0.99233920273E+01  0.25538471345E+03  0.26082830911E+03  0.41800000000E+01 0.  1.
        -11    1    4    4    0    0  0.39761517637E+02  0.15912768541E+02  0.25718997222E+03  0.26073142560E+03  0.00000000000E+00 0.  1.
         11    1    4    4    0    0 -0.24533005950E+02  0.57803103819E+02  0.21119547336E+03  0.22033291892E+03  0.00000000000E+00 0. -1.
</event>
<event>
 8    1  0.6684013E-009  0.2197466E+03  0.7561462E-02  0.1134072E+00
          2   -1    0    0  501    0  0.00000000000E+00  0.00000000000E+00  0.56319248414E+03  0.56319248414E+03  0.00000000000E+00 0. -1.
         -2   -1    0    0    0  501 -0.00000000000E+00 -0.00000000000E+00 -0.12472664815E+03  0.12472664815E+03  0.00000000000E+00 0.  1.
         25    2    1    2    0    0  0.45625852254E+02 -0.19931459737E+03  0.39082648347E+03  0.45847696076E+03  0.12509099188E+03 0.  0.
         23    2    1    2    0    0 -0.45625852254E+02  0.19931459737E+03  0.47639352521E+02  0.22944217153E+03  0.92553633359E+02 0.  0.
          5    1    3    3  502    0  0.46323947845E+02 -0.46298490950E+02  0.43007392469E+02  0.78463791746E+02  0.41800000000E+01 0. -1.
         -5    1    3    3    0  502 -0.69809559181E+00 -0.15301610642E+03  0.34781909100E+03  0.38001316902E+03  0.41800000000E+01 0. -1.
        -11    1    4    4    0    0  0.21840381445E+02  0.87630197635E+02 -0.64906593721E+00  0.90313205489E+02  0.00000000000E+00 0.  1.
         11    1    4    4    0    0 -0.67466233699E+02  0.11168439974E+03  0.48288418458E+02  0.13912896604E+03  0.00000000000E+00 0. -1.
</event>
<event>
 8    1  0.6684013E-009  0.3413595E+03  0.7561462E-02  0.1066218E+00
         -1   -1    0    0    0  501 -0.00000000000E+00  0.00000000000E+00  0.34815181692E+03  0.34815181692E+03  0.00000000000E+00 0.  1.
          1   -1    0    0  501    0  0.00000000000E+00 -0.00000000000E+00 -0.40358711153E+03  0.40358711153E+03  0.00000000000E+00 0. -1.
         25    2    1    2    0    0  0.14881597580E+03  0.29762663122E+03  0.10580705713E+03  0.37090464077E+03  0.12508921992E+03 0.  0.
         23    2    1    2    0    0 -0.14881597580E+03 -0.29762663122E+03 -0.16124235175E+03  0.38083428768E+03  0.91147421308E+02 0.  0.
          5    1    3    3  502    0  0.48790008492E+02  0.19688355215E+03  0.17438680334E+02  0.20363000272E+03  0.41800000000E+01 0.  1.
         -5    1    3    3    0  502  0.10002596731E+03  0.10074307907E+03  0.88368376797E+02  0.16727463804E+03  0.41800000000E+01 0.  1.
        -11    1    4    4    0    0 -0.36764015871E+02 -0.13777838910E+03 -0.30322588864E+02  0.14578729973E+03  0.00000000000E+00 0.  1.
         11    1    4    4    0    0 -0.11205195993E+03 -0.15984824212E+03 -0.13091976289E+03  0.23504698795E+03  0.00000000000E+00 0. -1.
</event>
<event>
 8    1  0.6684013E-009  0.1277076E+03  0.7561462E-02  0.1230897E+00
          2   -1    0    0  501    0  0.00000000000E+00  0.00000000000E+00  0.35005469230E+02  0.35005469230E+02  0.00000000000E+00 0. -1.
         -2   -1    0    0    0  501 -0.00000000000E+00 -0.00000000000E+00 -0.64380365279E+03  0.64380365279E+03  0.00000000000E+00 0.  1.
         25    2    1    2    0    0 -0.66171168968E+02  0.57493521634E+02 -0.28551107401E+03  0.32380085455E+03  0.12508513658E+03 0.  0.
         23    2    1    2    0    0  0.66171168968E+02 -0.57493521634E+02 -0.32328710955E+03  0.35500826747E+03  0.11761031476E+03 0.  0.
          5    1    3    3  502    0 -0.21674753802E+02 -0.29429743593E+02 -0.22278301025E+02  0.43008137101E+02  0.41800000000E+01 0. -1.
         -5    1    3    3    0  502 -0.44496415166E+02  0.86923265227E+02 -0.26323277298E+03  0.28079271745E+03  0.41800000000E+01 0. -1.
        -11    1    4    4    0    0  0.47712081436E+02 -0.79157927829E+02 -0.31020957450E+03  0.32368565054E+03  0.00000000000E+00 0.  1.
         11    1    4    4    0    0  0.18459087532E+02  0.21664406195E+02 -0.13077535049E+02  0.31322616928E+02  0.00000000000E+00 0. -1.
</event>
<event>
 8    1  0.6684013E-009  0.1563954E+03  0.7561462E-02  0.1192827E+00
          1   -1    0    0  501    0  0.00000000000E+00  0.00000000000E+00  0.74802033579E+03  0.74802033579E+03  0.00000000000E+00 0. -1.
         -1   -1    0    0    0  501 -0.00000000000E+00 -0.00000000000E+00 -0.64525225863E+02  0.64525225863E+02  0.00000000000E+00 0.  1.
         25    2    1    2    0    0 -0.14809806658E+03 -0.40074218262E+02  0.56296406182E+03  0.59675382342E+03  0.12509040960E+03 0.  0.
         23    2    1    2    0    0  0.14809806658E+03  0.40074218262E+02  0.12053104811E+03  0.21579173823E+03  0.92191975987E+02 0.  0.
          5    1    3    3  502    0 -0.22732247595E+01 -0.51007936818E+01  0.24580888900E+03  0.24590784444E+03  0.41800000000E+01 0.  1.
         -5    1    3    3    0  502 -0.14582484182E+03 -0.34973424580E+02  0.31715517282E+03  0.35084597898E+03  0.41800000000E+01 0.  1.
        -11    1    4    4    0    0  0.86746337471E+02  0.37176017900E+02  0.17711948542E+02  0.96024457784E+02  0.00000000000E+00 0.  1.
         11    1    4    4    0    0  0.61351729111E+02  0.28982003613E+01  0.10281909957E+03  0.11976728045E+03  0.00000000000E+00 0. -1.
</event>
<event>
 8    1  0.6684013E-009  0.8681456E+02  0.7561462E-02  0.1310754E+00
         -1   -1    0    0    0  501 -0.00000000000E+00  0.00000000000E+00  0.74048960062E+01  0.74048960062E+01  0.00000000000E+00 0.  1.
          1   -1    0    0  501    0  0.00000000000E+00 -0.00000000000E+00 -0.35721690960E+04  0.35721690960E+04  0.00000000000E+00 0. -1.
         25    2    1    2    0    0 -0.14993713171E+02  0.58591290739E+02 -0.30742504355E+04  0.30773886542E+04  0.12508972037E+03 0.  0.
         23    2    1    2    0    0  0.14993713171E+02 -0.58591290739E+02 -0.49051376448E+03  0.50218533777E+03  0.89042740007E+02 0.  0.
          5    1    3    3  502    0 -0.27852384442E+02  0.46493641668E+02 -0.47896280746E+03  0.48203760991E+03  0.41800000000E+01 0. -1.
         -5    1    3    3    0  502  0.12858671272E+02  0.12097649070E+02 -0.25952876280E+04  0.25953510443E+04  0.41800000000E+01 0. -1.
        -11    1    4    4    0    0  0.40378597810E+02 -0.63520563952E+02 -0.42744152977E+03  0.43401791965E+03  0.00000000000E+00 0. -1.
         11    1    4    4    0    0 -0.25384884639E+02  0.49292732126E+01 -0.63072234704E+02  0.68167418119E+02  0.00000000000E+00 0.  1.
</event>
<event>
 8    1  0.6684013E-009  0.1229454E+03  0.7561462E-02  0.1238316E+00
         -3   -1    0    0    0  501 -0.00000000000E+00  0.00000000000E+00  0.60786765719E+03  0.60786765719E+03  0.00000000000E+00 0.  1.
          3   -1    0    0  501    0  0.00000000000E+00 -0.00000000000E+00 -0.26332581687E+02  0.26332581687E+02  0.00000000000E+00 0. -1.
         25    2    1    2    0    0 -0.63814203719E+02 -0.73697035568E+01  0.35034522391E+03  0.37752251639E+03  0.12511958015E+03 0.  0.
         23    2    1    2    0    0  0.63814203719E+02  0.73697035568E+01  0.23118985160E+03  0.25667772249E+03  0.91149002278E+02 0.  0.
          5    1    3    3  502    0 -0.93509510398E+02  0.22977058816E+02  0.21506902571E+03  0.23567802610E+03  0.41800000000E+01 0. -1.
         -5    1    3    3    0  502  0.29695306679E+02 -0.30346762373E+02  0.13527619820E+03  0.14184449029E+03  0.41800000000E+01 0. -1.
        -11    1    4    4    0    0  0.54486239662E+02  0.43380191686E+02  0.18296910469E+03  0.19577610839E+03  0.00000000000E+00 0.  1.
         11    1    4    4    0    0  0.93279640564E+01 -0.36010488129E+02  0.48220746904E+02  0.60901614106E+02  0.00000000000E+00 0. -1.
</event>
<event>
 8    1  0.6684013E-009  0.1250505E+03  0.7561462E-02  0.1234990E+00
         -2   -1    0    0    0  501 -0.00000000000E+00  0.00000000000E+00  0.19725650022E+03  0.19725650022E+03  0.00000000000E+00 0.  1.
          2   -1    0    0  501    0  0.00000000000E+00 -0.00000000000E+00 -0.11693965331E+03  0.11693965331E+03  0.00000000000E+00 0. -1.
         25    2    1    2    0    0 -0.60306664914E+02  0.42037747581E+02  0.12317010310E+03  0.19032386052E+03  0.12509289160E+03 0.  0.
         23    2    1    2    0    0  0.60306664914E+02 -0.42037747581E+02 -0.42853256190E+02  0.12387229301E+03  0.90021538288E+02 0.  0.
          5    1    3    3  502    0 -0.89892217382E+02  0.59457342804E+02  0.10774356837E+03  0.15245305928E+03  0.41800000000E+01 0. -1.
         -5    1    3    3    0  502  0.29585552468E+02 -0.17419595223E+02  0.15426534735E+02  0.37870801239E+02  0.41800000000E+01 0. -1.
        -11    1    4    4    0    0 -0.17137666565E+02  0.39507286496E+01 -0.27292452891E+02  0.32468228424E+02  0.00000000000E+00 0. -1.
         11    1    4    4    0    0  0.77444331480E+02 -0.45988476230E+02 -0.15560803299E+02  0.91404064590E+02  0.00000000000E+00 0.  1.
</event>
<event>
 8    1  0.6684013E-009  0.1373399E+03  0.7561462E-02  0.1216954E+00
         -1   -1    0    0    0  501 -0.00000000000E+00  0.00000000000E+00  0.56399451339E+03  0.56399451339E+03  0.00000000000E+00 0.  1.
          1   -1    0    0  501    0  0.00000000000E+00 -0.00000000000E+00 -0.45356424380E+02  0.45356424380E+02  0.00000000000E+00 0. -1.
         25    2    1    2    0    0 -0.69860751626E+02 -0.68313403951E+02  0.39859028401E+03  0.42903294905E+03  0.12509121106E+03 0.  0.
         23    2    1    2    0    0  0.69860751626E+02  0.68313403951E+02  0.12004780499E+03  0.18031798872E+03  0.92497869129E+02 0.  0.
          5    1    3    3  502    0  0.72344895288E+01 -0.80180233530E+02  0.20250196316E+03  0.21795808122E+03  0.41800000000E+01 0.  1.
         -5    1    3    3    0  502 -0.77095241155E+02  0.11866829579E+02  0.19608832086E+03  0.21107486783E+03  0.41800000000E+01 0.  1.
        -11    1    4    4    0    0  0.39847953402E+02 -0.15863961667E+01  0.20592769035E+01  0.39932651609E+02  0.00000000000E+00 0. -1.
         11    1    4    4    0    0  0.30012798224E+02  0.69899800118E+02  0.11798852809E+03  0.14038533711E+03  0.00000000000E+00 0.  1.
</event>
<event>
 8    1  0.6684013E-009  0.1470054E+03  0.7561462E-02  0.1204202E+00
          2   -1    0    0  501    0  0.00000000000E+00  0.00000000000E+00  0.69315375707E+03  0.69315375707E+03  0.00000000000E+00 0. -1.
         -2   -1    0    0    0  501 -0.00000000000E+00 -0.00000000000E+00 -0.36459075863E+02  0.36459075863E+02  0.00000000000E+00 0.  1.
         25    2    1    2    0    0  0.66218901658E+02  0.88432112719E+02  0.42806831840E+03  0.45945124769E+03  0.12509109598E+03 0.  0.
         23    2    1    2    0    0 -0.66218901658E+02 -0.88432112719E+02  0.22862636281E+03  0.27016158524E+03  0.92260971552E+02 0.  0.
          5    1    3    3  502    0  0.86863971930E+02  0.10157998399E+03  0.40105081737E+03  0.42275651773E+03  0.41800000000E+01 0. -1.
         -5    1    3    3    0  502 -0.20645070272E+02 -0.13147871271E+02  0.27017501029E+02  0.36694729967E+02  0.41800000000E+01 0. -1.
        -11    1    4    4    0    0  0.18190160209E+02 -0.16459207564E+02  0.86264584397E+02  0.89684814563E+02  0.00000000000E+00 0.  1.
         11    1    4    4    0    0 -0.84409061866E+02 -0.71972905155E+02  0.14236177841E+03  0.18047677068E+03  0.00000000000E+00 0. -1.
</event>
<event>
 8    1  0.6684013E-009  0.8562006E+02  0.7561462E-02  0.1313819E+00
          1   -1    0    0  501    0  0.00000000000E+00  0.00000000000E+00  0.11604435797E+03  0.11604435797E+03  0.00000000000E+00 0. -1.
         -1   -1    0    0    0  501 -0.00000000000E+00 -0.00000000000E+00 -0.11153442409E+03  0.11153442409E+03  0.00000000000E+00 0.  1.
         25    2    1    2    0    0 -0.28210457586E+02  0.46437990609E+01  0.19764312564E+02  0.12982944813E+03  0.12509061820E+03 0.  0.
         23    2    1    2    0    0  0.28210457586E+02 -0.46437990609E+01 -0.15254378684E+02  0.97749333935E+02  0.92221697169E+02 0.  0.
          5    1    3    3  502    0 -0.27653154446E+02 -0.31565596003E+02  0.61401157393E+02  0.74489316892E+02  0.41800000000E+01 0.  1.
         -5    1    3    3    0  502 -0.55730314016E+00  0.36209395064E+02 -0.41636844829E+02  0.55340131233E+02  0.41800000000E+01 0.  1.
        -11    1    4    4    0    0  0.29024083900E+02  0.39192419475E+02 -0.21799586105E+02  0.53419707458E+02  0.00000000000E+00 0.  1.
         11    1    4    4    0    0 -0.81362631382E+00 -0.43836218536E+02  0.65452074211E+01  0.44329626476E+02  0.00000000000E+00 0. -1.
</event>
<event>
 8    1  0.6684013E-009  0.3248363E+03  0.7561462E-02  0.1073445E+00
          2   -1    0    0  501    0  0.00000000000E+00  0.00000000000E+00  0.11639643266E+03  0.11639643266E+03  0.00000000000E+00 0. -1.
         -2   -1    0    0    0  501 -0.00000000000E+00 -0.00000000000E+00 -0.10583778196E+04  0.10583778196E+04  0.00000000000E+00 0.  1.
         25    2    1    2    0    0 -0.25125014051E+02 -0.30901086948E+03 -0.68598743365E+03  0.76311376345E+03  0.12507946697E+03 0.  0.
         23    2    1    2    0    0  0.25125014051E+02  0.30901086948E+03 -0.25599395331E+03  0.41166048884E+03  0.88388178806E+02 0.  0.
          5    1    3    3  502    0  0.29957813857E+02 -0.23009493644E+03 -0.41454493111E+03  0.47508538464E+03  0.41800000000E+01 0.  1.
         -5    1    3    3    0  502 -0.55082827908E+02 -0.78915933035E+02 -0.27144250254E+03  0.28802837881E+03  0.41800000000E+01 0.  1.
        -11    1    4    4    0    0  0.56371685783E+02  0.21078457889E+03 -0.18952144602E+03  0.28900914200E+03  0.00000000000E+00 0.  1.
         11    1    4    4    0    0 -0.31246671731E+02  0.98226290582E+02 -0.66472507295E+02  0.12265134684E+03  0.00000000000E+00 0. -1.
</event>
<event>
 8    1  0.6684013E-009  0.1348474E+03  0.7561462E-02  0.1220435E+00
         -2   -1    0    0    0  501 -0.00000000000E+00  0.00000000000E+00  0.17463047826E+02  0.17463047826E+02  0.00000000000E+00 0.  1.
          2   -1    0    0  501    0  0.00000000000E+00 -0.00000000000E+00 -0.11037251578E+04  0.11037251578E+04  0.00000000000E+00 0. -1.
         25    2    1    2    0    0 -0.19982734261E+02  0.77436157740E+02 -0.48242403894E+03  0.50475338160E+03  0.12508938681E+03 0.  0.
         23    2    1    2    0    0  0.19982734261E+02 -0.77436157740E+02 -0.60383807099E+03  0.61643482398E+03  0.94740741236E+02 0.  0.
          5    1    3    3  502    0  0.51305507563E+02  0.43079556200E+02 -0.26395034756E+03  0.27235154056E+03  0.41800000000E+01 0. -1.
         -5    1    3    3    0  502 -0.71288241824E+02  0.34356601541E+02 -0.21847369138E+03  0.23240184104E+03  0.41800000000E+01 0. -1.
        -11    1    4    4    0    0  0.41663252025E+02  0.12754251100E+01 -0.23510086334E+03  0.23876739565E+03  0.00000000000E+00 0. -1.
         11    1    4    4    0    0 -0.21680517764E+02 -0.78711582850E+02 -0.36873720764E+03  0.37766742833E+03  0.00000000000E+00 0.  1.
</event>
<event>
 8    1  0.6684013E-009  0.1198379E+03  0.7561462E-02  0.1243365E+00
         -2   -1    0    0    0  501 -0.00000000000E+00  0.00000000000E+00  0.22115737105E+03  0.22115737105E+03  0.00000000000E+00 0.  1.
          2   -1    0    0  501    0  0.00000000000E+00 -0.00000000000E+00 -0.12721885338E+03  0.12721885338E+03  0.00000000000E+00 0. -1.
         25    2    1    2    0    0 -0.24333620056E+02 -0.75525728219E+02  0.15385574411E+03  0.21357799379E+03  0.12509080202E+03 0.  0.
         23    2    1    2    0    0  0.24333620056E+02  0.75525728219E+02 -0.59917226432E+02  0.13479823064E+03  0.91017736032E+02 0.  0.
          5    1    3    3  502    0  0.36256393161E+02  0.35060731672E+01  0.90165950351E+01  0.37756985846E+02  0.41800000000E+01 0. -1.
         -5    1    3    3    0  502 -0.60590013217E+02 -0.79031801386E+02  0.14483914907E+03  0.17582100795E+03  0.41800000000E+01 0. -1.
        -11    1    4    4    0    0  0.39850267847E+02  0.17946195535E+02  0.79841138041E+01  0.44428097584E+02  0.00000000000E+00 0.  1.
         11    1    4    4    0    0 -0.15516647791E+02  0.57579532684E+02 -0.67901340236E+02  0.90370133056E+02  0.00000000000E+00 0. -1.
</event>
<event>
 8    1  0.6684013E-009  0.7670411E+02  0.7561462E-02  0.1338674E+00
          1   -1    0    0  501    0  0.00000000000E+00  0.00000000000E+00  0.15497984928E+03  0.15497984928E+03  0.00000000000E+00 0. -1.
         -1   -1    0    0    0  501 -0.00000000000E+00 -0.00000000000E+00 -0.91210771270E+02  0.91210771270E+02  0.00000000000E+00 0.  1.
         25    2    1    2    0    0  0.35816486749E+02  0.28310475701E+02  0.16843242189E+02  0.13422283290E+03  0.12509104806E+03 0.  0.
         23    2    1    2    0    0 -0.35816486749E+02 -0.28310475701E+02  0.46925835819E+02  0.11196778765E+03  0.90831974804E+02 0.  0.
          5    1    3    3  502    0  0.39863441084E+02  0.78293200347E+01  0.67713926967E+02  0.79076168930E+02  0.41800000000E+01 0.  1.
         -5    1    3    3    0  502 -0.40469543355E+01  0.20481155666E+02 -0.50870684778E+02  0.55146663966E+02  0.41800000000E+01 0.  1.
        -11    1    4    4    0    0 -0.61132538959E+02 -0.16368853903E+02  0.76623728054E+01  0.63748244326E+02  0.00000000000E+00 0.  1.
         11    1    4    4    0    0  0.25316052210E+02 -0.11941621798E+02  0.39263463014E+02  0.48219543325E+02  0.00000000000E+00 0. -1.
</event>
<event>
 8    1  0.6684013E-009  0.1317278E+03  0.7561462E-02  0.1224914E+00
          3   -1    0    0  501    0  0.00000000000E+00  0.00000000000E+00  0.25562003754E+03  0.25562003754E+03  0.00000000000E+00 0. -1.
         -3   -1    0    0    0  501 -0.00000000000E+00 -0.00000000000E+00 -0.12094547208E+03  0.12094547208E+03  0.00000000000E+00 0.  1.
         25    2    1    2    0    0 -0.10517882209E+03 -0.36103081697E+02  0.15939649370E+03  0.23112603347E+03  0.12508390791E+03 0.  0.
         23    2    1    2    0    0  0.10517882209E+03  0.36103081697E+02 -0.24721928239E+02  0.14543947616E+03  0.90418197087E+02 0.  0.
          5    1    3    3  502    0 -0.66195666373E+02 -0.51048031766E+02  0.20696166431E+02  0.86218162233E+02  0.41800000000E+01 0.  1.
         -5    1    3    3    0  502 -0.38983155718E+02  0.14944950069E+02  0.13870032727E+03  0.14490787124E+03  0.41800000000E+01 0.  1.
        -11    1    4    4    0    0  0.47225696848E+02 -0.25125753415E+02 -0.29331354772E+02  0.61007362672E+02  0.00000000000E+00 0. -1.
         11    1    4    4    0    0  0.57953125243E+02  0.61228835112E+02  0.46094265320E+01  0.84432113486E+02  0.00000000000E+00 0.  1.
</event>
<event>
 8    1  0.6684013E-009  0.1297306E+03  0.7561462E-02  0.1227856E+00
          1   -1    0    0  501    0  0.00000000000E+00  0.00000000000E+00  0.31467426247E+02  0.31467426247E+02  0.00000000000E+00 0. -1.
         -1   -1    0    0    0  501 -0.00000000000E+00 -0.00000000000E+00 -0.58778578774E+03  0.58778578774E+03  0.00000000000E+00 0.  1.
         25    2    1    2    0    0 -0.22975087653E+02 -0.77074416294E+02 -0.34097736792E+03  0.37199654145E+03  0.12509013197E+03 0.  0.
         23    2    1    2    0    0  0.22975087653E+02  0.77074416294E+02 -0.21534099357E+03  0.24725667254E+03  0.91081273060E+02 0.  0.
          5    1    3    3  502    0 -0.31205356667E+02  0.26096399426E+02 -0.60690912327E+02  0.73182344775E+02  0.41800000000E+01 0. -1.
         -5    1    3    3    0  502  0.82302690139E+01 -0.10317081572E+03 -0.28028645559E+03  0.29881419667E+03  0.41800000000E+01 0. -1.
        -11    1    4    4    0    0  0.48473304650E+02  0.75133340192E+02 -0.19520546222E+03  0.21470876217E+03  0.00000000000E+00 0.  1.
         11    1    4    4    0    0 -0.25498216997E+02  0.19410761019E+01 -0.20135531350E+02  0.32547910366E+02  0.00000000000E+00 0. -1.
</event>
<event>
 8    1  0.6684013E-009  0.1301598E+03  0.7561462E-02  0.1227219E+00
          2   -1    0    0  501    0  0.00000000000E+00  0.00000000000E+00  0.13958713176E+03  0.13958713176E+03  0.00000000000E+00 0.  1.
         -2   -1    0    0    0  501 -0.00000000000E+00 -0.00000000000E+00 -0.20383225277E+03  0.20383225277E+03  0.00000000000E+00 0. -1.
         25    2    1    2    0    0  0.66966882727E+02  0.52643154588E+02  0.64299672113E+02  0.16441409271E+03  0.12506670597E+03 0.  0.
         23    2    1    2    0    0 -0.66966882727E+02 -0.52643154588E+02 -0.12854479313E+03  0.17900529182E+03  0.90902505753E+02 0.  0.
          5    1    3    3  502    0  0.32462888143E+02 -0.40217365622E+02  0.27152941882E+02  0.58532300972E+02  0.41800000000E+01 0. -1.
         -5    1    3    3    0  502  0.34503994583E+02  0.92860520210E+02  0.37146730230E+02  0.10588179174E+03  0.41800000000E+01 0. -1.
        -11    1    4    4    0    0 -0.97188130811E+01  0.16743613234E+02  0.30545655213E+01  0.19599343927E+02  0.00000000000E+00 0.  1.
         11    1    4    4    0    0 -0.57248069646E+02 -0.69386767822E+02 -0.13159935865E+03  0.15940594789E+03  0.00000000000E+00 0. -1.
</event>
<event>
 8    1  0.6684013E-009  0.3860288E+03  0.7561462E-02  0.1048728E+00
          2   -1    0    0  501    0  0.00000000000E+00  0.00000000000E+00  0.15604009483E+04  0.15604009483E+04  0.00000000000E+00 0.  1.
         -2   -1    0    0    0  501 -0.00000000000E+00 -0.00000000000E+00 -0.97100715191E+02  0.97100715191E+02  0.00000000000E+00 0. -1.
         25    2    1    2    0    0  0.36521115264E+03  0.76029205976E+02  0.70962937248E+03  0.81140695655E+03  0.12509107350E+03 0.  0.
         23    2    1    2    0    0 -0.36521115264E+03 -0.76029205976E+02  0.75367086058E+03  0.84609470690E+03  0.93256961004E+02 0.  0.
          5    1    3    3  502    0  0.32713183172E+03  0.10360717020E+03  0.58623801424E+03  0.67929534282E+03  0.41800000000E+01 0. -1.
         -5    1    3    3    0  502  0.38079320925E+02 -0.27577964220E+02  0.12339135824E+03  0.13211161372E+03  0.41800000000E+01 0. -1.
        -11    1    4    4    0    0 -0.69345177836E+02 -0.48325779453E+02  0.12724113744E+03  0.15275615112E+03  0.00000000000E+00 0. -1.
         11    1    4    4    0    0 -0.29586597481E+03 -0.27703426523E+02  0.62642972314E+03  0.69333855578E+03  0.00000000000E+00 0.  1.
</event>
<event>
 8    1  0.6684013E-009  0.1290260E+03  0.7561462E-02  0.1228908E+00
         -2   -1    0    0    0  501 -0.00000000000E+00  0.00000000000E+00  0.19726913033E+02  0.19726913033E+02  0.00000000000E+00 0.  1.
          2   -1    0    0  501    0  0.00000000000E+00 -0.00000000000E+00 -0.12792385552E+04  0.12792385552E+04  0.00000000000E+00 0. -1.
         25    2    1    2    0    0  0.72493315401E+02 -0.85621427071E+02 -0.50293348550E+03  0.53026018075E+03  0.12508980335E+03 0.  0.
         23    2    1    2    0    0 -0.72493315401E+02  0.85621427071E+02 -0.75657815665E+03  0.76870528746E+03  0.76883043013E+02 0.  0.
          5    1    3    3  502    0  0.52162876806E+02 -0.87062169400E+02 -0.49881259736E+03  0.50905035776E+03  0.41800000000E+01 0.  1.
         -5    1    3    3    0  502  0.20330438595E+02  0.14407423292E+01 -0.41208881369E+01  0.21209822983E+02  0.41800000000E+01 0.  1.
        -11    1    4    4    0    0 -0.76232904987E+02  0.33259660821E+02 -0.48975652274E+03  0.49676867092E+03  0.00000000000E+00 0. -1.
         11    1    4    4    0    0  0.37395895859E+01  0.52361766250E+02 -0.26682163391E+03  0.27193661655E+03  0.00000000000E+00 0.  1.
</event>
<event>
 8    1  0.6684013E-009  0.8972570E+02  0.7561462E-02  0.1303517E+00
         -2   -1    0    0    0  501 -0.00000000000E+00  0.00000000000E+00  0.47420151902E+02  0.47420151902E+02  0.00000000000E+00 0.  1.
          2   -1    0    0  501    0  0.00000000000E+00 -0.00000000000E+00 -0.33800710333E+03  0.33800710333E+03  0.00000000000E+00 0. -1.
         25    2    1    2    0    0 -0.33515230737E+02  0.14435533740E+02 -0.24456506022E+03  0.27711189201E+03  0.12508907501E+03 0.  0.
         23    2    1    2    0    0  0.33515230737E+02 -0.14435533740E+02 -0.46021891203E+02  0.10831536322E+03  0.91008505717E+02 0.  0.
          5    1    3    3  502    0  0.43030295235E+01 -0.25539244293E+02  0.16662190038E+00  0.26234885648E+02  0.41800000000E+01 0. -1.
         -5    1    3    3    0  502 -0.37818260261E+02  0.39974778033E+02 -0.24473168212E+03  0.25087700636E+03  0.41800000000E+01 0. -1.
        -11    1    4    4    0    0  0.83272425905E+01 -0.52076666680E+02 -0.25918549722E+02  0.58763027503E+02  0.00000000000E+00 0. -1.
         11    1    4    4    0    0  0.25187988147E+02  0.37641132940E+02 -0.20103341481E+02  0.49552335713E+02  0.00000000000E+00 0.  1.
</event>
<event>
 8    1  0.6684013E-009  0.6299477E+02  0.7561462E-02  0.1385677E+00
         -4   -1    0    0    0  501 -0.00000000000E+00  0.00000000000E+00  0.61434100497E+02  0.61434100497E+02  0.00000000000E+00 0. -1.
          4   -1    0    0  501    0  0.00000000000E+00 -0.00000000000E+00 -0.22372648068E+03  0.22372648068E+03  0.00000000000E+00 0.  1.
         25    2    1    2    0    0 -0.25108357646E+02  0.44025506878E+02 -0.82872669732E+02  0.15837528423E+03  0.12508467686E+03 0.  0.
         23    2    1    2    0    0  0.25108357646E+02 -0.44025506878E+02 -0.79419710449E+02  0.12678529695E+03  0.84843068278E+02 0.  0.
          5    1    3    3  502    0  0.15312979679E+02  0.70042204704E+01  0.28961434649E+02  0.33760680503E+02  0.41800000000E+01 0.  1.
         -5    1    3    3    0  502 -0.40421337325E+02  0.37021286408E+02 -0.11183410438E+03  0.12461460372E+03  0.41800000000E+01 0.  1.
        -11    1    4    4    0    0  0.23028827430E+02 -0.23027273270E+02 -0.95083467550E+02  0.10050596006E+03  0.00000000000E+00 0.  1.
         11    1    4    4    0    0  0.20795302158E+01 -0.20998233608E+02  0.15663757101E+02  0.26279336884E+02  0.00000000000E+00 0. -1.
</event>
<event>
 8    1  0.6684013E-009  0.1143266E+03  0.7561462E-02  0.1252761E+00
          1   -1    0    0  501    0  0.00000000000E+00  0.00000000000E+00  0.20716387366E+04  0.20716387366E+04  0.00000000000E+00 0. -1.
         -1   -1    0    0    0  501 -0.00000000000E+00 -0.00000000000E+00 -0.11296879664E+02  0.11296879664E+02  0.00000000000E+00 0.  1.
         25    2    1    2    0    0 -0.96543154986E+02 -0.96494792249E+01  0.14413142640E+04  0.14499819917E+04  0.12508907077E+03 0.  0.
         23    2    1    2    0    0  0.96543154986E+02  0.96494792249E+01  0.61902759291E+03  0.63295362447E+03  0.89562473822E+02 0.  0.
          5    1    3    3  502    0 -0.38496254376E+02 -0.11272894220E+02  0.12337019456E+04  0.12343609693E+04  0.41800000000E+01 0. -1.
         -5    1    3    3    0  502 -0.58046900610E+02  0.16234149950E+01  0.20761231841E+03  0.21562102240E+03  0.41800000000E+01 0. -1.
        -11    1    4    4    0    0  0.92157407031E+02  0.39258788652E+02  0.51749387491E+03  0.52709975406E+03  0.00000000000E+00 0. -1.
         11    1    4    4    0    0  0.43857479551E+01 -0.29609309427E+02  0.10153371800E+03  0.10585387041E+03  0.00000000000E+00 0.  1.
</event>
<event>
 8    1  0.6684013E-009  0.9163755E+02  0.7561462E-02  0.1298934E+00
          2   -1    0    0  501    0  0.00000000000E+00  0.00000000000E+00  0.15047541113E+02  0.15047541113E+02  0.00000000000E+00 0. -1.
         -2   -1    0    0    0  501 -0.00000000000E+00 -0.00000000000E+00 -0.10748458289E+04  0.10748458289E+04  0.00000000000E+00 0.  1.
         25    2    1    2    0    0  0.34377800410E+01 -0.13014650895E+02 -0.87135168400E+03  0.88038538099E+03  0.12507382767E+03 0.  0.
         23    2    1    2    0    0 -0.34377800410E+01  0.13014650895E+02 -0.18844660374E+03  0.20950798899E+03  0.90555372659E+02 0.  0.
          5    1    3    3  502    0 -0.18368243829E+02 -0.65672370033E+02 -0.50591855078E+03  0.51051082750E+03  0.41800000000E+01 0. -1.
         -5    1    3    3    0  502  0.21806023870E+02  0.52657719138E+02 -0.36543313322E+03  0.36987455349E+03  0.41800000000E+01 0. -1.
        -11    1    4    4    0    0 -0.16125149363E+02 -0.18078499274E+02 -0.73377184036E+01  0.25311947561E+02  0.00000000000E+00 0. -1.
         11    1    4    4    0    0  0.12687369322E+02  0.31093150169E+02 -0.18110888534E+03  0.18419604143E+03  0.00000000000E+00 0.  1.
</event>
<event>
 8    1  0.6684013E-009  0.1049447E+03  0.7561462E-02  0.1270229E+00
          2   -1    0    0  501    0  0.00000000000E+00  0.00000000000E+00  0.67904438058E+03  0.67904438058E+03  0.00000000000E+00 0. -1.
         -2   -1    0    0    0  501 -0.00000000000E+00 -0.00000000000E+00 -0.29087816172E+02  0.29087816172E+02  0.00000000000E+00 0.  1.
         25    2    1    2    0    0  0.75756044694E+01 -0.46170560751E+02  0.54383844641E+03  0.55999510814E+03  0.12508059355E+03 0.  0.
         23    2    1    2    0    0 -0.75756044694E+01  0.46170560751E+02  0.10611811800E+03  0.14813708861E+03  0.92165240693E+02 0.  0.
          5    1    3    3  502    0  0.50635302746E+02  0.19721604186E+02  0.20671008524E+03  0.21377419698E+03  0.41800000000E+01 0.  1.
         -5    1    3    3    0  502 -0.43059698276E+02 -0.65892164937E+02  0.33712836117E+03  0.34622091115E+03  0.41800000000E+01 0.  1.
        -11    1    4    4    0    0  0.20284375531E+02 -0.25456643924E+01 -0.72076794503E+01  0.21676875719E+02  0.00000000000E+00 0.  1.
         11    1    4    4    0    0 -0.27859980001E+02  0.48716225143E+02  0.11332579745E+03  0.12646021289E+03  0.00000000000E+00 0. -1.
</event>
<event>
 8    1  0.6684013E-009  0.6958257E+02  0.7561462E-02  0.1361518E+00
          1   -1    0    0  501    0  0.00000000000E+00  0.00000000000E+00  0.11760243049E+03  0.11760243049E+03  0.00000000000E+00 0. -1.
         -1   -1    0    0    0  501 -0.00000000000E+00 -0.00000000000E+00 -0.10759962463E+03  0.10759962463E+03  0.00000000000E+00 0.  1.
         25    2    1    2    0    0  0.27413268051E+01 -0.26522988868E+00 -0.17684190711E+02  0.12636403026E+03  0.12509017677E+03 0.  0.
         23    2    1    2    0    0 -0.27413268051E+01  0.26522988868E+00  0.27686996576E+02  0.98838024853E+02  0.94840920272E+02 0.  0.
          5    1    3    3  502    0 -0.45214550710E+02 -0.93349129844E+01  0.32205707301E+02  0.56446223781E+02  0.41800000000E+01 0.  1.
         -5    1    3    3    0  502  0.47955877516E+02  0.90696830958E+01 -0.49889898012E+02  0.69917806483E+02  0.41800000000E+01 0.  1.
        -11    1    4    4    0    0  0.10783127690E+02  0.18324283188E+02 -0.30071854914E+02  0.36828951317E+02  0.00000000000E+00 0.  1.
         11    1    4    4    0    0 -0.13524454495E+02 -0.18059053299E+02  0.57758851490E+02  0.62009073537E+02  0.00000000000E+00 0. -1.
</event>
<event>
 8    1  0.6684013E-009  0.1177242E+03  0.7561462E-02  0.1246899E+00
          2   -1    0    0  501    0  0.00000000000E+00  0.00000000000E+00  0.51350308865E+03  0.51350308865E+03  0.00000000000E+00 0. -1.
         -2   -1    0    0    0  501 -0.00000000000E+00 -0.00000000000E+00 -0.49517610288E+02  0.49517610288E+02  0.00000000000E+00 0.  1.
         25    2    1    2    0    0 -0.55603883239E+02  0.85905186348E+02  0.15343040683E+03  0.22284454059E+03  0.12508919480E+03 0.  0.
         23    2    1    2    0    0  0.55603883239E+02 -0.85905186348E+02  0.31055507153E+03  0.34017615836E+03  0.93828958136E+02 0.  0.
          5    1    3    3  502    0  0.12559567593E+02  0.45452417405E+01 -0.17001318982E+02  0.22020881175E+02  0.41800000000E+01 0. -1.
         -5    1    3    3    0  502 -0.68163450832E+02  0.81359944608E+02  0.17043172581E+03  0.20082365941E+03  0.41800000000E+01 0. -1.
        -11    1    4    4    0    0  0.19286687561E+02 -0.74810480388E+02  0.10074484864E+03  0.12695711410E+03  0.00000000000E+00 0.  1.
         11    1    4    4    0    0  0.36317195677E+02 -0.11094705960E+02  0.20981022290E+03  0.21321904426E+03  0.00000000000E+00 0. -1.
</event>
<event>
 8    1  0.6684013E-009  0.1093588E+03  0.7561462E-02  0.1261762E+00
         -1   -1    0    0    0  501 -0.00000000000E+00  0.00000000000E+00  0.18466089321E+02  0.18466089321E+02  0.00000000000E+00 0.  1.
          1   -1    0    0  501    0  0.00000000000E+00 -0.00000000000E+00 -0.82028275353E+03  0.82028275353E+03  0.00000000000E+00 0. -1.
         25    2    1    2    0    0 -0.52278668599E+02  0.13242221652E+02 -0.52591331701E+03  0.54326877777E+03  0.12509089601E+03 0.  0.
         23    2    1    2    0    0  0.52278668599E+02 -0.13242221652E+02 -0.27590334719E+03  0.29548006508E+03  0.90980196971E+02 0.  0.
          5    1    3    3  502    0  0.28025972240E+02 -0.32117821881E+02 -0.19975266550E+03  0.20429294990E+03  0.41800000000E+01 0.  1.
         -5    1    3    3    0  502 -0.80304640839E+02  0.45360043533E+02 -0.32616065151E+03  0.33897582787E+03  0.41800000000E+01 0.  1.
        -11    1    4    4    0    0  0.13097966027E+02  0.25370767667E+02 -0.23001781587E+02  0.36664894958E+02  0.00000000000E+00 0.  1.
         11    1    4    4    0    0  0.39180702571E+02 -0.38612989319E+02 -0.25290156561E+03  0.25881517012E+03  0.00000000000E+00 0. -1.
</event>
<event>
 8    1  0.6684013E-009  0.1178643E+03  0.7561462E-02  0.1246662E+00
         -3   -1    0    0    0  501 -0.00000000000E+00  0.00000000000E+00  0.57515104918E+03  0.57515104918E+03  0.00000000000E+00 0.  1.
          3   -1    0    0  501    0  0.00000000000E+00 -0.00000000000E+00 -0.30824230069E+02  0.30824230069E+02  0.00000000000E+00 0. -1.
         25    2    1    2    0    0  0.57570994261E+02  0.43919762538E+02  0.24552967487E+03  0.28491151611E+03  0.12508551414E+03 0.  0.
         23    2    1    2    0    0 -0.57570994261E+02 -0.43919762538E+02  0.29879714424E+03  0.32106376314E+03  0.92514007985E+02 0.  0.
          5    1    3    3  502    0 -0.27031145573E+02 -0.11840387347E+02  0.15665908491E+02  0.33671511584E+02  0.41800000000E+01 0.  1.
         -5    1    3    3    0  502  0.84602139834E+02  0.55760149886E+02  0.22986376638E+03  0.25124000453E+03  0.41800000000E+01 0.  1.
        -11    1    4    4    0    0 -0.24866386953E+02 -0.62241788902E+02  0.25378093404E+03  0.26248264698E+03  0.00000000000E+00 0.  1.
         11    1    4    4    0    0 -0.32704607308E+02  0.18322026364E+02  0.45016210205E+02  0.58581116159E+02  0.00000000000E+00 0. -1.
</event>
<event>
 8    1  0.6684013E-009  0.1132917E+03  0.7561462E-02  0.1254593E+00
         -3   -1    0    0    0  501 -0.00000000000E+00  0.00000000000E+00  0.36057617749E+03  0.36057617749E+03  0.00000000000E+00 0.  1.
          3   -1    0    0  501    0  0.00000000000E+00 -0.00000000000E+00 -0.11580014069E+03  0.11580014069E+03  0.00000000000E+00 0. -1.
         25    2    1    2    0    0  0.40675649792E+02  0.67072006713E+02  0.30742253997E+03  0.34103883662E+03  0.12508280229E+03 0.  0.
         23    2    1    2    0    0 -0.40675649792E+02 -0.67072006713E+02 -0.62646503173E+02  0.13533748156E+03  0.90766111438E+02 0.  0.
          5    1    3    3  502    0  0.47469152642E+02 -0.22482778616E+02  0.15905331027E+03  0.16755364423E+03  0.41800000000E+01 0. -1.
         -5    1    3    3    0  502 -0.67935028503E+01  0.89554785329E+02  0.14836922971E+03  0.17348519239E+03  0.41800000000E+01 0. -1.
        -11    1    4    4    0    0 -0.37836448368E+02 -0.34239796045E+02  0.13142047747E+02  0.52694154109E+02  0.00000000000E+00 0.  1.
         11    1    4    4    0    0 -0.28392014237E+01 -0.32832210668E+02 -0.75788550920E+02  0.82643327454E+02  0.00000000000E+00 0. -1.
</event>
<event>
 8    1  0.6684013E-009  0.1707332E+03  0.7561462E-02  0.1177085E+00
          2   -1    0    0  501    0  0.00000000000E+00  0.00000000000E+00  0.13411347511E+04  0.13411347511E+04  0.00000000000E+00 0. -1.
         -2   -1    0    0    0  501 -0.00000000000E+00 -0.00000000000E+00 -0.26491076951E+02  0.26491076951E+02  0.00000000000E+00 0.  1.
         25    2    1    2    0    0 -0.13836173381E+03 -0.47476429103E+02  0.86496010191E+03  0.88611613072E+03  0.12509132069E+03 0.  0.
         23    2    1    2    0    0  0.13836173381E+03  0.47476429103E+02  0.44968357220E+03  0.48150969730E+03  0.90765041640E+02 0.  0.
          5    1    3    3  502    0  0.18922258946E+02  0.11155374350E+02  0.65434030472E+02  0.69148962424E+02  0.41800000000E+01 0. -1.
         -5    1    3    3    0  502 -0.15728399275E+03 -0.58631803453E+02  0.79952607144E+03  0.81696716829E+03  0.41800000000E+01 0. -1.
        -11    1    4    4    0    0  0.56408007763E+02  0.39486342970E+02  0.32413334949E+03  0.33136605570E+03  0.00000000000E+00 0.  1.
         11    1    4    4    0    0  0.81953726046E+02  0.79900861327E+01  0.12555022271E+03  0.15014364160E+03  0.00000000000E+00 0. -1.
</event>
<event>
 8    1  0.6684013E-009  0.1371900E+03  0.7561462E-02  0.1217161E+00
          3   -1    0    0  501    0  0.00000000000E+00  0.00000000000E+00  0.23903379362E+02  0.23903379362E+02  0.00000000000E+00 0. -1.
         -3   -1    0    0    0  501 -0.00000000000E+00 -0.00000000000E+00 -0.11418802275E+04  0.11418802275E+04  0.00000000000E+00 0.  1.
         25    2    1    2    0    0  0.83032833741E+02 -0.27669465906E+02 -0.90733519194E+03  0.92008959773E+03  0.12509063316E+03 0.  0.
         23    2    1    2    0    0 -0.83032833741E+02  0.27669465906E+02 -0.21064165621E+03  0.24569400914E+03  0.91299441254E+02 0.  0.
          5    1    3    3  502    0  0.11176857428E+03 -0.37615524636E+02 -0.79188449791E+03  0.80062829847E+03  0.41800000000E+01 0.  1.
         -5    1    3    3    0  502 -0.28735740541E+02  0.99460587293E+01 -0.11545069403E+03  0.11946129926E+03  0.41800000000E+01 0.  1.
        -11    1    4    4    0    0 -0.29009169646E+02  0.57185063218E+02 -0.12115440126E+03  0.13707681177E+03  0.00000000000E+00 0.  1.
         11    1    4    4    0    0 -0.54023664095E+02 -0.29515597312E+02 -0.89487254950E+02  0.10861719737E+03  0.00000000000E+00 0. -1.
</event>
<event>
 8    1  0.6684013E-009  0.1337305E+03  0.7561462E-02  0.1222023E+00
         -2   -1    0    0    0  501 -0.00000000000E+00  0.00000000000E+00  0.53381235715E+02  0.53381235715E+02  0.00000000000E+00 0.  1.
          2   -1    0    0  501    0  0.00000000000E+00 -0.00000000000E+00 -0.46177850393E+03  0.46177850393E+03  0.00000000000E+00 0. -1.
         25    2    1    2    0    0  0.48052662151E+02 -0.90323927292E+02 -0.14566390618E+03  0.21756159921E+03  0.12509039014E+03 0.  0.
         23    2    1    2    0    0 -0.48052662151E+02  0.90323927292E+02 -0.26273336204E+03  0.29759814044E+03  0.95227955364E+02 0.  0.
          5    1    3    3  502    0 -0.36379956514E+02 -0.37234695215E+02 -0.87860194419E+02  0.10220963715E+03  0.41800000000E+01 0.  1.
         -5    1    3    3    0  502  0.84432618665E+02 -0.53089232077E+02 -0.57803711764E+02  0.11535196206E+03  0.41800000000E+01 0.  1.
        -11    1    4    4    0    0 -0.38485524663E+02  0.18049754230E+02 -0.18970031128E+03  0.19440457129E+03  0.00000000000E+00 0.  1.
         11    1    4    4    0    0 -0.95671374882E+01  0.72274173062E+02 -0.73033050754E+02  0.10319356915E+03  0.00000000000E+00 0. -1.
</event>
<event>
 8    1  0.6684013E-009  0.5064316E+02  0.7561462E-02  0.1441903E+00
         -2   -1    0    0    0  501 -0.00000000000E+00  0.00000000000E+00  0.10028509386E+03  0.10028509386E+03  0.00000000000E+00 0.  1.
          2   -1    0    0  501    0  0.00000000000E+00 -0.00000000000E+00 -0.13264762791E+03  0.13264762791E+03  0.00000000000E+00 0. -1.
         25    2    1    2    0    0  0.14010074712E+02 -0.18013470899E+02 -0.45900570869E+02  0.13518709417E+03  0.12509164919E+03 0.  0.
         23    2    1    2    0    0 -0.14010074712E+02  0.18013470899E+02  0.13538036819E+02  0.97745627588E+02  0.94075299332E+02 0.  0.
          5    1    3    3  502    0  0.23016889649E+02 -0.11554735034E+02  0.40391564455E+02  0.48085756622E+02  0.41800000000E+01 0. -1.
         -5    1    3    3    0  502 -0.90068149369E+01 -0.64587358656E+01 -0.86292135325E+02  0.87101337551E+02  0.41800000000E+01 0. -1.
        -11    1    4    4    0    0 -0.37311463816E+02  0.91295920544E+01  0.43980358137E+02  0.58393207525E+02  0.00000000000E+00 0.  1.
         11    1    4    4    0    0  0.23301389105E+02  0.88838788448E+01 -0.30442321318E+02  0.39352420063E+02  0.00000000000E+00 0. -1.
</event>
<event>
 8    1  0.6684013E-009  0.1727459E+03  0.7561462E-02  0.1175014E+00
          1   -1    0    0  501    0  0.00000000000E+00  0.00000000000E+00  0.79899643339E+03  0.79899643339E+03  0.00000000000E+00 0.  1.
         -1   -1    0    0    0  501 -0.00000000000E+00 -0.00000000000E+00 -0.48601160551E+02  0.48601160551E+02  0.00000000000E+00 0. -1.
         25    2    1    2    0    0 -0.10697197847E+03 -0.10525778201E+03  0.53560156987E+03  0.57012148271E+03  0.12508900255E+03 0.  0.
         23    2    1    2    0    0  0.10697197847E+03  0.10525778201E+03  0.21479370298E+03  0.27747611123E+03  0.91293223266E+02 0.  0.
          5    1    3    3  502    0  0.55918643907E+01 -0.74895246463E+02  0.15960237778E+03  0.17643967321E+03  0.41800000000E+01 0. -1.
         -5    1    3    3    0  502 -0.11256384286E+03 -0.30362535546E+02  0.37599919209E+03  0.39368180951E+03  0.41800000000E+01 0. -1.
        -11    1    4    4    0    0  0.38867176076E+02  0.61192781090E+02  0.35568162206E+02  0.80748424110E+02  0.00000000000E+00 0. -1.
         11    1    4    4    0    0  0.68104802391E+02  0.44065000919E+02  0.17922554077E+03  0.19672768712E+03  0.00000000000E+00 0.  1.
</event>
<event>
 8    1  0.6684013E-009  0.9762702E+02  0.7561462E-02  0.1285367E+00
         -1   -1    0    0    0  501 -0.00000000000E+00  0.00000000000E+00  0.21496704429E+03  0.21496704429E+03  0.00000000000E+00 0.  1.
          1   -1    0    0  501    0  0.00000000000E+00 -0.00000000000E+00 -0.63888946887E+02  0.63888946887E+02  0.00000000000E+00 0. -1.
         25    2    1    2    0    0  0.41183409028E+01 -0.37328176444E+02  0.10218202959E+03  0.16582919713E+03  0.12509117459E+03 0.  0.
         23    2    1    2    0    0 -0.41183409028E+01  0.37328176444E+02  0.48896067816E+02  0.11302679405E+03  0.94730550709E+02 0.  0.
          5    1    3    3  502    0 -0.47944378639E+02 -0.59371495209E+01  0.19542903715E+01  0.48530452691E+02  0.41800000000E+01 0.  1.
         -5    1    3    3    0  502  0.52062719542E+02 -0.31391026923E+02  0.10022773922E+03  0.11729874444E+03  0.41800000000E+01 0.  1.
        -11    1    4    4    0    0 -0.38451698925E+02  0.34005858853E+02  0.57899363513E+02  0.77377437808E+02  0.00000000000E+00 0.  1.
         11    1    4    4    0    0  0.34333358022E+02  0.33223175907E+01 -0.90032956977E+01  0.35649356245E+02  0.00000000000E+00 0. -1.
</event>
<event>
 8    1  0.6684013E-009  0.7719566E+02  0.7561462E-02  0.1337204E+00
          1   -1    0    0  501    0  0.00000000000E+00  0.00000000000E+00  0.74460045158E+03  0.74460045158E+03  0.00000000000E+00 0. -1.
         -1   -1    0    0    0  501 -0.00000000000E+00 -0.00000000000E+00 -0.18439032747E+02  0.18439032747E+02  0.00000000000E+00 0.  1.
         25    2    1    2    0    0 -0.38370770427E+02 -0.14940956835E+02  0.34834775249E+03  0.37241032074E+03  0.12509093538E+03 0.  0.
         23    2    1    2    0    0  0.38370770427E+02  0.14940956835E+02  0.37781366635E+03  0.39062916359E+03  0.90290801063E+02 0.  0.
          5    1    3    3  502    0  0.61899906207E+01  0.29514799058E+01 -0.88640522082E+01  0.11961230667E+02  0.41800000000E+01 0.  1.
         -5    1    3    3    0  502 -0.44560761047E+02 -0.17892436740E+02  0.35721180470E+03  0.36044909007E+03  0.41800000000E+01 0.  1.
        -11    1    4    4    0    0 -0.16343647092E+02 -0.25384336356E+02  0.91234307251E+02  0.96099834297E+02  0.00000000000E+00 0.  1.
         11    1    4    4    0    0  0.54714417518E+02  0.40325293190E+02  0.28657935910E+03  0.29452932929E+03  0.00000000000E+00 0. -1.
</event>
<event>
 8    1  0.6684013E-009  0.2679533E+03  0.7561462E-02  0.1102457E+00
          1   -1    0    0  501    0  0.00000000000E+00  0.00000000000E+00  0.63822403132E+03  0.63822403132E+03  0.00000000000E+00 0. -1.
         -1   -1    0    0    0  501 -0.00000000000E+00 -0.00000000000E+00 -0.13404739964E+03  0.13404739964E+03  0.00000000000E+00 0.  1.
         25    2    1    2    0    0 -0.18241727305E+03 -0.19265246477E+03  0.18675584833E+03  0.34773020891E+03  0.12509003803E+03 0.  0.
         23    2    1    2    0    0  0.18241727305E+03  0.19265246477E+03  0.31742078334E+03  0.42454122205E+03  0.95332375581E+02 0.  0.
          5    1    3    3  502    0 -0.18090059085E+03 -0.18309163365E+03  0.20336379907E+03  0.32805773463E+03  0.41800000000E+01 0. -1.
         -5    1    3    3    0  502 -0.15166822044E+01 -0.95608311200E+01 -0.16607950735E+02  0.19672474278E+02  0.41800000000E+01 0. -1.
        -11    1    4    4    0    0  0.10803140820E+03  0.13986902202E+03  0.26736936018E+03  0.32050039507E+03  0.00000000000E+00 0. -1.
         11    1    4    4    0    0  0.74385864850E+02  0.52783442750E+02  0.50051423165E+02  0.10404082698E+03  0.00000000000E+00 0.  1.
</event>
<event>
 8    1  0.6684013E-009  0.1229761E+03  0.7561462E-02  0.1238267E+00
          1   -1    0    0  501    0  0.00000000000E+00  0.00000000000E+00  0.20217814991E+04  0.20217814991E+04  0.00000000000E+00 0. -1.
         -1   -1    0    0    0  501 -0.00000000000E+00 -0.00000000000E+00 -0.13793165904E+02  0.13793165904E+02  0.00000000000E+00 0.  1.
         25    2    1    2    0    0 -0.47157698369E+02  0.51527393363E+02  0.17183094131E+04  0.17242748581E+04  0.12513043698E+03 0.  0.
         23    2    1    2    0    0  0.47157698369E+02 -0.51527393363E+02  0.28967892004E+03  0.31129980687E+03  0.90082030738E+02 0.  0.
          5    1    3    3  502    0  0.31270218176E+02  0.56349569909E+02  0.75466876776E+03  0.75742690869E+03  0.41800000000E+01 0.  1.
         -5    1    3    3    0  502 -0.78427916545E+02 -0.48221765461E+01  0.96364064537E+03  0.96684794941E+03  0.41800000000E+01 0.  1.
        -11    1    4    4    0    0  0.67847579201E+02 -0.35925544994E+02  0.14257302662E+03  0.16192901749E+03  0.00000000000E+00 0.  1.
         11    1    4    4    0    0 -0.20689880832E+02 -0.15601848369E+02  0.14710589342E+03  0.14937078938E+03  0.00000000000E+00 0. -1.
</event>
<event>
 8    1  0.6684013E-009  0.1155555E+03  0.7561462E-02  0.1250615E+00
         -1   -1    0    0    0  501 -0.00000000000E+00  0.00000000000E+00  0.21118002247E+03  0.21118002247E+03  0.00000000000E+00 0.  1.
          1   -1    0    0  501    0  0.00000000000E+00 -0.00000000000E+00 -0.99413054694E+02  0.99413054694E+02  0.00000000000E+00 0. -1.
         25    2    1    2    0    0 -0.79481080929E+02  0.15786140285E+02  0.11547266372E+01  0.14904945174E+03  0.12509181117E+03 0.  0.
         23    2    1    2    0    0  0.79481080929E+02 -0.15786140285E+02  0.11061224114E+03  0.16154362542E+03  0.85409780314E+02 0.  0.
          5    1    3    3  502    0  0.16823985478E+02  0.45043537252E+02  0.20450958904E+01  0.48307572417E+02  0.41800000000E+01 0.  1.
         -5    1    3    3    0  502 -0.96305066407E+02 -0.29257396968E+02 -0.89036925323E+00  0.10074187933E+03  0.41800000000E+01 0.  1.
        -11    1    4    4    0    0  0.34148493425E+02 -0.12977675570E+00  0.10826863906E+03  0.11352636103E+03  0.00000000000E+00 0.  1.
         11    1    4    4    0    0  0.45332587504E+02 -0.15656363529E+02  0.23436020809E+01  0.48017264390E+02  0.00000000000E+00 0. -1.
</event>
<event>
 8    1  0.6684013E-009  0.2043548E+03  0.7561462E-02  0.1146116E+00
          1   -1    0    0  501    0  0.00000000000E+00  0.00000000000E+00  0.28555868010E+03  0.28555868010E+03  0.00000000000E+00 0. -1.
         -1   -1    0    0    0  501 -0.00000000000E+00 -0.00000000000E+00 -0.15543026704E+03  0.15543026704E+03  0.00000000000E+00 0.  1.
         25    2    1    2    0    0 -0.11070284478E+03  0.13350873362E+03  0.26392065719E+02  0.21546192676E+03  0.12509036316E+03 0.  0.
         23    2    1    2    0    0  0.11070284478E+03 -0.13350873362E+03  0.10373634734E+03  0.22552702038E+03  0.10010746910E+03 0.  0.
          5    1    3    3  502    0 -0.13655689396E+03  0.12770071478E+03  0.23483086612E+02  0.18847860781E+03  0.41800000000E+01 0. -1.
         -5    1    3    3    0  502  0.25854049188E+02  0.58080188451E+01  0.29089791066E+01  0.26983318954E+02  0.41800000000E+01 0. -1.
        -11    1    4    4    0    0  0.11714583554E+03 -0.14208285526E+03  0.82600020918E+02  0.20182529078E+03  0.00000000000E+00 0.  1.
         11    1    4    4    0    0 -0.64429907620E+01  0.85741216336E+01  0.21136326423E+02  0.23701729608E+02  0.00000000000E+00 0. -1.
</event>
<event>
 8    1  0.6684013E-009  0.8960135E+02  0.7561462E-02  0.1303820E+00
          1   -1    0    0  501    0  0.00000000000E+00  0.00000000000E+00  0.20564035770E+03  0.20564035770E+03  0.00000000000E+00 0. -1.
         -1   -1    0    0    0  501 -0.00000000000E+00 -0.00000000000E+00 -0.20468555612E+03  0.20468555612E+03  0.00000000000E+00 0.  1.
         25    2    1    2    0    0 -0.42232696487E+02 -0.23230792298E+02  0.16733087755E+03  0.21440833253E+03  0.12509212649E+03 0.  0.
         23    2    1    2    0    0  0.42232696487E+02  0.23230792298E+02 -0.16637607597E+03  0.19591758129E+03  0.91539224612E+02 0.  0.
          5    1    3    3  502    0 -0.34970458683E+02  0.36185328711E+02  0.18228312551E+02  0.53684772262E+02  0.41800000000E+01 0. -1.
         -5    1    3    3    0  502 -0.72622378034E+01 -0.59416121009E+02  0.14910256500E+03  0.16072356026E+03  0.41800000000E+01 0. -1.
        -11    1    4    4    0    0  0.23739796380E+02  0.38156280414E+02 -0.16618330369E+03  0.17215217132E+03  0.00000000000E+00 0.  1.
         11    1    4    4    0    0  0.18492900107E+02 -0.14925488116E+02 -0.19277227936E+00  0.23765409970E+02  0.00000000000E+00 0. -1.
</event>
<event>
 8    1  0.6684013E-009  0.1086793E+03  0.7561462E-02  0.1263035E+00
          2   -1    0    0  501    0  0.00000000000E+00  0.00000000000E+00  0.10006528773E+04  0.10006528773E+04  0.00000000000E+00 0. -1.
         -2   -1    0    0    0  501 -0.00000000000E+00 -0.00000000000E+00 -0.21300561053E+02  0.21300561053E+02  0.00000000000E+00 0.  1.
         25    2    1    2    0    0  0.95513007426E+02  0.87917826196E+01  0.47243420962E+03  0.49803818349E+03  0.12509164547E+03 0.  0.
         23    2    1    2    0    0 -0.95513007426E+02 -0.87917826196E+01  0.50691810663E+03  0.52391525486E+03  0.91220597565E+02 0.  0.
          5    1    3    3  502    0  0.73192029272E+02 -0.84545929214E+01  0.98805840870E+02  0.12332323334E+03  0.41800000000E+01 0.  1.
         -5    1    3    3    0  502  0.22320978154E+02  0.17246375541E+02  0.37362836875E+03  0.37471495015E+03  0.41800000000E+01 0.  1.
        -11    1    4    4    0    0 -0.73274132370E+02 -0.34553840360E+02  0.45276609568E+03  0.45995674118E+03  0.00000000000E+00 0. -1.
         11    1    4    4    0    0 -0.22238875056E+02  0.25762057740E+02  0.54152010944E+02  0.63958513679E+02  0.00000000000E+00 0.  1.
</event>
<event>
 8    1  0.6684013E-009  0.9995933E+02  0.7561462E-02  0.1280381E+00
         -1   -1    0    0    0  501 -0.00000000000E+00  0.00000000000E+00  0.14203233897E+03  0.14203233897E+03  0.00000000000E+00 0.  1.
          1   -1    0    0  501    0  0.00000000000E+00 -0.00000000000E+00 -0.11966884269E+03  0.11966884269E+03  0.00000000000E+00 0. -1.
         25    2    1    2    0    0  0.32493059396E+02 -0.46808663350E+02  0.57413530908E+02  0.14896336700E+03  0.12508765448E+03 0.  0.
         23    2    1    2    0    0 -0.32493059396E+02  0.46808663350E+02 -0.35050034631E+02  0.11273781466E+03  0.90743925706E+02 0.  0.
          5    1    3    3  502    0  0.71494003403E+01  0.39764744589E+02 -0.23318018686E+01  0.40684868654E+02  0.41800000000E+01 0. -1.
         -5    1    3    3    0  502  0.25343659056E+02 -0.86573407939E+02  0.59745332777E+02  0.10827849835E+03  0.41800000000E+01 0. -1.
        -11    1    4    4    0    0 -0.35421292334E+02  0.17438293761E+02 -0.61514807827E+02  0.73094689424E+02  0.00000000000E+00 0. -1.
         11    1    4    4    0    0  0.29282329380E+01  0.29370369589E+02  0.26464773196E+02  0.39643125234E+02  0.00000000000E+00 0.  1.
</event>
<event>
 8    1  0.6684013E-009  0.8712346E+02  0.7561462E-02  0.1309971E+00
          1   -1    0    0  501    0  0.00000000000E+00  0.00000000000E+00  0.15323122878E+03  0.15323122878E+03  0.00000000000E+00 0. -1.
         -1   -1    0    0    0  501 -0.00000000000E+00 -0.00000000000E+00 -0.13925038174E+03  0.13925038174E+03  0.00000000000E+00 0.  1.
         25    2    1    2    0    0  0.61765426269E+02 -0.24782777367E+00 -0.67405059197E+02  0.15495093266E+03  0.12510523660E+03 0.  0.
         23    2    1    2    0    0 -0.61765426269E+02  0.24782777367E+00  0.81385906241E+02  0.13753067786E+03  0.92065152572E+02 0.  0.
          5    1    3    3  502    0  0.50645862928E+02  0.10400654794E+02  0.27502791817E+02  0.58711608815E+02  0.41800000000E+01 0. -1.
         -5    1    3    3    0  502  0.11119563341E+02 -0.10648482567E+02 -0.94907851014E+02  0.96239323844E+02  0.41800000000E+01 0. -1.
        -11    1    4    4    0    0  0.12018944050E+02  0.25699743015E+02  0.40417197443E+02  0.49380984764E+02  0.00000000000E+00 0. -1.
         11    1    4    4    0    0 -0.73784370319E+02 -0.25451915242E+02  0.40968708799E+02  0.88149693099E+02  0.00000000000E+00 0.  1.
</event>
<event>
 8    1  0.6684013E-009  0.1061974E+03  0.7561462E-02  0.1267778E+00
         -1   -1    0    0    0  501 -0.00000000000E+00  0.00000000000E+00  0.10387228156E+03  0.10387228156E+03  0.00000000000E+00 0.  1.
          1   -1    0    0  501    0  0.00000000000E+00 -0.00000000000E+00 -0.16819935705E+03  0.16819935705E+03  0.00000000000E+00 0. -1.
         25    2    1    2    0    0  0.26815350958E+02  0.12868923012E+02  0.36716000275E+02  0.13372198759E+03  0.12509529593E+03 0.  0.
         23    2    1    2    0    0 -0.26815350958E+02 -0.12868923012E+02 -0.10104307577E+03  0.13834965102E+03  0.89700894920E+02 0.  0.
          5    1    3    3  502    0 -0.19276101801E+02  0.58438294295E+02  0.62844330678E+01  0.61996522803E+02  0.41800000000E+01 0. -1.
         -5    1    3    3    0  502  0.46091452759E+02 -0.45569371283E+02  0.30431567208E+02  0.71725464789E+02  0.41800000000E+01 0. -1.
        -11    1    4    4    0    0  0.10486931172E+02 -0.38894866108E+02 -0.18994913474E+02  0.44537546777E+02  0.00000000000E+00 0.  1.
         11    1    4    4    0    0 -0.37302282130E+02  0.26025943097E+02 -0.82048162296E+02  0.93812104242E+02  0.00000000000E+00 0. -1.
</event>
<event>
 8    1  0.6684013E-009  0.9824298E+02  0.7561462E-02  0.1284035E+00
         -1   -1    0    0    0  501 -0.00000000000E+00  0.00000000000E+00  0.13787382463E+03  0.13787382463E+03  0.00000000000E+00 0.  1.
          1   -1    0    0  501    0  0.00000000000E+00 -0.00000000000E+00 -0.15689320549E+03  0.15689320549E+03  0.00000000000E+00 0. -1.
         25    2    1    2    0    0 -0.37785539698E+02 -0.64937127865E+01 -0.10345202989E+03  0.16679509243E+03  0.12509342530E+03 0.  0.
         23    2    1    2    0    0  0.37785539698E+02  0.64937127865E+01  0.84432649036E+02  0.12797193769E+03  0.88193136332E+02 0.  0.
          5    1    3    3  502    0 -0.27680274825E+02  0.47295361735E+02 -0.64453597523E+01  0.55335918881E+02  0.41800000000E+01 0. -1.
         -5    1    3    3    0  502 -0.10105264873E+02 -0.53789074521E+02 -0.97006670141E+02  0.11145917355E+03  0.41800000000E+01 0. -1.
        -11    1    4    4    0    0  0.51883597780E+02 -0.20815736484E+02  0.25368729463E+02  0.61390349718E+02  0.00000000000E+00 0. -1.
         11    1    4    4    0    0 -0.14098058082E+02  0.27309449270E+02  0.59063919573E+02  0.66581587969E+02  0.00000000000E+00 0.  1.
</event>
<event>
 8    1  0.6684013E-009  0.1949669E+03  0.7561462E-02  0.1154056E+00
         -3   -1    0    0    0  501 -0.00000000000E+00  0.00000000000E+00  0.21186719429E+03  0.21186719429E+03  0.00000000000E+00 0.  1.
          3   -1    0    0  501    0  0.00000000000E+00 -0.00000000000E+00 -0.21340737606E+03  0.21340737606E+03  0.00000000000E+00 0. -1.
         25    2    1    2    0    0 -0.16215181322E+03  0.80904275903E+02  0.94341644635E+01  0.22039852914E+03  0.12509114996E+03 0.  0.
         23    2    1    2    0    0  0.16215181322E+03 -0.80904275903E+02 -0.10974346236E+02  0.20487604121E+03  0.94947583416E+02 0.  0.
          5    1    3    3  502    0 -0.17218409090E+03  0.61150996737E+02  0.35236224091E+02  0.18613400938E+03  0.41800000000E+01 0.  1.
         -5    1    3    3    0  502  0.10032277679E+02  0.19753279166E+02 -0.25802059627E+02  0.34264519758E+02  0.41800000000E+01 0.  1.
        -11    1    4    4    0    0  0.95015801454E+02 -0.27739093257E+02  0.38231169834E+02  0.10610882229E+03  0.00000000000E+00 0.  1.
         11    1    4    4    0    0  0.67136011765E+02 -0.53165182646E+02 -0.49205516070E+02  0.98767218920E+02  0.00000000000E+00 0. -1.
</event>
<event>
 8    1  0.6684013E-009  0.9613083E+02  0.7561462E-02  0.1288649E+00
          2   -1    0    0  501    0  0.00000000000E+00  0.00000000000E+00  0.31568072445E+03  0.31568072445E+03  0.00000000000E+00 0. -1.
         -2   -1    0    0    0  501 -0.00000000000E+00 -0.00000000000E+00 -0.43483885017E+02  0.43483885017E+02  0.00000000000E+00 0.  1.
         25    2    1    2    0    0 -0.10046292094E+02  0.17207618540E+02  0.92803093676E+02  0.15702504814E+03  0.12508965355E+03 0.  0.
         23    2    1    2    0    0  0.10046292094E+02 -0.17207618540E+02  0.17939374575E+03  0.20213956133E+03  0.91001407229E+02 0.  0.
          5    1    3    3  502    0 -0.50727259051E+02 -0.16549749088E+02  0.40987594878E+01  0.53678871403E+02  0.41800000000E+01 0. -1.
         -5    1    3    3    0  502  0.40680966957E+02  0.33757367628E+02  0.88704334188E+02  0.10334617673E+03  0.41800000000E+01 0. -1.
        -11    1    4    4    0    0 -0.28086873414E+01  0.33389217912E+02  0.34344837089E+02  0.47982251219E+02  0.00000000000E+00 0.  1.
         11    1    4    4    0    0  0.12854979436E+02 -0.50596836452E+02  0.14504890866E+03  0.15415731011E+03  0.00000000000E+00 0. -1.
</event>
<event>
 8    1  0.6684013E-009  0.6608411E+02  0.7561462E-02  0.1373939E+00
          2   -1    0    0  501    0  0.00000000000E+00  0.00000000000E+00  0.75040904637E+03  0.75040904637E+03  0.00000000000E+00 0. -1.
         -2   -1    0    0    0  501 -0.00000000000E+00 -0.00000000000E+00 -0.13415777577E+02  0.13415777577E+02  0.00000000000E+00 0.  1.
         25    2    1    2    0    0  0.35117528981E+02 -0.14679823376E+01  0.48922286769E+03  0.50618365035E+03  0.12508987888E+03 0.  0.
         23    2    1    2    0    0 -0.35117528981E+02  0.14679823376E+01  0.24777040111E+03  0.25764117360E+03  0.61265054112E+02 0.  0.
          5    1    3    3  502    0 -0.81968569041E+01  0.14809780149E+02  0.43254764878E+03  0.43289890150E+03  0.41800000000E+01 0.  1.
         -5    1    3    3    0  502  0.43314385885E+02 -0.16277762487E+02  0.56675218908E+02  0.73284748853E+02  0.41800000000E+01 0.  1.
        -11    1    4    4    0    0  0.14221308517E+02  0.11052605878E+02  0.39836654760E+02  0.43719157986E+02  0.00000000000E+00 0.  1.
         11    1    4    4    0    0 -0.49338837498E+02 -0.95846235399E+01  0.20793374635E+03  0.21392201561E+03  0.00000000000E+00 0. -1.
</event>
<event>
 8    1  0.6684013E-009  0.1101974E+03  0.7561462E-02  0.1260205E+00
         -1   -1    0    0    0  501 -0.00000000000E+00  0.00000000000E+00  0.30965930392E+03  0.30965930392E+03  0.00000000000E+00 0.  1.
          1   -1    0    0  501    0  0.00000000000E+00 -0.00000000000E+00 -0.82210443799E+02  0.82210443799E+02  0.00000000000E+00 0. -1.
         25    2    1    2    0    0 -0.56463495354E+02  0.27451229241E+02  0.24318088107E+03  0.28057526006E+03  0.12507533469E+03 0.  0.
         23    2    1    2    0    0  0.56463495354E+02 -0.27451229241E+02 -0.15732020941E+02  0.11129448766E+03  0.90538777362E+02 0.  0.
          5    1    3    3  502    0 -0.46688078827E+02  0.67729610262E+02  0.90759102459E+02  0.12256330564E+03  0.41800000000E+01 0.  1.
         -5    1    3    3    0  502 -0.97754165270E+01 -0.40278381021E+02  0.15242177861E+03  0.15801195442E+03  0.41800000000E+01 0.  1.
        -11    1    4    4    0    0 -0.16753717547E+02  0.30908499520E+01 -0.26223590914E+02  0.31271666497E+02  0.00000000000E+00 0. -1.
         11    1    4    4    0    0  0.73217212901E+02 -0.30542079193E+02  0.10491569973E+02  0.80022821163E+02  0.00000000000E+00 0.  1.
</event>
<event>
 8    1  0.6684013E-009  0.1023075E+03  0.7561462E-02  0.1275517E+00
         -2   -1    0    0    0  501 -0.00000000000E+00  0.00000000000E+00  0.59940713133E+02  0.59940713133E+02  0.00000000000E+00 0.  1.
          2   -1    0    0  501    0  0.00000000000E+00 -0.00000000000E+00 -0.29639343637E+03  0.29639343637E+03  0.00000000000E+00 0. -1.
         25    2    1    2    0    0  0.80188949539E+02 -0.18478225084E+02 -0.14077622568E+03  0.20551506221E+03  0.12508710024E+03 0.  0.
         23    2    1    2    0    0 -0.80188949539E+02  0.18478225084E+02 -0.95676497552E+02  0.15081908729E+03  0.82587483787E+02 0.  0.
          5    1    3    3  502    0 -0.18472425950E+02 -0.13536262351E+02  0.98982507714E+01  0.25296416490E+02  0.41800000000E+01 0.  1.
         -5    1    3    3    0  502  0.98661375489E+02 -0.49419627331E+01 -0.15067447646E+03  0.18021864572E+03  0.41800000000E+01 0.  1.
        -11    1    4    4    0    0 -0.29863926312E+02  0.42529791257E+01  0.10923274273E+02  0.32082079843E+02  0.00000000000E+00 0.  1.
         11    1    4    4    0    0 -0.50325023227E+02  0.14225245959E+02 -0.10659977183E+03  0.11873700745E+03  0.00000000000E+00 0. -1.
</event>
<event>
 8    1  0.6684013E-009  0.8986714E+02  0.7561462E-02  0.1303174E+00
          1   -1    0    0  501    0  0.00000000000E+00  0.00000000000E+00  0.50703624485E+03  0.50703624485E+03  0.00000000000E+00 0. -1.
         -1   -1    0    0    0  501 -0.00000000000E+00 -0.00000000000E+00 -0.35719177159E+02  0.35719177159E+02  0.00000000000E+00 0.  1.
         25    2    1    2    0    0 -0.55294385829E+02  0.24786182845E+01  0.35564181478E+03  0.38104219888E+03  0.12509374186E+03 0.  0.
         23    2    1    2    0    0  0.55294385829E+02 -0.24786182845E+01  0.11567525291E+03  0.16171322313E+03  0.98523041704E+02 0.  0.
          5    1    3    3  502    0 -0.57804384833E+02  0.26928470532E+02  0.34959516987E+03  0.35538816051E+03  0.41800000000E+01 0. -1.
         -5    1    3    3    0  502  0.25099990038E+01 -0.24449852248E+02  0.60466449048E+01  0.25654038367E+02  0.41800000000E+01 0. -1.
        -11    1    4    4    0    0 -0.14801765118E+02  0.12317373381E+02 -0.62952829718E+01  0.20259331808E+02  0.00000000000E+00 0.  1.
         11    1    4    4    0    0  0.70096150947E+02 -0.14795991666E+02  0.12197053588E+03  0.14145389132E+03  0.00000000000E+00 0. -1.
</event>
<event>
 8    1  0.6684013E-009  0.1084068E+03  0.7561462E-02  0.1263549E+00
          1   -1    0    0  501    0  0.00000000000E+00  0.00000000000E+00  0.53352981756E+02  0.53352981756E+02  0.00000000000E+00 0. -1.
         -1   -1    0    0    0  501 -0.00000000000E+00 -0.00000000000E+00 -0.25797154227E+03  0.25797154227E+03  0.00000000000E+00 0.  1.
         25    2    1    2    0    0 -0.35389876999E+02  0.22473790785E+02 -0.97574941074E+02  0.16408394206E+03  0.12508059901E+03 0.  0.
         23    2    1    2    0    0  0.35389876999E+02 -0.22473790785E+02 -0.10704361944E+03  0.14724058197E+03  0.91999662226E+02 0.  0.
          5    1    3    3  502    0 -0.21451848302E+02  0.66449829074E+02 -0.94618680136E+02  0.11766872401E+03  0.41800000000E+01 0.  1.
         -5    1    3    3    0  502 -0.13938028696E+02 -0.43976038289E+02 -0.29562609379E+01  0.46415218046E+02  0.41800000000E+01 0.  1.
        -11    1    4    4    0    0 -0.25130160387E+02 -0.30468602093E+02 -0.49738519059E+02  0.63512053602E+02  0.00000000000E+00 0.  1.
         11    1    4    4    0    0  0.60520037386E+02  0.79948113077E+01 -0.57305100384E+02  0.83728528370E+02  0.00000000000E+00 0. -1.
</event>
<event>
 8    1  0.6684013E-009  0.2347755E+03  0.7561462E-02  0.1123323E+00
         -2   -1    0    0    0  501 -0.00000000000E+00  0.00000000000E+00  0.24821328949E+03  0.24821328949E+03  0.00000000000E+00 0. -1.
          2   -1    0    0  501    0  0.00000000000E+00 -0.00000000000E+00 -0.25355545755E+03  0.25355545755E+03  0.00000000000E+00 0.  1.
         25    2    1    2    0    0  0.19697769057E+03 -0.10284043190E+03 -0.41916187959E+02  0.25842227553E+03  0.12509492661E+03 0.  0.
         23    2    1    2    0    0 -0.19697769057E+03  0.10284043190E+03  0.36574019897E+02  0.24334647150E+03  0.92214322336E+02 0.  0.
          5    1    3    3  502    0  0.16930482188E+03 -0.38572014748E+02 -0.63718895388E+02  0.18501214302E+03  0.41800000000E+01 0. -1.
         -5    1    3    3    0  502  0.27672868687E+02 -0.64268417153E+02  0.21802707429E+02  0.73410132515E+02  0.41800000000E+01 0. -1.
        -11    1    4    4    0    0 -0.11260414525E+03  0.80681320614E+02 -0.19135755267E+02  0.13984043104E+03  0.00000000000E+00 0.  1.
         11    1    4    4    0    0 -0.84373545318E+02  0.22159111287E+02  0.55709775165E+02  0.10350604046E+03  0.00000000000E+00 0. -1.
</event>
<event>
 8    1  0.6684013E-009  0.1343665E+03  0.7561462E-02  0.1221117E+00
         -1   -1    0    0    0  501 -0.00000000000E+00  0.00000000000E+00  0.23550288218E+03  0.23550288218E+03  0.00000000000E+00 0.  1.
          1   -1    0    0  501    0  0.00000000000E+00 -0.00000000000E+00 -0.89716652734E+02  0.89716652734E+02  0.00000000000E+00 0. -1.
         25    2    1    2    0    0  0.73811905393E+02 -0.60207983166E+02  0.82353311901E+02  0.17749071965E+03  0.12509072294E+03 0.  0.
         23    2    1    2    0    0 -0.73811905393E+02  0.60207983166E+02  0.63432917542E+02  0.14772881526E+03  0.93417713613E+02 0.  0.
          5    1    3    3  502    0  0.69361865516E+02  0.67277774474E+01 -0.17431419795E+01  0.69834392108E+02  0.41800000000E+01 0.  1.
         -5    1    3    3    0  502  0.44500398775E+01 -0.66935760613E+02  0.84096453880E+02  0.10765632754E+03  0.41800000000E+01 0.  1.
        -11    1    4    4    0    0 -0.90257900748E+02  0.26284980497E+02  0.55618034097E+02  0.10922799350E+03  0.00000000000E+00 0.  1.
         11    1    4    4    0    0  0.16445995355E+02  0.33923002668E+02  0.78148834455E+01  0.38500821764E+02  0.00000000000E+00 0. -1.
</event>
<event>
 8    1  0.6684013E-009  0.1185506E+03  0.7561462E-02  0.1245508E+00
          1   -1    0    0  501    0  0.00000000000E+00  0.00000000000E+00  0.66163482919E+03  0.66163482919E+03  0.00000000000E+00 0. -1.
         -1   -1    0    0    0  501 -0.00000000000E+00 -0.00000000000E+00 -0.25386602511E+02  0.25386602511E+02  0.00000000000E+00 0.  1.
         25    2    1    2    0    0  0.42953547454E+02  0.23878634341E+02  0.48608637565E+03  0.50432400180E+03  0.12509011865E+03 0.  0.
         23    2    1    2    0    0 -0.42953547454E+02 -0.23878634341E+02  0.15016185103E+03  0.18269742990E+03  0.91730981520E+02 0.  0.
          5    1    3    3  502    0 -0.23411360325E+02  0.55106380105E+02  0.24811873541E+03  0.25527472296E+03  0.41800000000E+01 0.  1.
         -5    1    3    3    0  502  0.66364907779E+02 -0.31227745765E+02  0.23796764024E+03  0.24904927884E+03  0.41800000000E+01 0.  1.
        -11    1    4    4    0    0 -0.66654064018E+02 -0.37300377971E+02  0.10292139314E+03  0.12816745146E+03  0.00000000000E+00 0.  1.
         11    1    4    4    0    0  0.23700516564E+02  0.13421743631E+02  0.47240457888E+02  0.54529978442E+02  0.00000000000E+00 0. -1.
</event>
<event>
 8    1  0.6684013E-009  0.8451649E+02  0.7561462E-02  0.1316702E+00
         -1   -1    0    0    0  501 -0.00000000000E+00  0.00000000000E+00  0.10767384422E+03  0.10767384422E+03  0.00000000000E+00 0.  1.
          1   -1    0    0  501    0  0.00000000000E+00 -0.00000000000E+00 -0.26796817811E+03  0.26796817811E+03  0.00000000000E+00 0. -1.
         25    2    1    2    0    0  0.32195381437E+02 -0.51093725150E+02  0.42416828629E+02  0.14523780362E+03  0.12509085064E+03 0.  0.
         23    2    1    2    0    0 -0.32195381437E+02  0.51093725150E+02 -0.20271116253E+03  0.23040421871E+03  0.91362887710E+02 0.  0.
          5    1    3    3  502    0  0.23663177710E+02 -0.63947159020E+02 -0.27408593393E+02  0.73606307595E+02  0.41800000000E+01 0. -1.
         -5    1    3    3    0  502  0.85322037269E+01  0.12853433870E+02  0.69825422022E+02  0.71631496028E+02  0.41800000000E+01 0. -1.
        -11    1    4    4    0    0  0.17648450239E+02  0.11303658037E+02 -0.35198846415E+01  0.21251589793E+02  0.00000000000E+00 0.  1.
         11    1    4    4    0    0 -0.49843831676E+02  0.39790067113E+02 -0.19919127788E+03  0.20915262892E+03  0.00000000000E+00 0. -1.
</event>
<event>
 8    1  0.6684013E-009  0.2460790E+03  0.7561462E-02  0.1115808E+00
         -2   -1    0    0    0  501 -0.00000000000E+00  0.00000000000E+00  0.33587956651E+03  0.33587956651E+03  0.00000000000E+00 0.  1.
          2   -1    0    0  501    0  0.00000000000E+00 -0.00000000000E+00 -0.27055104519E+03  0.27055104519E+03  0.00000000000E+00 0. -1.
         25    2    1    2    0    0  0.20965699948E+03 -0.10033435982E+03 -0.12557052359E+03  0.29229847817E+03  0.12508957891E+03 0.  0.
         23    2    1    2    0    0 -0.20965699948E+03  0.10033435982E+03  0.19089904491E+03  0.31413213354E+03  0.90628421471E+02 0.  0.
          5    1    3    3  502    0  0.17691770959E+03 -0.11917727174E+03 -0.13584167594E+03  0.25292989421E+03  0.41800000000E+01 0. -1.
         -5    1    3    3    0  502  0.32739289898E+02  0.18842911914E+02  0.10271152350E+02  0.39368583960E+02  0.41800000000E+01 0. -1.
        -11    1    4    4    0    0 -0.10697790688E+03  0.85717504794E+02  0.14846355915E+03  0.20207224348E+03  0.00000000000E+00 0.  1.
         11    1    4    4    0    0 -0.10267909260E+03  0.14616855028E+02  0.42435485767E+02  0.11205989006E+03  0.00000000000E+00 0. -1.
</event>
<event>
 8    1  0.6684013E-009  0.1622635E+03  0.7561462E-02  0.1186165E+00
         -2   -1    0    0    0  501 -0.00000000000E+00  0.00000000000E+00  0.19095867075E+03  0.19095867075E+03  0.00000000000E+00 0.  1.
          2   -1    0    0  501    0  0.00000000000E+00 -0.00000000000E+00 -0.19994095787E+03  0.19994095787E+03  0.00000000000E+00 0. -1.
         25    2    1    2    0    0  0.96664046308E+02 -0.94787496164E+02  0.86109154036E+02  0.20344792417E+03  0.12509062379E+03 0.  0.
         23    2    1    2    0    0 -0.96664046308E+02  0.94787496164E+02 -0.95091441155E+02  0.18745170445E+03  0.88131447517E+02 0.  0.
          5    1    3    3  502    0  0.27991584071E+02  0.18437479217E+02  0.59342579591E+02  0.68282381118E+02  0.41800000000E+01 0.  1.
         -5    1    3    3    0  502  0.68672462238E+02 -0.11322497538E+03  0.26766574445E+02  0.13516554305E+03  0.41800000000E+01 0.  1.
        -11    1    4    4    0    0 -0.11164752907E+03  0.85582460388E+02 -0.95210201135E+02  0.16986615517E+03  0.00000000000E+00 0.  1.
         11    1    4    4    0    0  0.14983482761E+02  0.92050357756E+01  0.11875998019E+00  0.17585549273E+02  0.00000000000E+00 0. -1.
</event>
<event>
 8    1  0.6684013E-009  0.1224749E+03  0.7561462E-02  0.1239069E+00
         -2   -1    0    0    0  501 -0.00000000000E+00  0.00000000000E+00  0.26294646268E+02  0.26294646268E+02  0.00000000000E+00 0.  1.
          2   -1    0    0  501    0  0.00000000000E+00 -0.00000000000E+00 -0.64421242359E+03  0.64421242359E+03  0.00000000000E+00 0. -1.
         25    2    1    2    0    0  0.51929209811E+02  0.49963154166E+02 -0.31183946280E+03  0.34363343946E+03  0.12508849088E+03 0.  0.
         23    2    1    2    0    0 -0.51929209811E+02 -0.49963154166E+02 -0.30607831453E+03  0.32687363040E+03  0.89271921807E+02 0.  0.
          5    1    3    3  502    0 -0.37519317642E+02  0.11967935354E+02 -0.14691901373E+03  0.15216306933E+03  0.41800000000E+01 0. -1.
         -5    1    3    3    0  502  0.89448527453E+02  0.37995218811E+02 -0.16492044907E+03  0.19147037013E+03  0.41800000000E+01 0. -1.
        -11    1    4    4    0    0  0.21605314906E+02 -0.16985075039E+02 -0.37683536724E+02  0.46640447535E+02  0.00000000000E+00 0.  1.
         11    1    4    4    0    0 -0.73534524716E+02 -0.32978079127E+02 -0.26839477780E+03  0.28023318287E+03  0.00000000000E+00 0. -1.
</event>
<event>
 8    1  0.6684013E-009  0.8748847E+02  0.7561462E-02  0.1309050E+00
          1   -1    0    0  501    0  0.00000000000E+00  0.00000000000E+00  0.10850283111E+04  0.10850283111E+04  0.00000000000E+00 0. -1.
         -1   -1    0    0    0  501 -0.00000000000E+00 -0.00000000000E+00 -0.14547115748E+02  0.14547115748E+02  0.00000000000E+00 0.  1.
         25    2    1    2    0    0  0.49608395610E+02  0.37220562784E+02  0.63989636511E+03  0.65495119086E+03  0.12508933258E+03 0.  0.
         23    2    1    2    0    0 -0.49608395610E+02 -0.37220562784E+02  0.43058483028E+03  0.44462423602E+03  0.91875197853E+02 0.  0.
          5    1    3    3  502    0  0.25816159846E+02 -0.35594336131E+01  0.19671381085E+02  0.32917765881E+02  0.41800000000E+01 0.  1.
         -5    1    3    3    0  502  0.23792235764E+02  0.40779996397E+02  0.62022498402E+03  0.62203342498E+03  0.41800000000E+01 0.  1.
        -11    1    4    4    0    0 -0.43204534868E+02  0.17117219187E+02  0.11015124022E+03  0.11955302902E+03  0.00000000000E+00 0.  1.
         11    1    4    4    0    0 -0.64038607414E+01 -0.54337781971E+02  0.32043359006E+03  0.32507120700E+03  0.00000000000E+00 0. -1.
</event>
<event>
 8    1  0.6684013E-009  0.7363636E+02  0.7561462E-02  0.1348147E+00
         -1   -1    0    0    0  501 -0.00000000000E+00  0.00000000000E+00  0.47268117946E+02  0.47268117946E+02  0.00000000000E+00 0.  1.
          1   -1    0    0  501    0  0.00000000000E+00 -0.00000000000E+00 -0.36166268495E+03  0.36166268495E+03  0.00000000000E+00 0. -1.
         25    2    1    2    0    0  0.59427333567E+01  0.25576896687E+02 -0.68888452496E+02  0.14519412356E+03  0.12508485482E+03 0.  0.
         23    2    1    2    0    0 -0.59427333567E+01 -0.25576896687E+02 -0.24550611451E+03  0.26373667933E+03  0.92705393810E+02 0.  0.
          5    1    3    3  502    0 -0.26455254779E+02  0.23312852805E+02  0.26522691107E+02  0.44320369525E+02  0.41800000000E+01 0.  1.
         -5    1    3    3    0  502  0.32397988136E+02  0.22640438820E+01 -0.95411143602E+02  0.10087375404E+03  0.41800000000E+01 0.  1.
        -11    1    4    4    0    0  0.23610603120E+02 -0.39757723963E+02 -0.62100820987E+02  0.77425119707E+02  0.00000000000E+00 0.  1.
         11    1    4    4    0    0 -0.29553336476E+02  0.14180827276E+02 -0.18340529352E+03  0.18631155963E+03  0.00000000000E+00 0. -1.
</event>
<event>
 8    1  0.6684013E-009  0.1476411E+03  0.7561462E-02  0.1203402E+00
          1   -1    0    0  501    0  0.00000000000E+00  0.00000000000E+00  0.41459792980E+02  0.41459792980E+02  0.00000000000E+00 0. -1.
         -1   -1    0    0    0  501 -0.00000000000E+00 -0.00000000000E+00 -0.67355164989E+03  0.67355164989E+03  0.00000000000E+00 0.  1.
         25    2    1    2    0    0 -0.11867754774E+03  0.43342250813E+02 -0.35172237955E+03  0.39410712406E+03  0.12509549119E+03 0.  0.
         23    2    1    2    0    0  0.11867754774E+03 -0.43342250813E+02 -0.28036947736E+03  0.32090431881E+03  0.91704018181E+02 0.  0.
          5    1    3    3  502    0 -0.19822621430E+02 -0.33220719515E+02 -0.16373887914E+03  0.16829867934E+03  0.41800000000E+01 0. -1.
         -5    1    3    3    0  502 -0.98854926314E+02  0.76562970327E+02 -0.18798350041E+03  0.22580844472E+03  0.41800000000E+01 0. -1.
        -11    1    4    4    0    0  0.47191175160E+02 -0.36094401498E+02 -0.44211079367E+02  0.74056953565E+02  0.00000000000E+00 0. -1.
         11    1    4    4    0    0  0.71486372584E+02 -0.72478493148E+01 -0.23615839799E+03  0.24684736524E+03  0.00000000000E+00 0.  1.
</event>
<event>
 8    1  0.6684013E-009  0.1056191E+03  0.7561462E-02  0.1268905E+00
         -2   -1    0    0    0  501 -0.00000000000E+00  0.00000000000E+00  0.97282679234E+02  0.97282679234E+02  0.00000000000E+00 0. -1.
          2   -1    0    0  501    0  0.00000000000E+00 -0.00000000000E+00 -0.16671995228E+03  0.16671995228E+03  0.00000000000E+00 0.  1.
         25    2    1    2    0    0  0.61554745333E+02 -0.73567839289E+01  0.25158468170E+01  0.13963010716E+03  0.12508848227E+03 0.  0.
         23    2    1    2    0    0 -0.61554745333E+02  0.73567839289E+01 -0.71953119858E+02  0.12437252435E+03  0.80300463342E+02 0.  0.
          5    1    3    3  502    0  0.27281335486E+02  0.45792471734E+02 -0.36927221041E+02  0.64979333539E+02  0.41800000000E+01 0.  1.
         -5    1    3    3    0  502  0.34273409847E+02 -0.53149255663E+02  0.39443067858E+02  0.74650773620E+02  0.41800000000E+01 0.  1.
        -11    1    4    4    0    0  0.12046707432E+00 -0.24824992956E+02 -0.41661339141E+02  0.48497030493E+02  0.00000000000E+00 0.  1.
         11    1    4    4    0    0 -0.61675212408E+02  0.32181776885E+02 -0.30291780717E+02  0.75875493857E+02  0.00000000000E+00 0. -1.
</event>
<event>
 8    1  0.6684013E-009  0.7562106E+02  0.7561462E-02  0.1341959E+00
         -2   -1    0    0    0  501 -0.00000000000E+00  0.00000000000E+00  0.14387514547E+02  0.14387514547E+02  0.00000000000E+00 0.  1.
          2   -1    0    0  501    0  0.00000000000E+00 -0.00000000000E+00 -0.11960244798E+04  0.11960244798E+04  0.00000000000E+00 0. -1.
         25    2    1    2    0    0 -0.29512839286E+02  0.46943098021E+02 -0.87819484878E+03  0.88878998208E+03  0.12508708042E+03 0.  0.
         23    2    1    2    0    0  0.29512839286E+02 -0.46943098021E+02 -0.30344211651E+03  0.32162201230E+03  0.91043608190E+02 0.  0.
          5    1    3    3  502    0 -0.16145175713E+02  0.30898341955E+02 -0.54572136984E+02  0.64891946876E+02  0.41800000000E+01 0.  1.
         -5    1    3    3    0  502 -0.13367663573E+02  0.16044756066E+02 -0.82362271179E+03  0.82389803520E+03  0.41800000000E+01 0.  1.
        -11    1    4    4    0    0  0.55127314961E+02 -0.22876638084E+02 -0.25426506974E+03  0.26117635251E+03  0.00000000000E+00 0. -1.
         11    1    4    4    0    0 -0.25614475675E+02 -0.24066459937E+02 -0.49177046770E+02  0.60445659787E+02  0.00000000000E+00 0.  1.
</event>
<event>
 8    1  0.6684013E-009  0.1536355E+03  0.7561462E-02  0.1196076E+00
         -2   -1    0    0    0  501 -0.00000000000E+00  0.00000000000E+00  0.28485442707E+02  0.28485442707E+02  0.00000000000E+00 0.  1.
          2   -1    0    0  501    0  0.00000000000E+00 -0.00000000000E+00 -0.93550657681E+03  0.93550657681E+03  0.00000000000E+00 0. -1.
         25    2    1    2    0    0 -0.85182252663E+02 -0.84745281933E+02 -0.55853353045E+03  0.58484601474E+03  0.12508947737E+03 0.  0.
         23    2    1    2    0    0  0.85182252663E+02  0.84745281933E+02 -0.34848760365E+03  0.37914600477E+03  0.88714734149E+02 0.  0.
          5    1    3    3  502    0 -0.30036103616E+02  0.29037055741E+02 -0.20765736284E+03  0.21185931858E+03  0.41800000000E+01 0. -1.
         -5    1    3    3    0  502 -0.55146149047E+02 -0.11378233767E+03 -0.35087616760E+03  0.37298669616E+03  0.41800000000E+01 0. -1.
        -11    1    4    4    0    0  0.42390429097E+02 -0.15858304569E+01 -0.50418927854E+02  0.65890299917E+02  0.00000000000E+00 0.  1.
         11    1    4    4    0    0  0.42791823566E+02  0.86331112390E+02 -0.29806867580E+03  0.31325570485E+03  0.00000000000E+00 0. -1.
</event>
<event>
 8    1  0.6684013E-009  0.6792376E+02  0.7561462E-02  0.1367299E+00
         -2   -1    0    0    0  501 -0.00000000000E+00  0.00000000000E+00  0.20265611092E+02  0.20265611092E+02  0.00000000000E+00 0.  1.
          2   -1    0    0  501    0  0.00000000000E+00 -0.00000000000E+00 -0.66801934988E+03  0.66801934988E+03  0.00000000000E+00 0. -1.
         25    2    1    2    0    0  0.34801052577E+02 -0.20896895110E+02 -0.39180353088E+03  0.41328619703E+03  0.12509068854E+03 0.  0.
         23    2    1    2    0    0 -0.34801052577E+02  0.20896895110E+02 -0.25595020791E+03  0.27499876394E+03  0.92010965413E+02 0.  0.
          5    1    3    3  502    0  0.13935530205E+02  0.68978277472E+01 -0.37338270099E+03  0.37372970557E+03  0.41800000000E+01 0. -1.
         -5    1    3    3    0  502  0.20865522372E+02 -0.27794722857E+02 -0.18420829893E+02  0.39556491458E+02  0.41800000000E+01 0. -1.
        -11    1    4    4    0    0 -0.36440941897E+02  0.46504067509E+02 -0.23364686226E+03  0.24100088544E+03  0.00000000000E+00 0. -1.
         11    1    4    4    0    0  0.16398893204E+01 -0.25607172399E+02 -0.22303345647E+02  0.33997878497E+02  0.00000000000E+00 0.  1.
</event>
<event>
 8    1  0.6684013E-009  0.8767174E+02  0.7561462E-02  0.1308590E+00
          1   -1    0    0  501    0  0.00000000000E+00  0.00000000000E+00  0.22724658707E+03  0.22724658707E+03  0.00000000000E+00 0. -1.
         -1   -1    0    0    0  501 -0.00000000000E+00 -0.00000000000E+00 -0.57255220515E+02  0.57255220515E+02  0.00000000000E+00 0.  1.
         25    2    1    2    0    0 -0.23568532009E+02  0.23066736256E+02  0.12782989430E+03  0.18186318061E+03  0.12508470955E+03 0.  0.
         23    2    1    2    0    0  0.23568532009E+02 -0.23066736256E+02  0.42161472253E+02  0.10263862697E+03  0.87575955496E+02 0.  0.
          5    1    3    3  502    0 -0.10239394954E+02 -0.27775385793E+02  0.12557927287E+03  0.12908889743E+03  0.41800000000E+01 0. -1.
         -5    1    3    3    0  502 -0.13329137055E+02  0.50842122048E+02  0.22506214316E+01  0.52774283187E+02  0.41800000000E+01 0. -1.
        -11    1    4    4    0    0  0.38865492336E+02 -0.49042571590E+02  0.21813684750E+02  0.66268674085E+02  0.00000000000E+00 0.  1.
         11    1    4    4    0    0 -0.15296960327E+02  0.25975835334E+02  0.20347787503E+02  0.36369952884E+02  0.00000000000E+00 0. -1.
</event>
<event>
 8    1  0.6684013E-009  0.1442200E+03  0.7561462E-02  0.1207761E+00
          1   -1    0    0  501    0  0.00000000000E+00  0.00000000000E+00  0.69892570292E+02  0.69892570292E+02  0.00000000000E+00 0. -1.
         -1   -1    0    0    0  501 -0.00000000000E+00 -0.00000000000E+00 -0.41532965836E+03  0.41532965836E+03  0.00000000000E+00 0.  1.
         25    2    1    2    0    0  0.75054016109E+02  0.99927227553E+02 -0.13585517952E+03  0.22299219374E+03  0.12510128906E+03 0.  0.
         23    2    1    2    0    0 -0.75054016109E+02 -0.99927227553E+02 -0.20958190855E+03  0.26223003492E+03  0.96028426417E+02 0.  0.
          5    1    3    3  502    0  0.55786841295E+02  0.42084036577E+02  0.42555107618E+01  0.70134296661E+02  0.41800000000E+01 0.  1.
         -5    1    3    3    0  502  0.19267174814E+02  0.57843190976E+02 -0.14011069028E+03  0.15285789708E+03  0.41800000000E+01 0.  1.
        -11    1    4    4    0    0  0.43074697026E+00 -0.78987593032E+02 -0.11307967671E+03  0.13793563238E+03  0.00000000000E+00 0.  1.
         11    1    4    4    0    0 -0.75484763080E+02 -0.20939634521E+02 -0.96502231837E+02  0.12429440253E+03  0.00000000000E+00 0. -1.
</event>
<event>
 8    1  0.6684013E-009  0.1535544E+03  0.7561462E-02  0.1196172E+00
          1   -1    0    0  501    0  0.00000000000E+00  0.00000000000E+00  0.67898593753E+02  0.67898593753E+02  0.00000000000E+00 0. -1.
         -1   -1    0    0    0  501 -0.00000000000E+00 -0.00000000000E+00 -0.41485018163E+03  0.41485018163E+03  0.00000000000E+00 0.  1.
         25    2    1    2    0    0  0.57495553380E+02  0.10485962882E+03 -0.11917883628E+03  0.21012476328E+03  0.12509013035E+03 0.  0.
         23    2    1    2    0    0 -0.57495553380E+02 -0.10485962882E+03 -0.22777275160E+03  0.27262401210E+03  0.90233836172E+02 0.  0.
          5    1    3    3  502    0  0.91543956490E+02  0.42080950576E+02 -0.60480463787E+02  0.11758597396E+03  0.41800000000E+01 0.  1.
         -5    1    3    3    0  502 -0.34048403110E+02  0.62778678242E+02 -0.58698372492E+02  0.92538789324E+02  0.41800000000E+01 0.  1.
        -11    1    4    4    0    0 -0.31668073652E+02 -0.10418690822E+03 -0.12106380380E+03  0.16283188670E+03  0.00000000000E+00 0.  1.
         11    1    4    4    0    0 -0.25827479728E+02 -0.67272059739E+00 -0.10670894779E+03  0.10979212541E+03  0.00000000000E+00 0. -1.
</event>
<event>
 8    1  0.6684013E-009  0.1461290E+03  0.7561462E-02  0.1205312E+00
          1   -1    0    0  501    0  0.00000000000E+00  0.00000000000E+00  0.47259550121E+03  0.47259550121E+03  0.00000000000E+00 0. -1.
         -1   -1    0    0    0  501 -0.00000000000E+00 -0.00000000000E+00 -0.45454882309E+02  0.45454882309E+02  0.00000000000E+00 0.  1.
         25    2    1    2    0    0  0.73418016020E+02  0.65786069196E+02  0.23530816519E+03  0.28413967000E+03  0.12508959784E+03 0.  0.
         23    2    1    2    0    0 -0.73418016020E+02 -0.65786069196E+02  0.19183245371E+03  0.23391071352E+03  0.90534632179E+02 0.  0.
          5    1    3    3  502    0  0.91673367130E+02  0.89515933521E+02  0.17816890990E+03  0.21949656364E+03  0.41800000000E+01 0.  1.
         -5    1    3    3    0  502 -0.18255351111E+02 -0.23729864325E+02  0.57139255287E+02  0.64643106360E+02  0.41800000000E+01 0.  1.
        -11    1    4    4    0    0 -0.65509197211E+02  0.20441296184E+01  0.92232698931E+02  0.11314815128E+03  0.00000000000E+00 0. -1.
         11    1    4    4    0    0 -0.79088188085E+01 -0.67830198815E+02  0.99599754782E+02  0.12076256224E+03  0.00000000000E+00 0.  1.
</event>
<event>
 8    1  0.6684013E-009  0.1858617E+03  0.7561462E-02  0.1162248E+00
         -1   -1    0    0    0  501 -0.00000000000E+00  0.00000000000E+00  0.10591694127E+03  0.10591694127E+03  0.00000000000E+00 0.  1.
          1   -1    0    0  501    0  0.00000000000E+00 -0.00000000000E+00 -0.39783343051E+03  0.39783343051E+03  0.00000000000E+00 0. -1.
         25    2    1    2    0    0 -0.69596988265E+02 -0.15800686496E+03 -0.13070294686E+03  0.25009561296E+03  0.12511852444E+03 0.  0.
         23    2    1    2    0    0  0.69596988265E+02  0.15800686496E+03 -0.16121354239E+03  0.25365475882E+03  0.92417640489E+02 0.  0.
          5    1    3    3  502    0  0.87909769094E+01  0.90371785558E+01 -0.44402682882E+02  0.46346763839E+02  0.41800000000E+01 0.  1.
         -5    1    3    3    0  502 -0.78387965175E+02 -0.16704404351E+03 -0.86300263974E+02  0.20374884912E+03  0.41800000000E+01 0.  1.
        -11    1    4    4    0    0  0.40713950347E+02  0.67092708135E+02 -0.13256519313E+03  0.15405384665E+03  0.00000000000E+00 0. -1.
         11    1    4    4    0    0  0.28883037918E+02  0.90914156822E+02 -0.28648349258E+02  0.99600912171E+02  0.00000000000E+00 0.  1.
</event>
<event>
 8    1  0.6684013E-009  0.1671398E+03  0.7561462E-02  0.1180864E+00
          2   -1    0    0  501    0  0.00000000000E+00  0.00000000000E+00  0.96887621079E+03  0.96887621079E+03  0.00000000000E+00 0. -1.
         -2   -1    0    0    0  501 -0.00000000000E+00 -0.00000000000E+00 -0.37635151994E+02  0.37635151994E+02  0.00000000000E+00 0.  1.
         25    2    1    2    0    0 -0.15327956202E+03 -0.17742193357E+02  0.43610182844E+03  0.47921025413E+03  0.12509297879E+03 0.  0.
         23    2    1    2    0    0  0.15327956202E+03  0.17742193357E+02  0.49513923035E+03  0.52730110865E+03  0.95258554404E+02 0.  0.
          5    1    3    3  502    0 -0.95141802432E+02  0.11576346983E+01  0.10206418024E+03  0.13959896840E+03  0.41800000000E+01 0.  1.
         -5    1    3    3    0  502 -0.58137759587E+02 -0.18899828056E+02  0.33403764819E+03  0.33961128574E+03  0.41800000000E+01 0.  1.
        -11    1    4    4    0    0 -0.93991383962E+00 -0.19166096426E+02  0.27705278336E+02  0.33701708234E+02  0.00000000000E+00 0.  1.
         11    1    4    4    0    0  0.15421947586E+03  0.36908289783E+02  0.46743395202E+03  0.49359940041E+03  0.00000000000E+00 0. -1.
</event>
<event>
 8    1  0.6684013E-009  0.1109874E+03  0.7561462E-02  0.1258752E+00
         -3   -1    0    0    0  501 -0.00000000000E+00  0.00000000000E+00  0.37595921292E+02  0.37595921292E+02  0.00000000000E+00 0.  1.
          3   -1    0    0  501    0  0.00000000000E+00 -0.00000000000E+00 -0.46999810119E+03  0.46999810119E+03  0.00000000000E+00 0. -1.
         25    2    1    2    0    0  0.28056299873E+02  0.42401920341E+02 -0.34815053066E+03  0.37342140918E+03  0.12509867315E+03 0.  0.
         23    2    1    2    0    0 -0.28056299873E+02 -0.42401920341E+02 -0.84251649239E+02  0.13417261330E+03  0.91207844783E+02 0.  0.
          5    1    3    3  502    0  0.57580966863E+02 -0.22046498667E+02 -0.19606789175E+03  0.20557652207E+03  0.41800000000E+01 0. -1.
         -5    1    3    3    0  502 -0.29524666990E+02  0.64448419007E+02 -0.15208263890E+03  0.16784488711E+03  0.41800000000E+01 0. -1.
        -11    1    4    4    0    0 -0.34746349009E+02  0.10141287481E+02 -0.18850883767E+01  0.36245110558E+02  0.00000000000E+00 0. -1.
         11    1    4    4    0    0  0.66900491354E+01 -0.52543207821E+02 -0.82366560862E+02  0.97927502745E+02  0.00000000000E+00 0.  1.
</event>
<event>
 8    1  0.6684013E-009  0.9962901E+02  0.7561462E-02  0.1281078E+00
          4   -1    0    0  501    0  0.00000000000E+00  0.00000000000E+00  0.79321530082E+03  0.79321530082E+03  0.00000000000E+00 0.  1.
         -4   -1    0    0    0  501 -0.00000000000E+00 -0.00000000000E+00 -0.17249473878E+02  0.17249473878E+02  0.00000000000E+00 0. -1.
         25    2    1    2    0    0 -0.31248071936E+01 -0.53293000455E+02  0.48347207347E+03  0.50223789206E+03  0.12509095121E+03 0.  0.
         23    2    1    2    0    0  0.31248071936E+01  0.53293000455E+02  0.29249375347E+03  0.30822688264E+03  0.81248427950E+02 0.  0.
          5    1    3    3  502    0  0.24183288136E+02 -0.76291491513E+02  0.18504930722E+03  0.20165798175E+03  0.41800000000E+01 0.  1.
         -5    1    3    3    0  502 -0.27308095330E+02  0.22998491058E+02  0.29842276626E+03  0.30057991031E+03  0.41800000000E+01 0.  1.
        -11    1    4    4    0    0  0.19625978303E+02 -0.68634046755E+01  0.20596811265E+02  0.29266260136E+02  0.00000000000E+00 0. -1.
         11    1    4    4    0    0 -0.16501171109E+02  0.60156405130E+02  0.27189694221E+03  0.27896062250E+03  0.00000000000E+00 0.  1.
</event>
<event>
 8    1  0.6684013E-009  0.1496488E+03  0.7561462E-02  0.1200905E+00
          1   -1    0    0  501    0  0.00000000000E+00  0.00000000000E+00  0.40432692768E+03  0.40432692768E+03  0.00000000000E+00 0. -1.
         -1   -1    0    0    0  501 -0.00000000000E+00 -0.00000000000E+00 -0.77673826446E+02  0.77673826446E+02  0.00000000000E+00 0.  1.
         25    2    1    2    0    0 -0.11552869843E+03 -0.75394152151E+02  0.14485694403E+03  0.23592728778E+03  0.12508793926E+03 0.  0.
         23    2    1    2    0    0  0.11552869843E+03  0.75394152151E+02  0.18179615721E+03  0.24607346635E+03  0.92038848994E+02 0.  0.
          5    1    3    3  502    0 -0.56535094592E+02 -0.54930483626E+02  0.15364030811E+03  0.17273213838E+03  0.41800000000E+01 0. -1.
         -5    1    3    3    0  502 -0.58993603840E+02 -0.20463668525E+02 -0.87833640847E+01  0.63195149404E+02  0.41800000000E+01 0. -1.
        -11    1    4    4    0    0  0.57061873740E+02 -0.62022081936E+01  0.31889123064E+02  0.65661564031E+02  0.00000000000E+00 0.  1.
         11    1    4    4    0    0  0.58466824692E+02  0.81596360345E+02  0.14990703415E+03  0.18041190232E+03  0.00000000000E+00 0. -1.
</event>
<event>
 8    1  0.6684013E-009  0.7709125E+02  0.7561462E-02  0.1337515E+00
          3   -1    0    0  501    0  0.00000000000E+00  0.00000000000E+00  0.55228165118E+03  0.55228165118E+03  0.00000000000E+00 0. -1.
         -3   -1    0    0    0  501 -0.00000000000E+00 -0.00000000000E+00 -0.25369723238E+02  0.25369723238E+02  0.00000000000E+00 0.  1.
         25    2    1    2    0    0 -0.93504299868E+01 -0.47389475052E+02  0.30384148969E+03  0.33211644722E+03  0.12509392781E+03 0.  0.
         23    2    1    2    0    0  0.93504299868E+01  0.47389475052E+02  0.22307043826E+03  0.24553492719E+03  0.90519540220E+02 0.  0.
          5    1    3    3  502    0  0.20339373895E+02  0.50153485816E+01  0.25092711538E+03  0.25183473447E+03  0.41800000000E+01 0. -1.
         -5    1    3    3    0  502 -0.29689803882E+02 -0.52404823634E+02  0.52914374304E+02  0.80281712754E+02  0.41800000000E+01 0. -1.
        -11    1    4    4    0    0 -0.16571176827E+01 -0.11964748031E+02 -0.22338203861E+01  0.12283777431E+02  0.00000000000E+00 0.  1.
         11    1    4    4    0    0  0.11007547670E+02  0.59354223083E+02  0.22530425864E+03  0.23325114976E+03  0.00000000000E+00 0. -1.
</event>
<event>
 8    1  0.6684013E-009  0.1455412E+03  0.7561462E-02  0.1206061E+00
         -2   -1    0    0    0  501 -0.00000000000E+00  0.00000000000E+00  0.18041183373E+02  0.18041183373E+02  0.00000000000E+00 0.  1.
          2   -1    0    0  501    0  0.00000000000E+00 -0.00000000000E+00 -0.12599602118E+04  0.12599602118E+04  0.00000000000E+00 0. -1.
         25    2    1    2    0    0 -0.96063247958E+02  0.19186303163E+02 -0.81392713158E+03  0.82928957205E+03  0.12509019529E+03 0.  0.
         23    2    1    2    0    0  0.96063247958E+02 -0.19186303163E+02 -0.42799189686E+03  0.44871182313E+03  0.92568756080E+02 0.  0.
          5    1    3    3  502    0  0.10464576961E+02  0.47295376312E+02 -0.24469690072E+03  0.24948027099E+03  0.41800000000E+01 0.  1.
         -5    1    3    3    0  502 -0.10652782492E+03 -0.28109073149E+02 -0.56923023086E+03  0.57980930106E+03  0.41800000000E+01 0.  1.
        -11    1    4    4    0    0 -0.10698926010E+02  0.16479524907E+02 -0.37704493307E+02  0.42516709356E+02  0.00000000000E+00 0. -1.
         11    1    4    4    0    0  0.10676217397E+03 -0.35665828070E+02 -0.39028740355E+03  0.40619511377E+03  0.00000000000E+00 0.  1.
</event>
<event>
 8    1  0.6684013E-009  0.1583757E+03  0.7561462E-02  0.1190543E+00
         -4   -1    0    0    0  501 -0.00000000000E+00  0.00000000000E+00  0.74356171714E+02  0.74356171714E+02  0.00000000000E+00 0.  1.
          4   -1    0    0  501    0  0.00000000000E+00 -0.00000000000E+00 -0.42327033604E+03  0.42327033604E+03  0.00000000000E+00 0. -1.
         25    2    1    2    0    0  0.32741196487E+02  0.12591727309E+03 -0.11286679114E+03  0.21286084711E+03  0.12507470600E+03 0.  0.
         23    2    1    2    0    0 -0.32741196487E+02 -0.12591727309E+03 -0.23604737319E+03  0.28476566064E+03  0.91901977570E+02 0.  0.
          5    1    3    3  502    0  0.13744642814E+02 -0.12688395863E+02 -0.60429884628E+02  0.63396797646E+02  0.41800000000E+01 0. -1.
         -5    1    3    3    0  502  0.18996553674E+02  0.13860566895E+03 -0.52436906508E+02  0.14946404946E+03  0.41800000000E+01 0. -1.
        -11    1    4    4    0    0  0.51019893051E+01 -0.11904982292E+03 -0.15946499502E+03  0.19906776552E+03  0.00000000000E+00 0.  1.
         11    1    4    4    0    0 -0.37843185792E+02 -0.68674501750E+01 -0.76582378166E+02  0.85697895122E+02  0.00000000000E+00 0. -1.
</event>
<event>
 8    1  0.6684013E-009  0.9452819E+02  0.7561462E-02  0.1292242E+00
         -1   -1    0    0    0  501 -0.00000000000E+00  0.00000000000E+00  0.27211387203E+03  0.27211387203E+03  0.00000000000E+00 0.  1.
          1   -1    0    0  501    0  0.00000000000E+00 -0.00000000000E+00 -0.43014117676E+02  0.43014117676E+02  0.00000000000E+00 0. -1.
         25    2    1    2    0    0  0.36818587073E+01  0.58208353825E+01  0.12864097161E+03  0.17956238971E+03  0.12508682589E+03 0.  0.
         23    2    1    2    0    0 -0.36818587073E+01 -0.58208353825E+01  0.10045878275E+03  0.13556560000E+03  0.90766880882E+02 0.  0.
          5    1    3    3  502    0  0.17398001222E+02  0.50839644038E+02  0.14175846254E+02  0.55729587020E+02  0.41800000000E+01 0. -1.
         -5    1    3    3    0  502 -0.13716142514E+02 -0.45018808656E+02  0.11446512536E+03  0.12383280269E+03  0.41800000000E+01 0. -1.
        -11    1    4    4    0    0  0.42015410608E+02 -0.22297507917E+01  0.65789436526E+02  0.78092998889E+02  0.00000000000E+00 0.  1.
         11    1    4    4    0    0 -0.45697269315E+02 -0.35910845908E+01  0.34669346221E+02  0.57472601114E+02  0.00000000000E+00 0. -1.
</event>
<event>
 8    1  0.6684013E-009  0.9676885E+02  0.7561462E-02  0.1287241E+00
         -2   -1    0    0    0  501 -0.00000000000E+00  0.00000000000E+00  0.42274538987E+02  0.42274538987E+02  0.00000000000E+00 0.  1.
          2   -1    0    0  501    0  0.00000000000E+00 -0.00000000000E+00 -0.30461695825E+03  0.30461695825E+03  0.00000000000E+00 0. -1.
         25    2    1    2    0    0  0.10762868744E+01 -0.18869068080E+02 -0.10872971193E+03  0.16680883508E+03  0.12508332055E+03 0.  0.
         23    2    1    2    0    0 -0.10762868744E+01  0.18869068080E+02 -0.15361270733E+03  0.18008266215E+03  0.92063571683E+02 0.  0.
          5    1    3    3  502    0  0.29446284140E+02  0.44532444706E+02 -0.66618536981E+02  0.85473528947E+02  0.41800000000E+01 0. -1.
         -5    1    3    3    0  502 -0.28369997266E+02 -0.63401512785E+02 -0.42111174947E+02  0.81335306133E+02  0.41800000000E+01 0. -1.
        -11    1    4    4    0    0  0.33372842527E+02  0.89003946672E+01 -0.13564031221E+03  0.13996877488E+03  0.00000000000E+00 0. -1.
         11    1    4    4    0    0 -0.34449129402E+02  0.99686734124E+01 -0.17972395120E+02  0.40113887277E+02  0.00000000000E+00 0.  1.
</event>
<event>
 8    1  0.6684013E-009  0.7372814E+02  0.7561462E-02  0.1347855E+00
         -1   -1    0    0    0  501 -0.00000000000E+00  0.00000000000E+00  0.50957452736E+02  0.50957452736E+02  0.00000000000E+00 0.  1.
          1   -1    0    0  501    0  0.00000000000E+00 -0.00000000000E+00 -0.24081025759E+03  0.24081025759E+03  0.00000000000E+00 0. -1.
         25    2    1    2    0    0 -0.10660673404E+02  0.20825458779E+02 -0.10751219870E+03  0.16663897517E+03  0.12514921288E+03 0.  0.
         23    2    1    2    0    0  0.10660673404E+02 -0.20825458779E+02 -0.82340606163E+02  0.12512873516E+03  0.91268150246E+02 0.  0.
          5    1    3    3  502    0 -0.57561950627E+02 -0.10821763964E+02 -0.89633258236E+02  0.10715447782E+03  0.41800000000E+01 0. -1.
         -5    1    3    3    0  502  0.46901277222E+02  0.31647222744E+02 -0.17878940459E+02  0.59484497345E+02  0.41800000000E+01 0. -1.
        -11    1    4    4    0    0  0.14441105649E+02 -0.43248746762E+01  0.17938071458E+02  0.23431271433E+02  0.00000000000E+00 0.  1.
         11    1    4    4    0    0 -0.37804322442E+01 -0.16500584103E+02 -0.10027867762E+03  0.10169746373E+03  0.00000000000E+00 0. -1.
</event>
<event>
 8    1  0.6684013E-009  0.1378877E+03  0.7561462E-02  0.1216200E+00
          2   -1    0    0  501    0  0.00000000000E+00  0.00000000000E+00  0.84009180378E+03  0.84009180378E+03  0.00000000000E+00 0.  1.
         -2   -1    0    0    0  501 -0.00000000000E+00 -0.00000000000E+00 -0.26030138926E+02  0.26030138926E+02  0.00000000000E+00 0. -1.
         25    2    1    2    0    0 -0.98185506519E+02  0.22108440875E+02  0.37650382461E+03  0.40930643862E+03  0.12508978336E+03 0.  0.
         23    2    1    2    0    0  0.98185506519E+02 -0.22108440875E+02  0.43755784024E+03  0.45681550408E+03  0.84228049758E+02 0.  0.
          5    1    3    3  502    0 -0.85022002930E+02  0.60210680517E+02  0.17450398883E+03  0.20328104080E+03  0.41800000000E+01 0. -1.
         -5    1    3    3    0  502 -0.13163503589E+02 -0.38102239641E+02  0.20199983578E+03  0.20602539782E+03  0.41800000000E+01 0. -1.
        -11    1    4    4    0    0  0.48715837243E+02  0.31517146967E+02  0.17971083841E+03  0.18884530387E+03  0.00000000000E+00 0. -1.
         11    1    4    4    0    0  0.49469669276E+02 -0.53625587842E+02  0.25784700183E+03  0.26797020021E+03  0.00000000000E+00 0.  1.
</event>
<event>
 8    1  0.6684013E-009  0.7866635E+02  0.7561462E-02  0.1332879E+00
         -2   -1    0    0    0  501 -0.00000000000E+00  0.00000000000E+00  0.10608070876E+03  0.10608070876E+03  0.00000000000E+00 0.  1.
          2   -1    0    0  501    0  0.00000000000E+00 -0.00000000000E+00 -0.15383262519E+03  0.15383262519E+03  0.00000000000E+00 0. -1.
         25    2    1    2    0    0 -0.12250322582E+02  0.97393033926E+01 -0.87798628511E+02  0.15362913706E+03  0.12509351762E+03 0.  0.
         23    2    1    2    0    0  0.12250322582E+02 -0.97393033926E+01  0.40046712085E+02  0.10628419690E+03  0.97199109705E+02 0.  0.
          5    1    3    3  502    0 -0.34462345171E+02  0.32613955084E+02  0.11712794979E+02  0.49050843695E+02  0.41800000000E+01 0. -1.
         -5    1    3    3    0  502  0.22212022589E+02 -0.22874651692E+02 -0.99511423491E+02  0.10457829336E+03  0.41800000000E+01 0. -1.
        -11    1    4    4    0    0  0.31118134839E+02 -0.34469238304E+02  0.54823003297E+02  0.71847257399E+02  0.00000000000E+00 0.  1.
         11    1    4    4    0    0 -0.18867812257E+02  0.24729934912E+02 -0.14776291212E+02  0.34436939499E+02  0.00000000000E+00 0. -1.
</event>
<event>
 8    1  0.6684013E-009  0.2468954E+03  0.7561462E-02  0.1115283E+00
         -1   -1    0    0    0  501 -0.00000000000E+00  0.00000000000E+00  0.36557658134E+03  0.36557658134E+03  0.00000000000E+00 0.  1.
          1   -1    0    0  501    0  0.00000000000E+00 -0.00000000000E+00 -0.20445973547E+03  0.20445973547E+03  0.00000000000E+00 0. -1.
         25    2    1    2    0    0  0.23513798470E+03 -0.22516165574E+02 -0.48911860723E+01  0.26733560993E+03  0.12509018776E+03 0.  0.
         23    2    1    2    0    0 -0.23513798470E+03  0.22516165574E+02  0.16600803195E+03  0.30270070688E+03  0.90951644939E+02 0.  0.
          5    1    3    3  502    0  0.82044843535E+01 -0.98496441018E+01 -0.35485634054E+02  0.37960923022E+02  0.41800000000E+01 0.  1.
         -5    1    3    3    0  502  0.22693350034E+03 -0.12666521473E+02  0.30594447982E+02  0.22937468690E+03  0.41800000000E+01 0.  1.
        -11    1    4    4    0    0 -0.66645125884E+02 -0.34574799713E+02  0.53845144823E+02  0.92392040784E+02  0.00000000000E+00 0.  1.
         11    1    4    4    0    0 -0.16849285881E+03  0.57090965287E+02  0.11216288712E+03  0.21030866610E+03  0.00000000000E+00 0. -1.
</event>
<event>
 8    1  0.6684013E-009  0.1543965E+03  0.7561462E-02  0.1195172E+00
          2   -1    0    0  501    0  0.00000000000E+00  0.00000000000E+00  0.42679329669E+03  0.42679329669E+03  0.00000000000E+00 0. -1.
         -2   -1    0    0    0  501 -0.00000000000E+00 -0.00000000000E+00 -0.80783773804E+02  0.80783773804E+02  0.00000000000E+00 0.  1.
         25    2    1    2    0    0  0.11485850466E+03 -0.82221277980E+02  0.25169861706E+03  0.31456721869E+03  0.12509007393E+03 0.  0.
         23    2    1    2    0    0 -0.11485850466E+03  0.82221277980E+02  0.94310905825E+02  0.19300985181E+03  0.91681193770E+02 0.  0.
          5    1    3    3  502    0  0.12859073857E+03 -0.63550965801E+02  0.25312787815E+03  0.29097336372E+03  0.41800000000E+01 0. -1.
         -5    1    3    3    0  502 -0.13732233906E+02 -0.18670312179E+02 -0.14292610870E+01  0.23593854966E+02  0.41800000000E+01 0. -1.
        -11    1    4    4    0    0 -0.17510705496E+02  0.18052261712E+02 -0.18151480174E+02  0.31015886130E+02  0.00000000000E+00 0.  1.
         11    1    4    4    0    0 -0.97347799165E+02  0.64169016268E+02  0.11246238600E+03  0.16199396568E+03  0.00000000000E+00 0. -1.
</event>
<event>
 8    1  0.6684013E-009  0.2818926E+03  0.7561462E-02  0.1094660E+00
          2   -1    0    0  501    0  0.00000000000E+00  0.00000000000E+00  0.39421486114E+03  0.39421486114E+03  0.00000000000E+00 0.  1.
         -2   -1    0    0    0  501 -0.00000000000E+00 -0.00000000000E+00 -0.20652117686E+03  0.20652117686E+03  0.00000000000E+00 0. -1.
         25    2    1    2    0    0  0.19026518295E+03 -0.18243969511E+03  0.83232147440E+02  0.30341480179E+03  0.12509144409E+03 0.  0.
         23    2    1    2    0    0 -0.19026518295E+03  0.18243969511E+03  0.10446153684E+03  0.29732123621E+03  0.89457378824E+02 0.  0.
          5    1    3    3  502    0  0.57042374443E+02 -0.13788831068E+03  0.25313535147E+02  0.15141091826E+03  0.41800000000E+01 0. -1.
         -5    1    3    3    0  502  0.13322280851E+03 -0.44551384426E+02  0.57918612294E+02  0.15200388354E+03  0.41800000000E+01 0. -1.
        -11    1    4    4    0    0 -0.72706083397E+02  0.12140125906E+03  0.80208069480E+02  0.16265846020E+03  0.00000000000E+00 0.  1.
         11    1    4    4    0    0 -0.11755909955E+03  0.61038436045E+02  0.24253467357E+02  0.13466277600E+03  0.00000000000E+00 0. -1.
</event>
<event>
 8    1  0.6684013E-009  0.9604765E+02  0.7561462E-02  0.1288834E+00
         -1   -1    0    0    0  501 -0.00000000000E+00  0.00000000000E+00  0.38808430302E+03  0.38808430302E+03  0.00000000000E+00 0.  1.
          1   -1    0    0  501    0  0.00000000000E+00 -0.00000000000E+00 -0.34424689427E+02  0.34424689427E+02  0.00000000000E+00 0. -1.
         25    2    1    2    0    0 -0.24783796674E+02 -0.64700706734E+01  0.26580696211E+03  0.29488466983E+03  0.12509008356E+03 0.  0.
         23    2    1    2    0    0  0.24783796674E+02  0.64700706734E+01  0.87852651489E+02  0.12762432262E+03  0.88959434339E+02 0.  0.
          5    1    3    3  502    0  0.31069378867E+02  0.36816692240E+02  0.58916099148E+02  0.76219120104E+02  0.41800000000E+01 0. -1.
         -5    1    3    3    0  502 -0.55853175541E+02 -0.43286762913E+02  0.20689086296E+03  0.21866554973E+03  0.41800000000E+01 0. -1.
        -11    1    4    4    0    0 -0.25621146448E+01 -0.28469360700E+02  0.76732203478E+02  0.81883453644E+02  0.00000000000E+00 0.  1.
         11    1    4    4    0    0  0.27345911319E+02  0.34939431373E+02  0.11120448011E+02  0.45740868974E+02  0.00000000000E+00 0. -1.
</event>
<event>
 8    1  0.6684013E-009  0.1324256E+03  0.7561462E-02  0.1223900E+00
          2   -1    0    0  501    0  0.00000000000E+00  0.00000000000E+00  0.77319591442E+03  0.77319591442E+03  0.00000000000E+00 0. -1.
         -2   -1    0    0    0  501 -0.00000000000E+00 -0.00000000000E+00 -0.31384326160E+02  0.31384326160E+02  0.00000000000E+00 0.  1.
         25    2    1    2    0    0  0.90497692504E+02 -0.29788525711E+02  0.55225170551E+03  0.57420062801E+03  0.12508887381E+03 0.  0.
         23    2    1    2    0    0 -0.90497692504E+02  0.29788525711E+02  0.18955988275E+03  0.23037961257E+03  0.89803274600E+02 0.  0.
          5    1    3    3  502    0  0.71801036448E+01  0.31190159293E+02  0.38878255996E+02  0.50530892674E+02  0.41800000000E+01 0. -1.
         -5    1    3    3    0  502  0.83317588859E+02 -0.60978685005E+02  0.51337344951E+03  0.52366973533E+03  0.41800000000E+01 0. -1.
        -11    1    4    4    0    0 -0.39318974980E+02 -0.30787990433E+02  0.91755328013E+02  0.10446493367E+03  0.00000000000E+00 0.  1.
         11    1    4    4    0    0 -0.51178717524E+02  0.60576516144E+02  0.97804554738E+02  0.12591467890E+03  0.00000000000E+00 0. -1.
</event>
<event>
 8    1  0.6684013E-009  0.9930678E+02  0.7561462E-02  0.1281760E+00
          2   -1    0    0  501    0  0.00000000000E+00  0.00000000000E+00  0.46742605726E+02  0.46742605726E+02  0.00000000000E+00 0. -1.
         -2   -1    0    0    0  501 -0.00000000000E+00 -0.00000000000E+00 -0.28887077367E+03  0.28887077367E+03  0.00000000000E+00 0.  1.
         25    2    1    2    0    0 -0.56210490170E+01  0.41636984132E+02 -0.14511463596E+03  0.19613901012E+03  0.12508804532E+03 0.  0.
         23    2    1    2    0    0  0.56210490170E+01 -0.41636984132E+02 -0.97013531982E+02  0.13947436928E+03  0.90973840515E+02 0.  0.
          5    1    3    3  502    0  0.97898184393E+01 -0.40232586032E+02 -0.80522965536E+02  0.90641722748E+02  0.41800000000E+01 0. -1.
         -5    1    3    3    0  502 -0.15410867456E+02  0.81869570164E+02 -0.64591670429E+02  0.10549728737E+03  0.41800000000E+01 0. -1.
        -11    1    4    4    0    0 -0.16138428710E+02 -0.48221555457E+02 -0.10393713250E+03  0.11570952771E+03  0.00000000000E+00 0.  1.
         11    1    4    4    0    0  0.21759477727E+02  0.65845713248E+01  0.69236005151E+01  0.23764841564E+02  0.00000000000E+00 0. -1.
</event>
<event>
 8    1  0.6684013E-009  0.1055887E+03  0.7561462E-02  0.1268964E+00
         -1   -1    0    0    0  501 -0.00000000000E+00  0.00000000000E+00  0.15937632748E+02  0.15937632748E+02  0.00000000000E+00 0.  1.
          1   -1    0    0  501    0  0.00000000000E+00 -0.00000000000E+00 -0.85106578268E+03  0.85106578268E+03  0.00000000000E+00 0. -1.
         25    2    1    2    0    0  0.65646145690E+01 -0.14439232785E+02 -0.60172400594E+03  0.61479445402E+03  0.12509538666E+03 0.  0.
         23    2    1    2    0    0 -0.65646145690E+01  0.14439232785E+02 -0.23340414399E+03  0.25220896141E+03  0.94235238491E+02 0.  0.
          5    1    3    3  502    0  0.40822857021E+02  0.40490718724E+02 -0.35667786866E+03  0.36130676488E+03  0.41800000000E+01 0. -1.
         -5    1    3    3    0  502 -0.34258242452E+02 -0.54929951509E+02 -0.24504613727E+03  0.25348768913E+03  0.41800000000E+01 0. -1.
        -11    1    4    4    0    0 -0.37677147012E+02 -0.19658045353E+02 -0.65523078669E+02  0.78097887246E+02  0.00000000000E+00 0.  1.
         11    1    4    4    0    0  0.31112532443E+02  0.34097278138E+02 -0.16788106533E+03  0.17411107416E+03  0.00000000000E+00 0. -1.
</event>
<event>
 8    1  0.6684013E-009  0.7439837E+02  0.7561462E-02  0.1345744E+00
         -2   -1    0    0    0  501 -0.00000000000E+00  0.00000000000E+00  0.30731642381E+02  0.30731642381E+02  0.00000000000E+00 0.  1.
          2   -1    0    0  501    0  0.00000000000E+00 -0.00000000000E+00 -0.47443873208E+03  0.47443873208E+03  0.00000000000E+00 0. -1.
         25    2    1    2    0    0  0.52283344133E+02  0.58292776185E+01 -0.24247910964E+03  0.27786984046E+03  0.12509197045E+03 0.  0.
         23    2    1    2    0    0 -0.52283344133E+02 -0.58292776185E+01 -0.20122798006E+03  0.22730053401E+03  0.91680446385E+02 0.  0.
          5    1    3    3  502    0  0.53245213381E+02 -0.82954154002E+01 -0.25365833642E+03  0.25935283053E+03  0.41800000000E+01 0.  1.
         -5    1    3    3    0  502 -0.96186924836E+00  0.14124693019E+02  0.11179226782E+02  0.18517009931E+02  0.41800000000E+01 0.  1.
        -11    1    4    4    0    0  0.83177272063E+01  0.13947421015E+02 -0.23541552399E-01  0.16239325511E+02  0.00000000000E+00 0.  1.
         11    1    4    4    0    0 -0.60601071339E+02 -0.19776698634E+02 -0.20120443851E+03  0.21106120850E+03  0.00000000000E+00 0. -1.
</event>
<event>
 8    1  0.6684013E-009  0.1185641E+03  0.7561462E-02  0.1245485E+00
         -2   -1    0    0    0  501 -0.00000000000E+00  0.00000000000E+00  0.53329603261E+02  0.53329603261E+02  0.00000000000E+00 0.  1.
          2   -1    0    0  501    0  0.00000000000E+00 -0.00000000000E+00 -0.36224623809E+03  0.36224623809E+03  0.00000000000E+00 0. -1.
         25    2    1    2    0    0 -0.54142093424E+02  0.66645173205E+02 -0.17628164126E+03  0.23258397574E+03  0.12508854196E+03 0.  0.
         23    2    1    2    0    0  0.54142093424E+02 -0.66645173205E+02 -0.13263499356E+03  0.18299186561E+03  0.92309457648E+02 0.  0.
          5    1    3    3  502    0 -0.94692765478E+02  0.42533316245E+02 -0.11238558474E+03  0.15304834165E+03  0.41800000000E+01 0.  1.
         -5    1    3    3    0  502  0.40550672054E+02  0.24111856960E+02 -0.63896056522E+02  0.79535634084E+02  0.41800000000E+01 0.  1.
        -11    1    4    4    0    0  0.35563331455E+02 -0.42823881459E+02 -0.14104600314E+03  0.15163314404E+03  0.00000000000E+00 0. -1.
         11    1    4    4    0    0  0.18578761969E+02 -0.23821291746E+02  0.84110095813E+01  0.31358721577E+02  0.00000000000E+00 0.  1.
</event>
<event>
 8    1  0.6684013E-009  0.1317921E+03  0.7561462E-02  0.1224821E+00
         -2   -1    0    0    0  501 -0.00000000000E+00  0.00000000000E+00  0.33892114307E+02  0.33892114307E+02  0.00000000000E+00 0.  1.
          2   -1    0    0  501    0  0.00000000000E+00 -0.00000000000E+00 -0.51917223044E+03  0.51917223044E+03  0.00000000000E+00 0. -1.
         25    2    1    2    0    0  0.18051683813E+02 -0.73449752525E+02 -0.26315505738E+03  0.30100931977E+03  0.12504118095E+03 0.  0.
         23    2    1    2    0    0 -0.18051683813E+02  0.73449752525E+02 -0.22212505875E+03  0.25205502497E+03  0.92040558735E+02 0.  0.
          5    1    3    3  502    0 -0.52209202432E+02 -0.43554430972E+02 -0.10233449329E+03  0.12293335672E+03  0.41800000000E+01 0. -1.
         -5    1    3    3    0  502  0.70260886245E+02 -0.29895321553E+02 -0.16082056408E+03  0.17807596306E+03  0.41800000000E+01 0. -1.
        -11    1    4    4    0    0 -0.46670516272E+02  0.77118377849E+02 -0.17331675285E+03  0.19535628505E+03  0.00000000000E+00 0.  1.
         11    1    4    4    0    0  0.28618832460E+02 -0.36686253236E+01 -0.48808305906E+02  0.56698739920E+02  0.00000000000E+00 0. -1.
</event>
<event>
 8    1  0.6684013E-009  0.5313871E+02  0.7561462E-02  0.1429112E+00
         -2   -1    0    0    0  501 -0.00000000000E+00  0.00000000000E+00  0.81739898449E+02  0.81739898449E+02  0.00000000000E+00 0.  1.
          2   -1    0    0  501    0  0.00000000000E+00 -0.00000000000E+00 -0.15917925680E+03  0.15917925680E+03  0.00000000000E+00 0. -1.
         25    2    1    2    0    0 -0.25163907299E+02 -0.29751648461E+02 -0.66202442878E+02  0.14679178686E+03  0.12508669965E+03 0.  0.
         23    2    1    2    0    0  0.25163907299E+02  0.29751648461E+02 -0.11236915473E+02  0.94127368390E+02  0.84942983194E+02 0.  0.
          5    1    3    3  502    0 -0.36443595398E+02 -0.25014712279E+01 -0.97127736451E+02  0.10385404466E+03  0.41800000000E+01 0. -1.
         -5    1    3    3    0  502  0.11279688099E+02 -0.27250177233E+02  0.30925293572E+02  0.42937742201E+02  0.41800000000E+01 0. -1.
        -11    1    4    4    0    0  0.14081546149E+02  0.10713816030E+02  0.37047137463E+02  0.41055647481E+02  0.00000000000E+00 0.  1.
         11    1    4    4    0    0  0.11082361150E+02  0.19037832430E+02 -0.48284052936E+02  0.53071720909E+02  0.00000000000E+00 0. -1.
</event>
<event>
 8    1  0.6684013E-009  0.1219886E+03  0.7561462E-02  0.1239852E+00
         -1   -1    0    0    0  501 -0.00000000000E+00  0.00000000000E+00  0.32196831752E+02  0.32196831752E+02  0.00000000000E+00 0.  1.
          1   -1    0    0  501    0  0.00000000000E+00 -0.00000000000E+00 -0.47394229272E+03  0.47394229272E+03  0.00000000000E+00 0. -1.
         25    2    1    2    0    0  0.46504856468E+02  0.30347836564E+02 -0.26179100661E+03  0.29540778711E+03  0.12509011425E+03 0.  0.
         23    2    1    2    0    0 -0.46504856468E+02 -0.30347836564E+02 -0.17995445436E+03  0.21073133736E+03  0.94553678110E+02 0.  0.
          5    1    3    3  502    0 -0.21673755287E+02  0.56973508387E+02 -0.91715000215E+02  0.11020365688E+03  0.41800000000E+01 0. -1.
         -5    1    3    3    0  502  0.68178611755E+02 -0.26625671823E+02 -0.17007600640E+03  0.18520413023E+03  0.41800000000E+01 0. -1.
        -11    1    4    4    0    0 -0.72182220612E+02 -0.39526898927E+02 -0.13140949497E+03  0.15505193994E+03  0.00000000000E+00 0.  1.
         11    1    4    4    0    0  0.25677364144E+02  0.91790623632E+01 -0.48544959381E+02  0.55679397416E+02  0.00000000000E+00 0. -1.
</event>
<event>
 8    1  0.6684013E-009  0.1446363E+03  0.7561462E-02  0.1207223E+00
          1   -1    0    0  501    0  0.00000000000E+00  0.00000000000E+00  0.23584074043E+03  0.23584074043E+03  0.00000000000E+00 0. -1.
         -1   -1    0    0    0  501 -0.00000000000E+00 -0.00000000000E+00 -0.31294409014E+03  0.31294409014E+03  0.00000000000E+00 0.  1.
         25    2    1    2    0    0  0.27495948835E+02  0.12347321095E+03 -0.25576334463E+03  0.31155288369E+03  0.12509456364E+03 0.  0.
         23    2    1    2    0    0 -0.27495948835E+02 -0.12347321095E+03  0.17865999492E+03  0.23723194688E+03  0.91421779748E+02 0.  0.
          5    1    3    3  502    0  0.46966144240E+02  0.62262811030E+02 -0.22880409663E+03  0.24176696089E+03  0.41800000000E+01 0.  1.
         -5    1    3    3    0  502 -0.19470195405E+02  0.61210399925E+02 -0.26959247991E+02  0.69785922795E+02  0.41800000000E+01 0.  1.
        -11    1    4    4    0    0 -0.13422864243E+02 -0.13041925058E+03  0.12434827927E+03  0.18069822568E+03  0.00000000000E+00 0. -1.
         11    1    4    4    0    0 -0.14073084591E+02  0.69460396271E+01  0.54311715648E+02  0.56533721203E+02  0.00000000000E+00 0.  1.
</event>
<event>
 8    1  0.6684013E-009  0.1664609E+03  0.7561462E-02  0.1181590E+00
          2   -1    0    0  501    0  0.00000000000E+00  0.00000000000E+00  0.74609317557E+02  0.74609317557E+02  0.00000000000E+00 0. -1.
         -2   -1    0    0    0  501 -0.00000000000E+00 -0.00000000000E+00 -0.41888946192E+03  0.41888946192E+03  0.00000000000E+00 0.  1.
         25    2    1    2    0    0 -0.25973365491E+02 -0.13497522541E+03 -0.23517763157E+03  0.29974800353E+03  0.12508964800E+03 0.  0.
         23    2    1    2    0    0  0.25973365491E+02  0.13497522541E+03 -0.10910251278E+03  0.19375077595E+03  0.82116245006E+02 0.  0.
          5    1    3    3  502    0  0.38766572411E+02 -0.12233775897E+02 -0.25155853551E+02  0.47987516888E+02  0.41800000000E+01 0. -1.
         -5    1    3    3    0  502 -0.64739937902E+02 -0.12274144951E+03 -0.21002177802E+03  0.25176048664E+03  0.41800000000E+01 0. -1.
        -11    1    4    4    0    0  0.13242761776E+01  0.12744405610E+03 -0.10941588291E+03  0.16797492841E+03  0.00000000000E+00 0. -1.
         11    1    4    4    0    0  0.24649089314E+02  0.75311693154E+01  0.31337012721E+00  0.25775847534E+02  0.00000000000E+00 0.  1.
</event>
<event>
 8    1  0.6684013E-009  0.3805873E+03  0.7561462E-02  0.1050717E+00
          2   -1    0    0  501    0  0.00000000000E+00  0.00000000000E+00  0.15384087374E+04  0.15384087374E+04  0.00000000000E+00 0. -1.
         -2   -1    0    0    0  501 -0.00000000000E+00 -0.00000000000E+00 -0.11665519792E+03  0.11665519792E+03  0.00000000000E+00 0.  1.
         25    2    1    2    0    0  0.35262594589E+03  0.10787233253E+03  0.38170938586E+03  0.54528039055E+03  0.12508857348E+03 0.  0.
         23    2    1    2    0    0 -0.35262594589E+03 -0.10787233253E+03  0.10400441536E+04  0.11097835448E+04  0.11809393276E+03 0.  0.
          5    1    3    3  502    0  0.55689026250E+02 -0.76746492811E+01  0.12128725404E+03  0.13374691876E+03  0.41800000000E+01 0. -1.
         -5    1    3    3    0  502  0.29693691964E+03  0.11554698181E+03  0.26042213182E+03  0.41153347178E+03  0.41800000000E+01 0. -1.
        -11    1    4    4    0    0 -0.33635825086E+03 -0.68104176629E+02  0.89627497912E+03  0.95973115506E+03  0.00000000000E+00 0.  1.
         11    1    4    4    0    0 -0.16267695030E+02 -0.39768155902E+02  0.14376917453E+03  0.15005238975E+03  0.00000000000E+00 0. -1.
</event>
<event>
 8    1  0.6684013E-009  0.1052417E+03  0.7561462E-02  0.1269644E+00
         -1   -1    0    0    0  501 -0.00000000000E+00  0.00000000000E+00  0.67152400461E+02  0.67152400461E+02  0.00000000000E+00 0.  1.
          1   -1    0    0  501    0  0.00000000000E+00 -0.00000000000E+00 -0.33980623515E+03  0.33980623515E+03  0.00000000000E+00 0. -1.
         25    2    1    2    0    0 -0.75906701999E+02 -0.65723394315E+02 -0.10724592773E+03  0.19295596442E+03  0.12509565629E+03 0.  0.
         23    2    1    2    0    0  0.75906701999E+02  0.65723394315E+02 -0.16540790696E+03  0.21400267119E+03  0.91411025728E+02 0.  0.
          5    1    3    3  502    0 -0.59610902634E+02 -0.62794607119E+02 -0.23881020094E+01  0.86716767855E+02  0.41800000000E+01 0.  1.
         -5    1    3    3    0  502 -0.16295799366E+02 -0.29287871959E+01 -0.10485782572E+03  0.10623919657E+03  0.41800000000E+01 0.  1.
        -11    1    4    4    0    0  0.45089056251E+02  0.15274225294E+02 -0.11277022482E+02  0.48923370570E+02  0.00000000000E+00 0.  1.
         11    1    4    4    0    0  0.30817645749E+02  0.50449169021E+02 -0.15413088448E+03  0.16507930062E+03  0.00000000000E+00 0. -1.
</event>
<event>
 8    1  0.6684013E-009  0.2027639E+03  0.7561462E-02  0.1147428E+00
          1   -1    0    0  501    0  0.00000000000E+00  0.00000000000E+00  0.40231974086E+02  0.40231974086E+02  0.00000000000E+00 0. -1.
         -1   -1    0    0    0  501 -0.00000000000E+00 -0.00000000000E+00 -0.10971791341E+04  0.10971791341E+04  0.00000000000E+00 0.  1.
         25    2    1    2    0    0 -0.11061721743E+03  0.13163564778E+03 -0.40889302247E+03  0.46087418235E+03  0.12508955020E+03 0.  0.
         23    2    1    2    0    0  0.11061721743E+03 -0.13163564778E+03 -0.64805413753E+03  0.67653692583E+03  0.90354492296E+02 0.  0.
          5    1    3    3  502    0 -0.63857351225E+02  0.14833909183E+03 -0.33244066056E+03  0.36961671048E+03  0.41800000000E+01 0. -1.
         -5    1    3    3    0  502 -0.46759866203E+02 -0.16703444044E+02 -0.76452361908E+02  0.91257471867E+02  0.41800000000E+01 0. -1.
        -11    1    4    4    0    0  0.76139725811E+02 -0.22057646224E+02 -0.27493284300E+03  0.28613260172E+03  0.00000000000E+00 0.  1.
         11    1    4    4    0    0  0.34477491617E+02 -0.10957800156E+03 -0.37312129453E+03  0.39040432411E+03  0.00000000000E+00 0. -1.
</event>
<event>
 8    1  0.6684013E-009  0.9405207E+02  0.7561462E-02  0.1293325E+00
         -2   -1    0    0    0  501 -0.00000000000E+00  0.00000000000E+00  0.60893520009E+02  0.60893520009E+02  0.00000000000E+00 0.  1.
          2   -1    0    0  501    0  0.00000000000E+00 -0.00000000000E+00 -0.45838427497E+03  0.45838427497E+03  0.00000000000E+00 0. -1.
         25    2    1    2    0    0  0.11721774947E+02 -0.80484668925E+02 -0.36199512599E+03  0.39152840559E+03  0.12505534456E+03 0.  0.
         23    2    1    2    0    0 -0.11721774947E+02  0.80484668925E+02 -0.35495628976E+02  0.12774938940E+03  0.91895510634E+02 0.  0.
          5    1    3    3  502    0  0.27066841848E+02 -0.24915393089E+02 -0.31462694330E+03  0.31679800597E+03  0.41800000000E+01 0.  1.
         -5    1    3    3    0  502 -0.15345066901E+02 -0.55569275836E+02 -0.47368182693E+02  0.74730399616E+02  0.41800000000E+01 0.  1.
        -11    1    4    4    0    0  0.16939154768E+02  0.42053633517E+02  0.24035435523E+02  0.51314181442E+02  0.00000000000E+00 0.  1.
         11    1    4    4    0    0 -0.28660929715E+02  0.38431035407E+02 -0.59531064499E+02  0.76435207954E+02  0.00000000000E+00 0. -1.
</event>
<event>
 8    1  0.6684013E-009  0.1635550E+03  0.7561462E-02  0.1184741E+00
         -2   -1    0    0    0  501 -0.00000000000E+00  0.00000000000E+00  0.34217817470E+02  0.34217817470E+02  0.00000000000E+00 0. -1.
          2   -1    0    0  501    0  0.00000000000E+00 -0.00000000000E+00 -0.10074757928E+04  0.10074757928E+04  0.00000000000E+00 0.  1.
         25    2    1    2    0    0 -0.14849669347E+03 -0.22372602427E+02 -0.51464514378E+03  0.55051098184E+03  0.12510362027E+03 0.  0.
         23    2    1    2    0    0  0.14849669347E+03  0.22372602427E+02 -0.45861283156E+03  0.49118262843E+03  0.91557871842E+02 0.  0.
          5    1    3    3  502    0 -0.12309038577E+03 -0.54360376750E+02 -0.47394840579E+03  0.49269753133E+03  0.41800000000E+01 0. -1.
         -5    1    3    3    0  502 -0.25406307700E+02  0.31987774322E+02 -0.40696737986E+02  0.57813450509E+02  0.41800000000E+01 0. -1.
        -11    1    4    4    0    0  0.17883368131E+02  0.92987577882E+01 -0.77420741231E+01  0.21592162093E+02  0.00000000000E+00 0. -1.
         11    1    4    4    0    0  0.13061332533E+03  0.13073844639E+02 -0.45087075743E+03  0.46959046634E+03  0.00000000000E+00 0.  1.
</event>
<event>
 8    1  0.6684013E-009  0.1135143E+03  0.7561462E-02  0.1254197E+00
         -1   -1    0    0    0  501 -0.00000000000E+00  0.00000000000E+00  0.38899058592E+03  0.38899058592E+03  0.00000000000E+00 0.  1.
          1   -1    0    0  501    0  0.00000000000E+00 -0.00000000000E+00 -0.52375487308E+02  0.52375487308E+02  0.00000000000E+00 0. -1.
         25    2    1    2    0    0  0.78272397504E+02 -0.48307748420E+02  0.16784923521E+03  0.22863768183E+03  0.12506645042E+03 0.  0.
         23    2    1    2    0    0 -0.78272397504E+02  0.48307748420E+02  0.16876586340E+03  0.21272839140E+03  0.91166030354E+02 0.  0.
          5    1    3    3  502    0  0.12531344651E+02  0.11617209173E+02  0.13114170077E+03  0.13231633395E+03  0.41800000000E+01 0.  1.
         -5    1    3    3    0  502  0.65741052853E+02 -0.59924957592E+02  0.36707534437E+02  0.96321347879E+02  0.41800000000E+01 0.  1.
        -11    1    4    4    0    0 -0.25348788838E+02  0.60915886193E+02  0.13044613401E+03  0.14618310492E+03  0.00000000000E+00 0. -1.
         11    1    4    4    0    0 -0.52923608666E+02 -0.12608137773E+02  0.38319729396E+02  0.66545286485E+02  0.00000000000E+00 0.  1.
</event>
<event>
 8    1  0.6684013E-009  0.1757005E+03  0.7561462E-02  0.1172030E+00
          2   -1    0    0  501    0  0.00000000000E+00  0.00000000000E+00  0.16819047381E+04  0.16819047381E+04  0.00000000000E+00 0.  1.
         -2   -1    0    0    0  501 -0.00000000000E+00 -0.00000000000E+00 -0.19497662695E+02  0.19497662695E+02  0.00000000000E+00 0. -1.
         25    2    1    2    0    0  0.10904620416E+02 -0.14422606840E+03  0.90008579597E+03  0.92017562365E+03  0.12509463896E+03 0.  0.
         23    2    1    2    0    0 -0.10904620416E+02  0.14422606840E+03  0.76232127942E+03  0.78122677713E+03  0.90892654799E+02 0.  0.
          5    1    3    3  502    0 -0.25710087173E+02 -0.15047570168E+03  0.75982510934E+03  0.77501975107E+03  0.41800000000E+01 0. -1.
         -5    1    3    3    0  502  0.36614707589E+02  0.62496332734E+01  0.14026068663E+03  0.14515587258E+03  0.41800000000E+01 0. -1.
        -11    1    4    4    0    0 -0.36733491644E+02  0.41666219653E+02  0.15247793569E+03  0.16228044904E+03  0.00000000000E+00 0. -1.
         11    1    4    4    0    0  0.25828871228E+02  0.10255984875E+03  0.60984334373E+03  0.61894632809E+03  0.00000000000E+00 0.  1.
</event>
<event>
 8    1  0.6684013E-009  0.9228135E+02  0.7561462E-02  0.1297419E+00
          2   -1    0    0  501    0  0.00000000000E+00  0.00000000000E+00  0.39231002447E+02  0.39231002447E+02  0.00000000000E+00 0. -1.
         -2   -1    0    0    0  501 -0.00000000000E+00 -0.00000000000E+00 -0.30279293357E+03  0.30279293357E+03  0.00000000000E+00 0.  1.
         25    2    1    2    0    0 -0.51704972253E+00  0.77711612584E+01 -0.15544814921E+03  0.19965761540E+03  0.12505350058E+03 0.  0.
         23    2    1    2    0    0  0.51704972253E+00 -0.77711612584E+01 -0.10811378191E+03  0.14236632061E+03  0.92298001705E+02 0.  0.
          5    1    3    3  502    0  0.26441411852E+02  0.57254367248E+02 -0.11113036642E+03  0.12784616369E+03  0.41800000000E+01 0. -1.
         -5    1    3    3    0  502 -0.26958461575E+02 -0.49483205989E+02 -0.44317782794E+02  0.71811451714E+02  0.41800000000E+01 0. -1.
        -11    1    4    4    0    0  0.26563455891E+02 -0.22605024583E+02 -0.10681301904E+03  0.11236380806E+03  0.00000000000E+00 0.  1.
         11    1    4    4    0    0 -0.26046406168E+02  0.14833863325E+02 -0.13007628675E+01  0.30002512552E+02  0.00000000000E+00 0. -1.
</event>
<event>
 7    1  0.6684013E-009  0.1199244E+03  0.7561462E-02  0.1243222E+00
          1   -1    0    0  501    0  0.00000000000E+00  0.00000000000E+00  0.89326664773E+02  0.89326664773E+02  0.00000000000E+00 0. -1.
         -1   -1    0    0    0  501 -0.00000000000E+00 -0.00000000000E+00 -0.17803925069E+03  0.17803925069E+03  0.00000000000E+00 0.  1.
         23    2    1    2    0    0  0.32133454070E+02  0.60562981109E+02 -0.24828632831E+02  0.11089867133E+03  0.83556093399E+02 0.  0.
          5    1    1    2  502    0 -0.39592122567E+02 -0.91454658114E+02 -0.72460939591E+02  0.12328645841E+03  0.41800000000E+01 0.  1.
         -5    1    1    2    0  502  0.74586684973E+01  0.30891677006E+02  0.85769865008E+01  0.33180785726E+02  0.41800000000E+01 0.  1.
        -11    1    3    3    0    0 -0.28509833785E+02  0.15123104536E+02 -0.86618550065E+01  0.33414766876E+02  0.00000000000E+00 0.  1.
         11    1    3    3    0    0  0.60643287855E+02  0.45439876573E+02 -0.16166777824E+02  0.77483904458E+02  0.00000000000E+00 0. -1.
</event>
<event>
 8    1  0.6684013E-009  0.1807390E+03  0.7561462E-02  0.1167090E+00
         -4   -1    0    0    0  501 -0.00000000000E+00  0.00000000000E+00  0.22895602823E+03  0.22895602823E+03  0.00000000000E+00 0.  1.
          4   -1    0    0  501    0  0.00000000000E+00 -0.00000000000E+00 -0.16205244832E+03  0.16205244832E+03  0.00000000000E+00 0. -1.
         25    2    1    2    0    0  0.51525290428E+02  0.14468341236E+03 -0.97601995463E+01  0.19831965597E+03  0.12508908458E+03 0.  0.
         23    2    1    2    0    0 -0.51525290428E+02 -0.14468341236E+03  0.76663779453E+02  0.19268882058E+03  0.87541425230E+02 0.  0.
          5    1    3    3  502    0  0.66224827732E+01  0.13924589361E+03 -0.38356450122E+02  0.14464427341E+03  0.41800000000E+01 0.  1.
         -5    1    3    3    0  502  0.44902807655E+02  0.54375187540E+01  0.28596250575E+02  0.53675382556E+02  0.41800000000E+01 0.  1.
        -11    1    4    4    0    0 -0.13851362690E+02 -0.13754939284E+03  0.63681960598E+02  0.15220738426E+03  0.00000000000E+00 0.  1.
         11    1    4    4    0    0 -0.37673927738E+02 -0.71340195239E+01  0.12981818855E+02  0.40481436320E+02  0.00000000000E+00 0. -1.
</event>
<event>
 8    1  0.6684013E-009  0.1684682E+03  0.7561462E-02  0.1179455E+00
         -2   -1    0    0    0  501 -0.00000000000E+00  0.00000000000E+00  0.10529800361E+03  0.10529800361E+03  0.00000000000E+00 0.  1.
          2   -1    0    0  501    0  0.00000000000E+00 -0.00000000000E+00 -0.28439664576E+03  0.28439664576E+03  0.00000000000E+00 0. -1.
         25    2    1    2    0    0 -0.10054099231E+03  0.89614308353E+02 -0.94704745109E+02  0.20677671748E+03  0.12509359196E+03 0.  0.
         23    2    1    2    0    0  0.10054099231E+03 -0.89614308353E+02 -0.84393897050E+02  0.18291793189E+03  0.90539629727E+02 0.  0.
          5    1    3    3  502    0  0.23918048585E+02  0.35840366592E+02 -0.37318156574E+01  0.43451165389E+02  0.41800000000E+01 0. -1.
         -5    1    3    3    0  502 -0.12445904090E+03  0.53773941761E+02 -0.90972929451E+02  0.16332555209E+03  0.41800000000E+01 0. -1.
        -11    1    4    4    0    0  0.11481164682E+03 -0.85500994728E+02 -0.61893843887E+02  0.15595827088E+03  0.00000000000E+00 0.  1.
         11    1    4    4    0    0 -0.14270654513E+02 -0.41133136254E+01 -0.22500053164E+02  0.26959661007E+02  0.00000000000E+00 0. -1.
</event>
<event>
 8    1  0.6684013E-009  0.1061963E+03  0.7561462E-02  0.1267780E+00
         -1   -1    0    0    0  501 -0.00000000000E+00  0.00000000000E+00  0.29737898064E+02  0.29737898064E+02  0.00000000000E+00 0.  1.
          1   -1    0    0  501    0  0.00000000000E+00 -0.00000000000E+00 -0.77931183103E+03  0.77931183103E+03  0.00000000000E+00 0. -1.
         25    2    1    2    0    0 -0.37429532579E+02  0.75334839575E+01 -0.66905695204E+03  0.68171986567E+03  0.12508815648E+03 0.  0.
         23    2    1    2    0    0  0.37429532579E+02 -0.75334839575E+01 -0.80516980931E+02  0.12732986343E+03  0.90951561900E+02 0.  0.
          5    1    3    3  502    0 -0.63985677210E+02 -0.32525749763E+02 -0.25765512213E+03  0.26749901990E+03  0.41800000000E+01 0.  1.
         -5    1    3    3    0  502  0.26556144630E+02  0.40059233721E+02 -0.41140182990E+03  0.41422084577E+03  0.41800000000E+01 0.  1.
        -11    1    4    4    0    0  0.57233937233E+02 -0.28046296144E+02 -0.32645680398E+02  0.71610465347E+02  0.00000000000E+00 0.  1.
         11    1    4    4    0    0 -0.19804404653E+02  0.20512812187E+02 -0.47871300533E+02  0.55719398079E+02  0.00000000000E+00 0. -1.
</event>
<event>
 7    1  0.6684013E-009  0.1367069E+03  0.7561462E-02  0.1217830E+00
          1   -1    0    0  501    0  0.00000000000E+00  0.00000000000E+00  0.49234721389E+02  0.49234721389E+02  0.00000000000E+00 0. -1.
         -1   -1    0    0    0  501 -0.00000000000E+00 -0.00000000000E+00 -0.46570690526E+03  0.46570690526E+03  0.00000000000E+00 0.  1.
         23    2    1    2    0    0 -0.15287750136E+02 -0.74053520067E+02 -0.30020852660E+03  0.32836874914E+03  0.10946797172E+03 0.  0.
          5    1    1    2  502    0 -0.43277972775E+02  0.69607986959E+02 -0.43236521392E+02  0.92763807372E+02  0.41800000000E+01 0. -1.
         -5    1    1    2    0  502  0.58565722911E+02  0.44455331082E+01 -0.73027135884E+02  0.93809070138E+02  0.41800000000E+01 0. -1.
        -11    1    3    3    0    0  0.42734269508E+02 -0.58395409824E+02 -0.17919544345E+03  0.19325436252E+03  0.00000000000E+00 0.  1.
         11    1    3    3    0    0 -0.58022019644E+02 -0.15658110243E+02 -0.12101308314E+03  0.13511438662E+03  0.00000000000E+00 0. -1.
</event>
<event>
 8    1  0.6684013E-009  0.8804481E+02  0.7561462E-02  0.1307657E+00
         -3   -1    0    0    0  501 -0.00000000000E+00  0.00000000000E+00  0.93712831190E+02  0.93712831190E+02  0.00000000000E+00 0.  1.
          3   -1    0    0  501    0  0.00000000000E+00 -0.00000000000E+00 -0.14858827555E+03  0.14858827555E+03  0.00000000000E+00 0. -1.
         25    2    1    2    0    0  0.43530975052E+02 -0.92188740318E+01 -0.35190298489E+02  0.13736022711E+03  0.12509812731E+03 0.  0.
         23    2    1    2    0    0 -0.43530975052E+02  0.92188740318E+01 -0.19685145875E+02  0.10494087963E+03  0.92979297817E+02 0.  0.
          5    1    3    3  502    0  0.41083007163E+02 -0.42434285828E+02  0.28236279427E+02  0.65599100353E+02  0.41800000000E+01 0. -1.
         -5    1    3    3    0  502  0.24479678888E+01  0.33215411796E+02 -0.63426577916E+02  0.71761126759E+02  0.41800000000E+01 0. -1.
        -11    1    4    4    0    0 -0.79364548723E+01  0.37199120712E+02  0.21537244931E+02  0.43710580148E+02  0.00000000000E+00 0.  1.
         11    1    4    4    0    0 -0.35594520180E+02 -0.27980246680E+02 -0.41222390806E+02  0.61230299484E+02  0.00000000000E+00 0. -1.
</event>
<event>
 8    1  0.6684013E-009  0.2146953E+03  0.7561462E-02  0.1137901E+00
         -1   -1    0    0    0  501 -0.00000000000E+00  0.00000000000E+00  0.35730852658E+03  0.35730852658E+03  0.00000000000E+00 0.  1.
          1   -1    0    0  501    0  0.00000000000E+00 -0.00000000000E+00 -0.16797262568E+03  0.16797262568E+03  0.00000000000E+00 0. -1.
         25    2    1    2    0    0  0.60896292212E+02  0.18409231111E+03 -0.67363977827E+01  0.23085122658E+03  0.12509425385E+03 0.  0.
         23    2    1    2    0    0 -0.60896292212E+02 -0.18409231111E+03  0.19607229869E+03  0.29442992568E+03  0.10318089652E+03 0.  0.
          5    1    3    3  502    0 -0.35684644373E+02  0.83005307332E+02 -0.95623310831E+01  0.90951555595E+02  0.41800000000E+01 0.  1.
         -5    1    3    3    0  502  0.96580936585E+02  0.10108700377E+03  0.28259333004E+01  0.13989967099E+03  0.41800000000E+01 0.  1.
        -11    1    4    4    0    0 -0.63307826026E+02 -0.12676704823E+03  0.18958853003E+03  0.23668877471E+03  0.00000000000E+00 0. -1.
         11    1    4    4    0    0  0.24115338149E+01 -0.57325262871E+02  0.64837686549E+01  0.57741150964E+02  0.00000000000E+00 0.  1.
</event>
<event>
 8    1  0.6684013E-009  0.1740858E+03  0.7561462E-02  0.1173653E+00
          2   -1    0    0  501    0  0.00000000000E+00  0.00000000000E+00  0.14198973578E+03  0.14198973578E+03  0.00000000000E+00 0. -1.
         -2   -1    0    0    0  501 -0.00000000000E+00 -0.00000000000E+00 -0.34196721303E+03  0.34196721303E+03  0.00000000000E+00 0.  1.
         25    2    1    2    0    0 -0.40277193526E+02  0.15055555347E+03 -0.22549608757E+03  0.30130716639E+03  0.12509314932E+03 0.  0.
         23    2    1    2    0    0  0.40277193526E+02 -0.15055555347E+03  0.25518610323E+02  0.18264978242E+03  0.91763372572E+02 0.  0.
          5    1    3    3  502    0  0.32587536609E+02  0.23191958766E+02 -0.11545040577E+02  0.41839871600E+02  0.41800000000E+01 0.  1.
         -5    1    3    3    0  502 -0.72864730135E+02  0.12736359470E+03 -0.21395104700E+03  0.25946729479E+03  0.41800000000E+01 0.  1.
        -11    1    4    4    0    0  0.21288584175E+02 -0.13485250751E+03 -0.12769171919E+02  0.13711839537E+03  0.00000000000E+00 0.  1.
         11    1    4    4    0    0  0.18988609351E+02 -0.15703045962E+02  0.38287782243E+02  0.45531387049E+02  0.00000000000E+00 0. -1.
</event>
<event>
 8    1  0.6684013E-009  0.1863565E+03  0.7561462E-02  0.1161789E+00
         -2   -1    0    0    0  501 -0.00000000000E+00  0.00000000000E+00  0.22978808550E+02  0.22978808550E+02  0.00000000000E+00 0. -1.
          2   -1    0    0  501    0  0.00000000000E+00 -0.00000000000E+00 -0.15203889114E+04  0.15203889114E+04  0.00000000000E+00 0.  1.
         25    2    1    2    0    0 -0.17814036103E+02  0.15339616068E+03 -0.77827647954E+03  0.80324917567E+03  0.12508891884E+03 0.  0.
         23    2    1    2    0    0  0.17814036103E+02 -0.15339616068E+03 -0.71913362329E+03  0.74011854426E+03  0.82307772527E+02 0.  0.
          5    1    3    3  502    0 -0.69373942453E+02  0.60504901416E+02 -0.34081463051E+03  0.35305193918E+03  0.41800000000E+01 0. -1.
         -5    1    3    3    0  502  0.51559906350E+02  0.92891259261E+02 -0.43746184902E+03  0.45019723649E+03  0.41800000000E+01 0. -1.
        -11    1    4    4    0    0  0.39446473038E+02 -0.14622536302E+03 -0.64599800432E+03  0.66351435750E+03  0.00000000000E+00 0.  1.
         11    1    4    4    0    0 -0.21632436935E+02 -0.71707976585E+01 -0.73135618969E+02  0.76604186757E+02  0.00000000000E+00 0. -1.
</event>
<event>
 8    1  0.6684013E-009  0.1383851E+03  0.7561462E-02  0.1215519E+00
          2   -1    0    0  501    0  0.00000000000E+00  0.00000000000E+00  0.12432195429E+04  0.12432195429E+04  0.00000000000E+00 0.  1.
         -2   -1    0    0    0  501 -0.00000000000E+00 -0.00000000000E+00 -0.19881722459E+02  0.19881722459E+02  0.00000000000E+00 0. -1.
         25    2    1    2    0    0 -0.10364044902E+03  0.31439320757E+02  0.79107216894E+03  0.80819091532E+03  0.12509038959E+03 0.  0.
         23    2    1    2    0    0  0.10364044902E+03 -0.31439320757E+02  0.43226565147E+03  0.45491035001E+03  0.91433361213E+02 0.  0.
          5    1    3    3  502    0  0.23941531588E+02 -0.15525344909E+02  0.11394450960E+03  0.11753747036E+03  0.41800000000E+01 0.  1.
         -5    1    3    3    0  502 -0.12758198061E+03  0.46964665666E+02  0.67712765934E+03  0.69065344496E+03  0.41800000000E+01 0.  1.
        -11    1    4    4    0    0  0.25981931068E+02 -0.21300915816E+02  0.29843102716E+02  0.44937740667E+02  0.00000000000E+00 0. -1.
         11    1    4    4    0    0  0.77658517954E+02 -0.10138404941E+02  0.40242254875E+03  0.40997260934E+03  0.00000000000E+00 0.  1.
</event>
<event>
 8    1  0.6684013E-009  0.1066943E+03  0.7561462E-02  0.1266817E+00
         -3   -1    0    0    0  501 -0.00000000000E+00  0.00000000000E+00  0.89525422443E+02  0.89525422443E+02  0.00000000000E+00 0.  1.
          3   -1    0    0  501    0  0.00000000000E+00 -0.00000000000E+00 -0.14386780578E+03  0.14386780578E+03  0.00000000000E+00 0. -1.
         25    2    1    2    0    0  0.11967352767E+02 -0.12578711254E+02  0.65119222015E+00  0.12629518853E+03  0.12509440070E+03 0.  0.
         23    2    1    2    0    0 -0.11967352767E+02  0.12578711254E+02 -0.54993575559E+02  0.10709803969E+03  0.90245527556E+02 0.  0.
          5    1    3    3  502    0 -0.39802803277E+02 -0.48089119959E+02 -0.68230345135E+01  0.62935306523E+02  0.41800000000E+01 0. -1.
         -5    1    3    3    0  502  0.51770156044E+02  0.35510408705E+02  0.74742267336E+01  0.63359882012E+02  0.41800000000E+01 0. -1.
        -11    1    4    4    0    0 -0.45547300127E+02 -0.11023019766E+02 -0.44744965165E+02  0.64793328524E+02  0.00000000000E+00 0. -1.
         11    1    4    4    0    0  0.33579947360E+02  0.23601731020E+02 -0.10248610394E+02  0.42304711166E+02  0.00000000000E+00 0.  1.
</event>
<event>
 8    1  0.6684013E-009  0.9669199E+02  0.7561462E-02  0.1287410E+00
          1   -1    0    0  501    0  0.00000000000E+00  0.00000000000E+00  0.16931941088E+02  0.16931941088E+02  0.00000000000E+00 0. -1.
         -1   -1    0    0    0  501 -0.00000000000E+00 -0.00000000000E+00 -0.91709877360E+03  0.91709877360E+03  0.00000000000E+00 0.  1.
         25    2    1    2    0    0  0.21490695118E+02  0.29879712327E+02 -0.68770462439E+03  0.69995598331E+03  0.12508429548E+03 0.  0.
         23    2    1    2    0    0 -0.21490695118E+02 -0.29879712327E+02 -0.21246220813E+03  0.23407473138E+03  0.91083164223E+02 0.  0.
          5    1    3    3  502    0 -0.25292693335E+02 -0.27396696873E+02 -0.87598925476E+02  0.95296083237E+02  0.41800000000E+01 0.  1.
         -5    1    3    3    0  502  0.46783388453E+02  0.57276409200E+02 -0.60010569891E+03  0.60465990007E+03  0.41800000000E+01 0.  1.
        -11    1    4    4    0    0 -0.22212450091E+02 -0.53620578113E+02 -0.76349438950E+02  0.95905141490E+02  0.00000000000E+00 0. -1.
         11    1    4    4    0    0  0.72175497318E+00  0.23740865786E+02 -0.13611276918E+03  0.13816958989E+03  0.00000000000E+00 0.  1.
</event>
<event>
 8    1  0.6684013E-009  0.2491047E+03  0.7561462E-02  0.1113872E+00
          2   -1    0    0  501    0  0.00000000000E+00  0.00000000000E+00  0.19323162372E+04  0.19323162372E+04  0.00000000000E+00 0.  1.
         -2   -1    0    0    0  501 -0.00000000000E+00 -0.00000000000E+00 -0.46456988265E+02  0.46456988265E+02  0.00000000000E+00 0. -1.
         25    2    1    2    0    0 -0.20498686499E+03  0.12895374682E+03  0.14220445058E+04  0.14479321336E+04  0.12509277838E+03 0.  0.
         23    2    1    2    0    0  0.20498686499E+03 -0.12895374682E+03  0.46381474314E+03  0.53084109194E+03  0.89551467336E+02 0.  0.
          5    1    3    3  502    0 -0.48685601923E+02 -0.22813228247E+01  0.11396024129E+03  0.12401572990E+03  0.41800000000E+01 0.  1.
         -5    1    3    3    0  502 -0.15630126306E+03  0.13123506964E+03  0.13080842646E+04  0.13239164037E+04  0.41800000000E+01 0.  1.
        -11    1    4    4    0    0  0.10402942309E+03 -0.42994985088E+02  0.13178436682E+03  0.17331419142E+03  0.00000000000E+00 0. -1.
         11    1    4    4    0    0  0.10095744190E+03 -0.85958761730E+02  0.33203037632E+03  0.35752690051E+03  0.00000000000E+00 0.  1.
</event>
<event>
 8    1  0.6684013E-009  0.8097953E+02  0.7561462E-02  0.1326294E+00
         -1   -1    0    0    0  501 -0.00000000000E+00  0.00000000000E+00  0.54264041471E+02  0.54264041471E+02  0.00000000000E+00 0. -1.
          1   -1    0    0  501    0  0.00000000000E+00 -0.00000000000E+00 -0.24576944629E+03  0.24576944629E+03  0.00000000000E+00 0.  1.
         25    2    1    2    0    0 -0.13290632475E+02  0.59060958442E+02 -0.15166457647E+03  0.20570492660E+03  0.12509010891E+03 0.  0.
         23    2    1    2    0    0  0.13290632475E+02 -0.59060958442E+02 -0.39840828347E+02  0.94328561163E+02  0.60380030838E+02 0.  0.
          5    1    3    3  502    0  0.34351622757E+02  0.25854318746E+02  0.55509543359E-01  0.43196704332E+02  0.41800000000E+01 0. -1.
         -5    1    3    3    0  502 -0.47642255232E+02  0.33206639697E+02 -0.15172008602E+03  0.16250822227E+03  0.41800000000E+01 0.  1.
        -11    1    4    4    0    0  0.25819740869E+01 -0.12208743153E+02 -0.44335711323E+02  0.46058390094E+02  0.00000000000E+00 0.  1.
         11    1    4    4    0    0  0.10708658388E+02 -0.46852215290E+02  0.44948829762E+01  0.48270171069E+02  0.00000000000E+00 0. -1.
</event>
<event>
 8    1  0.6684013E-009  0.1260872E+03  0.7561462E-02  0.1233380E+00
          2   -1    0    0  501    0  0.00000000000E+00  0.00000000000E+00  0.19392892720E+04  0.19392892720E+04  0.00000000000E+00 0. -1.
         -2   -1    0    0    0  501 -0.00000000000E+00 -0.00000000000E+00 -0.15479674232E+02  0.15479674232E+02  0.00000000000E+00 0.  1.
         25    2    1    2    0    0  0.91249383675E+02 -0.17884921103E+02  0.15728632849E+04  0.15805674647E+04  0.12509307333E+03 0.  0.
         23    2    1    2    0    0 -0.91249383675E+02  0.17884921103E+02  0.35094631286E+03  0.37420148155E+03  0.90648297587E+02 0.  0.
          5    1    3    3  502    0  0.10092082992E+03  0.12242729973E+02  0.72512205246E+03  0.73222562214E+03  0.41800000000E+01 0. -1.
         -5    1    3    3    0  502 -0.96714462461E+01 -0.30127651077E+02  0.84774123247E+03  0.84834184257E+03  0.41800000000E+01 0. -1.
        -11    1    4    4    0    0 -0.11085675678E+02 -0.25179879780E+02  0.16391074847E+03  0.16620364622E+03  0.00000000000E+00 0. -1.
         11    1    4    4    0    0 -0.80163707997E+02  0.43064800883E+02  0.18703556439E+03  0.20799783533E+03  0.00000000000E+00 0.  1.
</event>
<event>
 8    1  0.6991171E-009  0.7562904E+02  0.7561462E-02  0.1341934E+00
         -2   -1    0    0    0  501 -0.00000000000E+00  0.00000000000E+00  0.41075221563E+02  0.41075221563E+02  0.00000000000E+00 0.  1.
          2   -1    0    0  501    0  0.00000000000E+00 -0.00000000000E+00 -0.23019378602E+03  0.23019378602E+03  0.00000000000E+00 0. -1.
         25    2    1    2    0    0  0.97800970094E+01  0.12774168698E+02 -0.97301584893E+02  0.15929173671E+03  0.12508968494E+03 0.  0.
         23    2    1    2    0    0 -0.97800970094E+01 -0.12774168698E+02 -0.91816979563E+02  0.11197727087E+03  0.62046126161E+02 0.  0.
          5    1    3    3  502    0  0.47164393288E+02 -0.26557917197E+02 -0.82305547852E+01  0.54909174025E+02  0.41800000000E+01 0.  1.
         -5    1    3    3    0  502 -0.37384296278E+02  0.39332085895E+02 -0.89071030108E+02  0.10438256269E+03  0.41800000000E+01 0.  1.
        -11    1    4    4    0    0 -0.23469841972E+02  0.50078905769E+00 -0.89781462777E+02  0.92799759322E+02  0.00000000000E+00 0. -1.
         11    1    4    4    0    0  0.13689744962E+02 -0.13274957756E+02 -0.20355167865E+01  0.19177511547E+02  0.00000000000E+00 0.  1.
</event>
<event>
 8    1  0.6684013E-009  0.1483845E+03  0.7561462E-02  0.1202472E+00
          1   -1    0    0  501    0  0.00000000000E+00  0.00000000000E+00  0.75185651554E+02  0.75185651554E+02  0.00000000000E+00 0. -1.
         -1   -1    0    0    0  501 -0.00000000000E+00 -0.00000000000E+00 -0.34797793875E+03  0.34797793875E+03  0.00000000000E+00 0.  1.
         25    2    1    2    0    0 -0.95291220596E+02  0.22448367108E+02 -0.21793147584E+03  0.26967579042E+03  0.12508620174E+03 0.  0.
         23    2    1    2    0    0  0.95291220596E+02 -0.22448367108E+02 -0.54860811356E+02  0.15348779989E+03  0.10471127057E+03 0.  0.
          5    1    3    3  502    0 -0.12488551173E+03  0.69262169228E+01 -0.17010465749E+03  0.21118103708E+03  0.41800000000E+01 0.  1.
         -5    1    3    3    0  502  0.29594291138E+02  0.15522150185E+02 -0.47826818350E+02  0.58494753336E+02  0.41800000000E+01 0.  1.
        -11    1    4    4    0    0  0.14973483580E+02 -0.50651155446E+02 -0.11432651978E+01  0.52830406149E+02  0.00000000000E+00 0.  1.
         11    1    4    4    0    0  0.80317737016E+02  0.28202788338E+02 -0.53717546158E+02  0.10065739374E+03  0.00000000000E+00 0. -1.
</event>
<event>
 8    1  0.6684013E-009  0.1173078E+03  0.7561462E-02  0.1247606E+00
          2   -1    0    0  501    0  0.00000000000E+00  0.00000000000E+00  0.53068401627E+02  0.53068401627E+02  0.00000000000E+00 0. -1.
         -2   -1    0    0    0  501 -0.00000000000E+00 -0.00000000000E+00 -0.26641408575E+03  0.26641408575E+03  0.00000000000E+00 0.  1.
         25    2    1    2    0    0 -0.28255047771E+02 -0.41247537701E+02 -0.14051053795E+03  0.19465455293E+03  0.12508987413E+03 0.  0.
         23    2    1    2    0    0  0.28255047771E+02  0.41247537701E+02 -0.72835146166E+02  0.12482793445E+03  0.88189271512E+02 0.  0.
          5    1    3    3  502    0  0.48403730029E+02 -0.25509151789E+02 -0.72248101234E+02  0.90724299047E+02  0.41800000000E+01 0.  1.
         -5    1    3    3    0  502 -0.76658777800E+02 -0.15738385912E+02 -0.68262436720E+02  0.10393025388E+03  0.41800000000E+01 0.  1.
        -11    1    4    4    0    0  0.60409225596E+02  0.28304099332E+02 -0.47478356792E+02  0.81881566545E+02  0.00000000000E+00 0.  1.
         11    1    4    4    0    0 -0.32154177826E+02  0.12943438369E+02 -0.25356789374E+02  0.42946367900E+02  0.00000000000E+00 0. -1.
</event>
<event>
 8    1  0.6684013E-009  0.1027590E+03  0.7561462E-02  0.1274599E+00
         -1   -1    0    0    0  501 -0.00000000000E+00  0.00000000000E+00  0.18661729371E+02  0.18661729371E+02  0.00000000000E+00 0.  1.
          1   -1    0    0  501    0  0.00000000000E+00 -0.00000000000E+00 -0.10726175819E+04  0.10726175819E+04  0.00000000000E+00 0. -1.
         25    2    1    2    0    0  0.33525468264E+02 -0.38241683501E+01 -0.92189024603E+03  0.93094650301E+03  0.12506472108E+03 0.  0.
         23    2    1    2    0    0 -0.33525468264E+02  0.38241683501E+01 -0.13206560651E+03  0.16033280827E+03  0.84419806322E+02 0.  0.
          5    1    3    3  502    0  0.80387487001E+02  0.58037883176E+01 -0.62676254563E+03  0.63193717490E+03  0.41800000000E+01 0.  1.
         -5    1    3    3    0  502 -0.46862018737E+02 -0.96279566677E+01 -0.29512770041E+03  0.29900932811E+03  0.41800000000E+01 0.  1.
        -11    1    4    4    0    0 -0.30663236879E+02  0.34398766717E+02 -0.11776119052E+03  0.12645634520E+03  0.00000000000E+00 0. -1.
         11    1    4    4    0    0 -0.28622313848E+01 -0.30574598367E+02 -0.14304415995E+02  0.33876463079E+02  0.00000000000E+00 0.  1.
</event>
<event>
 8    1  0.6684013E-009  0.7335846E+02  0.7561462E-02  0.1349031E+00
         -2   -1    0    0    0  501 -0.00000000000E+00  0.00000000000E+00  0.14657164076E+02  0.14657164076E+02  0.00000000000E+00 0.  1.
          2   -1    0    0  501    0  0.00000000000E+00 -0.00000000000E+00 -0.10909047615E+04  0.10909047615E+04  0.00000000000E+00 0. -1.
         25    2    1    2    0    0  0.12750685123E+00  0.48181884307E+02 -0.77888581857E+03  0.79033685173E+03  0.12509080941E+03 0.  0.
         23    2    1    2    0    0 -0.12750685123E+00 -0.48181884307E+02 -0.29736177884E+03  0.31522507384E+03  0.92851006592E+02 0.  0.
          5    1    3    3  502    0 -0.94925806871E+01  0.24698416023E+02 -0.75423856441E+03  0.75471412156E+03  0.41800000000E+01 0. -1.
         -5    1    3    3    0  502  0.96200875383E+01  0.23483468284E+02 -0.24647254158E+02  0.35622730165E+02  0.41800000000E+01 0. -1.
        -11    1    4    4    0    0 -0.34542705506E+02  0.55405578832E+00 -0.50029068177E+02  0.60798134381E+02  0.00000000000E+00 0.  1.
         11    1    4    4    0    0  0.34415198655E+02 -0.48735940095E+02 -0.24733271066E+03  0.25442693945E+03  0.00000000000E+00 0. -1.
</event>
<event>
 8    1  0.6684013E-009  0.1137027E+03  0.7561462E-02  0.1253863E+00
         -2   -1    0    0    0  501 -0.00000000000E+00  0.00000000000E+00  0.17238364712E+02  0.17238364712E+02  0.00000000000E+00 0. -1.
          2   -1    0    0  501    0  0.00000000000E+00 -0.00000000000E+00 -0.83074717476E+03  0.83074717476E+03  0.00000000000E+00 0.  1.
         25    2    1    2    0    0  0.15527060091E+02  0.33371322337E+02 -0.58660668240E+03  0.60092360339E+03  0.12508813903E+03 0.  0.
         23    2    1    2    0    0 -0.15527060091E+02 -0.33371322337E+02 -0.22690212765E+03  0.24706193609E+03  0.90555452515E+02 0.  0.
          5    1    3    3  502    0  0.70531988931E+02  0.14968247993E+02 -0.32944508565E+03  0.33726895316E+03  0.41800000000E+01 0.  1.
         -5    1    3    3    0  502 -0.55004928839E+02  0.18403074344E+02 -0.25716159675E+03  0.26365465023E+03  0.41800000000E+01 0.  1.
        -11    1    4    4    0    0 -0.50629157419E+02 -0.31789853578E+01 -0.13350804567E+03  0.14282092210E+03  0.00000000000E+00 0.  1.
         11    1    4    4    0    0  0.35102097328E+02 -0.30192336979E+02 -0.93394081979E+02  0.10424101399E+03  0.00000000000E+00 0. -1.
</event>
<event>
 8    1  0.6684013E-009  0.1072513E+03  0.7561462E-02  0.1265746E+00
          2   -1    0    0  501    0  0.00000000000E+00  0.00000000000E+00  0.68944923619E+03  0.68944923619E+03  0.00000000000E+00 0. -1.
         -2   -1    0    0    0  501 -0.00000000000E+00 -0.00000000000E+00 -0.23153250553E+02  0.23153250553E+02  0.00000000000E+00 0.  1.
         25    2    1    2    0    0 -0.48983011414E+02  0.66444496435E+01  0.49313626331E+03  0.51114909106E+03  0.12508611029E+03 0.  0.
         23    2    1    2    0    0  0.48983011414E+02 -0.66444496435E+01  0.17315972233E+03  0.20145339568E+03  0.90308898096E+02 0.  0.
          5    1    3    3  502    0 -0.76597673944E+01 -0.52547240235E+02  0.30458607301E+03  0.30920872039E+03  0.41800000000E+01 0.  1.
         -5    1    3    3    0  502 -0.41323244020E+02  0.59191689879E+02  0.18855019030E+03  0.20194037068E+03  0.41800000000E+01 0.  1.
        -11    1    4    4    0    0  0.53286922526E+00 -0.33517713081E+02  0.21087679576E+02  0.39603172470E+02  0.00000000000E+00 0.  1.
         11    1    4    4    0    0  0.48450142189E+02  0.26873263438E+02  0.15207204275E+03  0.16185022321E+03  0.00000000000E+00 0. -1.
</event>
<event>
 8    1  0.6684013E-009  0.7315440E+02  0.7561462E-02  0.1349683E+00
         -3   -1    0    0    0  501 -0.00000000000E+00  0.00000000000E+00  0.12299079417E+03  0.12299079417E+03  0.00000000000E+00 0.  1.
          3   -1    0    0  501    0  0.00000000000E+00 -0.00000000000E+00 -0.93940874755E+02  0.93940874755E+02  0.00000000000E+00 0. -1.
         25    2    1    2    0    0  0.34614718951E+00  0.18800422230E+01  0.20420205134E+02  0.12676269856E+03  0.12509253612E+03 0.  0.
         23    2    1    2    0    0 -0.34614718951E+00 -0.18800422230E+01  0.86297142776E+01  0.90168970359E+02  0.89734702710E+02 0.  0.
          5    1    3    3  502    0  0.75433088560E+01 -0.26039158785E+02 -0.46380936208E+02  0.53885090166E+02  0.41800000000E+01 0.  1.
         -5    1    3    3    0  502 -0.71971616665E+01  0.27919201008E+02  0.66801141342E+02  0.72877608396E+02  0.41800000000E+01 0.  1.
        -11    1    4    4    0    0  0.16707719525E+02 -0.42513203030E+02  0.37276480753E+01  0.45830292207E+02  0.00000000000E+00 0.  1.
         11    1    4    4    0    0 -0.17053866715E+02  0.40633160807E+02  0.49020662023E+01  0.44338678151E+02  0.00000000000E+00 0. -1.
</event>
<event>
 8    1  0.6684013E-009  0.2857663E+03  0.7561462E-02  0.1092581E+00
         -1   -1    0    0    0  501 -0.00000000000E+00  0.00000000000E+00  0.11130221826E+04  0.11130221826E+04  0.00000000000E+00 0.  1.
          1   -1    0    0  501    0  0.00000000000E+00 -0.00000000000E+00 -0.79065990896E+02  0.79065990896E+02  0.00000000000E+00 0. -1.
         25    2    1    2    0    0 -0.20049066459E+03 -0.18725372019E+03  0.45643561564E+03  0.54702987228E+03  0.12509095743E+03 0.  0.
         23    2    1    2    0    0  0.20049066459E+03  0.18725372019E+03  0.57752057606E+03  0.64505830121E+03  0.85496981661E+02 0.  0.
          5    1    3    3  502    0 -0.54580805986E+02 -0.10042355827E+03  0.27838000240E+03  0.30095988699E+03  0.41800000000E+01 0. -1.
         -5    1    3    3    0  502 -0.14590985861E+03 -0.86830161914E+02  0.17805561324E+03  0.24606998529E+03  0.41800000000E+01 0. -1.
        -11    1    4    4    0    0  0.12325815291E+03  0.56804402486E+02  0.26779541719E+03  0.30022274709E+03  0.00000000000E+00 0. -1.
         11    1    4    4    0    0  0.77232511684E+02  0.13044931770E+03  0.30972515886E+03  0.34483555412E+03  0.00000000000E+00 0.  1.
</event>
<event>
 8    1  0.6684013E-009  0.2973637E+03  0.7561462E-02  0.1086566E+00
          1   -1    0    0  501    0  0.00000000000E+00  0.00000000000E+00  0.91437327165E+03  0.91437327165E+03  0.00000000000E+00 0. -1.
         -1   -1    0    0    0  501 -0.00000000000E+00 -0.00000000000E+00 -0.11507441817E+03  0.11507441817E+03  0.00000000000E+00 0.  1.
         25    2    1    2    0    0  0.11120692614E+03 -0.26369217671E+03  0.24321058000E+03  0.39585505804E+03  0.12509714738E+03 0.  0.
         23    2    1    2    0    0 -0.11120692614E+03  0.26369217671E+03  0.55608827349E+03  0.63359263177E+03  0.10151310580E+03 0.  0.
          5    1    3    3  502    0  0.10312921114E+03 -0.11730326404E+03  0.77022011227E+02  0.17419974902E+03  0.41800000000E+01 0. -1.
         -5    1    3    3    0  502  0.80777149994E+01 -0.14638891267E+03  0.16618856877E+03  0.22165530903E+03  0.41800000000E+01 0. -1.
        -11    1    4    4    0    0 -0.11091020502E+03  0.20469672704E+03  0.50283571348E+03  0.55411693566E+03  0.00000000000E+00 0. -1.
         11    1    4    4    0    0 -0.29672111401E+00  0.58995449663E+02  0.53252560010E+02  0.79475696109E+02  0.00000000000E+00 0.  1.
</event>
<event>
 8    1  0.6684013E-009  0.2893198E+03  0.7561462E-02  0.1090705E+00
          2   -1    0    0  501    0  0.00000000000E+00  0.00000000000E+00  0.11976859713E+04  0.11976859713E+04  0.00000000000E+00 0. -1.
         -2   -1    0    0    0  501 -0.00000000000E+00 -0.00000000000E+00 -0.72137798594E+02  0.72137798594E+02  0.00000000000E+00 0.  1.
         25    2    1    2    0    0 -0.25024623446E+03 -0.10771973080E+03  0.53812537277E+03  0.61599770213E+03  0.12509010328E+03 0.  0.
         23    2    1    2    0    0  0.25024623446E+03  0.10771973080E+03  0.58742279994E+03  0.65382606778E+03  0.90533213508E+02 0.  0.
          5    1    3    3  502    0 -0.22067433615E+03 -0.48241702275E+02  0.35134977616E+03  0.41771828076E+03  0.41800000000E+01 0. -1.
         -5    1    3    3    0  502 -0.29571898306E+02 -0.59478028524E+02  0.18677559661E+03  0.19827942136E+03  0.41800000000E+01 0. -1.
        -11    1    4    4    0    0  0.37199829465E+02  0.55488591868E+02  0.11582850707E+03  0.13371258052E+03  0.00000000000E+00 0.  1.
         11    1    4    4    0    0  0.21304640500E+03  0.52231138931E+02  0.47159429287E+03  0.52011348725E+03  0.00000000000E+00 0. -1.
</event>
<event>
 8    1  0.6684013E-009  0.1038920E+03  0.7561462E-02  0.1272318E+00
          2   -1    0    0  501    0  0.00000000000E+00  0.00000000000E+00  0.35177609395E+03  0.35177609395E+03  0.00000000000E+00 0. -1.
         -2   -1    0    0    0  501 -0.00000000000E+00 -0.00000000000E+00 -0.38676175770E+02  0.38676175770E+02  0.00000000000E+00 0.  1.
         25    2    1    2    0    0  0.28821311754E+02  0.31521795665E+02  0.18978609365E+03  0.23129076059E+03  0.12510940404E+03 0.  0.
         23    2    1    2    0    0 -0.28821311754E+02 -0.31521795665E+02  0.12331382453E+03  0.15916150913E+03  0.91114186898E+02 0.  0.
          5    1    3    3  502    0  0.76292431384E+02  0.35119397474E+02  0.12858857438E+03  0.15364374711E+03  0.41800000000E+01 0. -1.
         -5    1    3    3    0  502 -0.47471119630E+02 -0.35976018082E+01  0.61197519264E+02  0.77647013476E+02  0.41800000000E+01 0. -1.
        -11    1    4    4    0    0  0.14577269154E+02  0.84934930047E+01  0.89614294196E+02  0.91188584393E+02  0.00000000000E+00 0. -1.
         11    1    4    4    0    0 -0.43398580908E+02 -0.40015288670E+02  0.33699530336E+02  0.67972924735E+02  0.00000000000E+00 0.  1.
</event>
<event>
 8    1  0.6684013E-009  0.2299953E+03  0.7561462E-02  0.1126643E+00
         -2   -1    0    0    0  501 -0.00000000000E+00  0.00000000000E+00  0.33180290016E+03  0.33180290016E+03  0.00000000000E+00 0.  1.
          2   -1    0    0  501    0  0.00000000000E+00 -0.00000000000E+00 -0.23054071660E+03  0.23054071660E+03  0.00000000000E+00 0. -1.
         25    2    1    2    0    0 -0.12261207660E+03 -0.19261549759E+03 -0.60852832133E+02  0.26736685776E+03  0.12509004040E+03 0.  0.
         23    2    1    2    0    0  0.12261207660E+03  0.19261549759E+03  0.16211501570E+03  0.29497675900E+03  0.92712236492E+02 0.  0.
          5    1    3    3  502    0 -0.47841859177E+02 -0.61435652147E+02 -0.83929856583E+02  0.11456385150E+03  0.41800000000E+01 0.  1.
         -5    1    3    3    0  502 -0.74770217421E+02 -0.13117984544E+03  0.23077024450E+02  0.15280300626E+03  0.41800000000E+01 0.  1.
        -11    1    4    4    0    0  0.41594925399E+02  0.97606870019E+02  0.12656228509E+03  0.16515220526E+03  0.00000000000E+00 0.  1.
         11    1    4    4    0    0  0.81017151198E+02  0.95008627572E+02  0.35552730613E+02  0.12982455375E+03  0.00000000000E+00 0. -1.
</event>
<event>
 8    1  0.6684013E-009  0.2117888E+03  0.7561462E-02  0.1140157E+00
         -1   -1    0    0    0  501 -0.00000000000E+00  0.00000000000E+00  0.46840099337E+03  0.46840099337E+03  0.00000000000E+00 0.  1.
          1   -1    0    0  501    0  0.00000000000E+00 -0.00000000000E+00 -0.11142947227E+03  0.11142947227E+03  0.00000000000E+00 0. -1.
         25    2    1    2    0    0 -0.14685419780E+03  0.13610541999E+03  0.19844969209E+03  0.30841740661E+03  0.12509266826E+03 0.  0.
         23    2    1    2    0    0  0.14685419780E+03 -0.13610541999E+03  0.15852182901E+03  0.27141305903E+03  0.91896885584E+02 0.  0.
          5    1    3    3  502    0 -0.11509802763E+02  0.29291939186E+02  0.11020320198E+03  0.11468527102E+03  0.41800000000E+01 0. -1.
         -5    1    3    3    0  502 -0.13534439503E+03  0.10681348080E+03  0.88246490104E+02  0.19373213560E+03  0.41800000000E+01 0. -1.
        -11    1    4    4    0    0  0.90059263110E+02 -0.13533623877E+03  0.12816791154E+03  0.20701106720E+03  0.00000000000E+00 0.  1.
         11    1    4    4    0    0  0.56794934686E+02 -0.76918121744E+00  0.30353917475E+02  0.64401991831E+02  0.00000000000E+00 0. -1.
</event>
<event>
 8    1  0.6684013E-009  0.1194145E+03  0.7561462E-02  0.1244066E+00
         -1   -1    0    0    0  501 -0.00000000000E+00  0.00000000000E+00  0.50132707161E+03  0.50132707161E+03  0.00000000000E+00 0.  1.
          1   -1    0    0  501    0  0.00000000000E+00 -0.00000000000E+00 -0.47977710531E+02  0.47977710531E+02  0.00000000000E+00 0. -1.
         25    2    1    2    0    0 -0.77664035360E+02  0.31581829980E+02  0.36971936616E+03  0.39921085184E+03  0.12509108738E+03 0.  0.
         23    2    1    2    0    0  0.77664035360E+02 -0.31581829980E+02  0.83629994919E+02  0.15009393030E+03  0.92223085449E+02 0.  0.
          5    1    3    3  502    0 -0.56692488134E+01 -0.22805930674E+02  0.23975700512E+03  0.24094220212E+03  0.41800000000E+01 0.  1.
         -5    1    3    3    0  502 -0.71994786547E+02  0.54387760654E+02  0.12996236104E+03  0.15826864972E+03  0.41800000000E+01 0.  1.
        -11    1    4    4    0    0  0.58081633073E+02  0.26131462206E+02  0.42312112992E+02  0.76463352813E+02  0.00000000000E+00 0.  1.
         11    1    4    4    0    0  0.19582402287E+02 -0.57713292187E+02  0.41317881927E+02  0.73630577489E+02  0.00000000000E+00 0. -1.
</event>
<event>
 8    1  0.6684013E-009  0.7119879E+02  0.7561462E-02  0.1356063E+00
          1   -1    0    0  501    0  0.00000000000E+00  0.00000000000E+00  0.37481339200E+03  0.37481339200E+03  0.00000000000E+00 0. -1.
         -1   -1    0    0    0  501 -0.00000000000E+00 -0.00000000000E+00 -0.36764368938E+02  0.36764368938E+02  0.00000000000E+00 0.  1.
         25    2    1    2    0    0  0.14855653872E+02 -0.37168859468E+02  0.22230507902E+03  0.25820615783E+03  0.12509459307E+03 0.  0.
         23    2    1    2    0    0 -0.14855653872E+02  0.37168859468E+02  0.11574394404E+03  0.15337160312E+03  0.92325367550E+02 0.  0.
          5    1    3    3  502    0  0.26881999015E+02  0.48146632755E+01  0.21113488201E+03  0.21293481081E+03  0.41800000000E+01 0.  1.
         -5    1    3    3    0  502 -0.12026345143E+02 -0.41983522743E+02  0.11170197011E+02  0.45271347016E+02  0.41800000000E+01 0.  1.
        -11    1    4    4    0    0 -0.37506757965E+02  0.20236199568E+02  0.98159500783E+01  0.43733437345E+02  0.00000000000E+00 0.  1.
         11    1    4    4    0    0  0.22651104093E+02  0.16932659899E+02  0.10592799397E+03  0.10963816577E+03  0.00000000000E+00 0. -1.
</event>
<event>
 8    1  0.6684013E-009  0.1191977E+03  0.7561462E-02  0.1244426E+00
          1   -1    0    0  501    0  0.00000000000E+00  0.00000000000E+00  0.22073570238E+02  0.22073570238E+02  0.00000000000E+00 0. -1.
         -1   -1    0    0    0  501 -0.00000000000E+00 -0.00000000000E+00 -0.86120300758E+03  0.86120300758E+03  0.00000000000E+00 0.  1.
         25    2    1    2    0    0 -0.23774464390E+02  0.76990245354E+02 -0.54709301977E+03  0.56696610428E+03  0.12508824119E+03 0.  0.
         23    2    1    2    0    0  0.23774464390E+02 -0.76990245354E+02 -0.29203641757E+03  0.31631047354E+03  0.90963308232E+02 0.  0.
          5    1    3    3  502    0 -0.43100226081E+02  0.99550057799E+02 -0.49579042458E+03  0.50753665976E+03  0.41800000000E+01 0.  1.
         -5    1    3    3    0  502  0.19325761691E+02 -0.22559812445E+02 -0.51302595186E+02  0.59429444514E+02  0.41800000000E+01 0.  1.
        -11    1    4    4    0    0  0.43478900887E+02 -0.47774727824E+02 -0.87505721187E+02  0.10876622031E+03  0.00000000000E+00 0. -1.
         11    1    4    4    0    0 -0.19704436497E+02 -0.29215517530E+02 -0.20453069638E+03  0.20754425322E+03  0.00000000000E+00 0.  1.
</event>
<event>
 8    1  0.6684013E-009  0.1614864E+03  0.7561462E-02  0.1187029E+00
         -1   -1    0    0    0  501 -0.00000000000E+00  0.00000000000E+00  0.48841814490E+02  0.48841814490E+02  0.00000000000E+00 0.  1.
          1   -1    0    0  501    0  0.00000000000E+00 -0.00000000000E+00 -0.59492390159E+03  0.59492390159E+03  0.00000000000E+00 0. -1.
         25    2    1    2    0    0 -0.11192355811E+03  0.63368421261E+02 -0.34148754707E+03  0.38575108412E+03  0.12509082470E+03 0.  0.
         23    2    1    2    0    0  0.11192355811E+03 -0.63368421261E+02 -0.20459454003E+03  0.25801463196E+03  0.90389074680E+02 0.  0.
          5    1    3    3  502    0  0.13445452993E+01 -0.24522562296E+02 -0.14831483288E+02  0.28993260599E+02  0.41800000000E+01 0.  1.
         -5    1    3    3    0  502 -0.11326810341E+03  0.87890983557E+02 -0.32665606378E+03  0.35675782352E+03  0.41800000000E+01 0.  1.
        -11    1    4    4    0    0  0.59864835965E+02 -0.80055341838E+02 -0.10903766969E+03  0.14792521676E+03  0.00000000000E+00 0.  1.
         11    1    4    4    0    0  0.52058722143E+02  0.16686920577E+02 -0.95556870339E+02  0.11008941520E+03  0.00000000000E+00 0. -1.
</event>
<event>
 8    1  0.6684013E-009  0.1913528E+03  0.7561462E-02  0.1157247E+00
         -2   -1    0    0    0  501 -0.00000000000E+00  0.00000000000E+00  0.49448124815E+02  0.49448124815E+02  0.00000000000E+00 0.  1.
          2   -1    0    0  501    0  0.00000000000E+00 -0.00000000000E+00 -0.10171625509E+04  0.10171625509E+04  0.00000000000E+00 0. -1.
         25    2    1    2    0    0  0.14538798981E+03  0.75337810041E+02 -0.76230439893E+03  0.78966357124E+03  0.12508839241E+03 0.  0.
         23    2    1    2    0    0 -0.14538798981E+03 -0.75337810041E+02 -0.20541002716E+03  0.27694710448E+03  0.87709556025E+02 0.  0.
          5    1    3    3  502    0 -0.78910868109E+01  0.49808704858E+02 -0.18387680760E+03  0.19071268732E+03  0.41800000000E+01 0. -1.
         -5    1    3    3    0  502  0.15327907662E+03  0.25529105182E+02 -0.57842759133E+03  0.59895088392E+03  0.41800000000E+01 0. -1.
        -11    1    4    4    0    0 -0.55228240771E+02 -0.65932063340E+02 -0.57460862640E+02  0.10343571090E+03  0.00000000000E+00 0. -1.
         11    1    4    4    0    0 -0.90159749040E+02 -0.94057467013E+01 -0.14794916452E+03  0.17351139357E+03  0.00000000000E+00 0.  1.
</event>
<event>
 8    1  0.6684013E-009  0.1730415E+03  0.7561462E-02  0.1174713E+00
          2   -1    0    0  501    0  0.00000000000E+00  0.00000000000E+00  0.35791058539E+03  0.35791058539E+03  0.00000000000E+00 0.  1.
         -2   -1    0    0    0  501 -0.00000000000E+00 -0.00000000000E+00 -0.84409822839E+02  0.84409822839E+02  0.00000000000E+00 0. -1.
         25    2    1    2    0    0 -0.13797036625E+03 -0.89449081543E+01  0.15136947870E+03  0.24015541520E+03  0.12508425568E+03 0.  0.
         23    2    1    2    0    0  0.13797036625E+03  0.89449081543E+01  0.12213128385E+03  0.20216499303E+03  0.82697040859E+02 0.  0.
          5    1    3    3  502    0 -0.12960209829E+03  0.39749238232E+02  0.12262512712E+03  0.18284173490E+03  0.41800000000E+01 0. -1.
         -5    1    3    3    0  502 -0.83682679657E+01 -0.48694146386E+02  0.28744351579E+02  0.57313680293E+02  0.41800000000E+01 0. -1.
        -11    1    4    4    0    0  0.53533687394E+02  0.44150592007E+02  0.47343254153E+02  0.84003060506E+02  0.00000000000E+00 0. -1.
         11    1    4    4    0    0  0.84436678861E+02 -0.35205683853E+02  0.74788029697E+02  0.11816193253E+03  0.00000000000E+00 0.  1.
</event>
<event>
 8    1  0.6684013E-009  0.1299423E+03  0.7561462E-02  0.1227541E+00
         -2   -1    0    0    0  501 -0.00000000000E+00  0.00000000000E+00  0.21773584488E+02  0.21773584488E+02  0.00000000000E+00 0.  1.
          2   -1    0    0  501    0  0.00000000000E+00 -0.00000000000E+00 -0.89084719630E+03  0.89084719630E+03  0.00000000000E+00 0. -1.
         25    2    1    2    0    0 -0.73371163586E+02  0.40625356376E+02 -0.55388949198E+03  0.57399870015E+03  0.12508873341E+03 0.  0.
         23    2    1    2    0    0  0.73371163586E+02 -0.40625356376E+02 -0.31518411983E+03  0.33862208064E+03  0.91050188761E+02 0.  0.
          5    1    3    3  502    0 -0.86355919778E+02 -0.92153866629E+01 -0.22758764268E+03  0.24363061329E+03  0.41800000000E+01 0. -1.
         -5    1    3    3    0  502  0.12984756192E+02  0.49840743039E+02 -0.32630184930E+03  0.33036808686E+03  0.41800000000E+01 0. -1.
        -11    1    4    4    0    0  0.47976607643E+02 -0.68452585278E+02 -0.24645509871E+03  0.26024532078E+03  0.00000000000E+00 0. -1.
         11    1    4    4    0    0  0.25394555942E+02  0.27827228902E+02 -0.68729021128E+02  0.78376759854E+02  0.00000000000E+00 0.  1.
</event>
<event>
 8    1  0.6684013E-009  0.1109529E+03  0.7561462E-02  0.1258815E+00
          1   -1    0    0  501    0  0.00000000000E+00  0.00000000000E+00  0.56648754772E+03  0.56648754772E+03  0.00000000000E+00 0.  1.
         -1   -1    0    0    0  501 -0.00000000000E+00 -0.00000000000E+00 -0.66807043228E+02  0.66807043228E+02  0.00000000000E+00 0. -1.
         25    2    1    2    0    0  0.74049287676E+02 -0.58022141567E+02  0.48974658102E+02  0.16400198884E+03  0.12509304253E+03 0.  0.
         23    2    1    2    0    0 -0.74049287676E+02  0.58022141567E+02  0.45070584639E+03  0.46929260211E+03  0.90829073034E+02 0.  0.
          5    1    3    3  502    0  0.24815777232E+02 -0.30793498738E+02 -0.41436559207E+02  0.57432771160E+02  0.41800000000E+01 0.  1.
         -5    1    3    3    0  502  0.49233510444E+02 -0.27228642829E+02  0.90411217309E+02  0.10656921768E+03  0.41800000000E+01 0.  1.
        -11    1    4    4    0    0 -0.56137568817E+02 -0.85467179692E+01  0.14094913824E+03  0.15195766710E+03  0.00000000000E+00 0.  1.
         11    1    4    4    0    0 -0.17911718859E+02  0.66568859537E+02  0.30975670815E+03  0.31733493501E+03  0.00000000000E+00 0. -1.
</event>
<event>
 8    1  0.6684013E-009  0.1116103E+03  0.7561462E-02  0.1257617E+00
         -3   -1    0    0    0  501 -0.00000000000E+00  0.00000000000E+00  0.31047098467E+03  0.31047098467E+03  0.00000000000E+00 0.  1.
          3   -1    0    0  501    0  0.00000000000E+00 -0.00000000000E+00 -0.70825664141E+02  0.70825664141E+02  0.00000000000E+00 0. -1.
         25    2    1    2    0    0 -0.76804532493E+02 -0.87606614788E+01  0.22413588848E+03  0.26806707084E+03  0.12508945825E+03 0.  0.
         23    2    1    2    0    0  0.76804532493E+02  0.87606614788E+01  0.15509432048E+02  0.11322957796E+03  0.81269363492E+02 0.  0.
          5    1    3    3  502    0  0.58826120710E+01 -0.42612309702E+02  0.13516647970E+03  0.14190794092E+03  0.41800000000E+01 0.  1.
         -5    1    3    3    0  502 -0.82687144564E+02  0.33851648223E+02  0.88969408776E+02  0.12615912992E+03  0.41800000000E+01 0.  1.
        -11    1    4    4    0    0  0.41348558855E+01  0.16930546390E+02  0.33641333171E+02  0.37887725345E+02  0.00000000000E+00 0.  1.
         11    1    4    4    0    0  0.72669676608E+02 -0.81698849110E+01 -0.18131901123E+02  0.75341852619E+02  0.00000000000E+00 0. -1.
</event>
<event>
 8    1  0.6684013E-009  0.1695097E+03  0.7561462E-02  0.1178360E+00
         -2   -1    0    0    0  501 -0.00000000000E+00  0.00000000000E+00  0.37786736271E+02  0.37786736271E+02  0.00000000000E+00 0.  1.
          2   -1    0    0  501    0  0.00000000000E+00 -0.00000000000E+00 -0.87033082465E+03  0.87033082465E+03  0.00000000000E+00 0. -1.
         25    2    1    2    0    0 -0.12163686214E+03  0.72539757348E+02 -0.36648920912E+03  0.41233400876E+03  0.12508977476E+03 0.  0.
         23    2    1    2    0    0  0.12163686214E+03 -0.72539757348E+02 -0.46605487926E+03  0.49578355216E+03  0.92393925591E+02 0.  0.
          5    1    3    3  502    0 -0.10981887290E+02 -0.33528507713E+02 -0.64024794282E+02  0.73221645439E+02  0.41800000000E+01 0. -1.
         -5    1    3    3    0  502 -0.11065497485E+03  0.10606826506E+03 -0.30246441484E+03  0.33911236332E+03  0.41800000000E+01 0. -1.
        -11    1    4    4    0    0  0.72426854253E+02 -0.14155914676E+02 -0.34388978272E+03  0.35171895286E+03  0.00000000000E+00 0.  1.
         11    1    4    4    0    0  0.49210007888E+02 -0.58383842673E+02 -0.12216509654E+03  0.14406459931E+03  0.00000000000E+00 0. -1.
</event>
<event>
 8    1  0.6684013E-009  0.1059524E+03  0.7561462E-02  0.1268254E+00
          2   -1    0    0  501    0  0.00000000000E+00  0.00000000000E+00  0.12591948067E+04  0.12591948067E+04  0.00000000000E+00 0. -1.
         -2   -1    0    0    0  501 -0.00000000000E+00 -0.00000000000E+00 -0.13943275300E+02  0.13943275300E+02  0.00000000000E+00 0.  1.
         25    2    1    2    0    0 -0.72521872795E+02  0.55002762191E+01  0.77698526102E+03  0.79034478877E+03  0.12509641968E+03 0.  0.
         23    2    1    2    0    0  0.72521872795E+02 -0.55002762191E+01  0.46826627035E+03  0.48279329320E+03  0.92338447797E+02 0.  0.
          5    1    3    3  502    0 -0.55221994463E+02 -0.23901896492E+02  0.72805877063E+03  0.73055308857E+03  0.41800000000E+01 0. -1.
         -5    1    3    3    0  502 -0.17299878331E+02  0.29402172712E+02  0.48926490384E+02  0.59791700191E+02  0.41800000000E+01 0. -1.
        -11    1    4    4    0    0  0.36539200639E+02 -0.48771222708E+02  0.22549905621E+03  0.23358846226E+03  0.00000000000E+00 0. -1.
         11    1    4    4    0    0  0.35982672156E+02  0.43270946488E+02  0.24276721414E+03  0.24920483095E+03  0.00000000000E+00 0.  1.
</event>
<event>
 8    1  0.6684013E-009  0.1411919E+03  0.7561462E-02  0.1211734E+00
          2   -1    0    0  501    0  0.00000000000E+00  0.00000000000E+00  0.31667160423E+03  0.31667160423E+03  0.00000000000E+00 0. -1.
         -2   -1    0    0    0  501 -0.00000000000E+00 -0.00000000000E+00 -0.10051989058E+03  0.10051989058E+03  0.00000000000E+00 0.  1.
         25    2    1    2    0    0  0.81165982376E+02  0.80780617178E+02  0.21299381389E+03  0.27226280924E+03  0.12508895927E+03 0.  0.
         23    2    1    2    0    0 -0.81165982376E+02 -0.80780617178E+02  0.31578997560E+01  0.14492868557E+03  0.88774583988E+02 0.  0.
          5    1    3    3  502    0  0.30437613279E+02  0.86643566599E+02  0.19890926253E+03  0.21912535922E+03  0.41800000000E+01 0.  1.
         -5    1    3    3    0  502  0.50728369097E+02 -0.58629494211E+01  0.14084551366E+02  0.53137450018E+02  0.41800000000E+01 0.  1.
        -11    1    4    4    0    0 -0.66246350204E+01 -0.61991564828E+02 -0.18556948477E+02  0.65047676636E+02  0.00000000000E+00 0.  1.
         11    1    4    4    0    0 -0.74541347355E+02 -0.18789052350E+02  0.21714848233E+02  0.79881008929E+02  0.00000000000E+00 0. -1.
</event>
<event>
 8    1  0.6684013E-009  0.5826878E+02  0.7561462E-02  0.1405244E+00
          3   -1    0    0  501    0  0.00000000000E+00  0.00000000000E+00  0.50938284404E+02  0.50938284404E+02  0.00000000000E+00 0. -1.
         -3   -1    0    0    0  501 -0.00000000000E+00 -0.00000000000E+00 -0.20400656247E+03  0.20400656247E+03  0.00000000000E+00 0.  1.
         25    2    1    2    0    0 -0.45207418866E+01  0.26577270795E+02 -0.11255334470E+03  0.17037946982E+03  0.12503647428E+03 0.  0.
         23    2    1    2    0    0  0.45207418866E+01 -0.26577270795E+02 -0.40514933359E+02  0.84565377053E+02  0.69159632307E+02 0.  0.
          5    1    3    3  502    0 -0.58539204137E+01  0.39644289370E+02  0.14319179896E+02  0.42760371569E+02  0.41800000000E+01 0. -1.
         -5    1    3    3    0  502  0.13331785271E+01 -0.13067018574E+02 -0.12687252460E+03  0.12761909825E+03  0.41800000000E+01 0. -1.
        -11    1    4    4    0    0 -0.25358136375E+02 -0.18859637932E+02 -0.43271435637E+02  0.53583002579E+02  0.00000000000E+00 0.  1.
         11    1    4    4    0    0  0.29878878262E+02 -0.77176328635E+01  0.27565022778E+01  0.30982374473E+02  0.00000000000E+00 0. -1.
</event>
<event>
 8    1  0.6684013E-009  0.6785892E+02  0.7561462E-02  0.1367529E+00
          2   -1    0    0  501    0  0.00000000000E+00  0.00000000000E+00  0.30564155654E+03  0.30564155654E+03  0.00000000000E+00 0. -1.
         -2   -1    0    0    0  501 -0.00000000000E+00 -0.00000000000E+00 -0.47356660380E+02  0.47356660380E+02  0.00000000000E+00 0.  1.
         25    2    1    2    0    0 -0.26582317585E+02 -0.36419922847E+02  0.10322993627E+03  0.16833301279E+03  0.12508618254E+03 0.  0.
         23    2    1    2    0    0  0.26582317585E+02  0.36419922847E+02  0.15505495989E+03  0.18466520413E+03  0.89588875670E+02 0.  0.
          5    1    3    3  502    0 -0.46819850542E+02 -0.26057791304E+02  0.12531985419E+03  0.13635851695E+03  0.41800000000E+01 0.  1.
         -5    1    3    3    0  502  0.20237532956E+02 -0.10362131543E+02 -0.22089917914E+02  0.31974495832E+02  0.41800000000E+01 0.  1.
        -11    1    4    4    0    0 -0.96135003899E+01  0.11089257565E+02 -0.73108054090E+01  0.16396307475E+02  0.00000000000E+00 0.  1.
         11    1    4    4    0    0  0.36195817975E+02  0.25330665282E+02  0.16236576530E+03  0.16826889666E+03  0.00000000000E+00 0. -1.
</event>
<event>
 7    1  0.6684013E-009  0.7347521E+02  0.7561462E-02  0.1348659E+00
         -2   -1    0    0    0  501 -0.00000000000E+00  0.00000000000E+00  0.44508976193E+02  0.44508976193E+02  0.00000000000E+00 0.  1.
          2   -1    0    0  501    0  0.00000000000E+00 -0.00000000000E+00 -0.36325261579E+03  0.36325261579E+03  0.00000000000E+00 0. -1.
         23    2    1    2    0    0 -0.45247510892E+01  0.52498646781E+02 -0.54097501753E+02  0.11029592348E+03  0.80386999906E+02 0.  0.
          5    1    1    2  502    0 -0.22363226922E+01 -0.39400667252E+02 -0.81509058283E+01  0.40513249498E+02  0.41800000000E+01 0. -1.
         -5    1    1    2    0  502  0.67610737813E+01 -0.13097979529E+02 -0.25649523201E+03  0.25695241900E+03  0.41800000000E+01 0. -1.
        -11    1    3    3    0    0  0.99593813573E+01 -0.17676976605E+02  0.36489944705E+00  0.20292804895E+02  0.00000000000E+00 0.  1.
         11    1    3    3    0    0 -0.14484132446E+02  0.70175623386E+02 -0.54462401200E+02  0.90003118583E+02  0.00000000000E+00 0. -1.
</event>
<event>
 8    1  0.6684013E-009  0.1230288E+03  0.7561462E-02  0.1238183E+00
         -2   -1    0    0    0  501 -0.00000000000E+00  0.00000000000E+00  0.44618872440E+03  0.44618872440E+03  0.00000000000E+00 0.  1.
          2   -1    0    0  501    0  0.00000000000E+00 -0.00000000000E+00 -0.94053077544E+02  0.94053077544E+02  0.00000000000E+00 0. -1.
         25    2    1    2    0    0 -0.39226824188E+02  0.67967512210E+02  0.38775129164E+03  0.41491459555E+03  0.12507889900E+03 0.  0.
         23    2    1    2    0    0  0.39226824188E+02 -0.67967512210E+02 -0.35615644783E+02  0.12532720640E+03  0.90995099092E+02 0.  0.
          5    1    3    3  502    0 -0.30128318880E+02  0.10103326244E+03  0.22465221694E+03  0.24819654852E+03  0.41800000000E+01 0. -1.
         -5    1    3    3    0  502 -0.90985053080E+01 -0.33065750233E+02  0.16309907470E+03  0.16671804703E+03  0.41800000000E+01 0. -1.
        -11    1    4    4    0    0 -0.19271149075E+02 -0.47137189778E+01  0.15474891131E+02  0.25160854294E+02  0.00000000000E+00 0.  1.
         11    1    4    4    0    0  0.58497973263E+02 -0.63253793232E+02 -0.51090535914E+02  0.10016635211E+03  0.00000000000E+00 0. -1.
</event>
<event>
 8    1  0.6684013E-009  0.1187651E+03  0.7561462E-02  0.1245148E+00
         -1   -1    0    0    0  501 -0.00000000000E+00  0.00000000000E+00  0.50693188734E+02  0.50693188734E+02  0.00000000000E+00 0.  1.
          1   -1    0    0  501    0  0.00000000000E+00 -0.00000000000E+00 -0.34298462541E+03  0.34298462541E+03  0.00000000000E+00 0. -1.
         25    2    1    2    0    0  0.43862360645E+02  0.32256417275E+02 -0.23864893498E+03  0.27489337440E+03  0.12509464412E+03 0.  0.
         23    2    1    2    0    0 -0.43862360645E+02 -0.32256417275E+02 -0.53642501705E+02  0.11878443974E+03  0.90927674553E+02 0.  0.
          5    1    3    3  502    0  0.12636983431E+02 -0.48154811396E+02 -0.82271782083E+02  0.96253299881E+02  0.41800000000E+01 0.  1.
         -5    1    3    3    0  502  0.31225377214E+02  0.80411228671E+02 -0.15637715289E+03  0.17864007452E+03  0.41800000000E+01 0.  1.
        -11    1    4    4    0    0  0.17814294144E+02 -0.35209960065E+02 -0.38667199313E+02  0.55247105502E+02  0.00000000000E+00 0. -1.
         11    1    4    4    0    0 -0.61676654789E+02  0.29535427904E+01 -0.14975302391E+02  0.63537334243E+02  0.00000000000E+00 0.  1.
</event>
<event>
 8    1  0.6684013E-009  0.1103152E+03  0.7561462E-02  0.1259987E+00
         -2   -1    0    0    0  501 -0.00000000000E+00  0.00000000000E+00  0.82817169920E+02  0.82817169920E+02  0.00000000000E+00 0.  1.
          2   -1    0    0  501    0  0.00000000000E+00 -0.00000000000E+00 -0.20102345077E+03  0.20102345077E+03  0.00000000000E+00 0. -1.
         25    2    1    2    0    0  0.32813909061E+02 -0.46563654423E+02 -0.21479525951E+02  0.13911826524E+03  0.12509034794E+03 0.  0.
         23    2    1    2    0    0 -0.32813909061E+02  0.46563654423E+02 -0.96726754898E+02  0.14472235545E+03  0.91343136096E+02 0.  0.
          5    1    3    3  502    0  0.65864207968E+02 -0.17607483456E+01  0.20651277267E+02  0.69174719217E+02  0.41800000000E+01 0.  1.
         -5    1    3    3    0  502 -0.33050298907E+02 -0.44802906077E+02 -0.42130803218E+02  0.69943546025E+02  0.41800000000E+01 0.  1.
        -11    1    4    4    0    0  0.17668765914E+02 -0.12077199778E+02 -0.71790059931E+00  0.21414000670E+02  0.00000000000E+00 0.  1.
         11    1    4    4    0    0 -0.50482674975E+02  0.58640854201E+02 -0.96008854299E+02  0.12330835478E+03  0.00000000000E+00 0. -1.
</event>
<event>
 8    1  0.6684013E-009  0.1057597E+03  0.7561462E-02  0.1268630E+00
          1   -1    0    0  501    0  0.00000000000E+00  0.00000000000E+00  0.13347839546E+03  0.13347839546E+03  0.00000000000E+00 0. -1.
         -1   -1    0    0    0  501 -0.00000000000E+00 -0.00000000000E+00 -0.99807260584E+02  0.99807260584E+02  0.00000000000E+00 0.  1.
         25    2    1    2    0    0  0.27526693876E+02 -0.41325854775E+01 -0.71752425120E+01  0.12834965643E+03  0.12508938029E+03 0.  0.
         23    2    1    2    0    0 -0.27526693876E+02  0.41325854775E+01  0.40846377391E+02  0.10493599962E+03  0.92565330074E+02 0.  0.
          5    1    3    3  502    0  0.74700490824E+02  0.10093260190E+01  0.14161633189E+02  0.76152520135E+02  0.41800000000E+01 0. -1.
         -5    1    3    3    0  502 -0.47173796948E+02 -0.51419114965E+01 -0.21336875701E+02  0.52197136292E+02  0.41800000000E+01 0. -1.
        -11    1    4    4    0    0  0.15973749836E+02 -0.29851537926E+02  0.36159757312E+02  0.49535876385E+02  0.00000000000E+00 0. -1.
         11    1    4    4    0    0 -0.43500443712E+02  0.33984123403E+02  0.46866200796E+01  0.55400123235E+02  0.00000000000E+00 0.  1.
</event>
<event>
 8    1  0.6684013E-009  0.1159565E+03  0.7561462E-02  0.1249921E+00
          1   -1    0    0  501    0  0.00000000000E+00  0.00000000000E+00  0.21547755173E+03  0.21547755173E+03  0.00000000000E+00 0. -1.
         -1   -1    0    0    0  501 -0.00000000000E+00 -0.00000000000E+00 -0.10950350021E+03  0.10950350021E+03  0.00000000000E+00 0.  1.
         25    2    1    2    0    0 -0.80395389449E+02  0.57966339385E+00 -0.27806841145E+02  0.15127433941E+03  0.12508777196E+03 0.  0.
         23    2    1    2    0    0  0.80395389449E+02 -0.57966339385E+00  0.13378089266E+03  0.17370671254E+03  0.76242639550E+02 0.  0.
          5    1    3    3  502    0 -0.31850412902E+02 -0.60008787030E+02 -0.27800484427E+02  0.73524435783E+02  0.41800000000E+01 0.  1.
         -5    1    3    3    0  502 -0.48544976547E+02  0.60588450424E+02 -0.63567177195E-02  0.77749903622E+02  0.41800000000E+01 0.  1.
        -11    1    4    4    0    0  0.45764582101E+02 -0.15598403068E+02  0.12628241835E+03  0.13522187818E+03  0.00000000000E+00 0. -1.
         11    1    4    4    0    0  0.34630807348E+02  0.15018739674E+02  0.74984743118E+01  0.38484834364E+02  0.00000000000E+00 0.  1.
</event>
<event>
 8    1  0.6684013E-009  0.1246976E+03  0.7561462E-02  0.1235543E+00
         -1   -1    0    0    0  501 -0.00000000000E+00  0.00000000000E+00  0.30301931232E+03  0.30301931232E+03  0.00000000000E+00 0.  1.
          1   -1    0    0  501    0  0.00000000000E+00 -0.00000000000E+00 -0.55546483921E+02  0.55546483921E+02  0.00000000000E+00 0. -1.
         25    2    1    2    0    0  0.43852251947E+02  0.44194082038E+02  0.91922873653E+02  0.16725180892E+03  0.12508883243E+03 0.  0.
         23    2    1    2    0    0 -0.43852251947E+02 -0.44194082038E+02  0.15554995475E+03  0.19131398733E+03  0.92353215623E+02 0.  0.
          5    1    3    3  502    0 -0.11989648077E+02  0.73691662389E+02  0.62489025223E+02  0.97450312673E+02  0.41800000000E+01 0. -1.
         -5    1    3    3    0  502  0.55841900023E+02 -0.29497580351E+02  0.29433848430E+02  0.69801496246E+02  0.41800000000E+01 0. -1.
        -11    1    4    4    0    0 -0.46931570614E+02  0.17103242006E+02  0.66857132018E+02  0.83456391661E+02  0.00000000000E+00 0. -1.
         11    1    4    4    0    0  0.30793186673E+01 -0.61297324044E+02  0.88692822731E+02  0.10785759566E+03  0.00000000000E+00 0.  1.
</event>
<event>
 8    1  0.6684013E-009  0.1700511E+03  0.7561462E-02  0.1177795E+00
          2   -1    0    0  501    0  0.00000000000E+00  0.00000000000E+00  0.15475394470E+04  0.15475394470E+04  0.00000000000E+00 0.  1.
         -2   -1    0    0    0  501 -0.00000000000E+00 -0.00000000000E+00 -0.26824308305E+02  0.26824308305E+02  0.00000000000E+00 0. -1.
         25    2    1    2    0    0  0.14071828773E+03 -0.31448050673E+02  0.11291754447E+04  0.11451988689E+04  0.12511054288E+03 0.  0.
         23    2    1    2    0    0 -0.14071828773E+03  0.31448050673E+02  0.39153969397E+03  0.42916488641E+03  0.10044178107E+03 0.  0.
          5    1    3    3  502    0  0.83265832610E+02  0.36846381074E+02  0.38316978368E+03  0.39386217159E+03  0.41800000000E+01 0. -1.
         -5    1    3    3    0  502  0.57452455123E+02 -0.68294431747E+02  0.74600566105E+03  0.75133669731E+03  0.41800000000E+01 0. -1.
        -11    1    4    4    0    0 -0.11300134290E+03  0.52695356774E+02  0.36377407055E+03  0.38454866861E+03  0.00000000000E+00 0.  1.
         11    1    4    4    0    0 -0.27716944837E+02 -0.21247306102E+02  0.27765623414E+02  0.44616217805E+02  0.00000000000E+00 0. -1.
</event>
<event>
 8    1  0.6684013E-009  0.1157985E+03  0.7561462E-02  0.1250194E+00
          1   -1    0    0  501    0  0.00000000000E+00  0.00000000000E+00  0.37417441080E+04  0.37417441080E+04  0.00000000000E+00 0. -1.
         -1   -1    0    0    0  501 -0.00000000000E+00 -0.00000000000E+00 -0.10527547093E+02  0.10527547093E+02  0.00000000000E+00 0.  1.
         25    2    1    2    0    0  0.44675657136E+02  0.27461385319E+02  0.34379281155E+04  0.34406026393E+04  0.12508697705E+03 0.  0.
         23    2    1    2    0    0 -0.44675657136E+02 -0.27461385319E+02  0.29328844539E+03  0.31166901583E+03  0.91484540796E+02 0.  0.
          5    1    3    3  502    0  0.26104008587E+02  0.76820470502E+02  0.23228534118E+04  0.23242737036E+04  0.41800000000E+01 0.  1.
         -5    1    3    3    0  502  0.18571648550E+02 -0.49359085183E+02  0.11150747038E+04  0.11163289357E+04  0.41800000000E+01 0.  1.
        -11    1    4    4    0    0 -0.56014964017E+02  0.11233268218E+02  0.22701311047E+03  0.23409146681E+03  0.00000000000E+00 0. -1.
         11    1    4    4    0    0  0.11339306881E+02 -0.38694653537E+02  0.66275334922E+02  0.77577549020E+02  0.00000000000E+00 0.  1.
</event>
<event>
 8    1  0.6684013E-009  0.1429020E+03  0.7561462E-02  0.1209477E+00
         -2   -1    0    0    0  501 -0.00000000000E+00  0.00000000000E+00  0.99372099182E+02  0.99372099182E+02  0.00000000000E+00 0.  1.
          2   -1    0    0  501    0  0.00000000000E+00 -0.00000000000E+00 -0.33448428556E+03  0.33448428556E+03  0.00000000000E+00 0. -1.
         25    2    1    2    0    0  0.55839109255E+02  0.92362009287E+02 -0.15116462793E+02  0.16590527612E+03  0.12508919344E+03 0.  0.
         23    2    1    2    0    0 -0.55839109255E+02 -0.92362009287E+02 -0.21999572359E+03  0.26795110862E+03  0.10840171278E+03 0.  0.
          5    1    3    3  502    0  0.94651343584E+02  0.80185304329E+02 -0.78152443932E+01  0.12436683769E+03  0.41800000000E+01 0. -1.
         -5    1    3    3    0  502 -0.38812234329E+02  0.12176704958E+02 -0.73012183997E+01  0.41538438432E+02  0.41800000000E+01 0. -1.
        -11    1    4    4    0    0 -0.45497239633E+02 -0.23596346211E+02 -0.18122786728E+03  0.18833567438E+03  0.00000000000E+00 0. -1.
         11    1    4    4    0    0 -0.10341869623E+02 -0.68765663076E+02 -0.38767856311E+02  0.79615434236E+02  0.00000000000E+00 0.  1.
</event>
<event>
 8    1  0.6684013E-009  0.9752937E+02  0.7561462E-02  0.1285579E+00
          2   -1    0    0  501    0  0.00000000000E+00  0.00000000000E+00  0.16534550589E+03  0.16534550589E+03  0.00000000000E+00 0. -1.
         -2   -1    0    0    0  501 -0.00000000000E+00 -0.00000000000E+00 -0.86029578481E+02  0.86029578481E+02  0.00000000000E+00 0.  1.
         25    2    1    2    0    0  0.40938205841E+02 -0.17216177572E+02  0.18968532036E+02  0.13409431278E+03  0.12509654689E+03 0.  0.
         23    2    1    2    0    0 -0.40938205841E+02  0.17216177572E+02  0.60347395377E+02  0.11728077159E+03  0.90225483037E+02 0.  0.
          5    1    3    3  502    0  0.78700600244E+02 -0.33647466060E+02 -0.57417729239E+01  0.85885835895E+02  0.41800000000E+01 0.  1.
         -5    1    3    3    0  502 -0.37762394403E+02  0.16431288488E+02  0.24710304960E+02  0.48208476886E+02  0.41800000000E+01 0.  1.
        -11    1    4    4    0    0 -0.50659470804E+02  0.29990456391E+01 -0.37723834252E+01  0.50888182651E+02  0.00000000000E+00 0.  1.
         11    1    4    4    0    0  0.97212649624E+01  0.14217131933E+02  0.64119778802E+02  0.66392588943E+02  0.00000000000E+00 0. -1.
</event>
<event>
 8    1  0.6684013E-009  0.1638605E+03  0.7561462E-02  0.1184406E+00
          1   -1    0    0  501    0  0.00000000000E+00  0.00000000000E+00  0.14104564147E+04  0.14104564147E+04  0.00000000000E+00 0. -1.
         -1   -1    0    0    0  501 -0.00000000000E+00 -0.00000000000E+00 -0.20273343198E+02  0.20273343198E+02  0.00000000000E+00 0.  1.
         25    2    1    2    0    0 -0.82314876376E+02  0.94926877484E+02  0.60729214053E+03  0.63264398549E+03  0.12509123661E+03 0.  0.
         23    2    1    2    0    0  0.82314876376E+02 -0.94926877484E+02  0.78289093095E+03  0.79808577240E+03  0.90751525569E+02 0.  0.
          5    1    3    3  502    0  0.11798594059E+02 -0.20327548274E+02  0.14571480832E+03  0.14765735270E+03  0.41800000000E+01 0. -1.
         -5    1    3    3    0  502 -0.94113470435E+02  0.11525442576E+03  0.46157733221E+03  0.48498663279E+03  0.41800000000E+01 0. -1.
        -11    1    4    4    0    0  0.57624866101E+02 -0.11132304512E+03  0.63209157398E+03  0.64440143037E+03  0.00000000000E+00 0. -1.
         11    1    4    4    0    0  0.24690010276E+02  0.16396167636E+02  0.15079935697E+03  0.15368434203E+03  0.00000000000E+00 0.  1.
</event>
<event>
 8    1  0.6684013E-009  0.1323152E+03  0.7561462E-02  0.1224060E+00
         -1   -1    0    0    0  501 -0.00000000000E+00  0.00000000000E+00  0.83300338461E+02  0.83300338461E+02  0.00000000000E+00 0.  1.
          1   -1    0    0  501    0  0.00000000000E+00 -0.00000000000E+00 -0.25236213117E+03  0.25236213117E+03  0.00000000000E+00 0. -1.
         25    2    1    2    0    0 -0.86672185846E+02 -0.28733200898E+02 -0.47948317310E+02  0.16212353206E+03  0.12508930363E+03 0.  0.
         23    2    1    2    0    0  0.86672185846E+02  0.28733200898E+02 -0.12111347540E+03  0.17353893757E+03  0.84318588087E+02 0.  0.
          5    1    3    3  502    0 -0.39761617013E+02  0.40407999930E+02  0.13375943175E+02  0.58396754205E+02  0.41800000000E+01 0.  1.
         -5    1    3    3    0  502 -0.46910568833E+02 -0.69141200828E+02 -0.61324260486E+02  0.10372677786E+03  0.41800000000E+01 0.  1.
        -11    1    4    4    0    0 -0.10383965754E+02  0.24920714597E+02 -0.30046246292E+02  0.40393634115E+02  0.00000000000E+00 0. -1.
         11    1    4    4    0    0  0.97056151599E+02  0.38124863009E+01 -0.91067229106E+02  0.13314530345E+03  0.00000000000E+00 0.  1.
</event>
<event>
 8    1  0.6684013E-009  0.1263240E+03  0.7561462E-02  0.1233015E+00
         -2   -1    0    0    0  501 -0.00000000000E+00  0.00000000000E+00  0.63089398977E+02  0.63089398977E+02  0.00000000000E+00 0.  1.
          2   -1    0    0  501    0  0.00000000000E+00 -0.00000000000E+00 -0.32372225833E+03  0.32372225833E+03  0.00000000000E+00 0. -1.
         25    2    1    2    0    0  0.39965855866E+02 -0.76187122483E+02 -0.18999913559E+03  0.24320409636E+03  0.12508722435E+03 0.  0.
         23    2    1    2    0    0 -0.39965855866E+02  0.76187122483E+02 -0.70633723760E+02  0.14360756094E+03  0.90731810080E+02 0.  0.
          5    1    3    3  502    0  0.20953861514E+02  0.32815004119E+02 -0.33728209139E+02  0.51681266426E+02  0.41800000000E+01 0.  1.
         -5    1    3    3    0  502  0.19011994352E+02 -0.10900212660E+03 -0.15627092645E+03  0.19152282994E+03  0.41800000000E+01 0.  1.
        -11    1    4    4    0    0 -0.24156922059E+02  0.82331372430E+02 -0.17150591929E+02  0.87499454702E+02  0.00000000000E+00 0.  1.
         11    1    4    4    0    0 -0.15808933806E+02 -0.61442499473E+01 -0.53483131830E+02  0.56108106240E+02  0.00000000000E+00 0. -1.
</event>
<event>
 8    1  0.6684013E-009  0.9158371E+02  0.7561462E-02  0.1299061E+00
         -2   -1    0    0    0  501 -0.00000000000E+00  0.00000000000E+00  0.75432857895E+02  0.75432857895E+02  0.00000000000E+00 0.  1.
          2   -1    0    0  501    0  0.00000000000E+00 -0.00000000000E+00 -0.20174595437E+03  0.20174595437E+03  0.00000000000E+00 0. -1.
         25    2    1    2    0    0  0.23820783365E+02  0.26436927304E+02 -0.17349760173E+02  0.13120671907E+03  0.12509135903E+03 0.  0.
         23    2    1    2    0    0 -0.23820783365E+02 -0.26436927304E+02 -0.10896333630E+03  0.14597209320E+03  0.90379768141E+02 0.  0.
          5    1    3    3  502    0  0.56158585825E+02  0.80988039439E+01  0.35049989802E+02  0.66823286154E+02  0.41800000000E+01 0. -1.
         -5    1    3    3    0  502 -0.32337802460E+02  0.18338123360E+02 -0.52399749976E+02  0.64383432914E+02  0.41800000000E+01 0. -1.
        -11    1    4    4    0    0 -0.82261374091E+01 -0.55379855952E+02 -0.94962417923E+02  0.11023819030E+03  0.00000000000E+00 0.  1.
         11    1    4    4    0    0 -0.15594645956E+02  0.28942928648E+02 -0.14000918381E+02  0.35733902904E+02  0.00000000000E+00 0. -1.
</event>
<event>
 8    1  0.6684013E-009  0.9268589E+02  0.7561462E-02  0.1296475E+00
          2   -1    0    0  501    0  0.00000000000E+00  0.00000000000E+00  0.81357254852E+03  0.81357254852E+03  0.00000000000E+00 0.  1.
         -2   -1    0    0    0  501 -0.00000000000E+00 -0.00000000000E+00 -0.38003588726E+02  0.38003588726E+02  0.00000000000E+00 0. -1.
         25    2    1    2    0    0  0.49284746823E+02  0.61907024834E+02  0.68804626701E+03  0.70378676843E+03  0.12508670546E+03 0.  0.
         23    2    1    2    0    0 -0.49284746823E+02 -0.61907024834E+02  0.87522692784E+02  0.14778936881E+03  0.88994436842E+02 0.  0.
          5    1    3    3  502    0  0.17129841134E+02  0.41309662880E+02  0.64307747116E+03  0.64464410803E+03  0.41800000000E+01 0. -1.
         -5    1    3    3    0  502  0.32154905690E+02  0.20597361954E+02  0.44968795851E+02  0.59142660404E+02  0.41800000000E+01 0. -1.
        -11    1    4    4    0    0 -0.62928376939E+01 -0.58584973520E+02  0.10979680105E+02  0.59936235315E+02  0.00000000000E+00 0. -1.
         11    1    4    4    0    0 -0.42991909129E+02 -0.33220513145E+01  0.76543012679E+02  0.87853133498E+02  0.00000000000E+00 0.  1.
</event>
<event>
 8    1  0.6684013E-009  0.1045932E+03  0.7561462E-02  0.1270923E+00
          2   -1    0    0  501    0  0.00000000000E+00  0.00000000000E+00  0.12953510758E+03  0.12953510758E+03  0.00000000000E+00 0. -1.
         -2   -1    0    0    0  501 -0.00000000000E+00 -0.00000000000E+00 -0.12229671184E+03  0.12229671184E+03  0.00000000000E+00 0.  1.
         25    2    1    2    0    0  0.60212297234E+02 -0.64689646068E+00 -0.18389060257E+02  0.14004237995E+03  0.12509105257E+03 0.  0.
         23    2    1    2    0    0 -0.60212297234E+02  0.64689646068E+00  0.25627455997E+02  0.11178943947E+03  0.90632075239E+02 0.  0.
          5    1    3    3  502    0  0.81410050095E+02  0.26153333453E+02 -0.44827812664E+02  0.96636423234E+02  0.41800000000E+01 0.  1.
         -5    1    3    3    0  502 -0.21197752862E+02 -0.26800229913E+02  0.26438752407E+02  0.43405956718E+02  0.41800000000E+01 0.  1.
        -11    1    4    4    0    0  0.11209065873E+02 -0.12217953549E+02 -0.20067151927E+02  0.26030984098E+02  0.00000000000E+00 0.  1.
         11    1    4    4    0    0 -0.71421363107E+02  0.12864850009E+02  0.45694607923E+02  0.85758455368E+02  0.00000000000E+00 0. -1.
</event>
<event>
 8    1  0.6684013E-009  0.1415954E+03  0.7561462E-02  0.1211198E+00
         -1   -1    0    0    0  501 -0.00000000000E+00  0.00000000000E+00  0.27249009868E+02  0.27249009868E+02  0.00000000000E+00 0.  1.
          1   -1    0    0  501    0  0.00000000000E+00 -0.00000000000E+00 -0.15423275229E+04  0.15423275229E+04  0.00000000000E+00 0. -1.
         25    2    1    2    0    0  0.10670648771E+03  0.91975654643E+02 -0.11799553112E+04  0.11949008484E+04  0.12509078941E+03 0.  0.
         23    2    1    2    0    0 -0.10670648771E+03 -0.91975654643E+02 -0.33512320184E+03  0.37467568434E+03  0.90711148470E+02 0.  0.
          5    1    3    3  502    0  0.42576927306E+02  0.47780877615E+02 -0.16613155746E+03  0.17808136845E+03  0.41800000000E+01 0.  1.
         -5    1    3    3    0  502  0.64129560407E+02  0.44194777027E+02 -0.10138237537E+04  0.10168194800E+04  0.41800000000E+01 0.  1.
        -11    1    4    4    0    0 -0.23578215909E+02 -0.16477778531E+02 -0.95959439402E+01  0.30323779297E+02  0.00000000000E+00 0.  1.
         11    1    4    4    0    0 -0.83128271804E+02 -0.75497876112E+02 -0.32552725790E+03  0.34435190504E+03  0.00000000000E+00 0. -1.
</event>
<event>
 8    1  0.6684013E-009  0.9209520E+02  0.7561462E-02  0.1297856E+00
          2   -1    0    0  501    0  0.00000000000E+00  0.00000000000E+00  0.24960456587E+04  0.24960456587E+04  0.00000000000E+00 0.  1.
         -2   -1    0    0    0  501 -0.00000000000E+00 -0.00000000000E+00 -0.80398596455E+01  0.80398596455E+01  0.00000000000E+00 0. -1.
         25    2    1    2    0    0  0.26066547707E+02 -0.27666483108E+02  0.20697606457E+04  0.20738858055E+04  0.12509318253E+03 0.  0.
         23    2    1    2    0    0 -0.26066547707E+02  0.27666483108E+02  0.41824515334E+03  0.43019971290E+03  0.93262454843E+02 0.  0.
          5    1    3    3  502    0 -0.12419214472E+02 -0.46143337135E+02  0.18078078722E+04  0.18084441433E+04  0.41800000000E+01 0.  1.
         -5    1    3    3    0  502  0.38485762179E+02  0.18476854027E+02  0.26195277355E+03  0.26544166213E+03  0.41800000000E+01 0.  1.
        -11    1    4    4    0    0 -0.37015949127E+02  0.53621457692E+02  0.35549000571E+03  0.36141193308E+03  0.00000000000E+00 0.  1.
         11    1    4    4    0    0  0.10949401420E+02 -0.25954974584E+02  0.62755147632E+02  0.68787779812E+02  0.00000000000E+00 0. -1.
</event>
<event>
 8    1  0.6684013E-009  0.1576636E+03  0.7561462E-02  0.1191360E+00
          1   -1    0    0  501    0  0.00000000000E+00  0.00000000000E+00  0.12100062724E+03  0.12100062724E+03  0.00000000000E+00 0. -1.
         -1   -1    0    0    0  501 -0.00000000000E+00 -0.00000000000E+00 -0.25551263969E+03  0.25551263969E+03  0.00000000000E+00 0.  1.
         25    2    1    2    0    0 -0.13069161855E+03 -0.23697704376E+02 -0.10551251719E+03  0.21075999427E+03  0.12507998860E+03 0.  0.
         23    2    1    2    0    0  0.13069161855E+03  0.23697704376E+02 -0.28999495257E+02  0.16575327267E+03  0.94822446298E+02 0.  0.
          5    1    3    3  502    0  0.10068249067E+02 -0.12264924528E+02 -0.60184725369E+02  0.62381660612E+02  0.41800000000E+01 0.  1.
         -5    1    3    3    0  502 -0.14075986762E+03 -0.11432779848E+02 -0.45327791822E+02  0.14837833366E+03  0.41800000000E+01 0.  1.
        -11    1    4    4    0    0  0.35294565578E+02 -0.31594404690E+02  0.10696976503E+02  0.48562723084E+02  0.00000000000E+00 0.  1.
         11    1    4    4    0    0  0.95397052975E+02  0.55292109066E+02 -0.39696471760E+02  0.11719054958E+03  0.00000000000E+00 0. -1.
</event>
<event>
 8    1  0.6684013E-009  0.1114875E+03  0.7561462E-02  0.1257840E+00
         -1   -1    0    0    0  501 -0.00000000000E+00  0.00000000000E+00  0.58765898426E+02  0.58765898426E+02  0.00000000000E+00 0.  1.
          1   -1    0    0  501    0  0.00000000000E+00 -0.00000000000E+00 -0.31451640990E+03  0.31451640990E+03  0.00000000000E+00 0. -1.
         25    2    1    2    0    0 -0.66928881365E+02  0.39661179773E+02 -0.10588972480E+03  0.18141757929E+03  0.12508884808E+03 0.  0.
         23    2    1    2    0    0  0.66928881365E+02 -0.39661179773E+02 -0.14986078667E+03  0.19186472904E+03  0.91111659666E+02 0.  0.
          5    1    3    3  502    0 -0.60418456033E+02 -0.22420252199E+01 -0.12171007871E+03  0.13596408410E+03  0.41800000000E+01 0. -1.
         -5    1    3    3    0  502 -0.65104253322E+01  0.41903204993E+02  0.15820353904E+02  0.45453495183E+02  0.41800000000E+01 0. -1.
        -11    1    4    4    0    0 -0.15185164594E+02 -0.34252033745E+02 -0.44383555730E+02  0.58083483527E+02  0.00000000000E+00 0. -1.
         11    1    4    4    0    0  0.82114045960E+02 -0.54091460283E+01 -0.10547723094E+03  0.13378124551E+03  0.00000000000E+00 0.  1.
</event>
<event>
 8    1  0.6684013E-009  0.1087547E+03  0.7561462E-02  0.1262894E+00
         -2   -1    0    0    0  501 -0.00000000000E+00  0.00000000000E+00  0.26092222647E+02  0.26092222647E+02  0.00000000000E+00 0. -1.
          2   -1    0    0  501    0  0.00000000000E+00 -0.00000000000E+00 -0.52685086117E+03  0.52685086117E+03  0.00000000000E+00 0.  1.
         25    2    1    2    0    0  0.35577066487E+02  0.32305208229E+01 -0.22753938579E+03  0.26210255225E+03  0.12508961543E+03 0.  0.
         23    2    1    2    0    0 -0.35577066487E+02 -0.32305208229E+01 -0.27321925273E+03  0.29084053156E+03  0.93076800600E+02 0.  0.
          5    1    3    3  502    0  0.79572506114E+02  0.19521822031E+02 -0.12886365808E+03  0.15276190637E+03  0.41800000000E+01 0.  1.
         -5    1    3    3    0  502 -0.43995439627E+02 -0.16291301208E+02 -0.98675727711E+02  0.10934064588E+03  0.41800000000E+01 0.  1.
        -11    1    4    4    0    0 -0.20139637728E+02 -0.42033293614E+02 -0.20974019312E+03  0.21485658331E+03  0.00000000000E+00 0.  1.
         11    1    4    4    0    0 -0.15437428759E+02  0.38802772792E+02 -0.63479059611E+02  0.75983948253E+02  0.00000000000E+00 0. -1.
</event>
<event>
 8    1  0.6684013E-009  0.1801543E+03  0.7561462E-02  0.1167654E+00
         -2   -1    0    0    0  501 -0.00000000000E+00  0.00000000000E+00  0.40107688903E+02  0.40107688903E+02  0.00000000000E+00 0.  1.
          2   -1    0    0  501    0  0.00000000000E+00 -0.00000000000E+00 -0.85380822566E+03  0.85380822566E+03  0.00000000000E+00 0. -1.
         25    2    1    2    0    0  0.14701377356E+03 -0.12341946490E+02 -0.48452516803E+03  0.52170770561E+03  0.12509563692E+03 0.  0.
         23    2    1    2    0    0 -0.14701377356E+03  0.12341946490E+02 -0.32917536872E+03  0.37220820895E+03  0.91745049897E+02 0.  0.
          5    1    3    3  502    0  0.24405753893E+02 -0.55326405225E+02 -0.19807460605E+03  0.20714167592E+03  0.41800000000E+01 0.  1.
         -5    1    3    3    0  502  0.12260801966E+03  0.42984458735E+02 -0.28645056198E+03  0.31456602970E+03  0.41800000000E+01 0.  1.
        -11    1    4    4    0    0  0.45269462881E+01  0.17497662729E+02 -0.15511679390E+02  0.23817507031E+02  0.00000000000E+00 0.  1.
         11    1    4    4    0    0 -0.15154071984E+03 -0.51557162383E+01 -0.31366368933E+03  0.34839070192E+03  0.00000000000E+00 0. -1.
</event>
<event>
 8    1  0.6684013E-009  0.1418785E+03  0.7561462E-02  0.1210823E+00
          4   -1    0    0  501    0  0.00000000000E+00  0.00000000000E+00  0.18977823114E+03  0.18977823114E+03  0.00000000000E+00 0. -1.
         -4   -1    0    0    0  501 -0.00000000000E+00 -0.00000000000E+00 -0.14346994632E+03  0.14346994632E+03  0.00000000000E+00 0.  1.
         25    2    1    2    0    0  0.12265624248E+02  0.12207277857E+03  0.47416793436E+02  0.18153289327E+03  0.12511446852E+03 0.  0.
         23    2    1    2    0    0 -0.12265624248E+02 -0.12207277857E+03 -0.11085086150E+01  0.15171528419E+03  0.89241749531E+02 0.  0.
          5    1    3    3  502    0 -0.33000892780E+02  0.85854509806E+02 -0.18221477460E+02  0.93859205298E+02  0.41800000000E+01 0.  1.
         -5    1    3    3    0  502  0.45266517028E+02  0.36218268767E+02  0.65638270896E+02  0.87673687972E+02  0.41800000000E+01 0.  1.
        -11    1    4    4    0    0 -0.33156161696E+02 -0.70077539842E+02 -0.36240384877E+02  0.85577790021E+02  0.00000000000E+00 0. -1.
         11    1    4    4    0    0  0.20890537449E+02 -0.51995238730E+02  0.35131876262E+02  0.66137494171E+02  0.00000000000E+00 0.  1.
</event>
<event>
 8    1  0.6684013E-009  0.1157298E+03  0.7561462E-02  0.1250312E+00
         -1   -1    0    0    0  501 -0.00000000000E+00  0.00000000000E+00  0.40336232108E+02  0.40336232108E+02  0.00000000000E+00 0.  1.
          1   -1    0    0  501    0  0.00000000000E+00 -0.00000000000E+00 -0.60167958462E+03  0.60167958462E+03  0.00000000000E+00 0. -1.
         25    2    1    2    0    0  0.47287247845E+02  0.65772342495E+02 -0.46365442425E+03  0.48701610646E+03  0.12508868046E+03 0.  0.
         23    2    1    2    0    0 -0.47287247845E+02 -0.65772342495E+02 -0.97688928256E+02  0.15499971026E+03  0.88992688638E+02 0.  0.
          5    1    3    3  502    0 -0.41485417831E+02  0.36282711501E+02 -0.16274846717E+03  0.17187789565E+03  0.41800000000E+01 0. -1.
         -5    1    3    3    0  502  0.88772665676E+02  0.29489630994E+02 -0.30090595708E+03  0.31513821081E+03  0.41800000000E+01 0. -1.
        -11    1    4    4    0    0 -0.34736726194E+02 -0.34966914793E+02 -0.10919379685E+03  0.11980238123E+03  0.00000000000E+00 0. -1.
         11    1    4    4    0    0 -0.12550521651E+02 -0.30805427702E+02  0.11504868596E+02  0.35197329033E+02  0.00000000000E+00 0.  1.
</event>
<event>
 8    1  0.6684013E-009  0.1396609E+03  0.7561462E-02  0.1213786E+00
         -2   -1    0    0    0  501 -0.00000000000E+00  0.00000000000E+00  0.19817554746E+02  0.19817554746E+02  0.00000000000E+00 0.  1.
          2   -1    0    0  501    0  0.00000000000E+00 -0.00000000000E+00 -0.10998731082E+04  0.10998731082E+04  0.00000000000E+00 0. -1.
         25    2    1    2    0    0 -0.51522467820E+02 -0.75645356805E+02 -0.44955668150E+03  0.47552620433E+03  0.12508867426E+03 0.  0.
         23    2    1    2    0    0  0.51522467820E+02  0.75645356805E+02 -0.63049887194E+03  0.64416445859E+03  0.95090680444E+02 0.  0.
          5    1    3    3  502    0 -0.78441963207E+02 -0.86284794944E+01 -0.28534322597E+03  0.29608414557E+03  0.41800000000E+01 0.  1.
         -5    1    3    3    0  502  0.26919495387E+02 -0.67016877311E+02 -0.16421345553E+03  0.17944205876E+03  0.41800000000E+01 0.  1.
        -11    1    4    4    0    0  0.48375049035E+02 -0.37276115206E+01 -0.16689383757E+03  0.17380331837E+03  0.00000000000E+00 0.  1.
         11    1    4    4    0    0  0.31474187851E+01  0.79372968326E+02 -0.46360503437E+03  0.47036114023E+03  0.00000000000E+00 0. -1.
</event>
<event>
 8    1  0.6684013E-009  0.1141024E+03  0.7561462E-02  0.1253156E+00
         -1   -1    0    0    0  501 -0.00000000000E+00  0.00000000000E+00  0.35367183293E+02  0.35367183293E+02  0.00000000000E+00 0.  1.
          1   -1    0    0  501    0  0.00000000000E+00 -0.00000000000E+00 -0.43301182842E+03  0.43301182842E+03  0.00000000000E+00 0. -1.
         25    2    1    2    0    0  0.43571889977E+02 -0.35289844089E+02 -0.26511089652E+03  0.29845317735E+03  0.12508648576E+03 0.  0.
         23    2    1    2    0    0 -0.43571889977E+02  0.35289844089E+02 -0.13253374860E+03  0.16992583437E+03  0.90364329104E+02 0.  0.
          5    1    3    3  502    0 -0.17344260028E+02  0.35893532110E+02 -0.52295032010E+02  0.65889390468E+02  0.41800000000E+01 0. -1.
         -5    1    3    3    0  502  0.60916150005E+02 -0.71183376200E+02 -0.21281586451E+03  0.23256378688E+03  0.41800000000E+01 0. -1.
        -11    1    4    4    0    0  0.29828255546E+01  0.46384243079E+02 -0.10472106961E+03  0.11457267420E+03  0.00000000000E+00 0.  1.
         11    1    4    4    0    0 -0.46554715532E+02 -0.11094398990E+02 -0.27812678996E+02  0.55353160164E+02  0.00000000000E+00 0. -1.
</event>
<event>
 8    1  0.6684013E-009  0.1579261E+03  0.7561462E-02  0.1191058E+00
         -1   -1    0    0    0  501 -0.00000000000E+00  0.00000000000E+00  0.94999572339E+02  0.94999572339E+02  0.00000000000E+00 0. -1.
          1   -1    0    0  501    0  0.00000000000E+00 -0.00000000000E+00 -0.28664799168E+03  0.28664799168E+03  0.00000000000E+00 0.  1.
         25    2    1    2    0    0  0.97062602108E+01 -0.11708000759E+03 -0.66702251829E+02  0.18409671551E+03  0.12506186709E+03 0.  0.
         23    2    1    2    0    0 -0.97062602108E+01  0.11708000759E+03 -0.12494616751E+03  0.19755084851E+03  0.98045159519E+02 0.  0.
          5    1    3    3  502    0 -0.39907708148E+02 -0.11472350635E+03 -0.51346496445E+02  0.13193954364E+03  0.41800000000E+01 0.  1.
         -5    1    3    3    0  502  0.49613968359E+02 -0.23565012382E+01 -0.15355755383E+02  0.52157171873E+02  0.41800000000E+01 0.  1.
        -11    1    4    4    0    0 -0.38702033906E+02  0.20842335397E+02 -0.70925529366E+02  0.83442681459E+02  0.00000000000E+00 0. -1.
         11    1    4    4    0    0  0.28995773695E+02  0.96237672192E+02 -0.54020638148E+02  0.11410816705E+03  0.00000000000E+00 0.  1.
</event>
<event>
 8    1  0.6684013E-009  0.7241401E+02  0.7561462E-02  0.1352071E+00
         -3   -1    0    0    0  501 -0.00000000000E+00  0.00000000000E+00  0.78787488475E+02  0.78787488475E+02  0.00000000000E+00 0.  1.
          3   -1    0    0  501    0  0.00000000000E+00 -0.00000000000E+00 -0.16129218437E+03  0.16129218437E+03  0.00000000000E+00 0. -1.
         25    2    1    2    0    0  0.88346726785E+01  0.19975722177E+02 -0.63170626842E+02  0.14182579119E+03  0.12508775333E+03 0.  0.
         23    2    1    2    0    0 -0.88346726785E+01 -0.19975722177E+02 -0.19334069048E+02  0.98253881651E+02  0.93823974098E+02 0.  0.
          5    1    3    3  502    0 -0.41682114491E+02  0.33484579909E+02  0.71394187957E+01  0.54102305505E+02  0.41800000000E+01 0.  1.
         -5    1    3    3    0  502  0.50516787170E+02 -0.13508857732E+02 -0.70310045638E+02  0.87723485686E+02  0.41800000000E+01 0.  1.
        -11    1    4    4    0    0 -0.97443668903E+01  0.68423434026E+01 -0.53500754696E+02  0.54809680736E+02  0.00000000000E+00 0. -1.
         11    1    4    4    0    0  0.90969421181E+00 -0.26818065580E+02  0.34166685647E+02  0.43444200915E+02  0.00000000000E+00 0.  1.
</event>
<event>
 8    1  0.6684013E-009  0.7202269E+02  0.7561462E-02  0.1353347E+00
         -2   -1    0    0    0  501 -0.00000000000E+00  0.00000000000E+00  0.67912528813E+02  0.67912528813E+02  0.00000000000E+00 0.  1.
          2   -1    0    0  501    0  0.00000000000E+00 -0.00000000000E+00 -0.27071934899E+03  0.27071934899E+03  0.00000000000E+00 0. -1.
         25    2    1    2    0    0  0.29081574790E+01 -0.17520144235E+02 -0.21060946366E+03  0.24560053460E+03  0.12509142089E+03 0.  0.
         23    2    1    2    0    0 -0.29081574790E+01  0.17520144235E+02  0.78026434772E+01  0.93031343207E+02  0.90986464596E+02 0.  0.
          5    1    3    3  502    0  0.24474690201E+02 -0.26977090930E+02 -0.31853180920E+01  0.36802072589E+02  0.41800000000E+01 0.  1.
         -5    1    3    3    0  502 -0.21566532722E+02  0.94569466947E+01 -0.20742414556E+03  0.20879846201E+03  0.41800000000E+01 0.  1.
        -11    1    4    4    0    0 -0.31368826822E+02  0.37351154845E+02  0.24443297282E+02  0.54558105231E+02  0.00000000000E+00 0.  1.
         11    1    4    4    0    0  0.28460669343E+02 -0.19831010610E+02 -0.16640653804E+02  0.38473237975E+02  0.00000000000E+00 0. -1.
</event>
<event>
 8    1  0.6684013E-009  0.1703810E+03  0.7561462E-02  0.1177451E+00
         -2   -1    0    0    0  501 -0.00000000000E+00  0.00000000000E+00  0.44725836145E+02  0.44725836145E+02  0.00000000000E+00 0.  1.
          2   -1    0    0  501    0  0.00000000000E+00 -0.00000000000E+00 -0.11974558333E+04  0.11974558333E+04  0.00000000000E+00 0. -1.
         25    2    1    2    0    0 -0.73019605175E+02 -0.12756848228E+03 -0.97668398914E+03  0.99557224320E+03  0.12508755481E+03 0.  0.
         23    2    1    2    0    0  0.73019605175E+02  0.12756848228E+03 -0.17604600802E+03  0.24660942625E+03  0.90655566658E+02 0.  0.
          5    1    3    3  502    0 -0.10307068535E+03 -0.11317998383E+03 -0.68199884112E+03  0.69898009028E+03  0.41800000000E+01 0. -1.
         -5    1    3    3    0  502  0.30051080177E+02 -0.14388498448E+02 -0.29468514802E+03  0.29659215292E+03  0.41800000000E+01 0. -1.
        -11    1    4    4    0    0  0.38459057595E+02  0.25146286310E+02 -0.11177072889E+03  0.12084755133E+03  0.00000000000E+00 0. -1.
         11    1    4    4    0    0  0.34560547580E+02  0.10242219597E+03 -0.64275279127E+02  0.12576187492E+03  0.00000000000E+00 0.  1.
</event>
<event>
 8    1  0.6684013E-009  0.1384924E+03  0.7561462E-02  0.1215372E+00
          1   -1    0    0  501    0  0.00000000000E+00  0.00000000000E+00  0.94589680845E+03  0.94589680845E+03  0.00000000000E+00 0. -1.
         -1   -1    0    0    0  501 -0.00000000000E+00 -0.00000000000E+00 -0.25332579852E+02  0.25332579852E+02  0.00000000000E+00 0.  1.
         25    2    1    2    0    0  0.47775364526E+02  0.97978330386E+02  0.49125214525E+03  0.51851557372E+03  0.12508993282E+03 0.  0.
         23    2    1    2    0    0 -0.47775364526E+02 -0.97978330386E+02  0.42931208334E+03  0.45271381458E+03  0.93587896259E+02 0.  0.
          5    1    3    3  502    0  0.75592478089E+02  0.37027015418E+02  0.37426629988E+03  0.38363779563E+03  0.41800000000E+01 0. -1.
         -5    1    3    3    0  502 -0.27817113563E+02  0.60951314968E+02  0.11698584538E+03  0.13487777809E+03  0.41800000000E+01 0. -1.
        -11    1    4    4    0    0 -0.24493874642E+02 -0.99283279819E+02  0.40962517987E+03  0.42219652714E+03  0.00000000000E+00 0. -1.
         11    1    4    4    0    0 -0.23281489884E+02  0.13049494326E+01  0.19686903472E+02  0.30517287438E+02  0.00000000000E+00 0.  1.
</event>
<event>
 8    1  0.6684013E-009  0.9230695E+02  0.7561462E-02  0.1297359E+00
         -2   -1    0    0    0  501 -0.00000000000E+00  0.00000000000E+00  0.29417617752E+02  0.29417617752E+02  0.00000000000E+00 0.  1.
          2   -1    0    0  501    0  0.00000000000E+00 -0.00000000000E+00 -0.40376652010E+03  0.40376652010E+03  0.00000000000E+00 0. -1.
         25    2    1    2    0    0 -0.65393413231E+01 -0.28650961540E+01 -0.19075363754E+03  0.22822304478E+03  0.12509131134E+03 0.  0.
         23    2    1    2    0    0  0.65393413231E+01  0.28650961540E+01 -0.18359526481E+03  0.20496109307E+03  0.90834226219E+02 0.  0.
          5    1    3    3  502    0  0.49390191467E+02 -0.97796733850E+01 -0.15073867252E+03  0.15898003905E+03  0.41800000000E+01 0.  1.
         -5    1    3    3    0  502 -0.55929532790E+02  0.69145772310E+01 -0.40014965023E+02  0.69243005727E+02  0.41800000000E+01 0.  1.
        -11    1    4    4    0    0 -0.33327030622E+02  0.14062429395E+02 -0.33653559471E+02  0.49406527460E+02  0.00000000000E+00 0.  1.
         11    1    4    4    0    0  0.39866371945E+02 -0.11197333241E+02 -0.14994170533E+03  0.15555456561E+03  0.00000000000E+00 0. -1.
</event>
<event>
 8    1  0.6684013E-009  0.1184151E+03  0.7561462E-02  0.1245735E+00
          1   -1    0    0  501    0  0.00000000000E+00  0.00000000000E+00  0.45678036849E+03  0.45678036849E+03  0.00000000000E+00 0. -1.
         -1   -1    0    0    0  501 -0.00000000000E+00 -0.00000000000E+00 -0.35518971552E+02  0.35518971552E+02  0.00000000000E+00 0.  1.
         25    2    1    2    0    0 -0.23607321672E+02 -0.54923544337E+02  0.29099192212E+03  0.32233001451E+03  0.12508572323E+03 0.  0.
         23    2    1    2    0    0  0.23607321672E+02  0.54923544337E+02  0.13026947481E+03  0.16996932553E+03  0.91353895335E+02 0.  0.
          5    1    3    3  502    0 -0.20233135328E+02 -0.90104660762E+02  0.25698278383E+03  0.27310410696E+03  0.41800000000E+01 0.  1.
         -5    1    3    3    0  502 -0.33741863434E+01  0.35181116425E+02  0.34009138292E+02  0.49225907546E+02  0.41800000000E+01 0.  1.
        -11    1    4    4    0    0 -0.12615621248E+02  0.68845712618E+02  0.76905933095E+02  0.10398754055E+03  0.00000000000E+00 0.  1.
         11    1    4    4    0    0  0.36222942920E+02 -0.13922168281E+02  0.53363541719E+02  0.65981784973E+02  0.00000000000E+00 0. -1.
</event>
<event>
 7    1  0.6684013E-009  0.2274742E+03  0.7561462E-02  0.1128430E+00
          1   -1    0    0  501    0  0.00000000000E+00  0.00000000000E+00  0.46105405381E+03  0.46105405381E+03  0.00000000000E+00 0. -1.
         -1   -1    0    0    0  501 -0.00000000000E+00 -0.00000000000E+00 -0.12618470503E+03  0.12618470503E+03  0.00000000000E+00 0.  1.
         23    2    1    2    0    0 -0.76892444603E+01  0.21470056777E+03  0.17757589987E+03  0.29308520806E+03  0.90610599192E+02 0.  0.
          5    1    1    2  502    0  0.35544386457E+02 -0.47688667012E+02 -0.46692411108E+01  0.59807078030E+02  0.41800000000E+01 0. -1.
         -5    1    1    2    0  502 -0.27855141997E+02 -0.16701190076E+03  0.16196269002E+03  0.23434647275E+03  0.41800000000E+01 0. -1.
        -11    1    3    3    0    0  0.99509802942E+01  0.20607866408E+03  0.13601126085E+03  0.24711637112E+03  0.00000000000E+00 0.  1.
         11    1    3    3    0    0 -0.17640224755E+02  0.86219036934E+01  0.41564639020E+02  0.45968836939E+02  0.00000000000E+00 0. -1.
</event>
<event>
 8    1  0.6684013E-009  0.2393141E+03  0.7561462E-02  0.1120251E+00
         -1   -1    0    0    0  501 -0.00000000000E+00  0.00000000000E+00  0.21086642833E+02  0.21086642833E+02  0.00000000000E+00 0.  1.
          1   -1    0    0  501    0  0.00000000000E+00 -0.00000000000E+00 -0.27679196187E+04  0.27679196187E+04  0.00000000000E+00 0. -1.
         25    2    1    2    0    0 -0.13758374476E+03  0.16319339499E+03 -0.15811625146E+04  0.16004010584E+04  0.12508908410E+03 0.  0.
         23    2    1    2    0    0  0.13758374476E+03 -0.16319339499E+03 -0.11656704612E+04  0.11886052031E+04  0.91833184656E+02 0.  0.
          5    1    3    3  502    0 -0.10822192787E+03  0.18153978148E+03 -0.12983058369E+04  0.13154026746E+04  0.41800000000E+01 0.  1.
         -5    1    3    3    0  502 -0.29361816885E+02 -0.18346386490E+02 -0.28285667776E+03  0.28499838376E+03  0.41800000000E+01 0.  1.
        -11    1    4    4    0    0  0.14703134296E+03 -0.12489494424E+03 -0.96512058492E+03  0.98421273429E+03  0.00000000000E+00 0. -1.
         11    1    4    4    0    0 -0.94475981975E+01 -0.38298450747E+02 -0.20054987629E+03  0.20439246885E+03  0.00000000000E+00 0.  1.
</event>
<event>
 8    1  0.6684013E-009  0.1391989E+03  0.7561462E-02  0.1214411E+00
          1   -1    0    0  501    0  0.00000000000E+00  0.00000000000E+00  0.46827305691E+02  0.46827305691E+02  0.00000000000E+00 0. -1.
         -1   -1    0    0    0  501 -0.00000000000E+00 -0.00000000000E+00 -0.43832165719E+03  0.43832165719E+03  0.00000000000E+00 0.  1.
         25    2    1    2    0    0 -0.59878626343E+02  0.71499906682E+02 -0.20399206937E+03  0.25682234753E+03  0.12508903738E+03 0.  0.
         23    2    1    2    0    0  0.59878626343E+02 -0.71499906682E+02 -0.18750228212E+03  0.22832661535E+03  0.90984893957E+02 0.  0.
          5    1    3    3  502    0  0.21939502079E+02  0.70645668675E+02 -0.95623485143E+02  0.12096890330E+03  0.41800000000E+01 0.  1.
         -5    1    3    3    0  502 -0.81818128421E+02  0.85423800615E+00 -0.10836858423E+03  0.13585344423E+03  0.41800000000E+01 0.  1.
        -11    1    4    4    0    0 -0.16448233399E+02 -0.33039236237E+02 -0.24569784176E+02  0.44337453778E+02  0.00000000000E+00 0. -1.
         11    1    4    4    0    0  0.76326859742E+02 -0.38460670444E+02 -0.16293249795E+03  0.18398916157E+03  0.00000000000E+00 0.  1.
</event>
<event>
 8    1  0.6684013E-009  0.1295369E+03  0.7561462E-02  0.1228145E+00
          2   -1    0    0  501    0  0.00000000000E+00  0.00000000000E+00  0.12229380191E+04  0.12229380191E+04  0.00000000000E+00 0.  1.
         -2   -1    0    0    0  501 -0.00000000000E+00 -0.00000000000E+00 -0.14299069854E+02  0.14299069854E+02  0.00000000000E+00 0. -1.
         25    2    1    2    0    0 -0.70266165184E+02 -0.34271936861E+02  0.69760731686E+03  0.71303289651E+03  0.12509213941E+03 0.  0.
         23    2    1    2    0    0  0.70266165184E+02  0.34271936861E+02  0.51103163241E+03  0.52420419246E+03  0.86745642255E+02 0.  0.
          5    1    3    3  502    0 -0.98265616315E+02 -0.49740043789E+02  0.60525386371E+03  0.61520721325E+03  0.41800000000E+01 0. -1.
         -5    1    3    3    0  502  0.27999451130E+02  0.15468106928E+02  0.92353453156E+02  0.97825683260E+02  0.41800000000E+01 0. -1.
        -11    1    4    4    0    0  0.79554788740E+02  0.53068679325E+02  0.40748372534E+03  0.41855493732E+03  0.00000000000E+00 0. -1.
         11    1    4    4    0    0 -0.92886235553E+01 -0.18796742464E+02  0.10354790707E+03  0.10564925515E+03  0.00000000000E+00 0.  1.
</event>
<event>
 8    1  0.6684013E-009  0.1718898E+03  0.7561462E-02  0.1175891E+00
          2   -1    0    0  501    0  0.00000000000E+00  0.00000000000E+00  0.21750298072E+03  0.21750298072E+03  0.00000000000E+00 0.  1.
         -2   -1    0    0    0  501 -0.00000000000E+00 -0.00000000000E+00 -0.13994608157E+03  0.13994608157E+03  0.00000000000E+00 0. -1.
         25    2    1    2    0    0 -0.36688024551E+02  0.13312439168E+03  0.34253070453E+02  0.18944311987E+03  0.12508920028E+03 0.  0.
         23    2    1    2    0    0  0.36688024551E+02 -0.13312439168E+03  0.43303828700E+02  0.16800594242E+03  0.85338504220E+02 0.  0.
          5    1    3    3  502    0 -0.83046910282E+02  0.90937399838E+02  0.27562013747E+02  0.12626771954E+03  0.41800000000E+01 0.  1.
         -5    1    3    3    0  502  0.46358885731E+02  0.42186991839E+02  0.66910567054E+01  0.63175400327E+02  0.41800000000E+01 0.  1.
        -11    1    4    4    0    0  0.60627497619E+02 -0.97657853666E+02  0.13231694182E+02  0.11570578024E+03  0.00000000000E+00 0.  1.
         11    1    4    4    0    0 -0.23939473068E+02 -0.35466538011E+02  0.30072134518E+02  0.52300162177E+02  0.00000000000E+00 0. -1.
</event>
<event>
 8    1  0.6684013E-009  0.1925279E+03  0.7561462E-02  0.1156201E+00
         -2   -1    0    0    0  501 -0.00000000000E+00  0.00000000000E+00  0.15433575240E+03  0.15433575240E+03  0.00000000000E+00 0.  1.
          2   -1    0    0  501    0  0.00000000000E+00 -0.00000000000E+00 -0.29364762978E+03  0.29364762978E+03  0.00000000000E+00 0. -1.
         25    2    1    2    0    0 -0.40542953869E+02  0.17330423992E+03 -0.26141202525E+02  0.21911476315E+03  0.12509926569E+03 0.  0.
         23    2    1    2    0    0  0.40542953869E+02 -0.17330423992E+03 -0.11317067486E+03  0.22886861903E+03  0.88854670365E+02 0.  0.
          5    1    3    3  502    0 -0.75569093042E+02  0.98217967153E+02  0.17750738934E+02  0.12525980212E+03  0.41800000000E+01 0.  1.
         -5    1    3    3    0  502  0.35026139173E+02  0.75086272770E+02 -0.43891941458E+02  0.93854961024E+02  0.41800000000E+01 0.  1.
        -11    1    4    4    0    0  0.27400209922E+01 -0.20868231199E+02  0.15253019724E+02  0.25993179858E+02  0.00000000000E+00 0.  1.
         11    1    4    4    0    0  0.37802932877E+02 -0.15243600872E+03 -0.12842369458E+03  0.20287543917E+03  0.00000000000E+00 0. -1.
</event>
<event>
 7    1  0.6684013E-009  0.1127301E+03  0.7561462E-02  0.1255596E+00
         -1   -1    0    0    0  501 -0.00000000000E+00  0.00000000000E+00  0.43255784747E+03  0.43255784747E+03  0.00000000000E+00 0.  1.
          1   -1    0    0  501    0  0.00000000000E+00 -0.00000000000E+00 -0.54177811857E+02  0.54177811857E+02  0.00000000000E+00 0. -1.
         25    2    1    2    0    0  0.28438170387E+01 -0.50054673936E+02  0.26609140696E+03  0.29827125088E+03  0.12509014577E+03 0.  0.
          5    1    3    3  502    0 -0.25957271190E+02 -0.52824479423E+02  0.26222569698E+03  0.26878242895E+03  0.41800000000E+01 0.  1.
         -5    1    3    3    0  502  0.28801088229E+02  0.27698054867E+01  0.38657099780E+01  0.29488821937E+02  0.41800000000E+01 0.  1.
        -11    1    1    2    0    0 -0.65116460376E+02  0.30840859583E+02  0.98187111107E+02  0.12178678426E+03  0.00000000000E+00 0.  1.
         11    1    1    2    0    0  0.62272643337E+02  0.19213814354E+02  0.14101517549E+02  0.66677624188E+02  0.00000000000E+00 0. -1.
</event>
<event>
 8    1  0.6684013E-009  0.1745110E+03  0.7561462E-02  0.1173224E+00
          2   -1    0    0  501    0  0.00000000000E+00  0.00000000000E+00  0.87941365786E+02  0.87941365786E+02  0.00000000000E+00 0. -1.
         -2   -1    0    0    0  501 -0.00000000000E+00 -0.00000000000E+00 -0.36561419997E+03  0.36561419997E+03  0.00000000000E+00 0.  1.
         25    2    1    2    0    0  0.87126998795E+02 -0.11158035472E+03 -0.16776807095E+03  0.25265456606E+03  0.12508762787E+03 0.  0.
         23    2    1    2    0    0 -0.87126998795E+02  0.11158035472E+03 -0.10990476324E+03  0.20090099970E+03  0.90779211379E+02 0.  0.
          5    1    3    3  502    0 -0.22655053453E+02  0.63402458193E+01 -0.41609809103E+02  0.47982275661E+02  0.41800000000E+01 0. -1.
         -5    1    3    3    0  502  0.10978205225E+03 -0.11792060054E+03 -0.12615826184E+03  0.20467229040E+03  0.41800000000E+01 0. -1.
        -11    1    4    4    0    0 -0.39457941813E+02  0.10933700705E+03 -0.97183168670E+02  0.15151263497E+03  0.00000000000E+00 0. -1.
         11    1    4    4    0    0 -0.47669056982E+02  0.22433476718E+01 -0.12721594569E+02  0.49388364730E+02  0.00000000000E+00 0.  1.
</event>
<event>
 8    1  0.6684013E-009  0.1352035E+03  0.7561462E-02  0.1219933E+00
          1   -1    0    0  501    0  0.00000000000E+00  0.00000000000E+00  0.54745434756E+03  0.54745434756E+03  0.00000000000E+00 0. -1.
         -1   -1    0    0    0  501 -0.00000000000E+00 -0.00000000000E+00 -0.35690768406E+02  0.35690768406E+02  0.00000000000E+00 0.  1.
         25    2    1    2    0    0 -0.47087742320E+02 -0.74607335737E+02  0.26085113526E+03  0.30244303509E+03  0.12507983325E+03 0.  0.
         23    2    1    2    0    0  0.47087742320E+02  0.74607335737E+02  0.25091244389E+03  0.28070208088E+03  0.89739030996E+02 0.  0.
          5    1    3    3  502    0  0.40089783392E+02 -0.33824056830E+02  0.60821122627E+02  0.80423497254E+02  0.41800000000E+01 0.  1.
         -5    1    3    3    0  502 -0.87177525712E+02 -0.40783278906E+02  0.20003001263E+03  0.22201953784E+03  0.41800000000E+01 0.  1.
        -11    1    4    4    0    0 -0.22782839112E+02  0.33098534828E+02  0.51184379682E+02  0.65072355799E+02  0.00000000000E+00 0.  1.
         11    1    4    4    0    0  0.69870581432E+02  0.41508800909E+02  0.19972806421E+03  0.21562972508E+03  0.00000000000E+00 0. -1.
</event>
<event>
 8    1  0.6684013E-009  0.3454527E+03  0.7561462E-02  0.1064497E+00
         -1   -1    0    0    0  501 -0.00000000000E+00  0.00000000000E+00  0.80135219267E+02  0.80135219267E+02  0.00000000000E+00 0.  1.
          1   -1    0    0  501    0  0.00000000000E+00 -0.00000000000E+00 -0.15751834737E+04  0.15751834737E+04  0.00000000000E+00 0. -1.
         25    2    1    2    0    0  0.19276421893E+01  0.33258953853E+03 -0.89889419787E+03  0.96658060712E+03  0.12509106344E+03 0.  0.
         23    2    1    2    0    0 -0.19276421893E+01 -0.33258953853E+03 -0.59615405651E+03  0.68873808580E+03  0.91328937321E+02 0.  0.
          5    1    3    3  502    0 -0.59479364902E+02  0.19580144395E+03 -0.54767219592E+03  0.58466939965E+03  0.41800000000E+01 0. -1.
         -5    1    3    3    0  502  0.61407007091E+02  0.13678809458E+03 -0.35122200195E+03  0.38191120747E+03  0.41800000000E+01 0. -1.
        -11    1    4    4    0    0 -0.20893388857E+02 -0.72546744239E+02 -0.20676776420E+03  0.22011922249E+03  0.00000000000E+00 0.  1.
         11    1    4    4    0    0  0.18965746668E+02 -0.26004279429E+03 -0.38938629231E+03  0.46861886331E+03  0.00000000000E+00 0. -1.
</event>
<event>
 8    1  0.6684013E-009  0.8022491E+02  0.7561462E-02  0.1328414E+00
          2   -1    0    0  501    0  0.00000000000E+00  0.00000000000E+00  0.72824082105E+02  0.72824082105E+02  0.00000000000E+00 0.  1.
         -2   -1    0    0    0  501 -0.00000000000E+00 -0.00000000000E+00 -0.21470312692E+03  0.21470312692E+03  0.00000000000E+00 0. -1.
         25    2    1    2    0    0  0.21806713165E+02 -0.53623230384E+02 -0.10516200530E+03  0.17337443455E+03  0.12509461867E+03 0.  0.
         23    2    1    2    0    0 -0.21806713165E+02  0.53623230384E+02 -0.36717039516E+02  0.11415277448E+03  0.91278318093E+02 0.  0.
          5    1    3    3  502    0  0.21204772364E+02 -0.37064031025E+02  0.19797005485E+02  0.47252286643E+02  0.41800000000E+01 0. -1.
         -5    1    3    3    0  502  0.60194080175E+00 -0.16559199358E+02 -0.12495901079E+03  0.12612214791E+03  0.41800000000E+01 0. -1.
        -11    1    4    4    0    0  0.30349182120E+02  0.85727995321E+01  0.73083679135E+01  0.32372488146E+02  0.00000000000E+00 0.  1.
         11    1    4    4    0    0 -0.52155895285E+02  0.45050430851E+02 -0.44025407429E+02  0.81780286330E+02  0.00000000000E+00 0. -1.
</event>
<event>
 8    1  0.6684013E-009  0.1162553E+03  0.7561462E-02  0.1249406E+00
         -2   -1    0    0    0  501 -0.00000000000E+00  0.00000000000E+00  0.97500386676E+03  0.97500386676E+03  0.00000000000E+00 0.  1.
          2   -1    0    0  501    0  0.00000000000E+00 -0.00000000000E+00 -0.28639167450E+02  0.28639167450E+02  0.00000000000E+00 0. -1.
         25    2    1    2    0    0 -0.11285630600E+03  0.11510927306E+02  0.65426489530E+03  0.67570725384E+03  0.12509473373E+03 0.  0.
         23    2    1    2    0    0  0.11285630600E+03 -0.11510927306E+02  0.29209980401E+03  0.32793578038E+03  0.96698155601E+02 0.  0.
          5    1    3    3  502    0 -0.11014987507E+03  0.54603488868E+01  0.65788308402E+03  0.66707603392E+03  0.41800000000E+01 0.  1.
         -5    1    3    3    0  502 -0.27064309305E+01  0.60505784197E+01 -0.36181887198E+01  0.86312199142E+01  0.41800000000E+01 0.  1.
        -11    1    4    4    0    0  0.89653540731E+01 -0.48808130341E+01 -0.62337735988E+01  0.11960762635E+02  0.00000000000E+00 0. -1.
         11    1    4    4    0    0  0.10389095193E+03 -0.66301142724E+01  0.29833357761E+03  0.31597501774E+03  0.00000000000E+00 0.  1.
</event>
<event>
 8    1  0.6684013E-009  0.1276377E+03  0.7561462E-02  0.1231004E+00
         -2   -1    0    0    0  501 -0.00000000000E+00  0.00000000000E+00  0.14893162765E+02  0.14893162765E+02  0.00000000000E+00 0.  1.
          2   -1    0    0  501    0  0.00000000000E+00 -0.00000000000E+00 -0.14822091140E+04  0.14822091140E+04  0.00000000000E+00 0. -1.
         25    2    1    2    0    0 -0.60199904492E+02  0.44751743214E+02 -0.11373312898E+04  0.11466452813E+04  0.12508473595E+03 0.  0.
         23    2    1    2    0    0  0.60199904492E+02 -0.44751743214E+02 -0.32998466137E+03  0.35045699548E+03  0.91123443302E+02 0.  0.
          5    1    3    3  502    0 -0.68303526609E+02 -0.23804753800E+02 -0.71831135695E+03  0.72195617317E+03  0.41800000000E+01 0. -1.
         -5    1    3    3    0  502  0.81036221171E+01  0.68556497014E+02 -0.41901993288E+03  0.42468910808E+03  0.41800000000E+01 0. -1.
        -11    1    4    4    0    0  0.49542068617E+02 -0.70286542149E+02 -0.20246217894E+03  0.21996715316E+03  0.00000000000E+00 0.  1.
         11    1    4    4    0    0  0.10657835876E+02  0.25534798934E+02 -0.12752248244E+03  0.13048984232E+03  0.00000000000E+00 0. -1.
</event>
<event>
 8    1  0.6684013E-009  0.1282759E+03  0.7561462E-02  0.1230037E+00
          2   -1    0    0  501    0  0.00000000000E+00  0.00000000000E+00  0.74782837912E+02  0.74782837912E+02  0.00000000000E+00 0.  1.
         -2   -1    0    0    0  501 -0.00000000000E+00 -0.00000000000E+00 -0.24861138271E+03  0.24861138271E+03  0.00000000000E+00 0. -1.
         25    2    1    2    0    0  0.15033436403E+02  0.73724519715E+02 -0.53440075384E+02  0.15545676444E+03  0.12509858087E+03 0.  0.
         23    2    1    2    0    0 -0.15033436403E+02 -0.73724519715E+02 -0.12038846941E+03  0.16793745618E+03  0.89712299058E+02 0.  0.
          5    1    3    3  502    0 -0.31030034876E+02  0.91244869778E+02 -0.33292342920E+02  0.10205068262E+03  0.41800000000E+01 0. -1.
         -5    1    3    3    0  502  0.46063471279E+02 -0.17520350063E+02 -0.20147732464E+02  0.53406081826E+02  0.41800000000E+01 0. -1.
        -11    1    4    4    0    0  0.15036709164E+02  0.12343916547E+02 -0.36128142142E+01  0.19787049420E+02  0.00000000000E+00 0.  1.
         11    1    4    4    0    0 -0.30070145567E+02 -0.86068436262E+02 -0.11677565520E+03  0.14815040676E+03  0.00000000000E+00 0. -1.
</event>
<event>
 8    1  0.6684013E-009  0.1026238E+03  0.7561462E-02  0.1274873E+00
          2   -1    0    0  501    0  0.00000000000E+00  0.00000000000E+00  0.38520475101E+02  0.38520475101E+02  0.00000000000E+00 0. -1.
         -2   -1    0    0    0  501 -0.00000000000E+00 -0.00000000000E+00 -0.42292129131E+03  0.42292129131E+03  0.00000000000E+00 0.  1.
         25    2    1    2    0    0  0.19071374351E+02  0.80488939221E+01 -0.32718765203E+03  0.35088633984E+03  0.12506383103E+03 0.  0.
         23    2    1    2    0    0 -0.19071374351E+02 -0.80488939221E+01 -0.57213164187E+02  0.11055542658E+03  0.92307389613E+02 0.  0.
          5    1    3    3  502    0  0.42517145939E+02  0.55961428748E+02 -0.14821545214E+03  0.16408742139E+03  0.41800000000E+01 0. -1.
         -5    1    3    3    0  502 -0.23445771588E+02 -0.47912534826E+02 -0.17897219989E+03  0.18679891845E+03  0.41800000000E+01 0. -1.
        -11    1    4    4    0    0  0.30396324211E+02 -0.95069956775E+01  0.37109516992E+01  0.32063852777E+02  0.00000000000E+00 0. -1.
         11    1    4    4    0    0 -0.49467698562E+02  0.14581017553E+01 -0.60924115886E+02  0.78491573805E+02  0.00000000000E+00 0.  1.
</event>
<event>
 8    1  0.6684013E-009  0.9701682E+02  0.7561462E-02  0.1286697E+00
          2   -1    0    0  501    0  0.00000000000E+00  0.00000000000E+00  0.50029606782E+03  0.50029606782E+03  0.00000000000E+00 0. -1.
         -2   -1    0    0    0  501 -0.00000000000E+00 -0.00000000000E+00 -0.24270158266E+02  0.24270158266E+02  0.00000000000E+00 0.  1.
         25    2    1    2    0    0  0.13202384105E+02  0.12856760923E+02  0.24727325805E+03  0.27774944442E+03  0.12514427867E+03 0.  0.
         23    2    1    2    0    0 -0.13202384105E+02 -0.12856760923E+02  0.22875265151E+03  0.24681678166E+03  0.90835834843E+02 0.  0.
          5    1    3    3  502    0  0.56730424092E+02  0.12330462229E+02  0.53349180298E+02  0.78955612561E+02  0.41800000000E+01 0. -1.
         -5    1    3    3    0  502 -0.43528039987E+02  0.52629869430E+00  0.19392407775E+03  0.19879383186E+03  0.41800000000E+01 0. -1.
        -11    1    4    4    0    0 -0.19880049027E+02 -0.50287872100E+02  0.14774464841E+03  0.15732948727E+03  0.00000000000E+00 0.  1.
         11    1    4    4    0    0  0.66776649225E+01  0.37431111176E+02  0.81008003092E+02  0.89487294393E+02  0.00000000000E+00 0. -1.
</event>
<event>
 8    1  0.6684013E-009  0.1147629E+03  0.7561462E-02  0.1251996E+00
          2   -1    0    0  501    0  0.00000000000E+00  0.00000000000E+00  0.37189862905E+03  0.37189862905E+03  0.00000000000E+00 0. -1.
         -2   -1    0    0    0  501 -0.00000000000E+00 -0.00000000000E+00 -0.64912575447E+02  0.64912575447E+02  0.00000000000E+00 0.  1.
         25    2    1    2    0    0 -0.70817104999E+02  0.24593887064E+02  0.27708561452E+03  0.31311933591E+03  0.12508940445E+03 0.  0.
         23    2    1    2    0    0  0.70817104999E+02 -0.24593887064E+02  0.29900439079E+02  0.12369186858E+03  0.93732174065E+02 0.  0.
          5    1    3    3  502    0 -0.10466496363E+03  0.45772457959E+01  0.21958984563E+03  0.24333696492E+03  0.41800000000E+01 0.  1.
         -5    1    3    3    0  502  0.33847858628E+02  0.20016641268E+02  0.57495768887E+02  0.69782370993E+02  0.41800000000E+01 0.  1.
        -11    1    4    4    0    0  0.10140948161E+02 -0.22202710445E+02  0.53294354234E+02  0.58618148844E+02  0.00000000000E+00 0. -1.
         11    1    4    4    0    0  0.60676156838E+02 -0.23911766196E+01 -0.23393915155E+02  0.65073719738E+02  0.00000000000E+00 0.  1.
</event>
<event>
 8    1  0.6684013E-009  0.1402981E+03  0.7561462E-02  0.1212928E+00
          1   -1    0    0  501    0  0.00000000000E+00  0.00000000000E+00  0.11069332957E+04  0.11069332957E+04  0.00000000000E+00 0. -1.
         -1   -1    0    0    0  501 -0.00000000000E+00 -0.00000000000E+00 -0.26793832938E+02  0.26793832938E+02  0.00000000000E+00 0.  1.
         25    2    1    2    0    0  0.81216502748E+02 -0.10405322453E+03  0.51233724131E+03  0.54365236365E+03  0.12508097303E+03 0.  0.
         23    2    1    2    0    0 -0.81216502748E+02  0.10405322453E+03  0.56780222146E+03  0.59007476500E+03  0.91464046150E+02 0.  0.
          5    1    3    3  502    0  0.51340607312E+02 -0.10053847499E+03  0.19885258677E+03  0.22869994879E+03  0.41800000000E+01 0.  1.
         -5    1    3    3    0  502  0.29875895436E+02 -0.35147495414E+01  0.31348465454E+03  0.31495241486E+03  0.41800000000E+01 0.  1.
        -11    1    4    4    0    0 -0.56690412360E+02  0.95919335920E+02  0.54280622733E+03  0.55412356229E+03  0.00000000000E+00 0. -1.
         11    1    4    4    0    0 -0.24526090388E+02  0.81338886085E+01  0.24995994134E+02  0.35951202711E+02  0.00000000000E+00 0.  1.
</event>
<event>
 8    1  0.6684013E-009  0.1658144E+03  0.7561462E-02  0.1182284E+00
         -2   -1    0    0    0  501 -0.00000000000E+00  0.00000000000E+00  0.22537906484E+02  0.22537906484E+02  0.00000000000E+00 0.  1.
          2   -1    0    0  501    0  0.00000000000E+00 -0.00000000000E+00 -0.12975865451E+04  0.12975865451E+04  0.00000000000E+00 0. -1.
         25    2    1    2    0    0  0.12777182777E+03 -0.24143178590E+02 -0.71053878346E+03  0.73309013837E+03  0.12508898883E+03 0.  0.
         23    2    1    2    0    0 -0.12777182777E+03  0.24143178590E+02 -0.56450985518E+03  0.58703431324E+03  0.95023025006E+02 0.  0.
          5    1    3    3  502    0 -0.22517394214E+02  0.74314464118E+01 -0.59849858902E+02  0.64511529579E+02  0.41800000000E+01 0. -1.
         -5    1    3    3    0  502  0.15028922198E+03 -0.31574625002E+02 -0.65068892456E+03  0.66857860879E+03  0.41800000000E+01 0. -1.
        -11    1    4    4    0    0  0.11998564206E+02 -0.44790998640E+00 -0.13614076272E+02  0.18152389350E+02  0.00000000000E+00 0.  1.
         11    1    4    4    0    0 -0.13977039197E+03  0.24591088576E+02 -0.55089577891E+03  0.56888192389E+03  0.00000000000E+00 0. -1.
</event>
<event>
 8    1  0.6684013E-009  0.1437850E+03  0.7561462E-02  0.1208325E+00
         -1   -1    0    0    0  501 -0.00000000000E+00  0.00000000000E+00  0.11415156236E+03  0.11415156236E+03  0.00000000000E+00 0.  1.
          1   -1    0    0  501    0  0.00000000000E+00 -0.00000000000E+00 -0.31183755606E+03  0.31183755606E+03  0.00000000000E+00 0. -1.
         25    2    1    2    0    0 -0.26500345352E+02  0.12840964034E+03 -0.19628341492E+03  0.26713352910E+03  0.12506733931E+03 0.  0.
         23    2    1    2    0    0  0.26500345352E+02 -0.12840964034E+03 -0.14025787798E+01  0.15885558932E+03  0.89676234288E+02 0.  0.
          5    1    3    3  502    0 -0.51084928285E+02  0.42743977358E+02 -0.20189799064E+02  0.69726737228E+02  0.41800000000E+01 0.  1.
         -5    1    3    3    0  502  0.24584582933E+02  0.85665662981E+02 -0.17609361586E+03  0.19740679187E+03  0.41800000000E+01 0.  1.
        -11    1    4    4    0    0  0.10043160277E+01 -0.27825527029E+02  0.38644642823E+02  0.47630631153E+02  0.00000000000E+00 0.  1.
         11    1    4    4    0    0  0.25496029324E+02 -0.10058411331E+03 -0.40047221603E+02  0.11122495817E+03  0.00000000000E+00 0. -1.
</event>
<event>
 8    1  0.6684013E-009  0.6079733E+02  0.7561462E-02  0.1394516E+00
         -2   -1    0    0    0  501 -0.00000000000E+00  0.00000000000E+00  0.10349722784E+03  0.10349722784E+03  0.00000000000E+00 0.  1.
          2   -1    0    0  501    0  0.00000000000E+00 -0.00000000000E+00 -0.16583842666E+03  0.16583842666E+03  0.00000000000E+00 0. -1.
         25    2    1    2    0    0  0.30356513566E+02 -0.19663525753E+02 -0.98983330586E+02  0.16356548059E+03  0.12509114495E+03 0.  0.
         23    2    1    2    0    0 -0.30356513566E+02  0.19663525753E+02  0.36642131771E+02  0.10577017391E+03  0.92393244921E+02 0.  0.
          5    1    3    3  502    0  0.37246455449E+02 -0.13928434261E+02  0.19627992224E+02  0.44542453942E+02  0.41800000000E+01 0.  1.
         -5    1    3    3    0  502 -0.68899418824E+01 -0.57350914917E+01 -0.11861132281E+03  0.11902302665E+03  0.41800000000E+01 0.  1.
        -11    1    4    4    0    0  0.56737125187E+01 -0.18430942355E+02  0.48341829797E+02  0.52046355857E+02  0.00000000000E+00 0.  1.
         11    1    4    4    0    0 -0.36030226085E+02  0.38094468108E+02 -0.11699698026E+02  0.53723818052E+02  0.00000000000E+00 0. -1.
</event>
<event>
 8    1  0.6684013E-009  0.2293222E+03  0.7561462E-02  0.1127118E+00
          2   -1    0    0  501    0  0.00000000000E+00  0.00000000000E+00  0.12184046875E+03  0.12184046875E+03  0.00000000000E+00 0.  1.
         -2   -1    0    0    0  501 -0.00000000000E+00 -0.00000000000E+00 -0.49405515110E+03  0.49405515110E+03  0.00000000000E+00 0. -1.
         25    2    1    2    0    0  0.12314853046E+03  0.17920155792E+03 -0.22724556158E+03  0.33848637836E+03  0.12511484387E+03 0.  0.
         23    2    1    2    0    0 -0.12314853046E+03 -0.17920155792E+03 -0.14496912076E+03  0.27740924149E+03  0.93064936331E+02 0.  0.
          5    1    3    3  502    0  0.30549557040E+01  0.80430311895E+02 -0.13617263979E+03  0.15823662045E+03  0.41800000000E+01 0. -1.
         -5    1    3    3    0  502  0.12009357476E+03  0.98771246025E+02 -0.91072921797E+02  0.18024975790E+03  0.41800000000E+01 0. -1.
        -11    1    4    4    0    0 -0.32435644584E+02 -0.88335293833E+02 -0.16052407821E+02  0.95461379484E+02  0.00000000000E+00 0.  1.
         11    1    4    4    0    0 -0.90712885881E+02 -0.90866264087E+02 -0.12891671294E+03  0.18194786201E+03  0.00000000000E+00 0. -1.
</event>
<event>
 8    1  0.6684013E-009  0.1096947E+03  0.7561462E-02  0.1261136E+00
          2   -1    0    0  501    0  0.00000000000E+00  0.00000000000E+00  0.54056977450E+02  0.54056977450E+02  0.00000000000E+00 0. -1.
         -2   -1    0    0    0  501 -0.00000000000E+00 -0.00000000000E+00 -0.24953125536E+03  0.24953125536E+03  0.00000000000E+00 0.  1.
         25    2    1    2    0    0 -0.39096951405E+02 -0.16572942600E+02 -0.11371597564E+03  0.17430704601E+03  0.12509352157E+03 0.  0.
         23    2    1    2    0    0  0.39096951405E+02  0.16572942600E+02 -0.81758302263E+02  0.12928118679E+03  0.90697140163E+02 0.  0.
          5    1    3    3  502    0 -0.83582077171E+02 -0.94294120829E+01 -0.56729436093E+02  0.10154102007E+03  0.41800000000E+01 0. -1.
         -5    1    3    3    0  502  0.44485125766E+02 -0.71435305168E+01 -0.56986539549E+02  0.72766025949E+02  0.41800000000E+01 0. -1.
        -11    1    4    4    0    0 -0.11029126994E+02 -0.23362629225E+02 -0.56511333090E+00  0.25841312654E+02  0.00000000000E+00 0.  1.
         11    1    4    4    0    0  0.50126078399E+02  0.39935571825E+02 -0.81193188932E+02  0.10343987414E+03  0.00000000000E+00 0. -1.
</event>
<event>
 8    1  0.6684013E-009  0.1155799E+03  0.7561462E-02  0.1250572E+00
          2   -1    0    0  501    0  0.00000000000E+00  0.00000000000E+00  0.78451813529E+03  0.78451813529E+03  0.00000000000E+00 0. -1.
         -2   -1    0    0    0  501 -0.00000000000E+00 -0.00000000000E+00 -0.25332788308E+02  0.25332788308E+02  0.00000000000E+00 0.  1.
         25    2    1    2    0    0  0.26232088761E+02 -0.61773090585E+02  0.58990012928E+03  0.60674169755E+03  0.12509711356E+03 0.  0.
         23    2    1    2    0    0 -0.26232088761E+02  0.61773090585E+02  0.16928521770E+03  0.20310922605E+03  0.89954630634E+02 0.  0.
          5    1    3    3  502    0 -0.25846696782E+02 -0.77176102737E+02  0.26308708954E+03  0.27542057231E+03  0.41800000000E+01 0. -1.
         -5    1    3    3    0  502  0.52078785543E+02  0.15403012152E+02  0.32681303974E+03  0.33132112524E+03  0.41800000000E+01 0. -1.
        -11    1    4    4    0    0 -0.13545833264E+02  0.75381699626E+02  0.75677935315E+02  0.10767098091E+03  0.00000000000E+00 0.  1.
         11    1    4    4    0    0 -0.12686255497E+02 -0.13608609041E+02  0.93607282388E+02  0.95438245136E+02  0.00000000000E+00 0. -1.
</event>
<event>
 8    1  0.6684013E-009  0.8258419E+02  0.7561462E-02  0.1321874E+00
         -1   -1    0    0    0  501 -0.00000000000E+00  0.00000000000E+00  0.18253573560E+03  0.18253573560E+03  0.00000000000E+00 0.  1.
          1   -1    0    0  501    0  0.00000000000E+00 -0.00000000000E+00 -0.87382711869E+02  0.87382711869E+02  0.00000000000E+00 0. -1.
         25    2    1    2    0    0 -0.30011460489E+02 -0.17402690625E+02  0.11134272236E+03  0.17101950525E+03  0.12508768105E+03 0.  0.
         23    2    1    2    0    0  0.30011460489E+02  0.17402690625E+02 -0.16189698632E+02  0.98898942219E+02  0.91188557553E+02 0.  0.
          5    1    3    3  502    0 -0.43646162627E+02  0.31688267686E+01 -0.11672433131E+02  0.45483481291E+02  0.41800000000E+01 0. -1.
         -5    1    3    3    0  502  0.13634702138E+02 -0.20571517394E+02  0.12301515549E+03  0.12553602396E+03  0.41800000000E+01 0. -1.
        -11    1    4    4    0    0  0.30870581240E+02 -0.33334012434E+02 -0.15959361790E+02  0.48154443199E+02  0.00000000000E+00 0. -1.
         11    1    4    4    0    0 -0.85912075088E+00  0.50736703059E+02 -0.23033684163E+00  0.50744499021E+02  0.00000000000E+00 0.  1.
</event>
<event>
 8    1  0.6684013E-009  0.1253118E+03  0.7561462E-02  0.1234583E+00
          3   -1    0    0  501    0  0.00000000000E+00  0.00000000000E+00  0.42548650814E+02  0.42548650814E+02  0.00000000000E+00 0. -1.
         -3   -1    0    0    0  501 -0.00000000000E+00 -0.00000000000E+00 -0.61440584273E+03  0.61440584273E+03  0.00000000000E+00 0.  1.
         25    2    1    2    0    0  0.75821514105E+02 -0.15441912108E+02 -0.49290167858E+03  0.51438052319E+03  0.12509157940E+03 0.  0.
         23    2    1    2    0    0 -0.75821514105E+02  0.15441912108E+02 -0.78955513336E+02  0.14257397036E+03  0.90033378734E+02 0.  0.
          5    1    3    3  502    0 -0.28647429997E+02  0.40776778108E+01 -0.21219697595E+03  0.21420161461E+03  0.41800000000E+01 0.  1.
         -5    1    3    3    0  502  0.10446894410E+03 -0.19519589919E+02 -0.28070470264E+03  0.30017890858E+03  0.41800000000E+01 0.  1.
        -11    1    4    4    0    0 -0.88368335070E+02 -0.77006017396E+01 -0.44577418395E+02  0.99274408289E+02  0.00000000000E+00 0. -1.
         11    1    4    4    0    0  0.12546820965E+02  0.23142513848E+02 -0.34378094940E+02  0.43299562068E+02  0.00000000000E+00 0.  1.
</event>
<event>
 8    1  0.6684013E-009  0.1558718E+03  0.7561462E-02  0.1193438E+00
          1   -1    0    0  501    0  0.00000000000E+00  0.00000000000E+00  0.78815968289E+03  0.78815968289E+03  0.00000000000E+00 0. -1.
         -1   -1    0    0    0  501 -0.00000000000E+00 -0.00000000000E+00 -0.34007933178E+02  0.34007933178E+02  0.00000000000E+00 0.  1.
         25    2    1    2    0    0 -0.74825662654E+02  0.95255138468E+02  0.43510841659E+03  0.46865605422E+03  0.12508693686E+03 0.  0.
         23    2    1    2    0    0  0.74825662654E+02 -0.95255138468E+02  0.31904333312E+03  0.35351156185E+03  0.92246163909E+02 0.  0.
          5    1    3    3  502    0 -0.10784427201E+03  0.71536852320E+02  0.28409934668E+03  0.31221438056E+03  0.41800000000E+01 0. -1.
         -5    1    3    3    0  502  0.33018609356E+02  0.23718286148E+02  0.15100906991E+03  0.15644167366E+03  0.41800000000E+01 0. -1.
        -11    1    4    4    0    0  0.87878180622E+02 -0.67796837464E+02  0.18230477479E+03  0.21343386964E+03  0.00000000000E+00 0. -1.
         11    1    4    4    0    0 -0.13052517969E+02 -0.27458301005E+02  0.13673855833E+03  0.14007769221E+03  0.00000000000E+00 0.  1.
</event>
<event>
 8    1  0.6684013E-009  0.7934199E+02  0.7561462E-02  0.1330929E+00
         -2   -1    0    0    0  501 -0.00000000000E+00  0.00000000000E+00  0.25170950560E+03  0.25170950560E+03  0.00000000000E+00 0.  1.
          2   -1    0    0  501    0  0.00000000000E+00 -0.00000000000E+00 -0.67150185557E+02  0.67150185557E+02  0.00000000000E+00 0. -1.
         25    2    1    2    0    0  0.40275384452E+02 -0.43899102588E+02  0.15585287162E+03  0.20853580373E+03  0.12509127086E+03 0.  0.
         23    2    1    2    0    0 -0.40275384452E+02  0.43899102588E+02  0.28706448422E+02  0.11032388742E+03  0.88306637093E+02 0.  0.
          5    1    3    3  502    0 -0.71598247217E+01 -0.67268523579E+01 -0.19958867696E+02  0.22634982492E+02  0.41800000000E+01 0. -1.
         -5    1    3    3    0  502  0.47435209174E+02 -0.37172250230E+02  0.17581173932E+03  0.18590082124E+03  0.41800000000E+01 0. -1.
        -11    1    4    4    0    0  0.46646655916E+01  0.42375898342E+02 -0.17285537457E+02  0.46002887633E+02  0.00000000000E+00 0. -1.
         11    1    4    4    0    0 -0.44940050044E+02  0.15232042458E+01  0.45991985879E+02  0.64320999792E+02  0.00000000000E+00 0.  1.
</event>
<event>
 8    1  0.6684013E-009  0.1791437E+03  0.7561462E-02  0.1168634E+00
          1   -1    0    0  501    0  0.00000000000E+00  0.00000000000E+00  0.36640090271E+02  0.36640090271E+02  0.00000000000E+00 0. -1.
         -1   -1    0    0    0  501 -0.00000000000E+00 -0.00000000000E+00 -0.10717997091E+04  0.10717997091E+04  0.00000000000E+00 0.  1.
         25    2    1    2    0    0 -0.84327757877E+02 -0.13860100015E+03 -0.44681818018E+03  0.49154409865E+03  0.12509079415E+03 0.  0.
         23    2    1    2    0    0  0.84327757877E+02  0.13860100015E+03 -0.58834143869E+03  0.61689570077E+03  0.89962487473E+02 0.  0.
          5    1    3    3  502    0 -0.10968595080E+03 -0.11193161065E+03 -0.28230947024E+03  0.32291764066E+03  0.41800000000E+01 0. -1.
         -5    1    3    3    0  502  0.25358192922E+02 -0.26669389502E+02 -0.16450870994E+03  0.16862645798E+03  0.41800000000E+01 0. -1.
        -11    1    4    4    0    0  0.15954208220E+02  0.99928884474E+01 -0.11748929313E+02  0.22190807094E+02  0.00000000000E+00 0. -1.
         11    1    4    4    0    0  0.68373549657E+02  0.12860811170E+03 -0.57659250938E+03  0.59470489368E+03  0.00000000000E+00 0.  1.
</event>
<event>
 8    1  0.6684013E-009  0.1215887E+03  0.7561462E-02  0.1240499E+00
         -2   -1    0    0    0  501 -0.00000000000E+00  0.00000000000E+00  0.19410495295E+04  0.19410495295E+04  0.00000000000E+00 0.  1.
          2   -1    0    0  501    0  0.00000000000E+00 -0.00000000000E+00 -0.12260614347E+02  0.12260614347E+02  0.00000000000E+00 0. -1.
         25    2    1    2    0    0 -0.62862493846E+02  0.17889615652E+02  0.15933649989E+04  0.15996031117E+04  0.12508542643E+03 0.  0.
         23    2    1    2    0    0  0.62862493846E+02 -0.17889615652E+02  0.33542391622E+03  0.35370703207E+03  0.91256394196E+02 0.  0.
          5    1    3    3  502    0 -0.68813459561E+02  0.64194100963E+02  0.10855874169E+04  0.10896667779E+04  0.41800000000E+01 0.  1.
         -5    1    3    3    0  502  0.59509657153E+01 -0.46304485311E+02  0.50777758205E+03  0.50993633385E+03  0.41800000000E+01 0.  1.
        -11    1    4    4    0    0  0.67315486883E+02 -0.40834266087E+02  0.30685919892E+03  0.31679864271E+03  0.00000000000E+00 0.  1.
         11    1    4    4    0    0 -0.44529930370E+01  0.22944650435E+02  0.28564717298E+02  0.36908389357E+02  0.00000000000E+00 0. -1.
</event>
<event>
 8    1  0.6684013E-009  0.1000253E+03  0.7561462E-02  0.1280243E+00
          1   -1    0    0  501    0  0.00000000000E+00  0.00000000000E+00  0.89677197836E+02  0.89677197836E+02  0.00000000000E+00 0. -1.
         -1   -1    0    0    0  501 -0.00000000000E+00 -0.00000000000E+00 -0.16621684396E+03  0.16621684396E+03  0.00000000000E+00 0.  1.
         25    2    1    2    0    0  0.56628039536E+02 -0.24490159376E+02 -0.55464216115E+02  0.15010076623E+03  0.12508979968E+03 0.  0.
         23    2    1    2    0    0 -0.56628039536E+02  0.24490159376E+02 -0.21075430005E+02  0.10579327556E+03  0.83315908666E+02 0.  0.
          5    1    3    3  502    0  0.73763970812E+02 -0.73643934962E+01 -0.84215048100E+02  0.11227201080E+03  0.41800000000E+01 0.  1.
         -5    1    3    3    0  502 -0.17135931276E+02 -0.17125765880E+02  0.28750831986E+02  0.37828755432E+02  0.41800000000E+01 0.  1.
        -11    1    4    4    0    0  0.78266546598E+00 -0.25246648212E+02 -0.15488324154E+02  0.29629276000E+02  0.00000000000E+00 0.  1.
         11    1    4    4    0    0 -0.57410705002E+02  0.49736807588E+02 -0.55871058503E+01  0.76163999565E+02  0.00000000000E+00 0. -1.
</event>
<event>
 8    1  0.6684013E-009  0.1092830E+03  0.7561462E-02  0.1261903E+00
          2   -1    0    0  501    0  0.00000000000E+00  0.00000000000E+00  0.17715042295E+03  0.17715042295E+03  0.00000000000E+00 0. -1.
         -2   -1    0    0    0  501 -0.00000000000E+00 -0.00000000000E+00 -0.73123021064E+02  0.73123021064E+02  0.00000000000E+00 0.  1.
         25    2    1    2    0    0 -0.29788554459E+02 -0.25186121180E+01  0.43195040649E+02  0.13567167321E+03  0.12508912819E+03 0.  0.
         23    2    1    2    0    0  0.29788554459E+02  0.25186121180E+01  0.60832361236E+02  0.11460177080E+03  0.92408269725E+02 0.  0.
          5    1    3    3  502    0 -0.66261677989E+02 -0.38549582420E+02  0.20602690186E+02  0.79489769893E+02  0.41800000000E+01 0.  1.
         -5    1    3    3    0  502  0.36473123531E+02  0.36030970302E+02  0.22592350463E+02  0.56181903318E+02  0.41800000000E+01 0.  1.
        -11    1    4    4    0    0  0.59449005504E+02  0.86233931449E+01  0.19088983947E+02  0.63031234106E+02  0.00000000000E+00 0.  1.
         11    1    4    4    0    0 -0.29660451046E+02 -0.61047810269E+01  0.41743377289E+02  0.51570536696E+02  0.00000000000E+00 0. -1.
</event>
<event>
 8    1  0.6684013E-009  0.1493277E+03  0.7561462E-02  0.1201302E+00
         -2   -1    0    0    0  501 -0.00000000000E+00  0.00000000000E+00  0.93135713855E+02  0.93135713855E+02  0.00000000000E+00 0.  1.
          2   -1    0    0  501    0  0.00000000000E+00 -0.00000000000E+00 -0.32499209935E+03  0.32499209935E+03  0.00000000000E+00 0. -1.
         25    2    1    2    0    0 -0.10386753721E+03  0.41208990639E+01 -0.17424656378E+02  0.16360883137E+03  0.12513506286E+03 0.  0.
         23    2    1    2    0    0  0.10386753721E+03 -0.41208990639E+01 -0.21443172911E+03  0.25451898183E+03  0.89406367604E+02 0.  0.
          5    1    3    3  502    0 -0.50016347699E+02  0.64269914905E+02 -0.13641259405E+02  0.82678977723E+02  0.41800000000E+01 0. -1.
         -5    1    3    3    0  502 -0.53851189511E+02 -0.60149015841E+02 -0.37833969729E+01  0.80929853646E+02  0.41800000000E+01 0. -1.
        -11    1    4    4    0    0  0.11297022711E+03 -0.23019345816E+02 -0.17029945810E+03  0.20565521614E+03  0.00000000000E+00 0. -1.
         11    1    4    4    0    0 -0.91026899035E+01  0.18898446752E+02 -0.44132271015E+02  0.48863765697E+02  0.00000000000E+00 0.  1.
</event>
<event>
 8    1  0.6684013E-009  0.1087685E+03  0.7561462E-02  0.1262868E+00
         -4   -1    0    0    0  501 -0.00000000000E+00  0.00000000000E+00  0.60959058983E+02  0.60959058983E+02  0.00000000000E+00 0.  1.
          4   -1    0    0  501    0  0.00000000000E+00 -0.00000000000E+00 -0.21422524835E+03  0.21422524835E+03  0.00000000000E+00 0. -1.
         25    2    1    2    0    0  0.55497208952E+01 -0.19854444561E+02 -0.56273505610E+02  0.13871213252E+03  0.12509736169E+03 0.  0.
         23    2    1    2    0    0 -0.55497208952E+01  0.19854444561E+02 -0.96992683758E+02  0.13647217482E+03  0.93766067562E+02 0.  0.
          5    1    3    3  502    0  0.53043490948E+01  0.51015006266E+02 -0.61905403852E+01  0.51831092733E+02  0.41800000000E+01 0.  1.
         -5    1    3    3    0  502  0.24537180038E+00 -0.70869450828E+02 -0.50082965225E+02  0.86881039782E+02  0.41800000000E+01 0.  1.
        -11    1    4    4    0    0 -0.29266514180E+02  0.49264802685E+02 -0.49027048743E+02  0.75413534225E+02  0.00000000000E+00 0. -1.
         11    1    4    4    0    0  0.23716793285E+02 -0.29410358124E+02 -0.47965635015E+02  0.61058640593E+02  0.00000000000E+00 0.  1.
</event>
<event>
 8    1  0.6684013E-009  0.9458219E+02  0.7561462E-02  0.1292120E+00
          2   -1    0    0  501    0  0.00000000000E+00  0.00000000000E+00  0.15163070903E+03  0.15163070903E+03  0.00000000000E+00 0. -1.
         -2   -1    0    0    0  501 -0.00000000000E+00 -0.00000000000E+00 -0.11442744300E+03  0.11442744300E+03  0.00000000000E+00 0.  1.
         25    2    1    2    0    0 -0.48145183289E+01 -0.10052274698E+02 -0.52474491790E+02  0.13611080836E+03  0.12509337333E+03 0.  0.
         23    2    1    2    0    0  0.48145183289E+01  0.10052274698E+02  0.89677757816E+02  0.12994734367E+03  0.93380854922E+02 0.  0.
          5    1    3    3  502    0  0.42572988471E+02 -0.48031320382E+02 -0.32362857407E+02  0.72002041808E+02  0.41800000000E+01 0.  1.
         -5    1    3    3    0  502 -0.47387506800E+02  0.37979045684E+02 -0.20111634383E+02  0.64108766556E+02  0.41800000000E+01 0.  1.
        -11    1    4    4    0    0  0.29877560659E+02 -0.10387618352E+02 -0.30144259262E+01  0.31775116202E+02  0.00000000000E+00 0.  1.
         11    1    4    4    0    0 -0.25063042330E+02  0.20439893049E+02  0.92692183742E+02  0.98172227466E+02  0.00000000000E+00 0. -1.
</event>
<event>
 8    1  0.6684013E-009  0.6163799E+02  0.7561462E-02  0.1391084E+00
         -1   -1    0    0    0  501 -0.00000000000E+00  0.00000000000E+00  0.16921431878E+02  0.16921431878E+02  0.00000000000E+00 0.  1.
          1   -1    0    0  501    0  0.00000000000E+00 -0.00000000000E+00 -0.74976456817E+03  0.74976456817E+03  0.00000000000E+00 0. -1.
         25    2    1    2    0    0 -0.24900627268E+02 -0.47547108285E+01 -0.46505832653E+03  0.48225376789E+03  0.12508717385E+03 0.  0.
         23    2    1    2    0    0  0.24900627268E+02  0.47547108285E+01 -0.26778480976E+03  0.28443223215E+03  0.92468058456E+02 0.  0.
          5    1    3    3  502    0 -0.16886389523E+02  0.71774113643E+01 -0.46680399009E+03  0.46718315782E+03  0.41800000000E+01 0.  1.
         -5    1    3    3    0  502 -0.80142377448E+01 -0.11932122193E+02  0.17456635651E+01  0.15070610072E+02  0.41800000000E+01 0.  1.
        -11    1    4    4    0    0  0.27041418812E+02 -0.38022354157E+02 -0.87864722341E+02  0.99484406713E+02  0.00000000000E+00 0.  1.
         11    1    4    4    0    0 -0.21407915433E+01  0.42777064985E+02 -0.17992008742E+03  0.18494782544E+03  0.00000000000E+00 0. -1.
</event>
<event>
 8    1  0.6684013E-009  0.9855674E+02  0.7561462E-02  0.1283361E+00
         -1   -1    0    0    0  501 -0.00000000000E+00  0.00000000000E+00  0.77876268042E+02  0.77876268042E+02  0.00000000000E+00 0.  1.
          1   -1    0    0  501    0  0.00000000000E+00 -0.00000000000E+00 -0.24229769690E+03  0.24229769690E+03  0.00000000000E+00 0. -1.
         25    2    1    2    0    0 -0.37934746008E+02  0.37711528304E+02 -0.16841167124E+03  0.21649701664E+03  0.12508901982E+03 0.  0.
         23    2    1    2    0    0  0.37934746008E+02 -0.37711528304E+02  0.39902423848E+01  0.10367694830E+03  0.88723070582E+02 0.  0.
          5    1    3    3  502    0 -0.13638235096E+02  0.59348240327E+02 -0.17292965617E+03  0.18338580498E+03  0.41800000000E+01 0.  1.
         -5    1    3    3    0  502 -0.24296510913E+02 -0.21636712023E+02  0.45179849233E+01  0.33111211658E+02  0.41800000000E+01 0.  1.
        -11    1    4    4    0    0 -0.25664844289E+01 -0.57943366419E+02 -0.18423365653E+01  0.58029430105E+02  0.00000000000E+00 0.  1.
         11    1    4    4    0    0  0.40501230437E+02  0.20231838115E+02  0.58325789501E+01  0.45647518198E+02  0.00000000000E+00 0. -1.
</event>
<event>
 8    1  0.6684013E-009  0.1567465E+03  0.7561462E-02  0.1192420E+00
          4   -1    0    0  501    0  0.00000000000E+00  0.00000000000E+00  0.10550569762E+03  0.10550569762E+03  0.00000000000E+00 0. -1.
         -4   -1    0    0    0  501 -0.00000000000E+00 -0.00000000000E+00 -0.39135967524E+03  0.39135967524E+03  0.00000000000E+00 0.  1.
         25    2    1    2    0    0 -0.60758028329E+02  0.11641160740E+03 -0.28167164096E+03  0.33500686660E+03  0.12508991568E+03 0.  0.
         23    2    1    2    0    0  0.60758028329E+02 -0.11641160740E+03 -0.41823366643E+01  0.16185850626E+03  0.94538266131E+02 0.  0.
          5    1    3    3  502    0  0.38144374922E+02  0.32920742074E+02 -0.61949710418E+02  0.79962538840E+02  0.41800000000E+01 0. -1.
         -5    1    3    3    0  502 -0.98902403252E+02  0.83490865328E+02 -0.21972193054E+03  0.25504432776E+03  0.41800000000E+01 0. -1.
        -11    1    4    4    0    0  0.34851278478E+02 -0.41625300614E+02 -0.47057615041E+02  0.71844946907E+02  0.00000000000E+00 0.  1.
         11    1    4    4    0    0  0.25906749851E+02 -0.74786306788E+02  0.42875278376E+02  0.90013559349E+02  0.00000000000E+00 0. -1.
</event>
<event>
 7    1  0.6684013E-009  0.1327235E+03  0.7561462E-02  0.1223470E+00
         -1   -1    0    0    0  501 -0.00000000000E+00  0.00000000000E+00  0.78677549962E+02  0.78677549962E+02  0.00000000000E+00 0.  1.
          1   -1    0    0  501    0  0.00000000000E+00 -0.00000000000E+00 -0.32059933372E+03  0.32059933372E+03  0.00000000000E+00 0. -1.
         25    2    1    2    0    0 -0.88011753983E+02  0.22777027314E+02 -0.13401625961E+03  0.20462753247E+03  0.12508879803E+03 0.  0.
          5    1    3    3  502    0 -0.42331845160E+02  0.42964619394E+02 -0.14157475973E+03  0.15394423870E+03  0.41800000000E+01 0. -1.
         -5    1    3    3    0  502 -0.45679908823E+02 -0.20187592079E+02  0.75585001201E+01  0.50683293777E+02  0.41800000000E+01 0. -1.
        -11    1    1    2    0    0 -0.30428749429E+02  0.99108580500E+01 -0.48666884500E+02  0.58246026011E+02  0.00000000000E+00 0. -1.
         11    1    1    2    0    0  0.11844050341E+03 -0.32687885364E+02 -0.59238639648E+02  0.13640332520E+03  0.00000000000E+00 0.  1.
</event>
<event>
 8    1  0.6684013E-009  0.1832635E+03  0.7561462E-02  0.1164681E+00
         -2   -1    0    0    0  501 -0.00000000000E+00  0.00000000000E+00  0.17883315751E+03  0.17883315751E+03  0.00000000000E+00 0.  1.
          2   -1    0    0  501    0  0.00000000000E+00 -0.00000000000E+00 -0.21043674188E+03  0.21043674188E+03  0.00000000000E+00 0. -1.
         25    2    1    2    0    0 -0.14083557146E+03 -0.76898188248E+02 -0.22482377646E+02  0.20469175348E+03  0.12508104211E+03 0.  0.
         23    2    1    2    0    0  0.14083557146E+03  0.76898188248E+02 -0.91212067177E+01  0.18457814591E+03  0.90762910873E+02 0.  0.
          5    1    3    3  502    0 -0.97765090057E+02  0.11217203054E+02  0.14962440488E+02  0.99625225238E+02  0.41800000000E+01 0. -1.
         -5    1    3    3    0  502 -0.43070481404E+02 -0.88115391302E+02 -0.37444818134E+02  0.10506652825E+03  0.41800000000E+01 0. -1.
        -11    1    4    4    0    0  0.89972346529E+02  0.17489497546E+02 -0.40634510230E+02  0.10026000741E+03  0.00000000000E+00 0. -1.
         11    1    4    4    0    0  0.50863224933E+02  0.59408690702E+02  0.31513303512E+02  0.84318138498E+02  0.00000000000E+00 0.  1.
</event>
<event>
 8    1  0.6684013E-009  0.1094662E+03  0.7561462E-02  0.1261562E+00
         -1   -1    0    0    0  501 -0.00000000000E+00  0.00000000000E+00  0.23186550989E+03  0.23186550989E+03  0.00000000000E+00 0.  1.
          1   -1    0    0  501    0  0.00000000000E+00 -0.00000000000E+00 -0.63374880442E+02  0.63374880442E+02  0.00000000000E+00 0. -1.
         25    2    1    2    0    0  0.51005597812E+02  0.24143128013E+02  0.96697222842E+02  0.16787667068E+03  0.12509101492E+03 0.  0.
         23    2    1    2    0    0 -0.51005597812E+02 -0.24143128013E+02  0.71793406609E+02  0.12736371966E+03  0.88784921096E+02 0.  0.
          5    1    3    3  502    0  0.16565265711E+02  0.60925798414E+02  0.53908350950E+01  0.63505074156E+02  0.41800000000E+01 0. -1.
         -5    1    3    3    0  502  0.34440332102E+02 -0.36782670401E+02  0.91306387747E+02  0.10437159652E+03  0.41800000000E+01 0. -1.
        -11    1    4    4    0    0 -0.32125943294E+02  0.32312601392E+02  0.28292836006E+02  0.53634550530E+02  0.00000000000E+00 0. -1.
         11    1    4    4    0    0 -0.18879654518E+02 -0.56455729406E+02  0.43500570602E+02  0.73729169127E+02  0.00000000000E+00 0.  1.
</event>
<event>
 8    1  0.6684013E-009  0.2022568E+03  0.7561462E-02  0.1147849E+00
         -2   -1    0    0    0  501 -0.00000000000E+00  0.00000000000E+00  0.24494502137E+02  0.24494502137E+02  0.00000000000E+00 0.  1.
          2   -1    0    0  501    0  0.00000000000E+00 -0.00000000000E+00 -0.17676253932E+04  0.17676253932E+04  0.00000000000E+00 0. -1.
         25    2    1    2    0    0 -0.55877695157E+02 -0.16844459029E+03 -0.88873779115E+03  0.91487643420E+03  0.12509249227E+03 0.  0.
         23    2    1    2    0    0  0.55877695157E+02  0.16844459029E+03 -0.85439309988E+03  0.87724346110E+03  0.89847783019E+02 0.  0.
          5    1    3    3  502    0  0.20239640805E+02 -0.11875492274E+03 -0.60544831428E+03  0.61733095533E+03  0.41800000000E+01 0.  1.
         -5    1    3    3    0  502 -0.76117335962E+02 -0.49689667547E+02 -0.28328947686E+03  0.29754547887E+03  0.41800000000E+01 0.  1.
        -11    1    4    4    0    0  0.62677977837E+02  0.68679488971E+02 -0.30624695647E+03  0.32005093260E+03  0.00000000000E+00 0.  1.
         11    1    4    4    0    0 -0.68002826800E+01  0.99765101319E+02 -0.54814614340E+03  0.55719252850E+03  0.00000000000E+00 0. -1.
</event>
<event>
 8    1  0.6684013E-009  0.1552585E+03  0.7561462E-02  0.1194156E+00
         -1   -1    0    0    0  501 -0.00000000000E+00  0.00000000000E+00  0.66253353715E+02  0.66253353715E+02  0.00000000000E+00 0.  1.
          1   -1    0    0  501    0  0.00000000000E+00 -0.00000000000E+00 -0.59588248855E+03  0.59588248855E+03  0.00000000000E+00 0. -1.
         25    2    1    2    0    0  0.85963724812E+02  0.85544127044E+02 -0.46469327151E+03  0.49628126414E+03  0.12509075464E+03 0.  0.
         23    2    1    2    0    0 -0.85963724812E+02 -0.85544127044E+02 -0.64935863325E+02  0.16585457812E+03  0.92647261608E+02 0.  0.
          5    1    3    3  502    0  0.11708996598E+03  0.53469402871E+02 -0.32662774539E+03  0.35110140079E+03  0.41800000000E+01 0. -1.
         -5    1    3    3    0  502 -0.31126241172E+02  0.32074724173E+02 -0.13806552612E+03  0.14517986335E+03  0.41800000000E+01 0. -1.
        -11    1    4    4    0    0  0.34397387424E+01 -0.32915421511E+02 -0.51538634249E+02  0.61249388536E+02  0.00000000000E+00 0. -1.
         11    1    4    4    0    0 -0.89403463554E+02 -0.52628705534E+02 -0.13397229076E+02  0.10460518959E+03  0.00000000000E+00 0.  1.
</event>
<event>
 8    1  0.6684013E-009  0.4550071E+03  0.7561462E-02  0.1026239E+00
          2   -1    0    0  501    0  0.00000000000E+00  0.00000000000E+00  0.67508415842E+03  0.67508415842E+03  0.00000000000E+00 0. -1.
         -2   -1    0    0    0  501 -0.00000000000E+00 -0.00000000000E+00 -0.34468881243E+03  0.34468881243E+03  0.00000000000E+00 0.  1.
         25    2    1    2    0    0 -0.97181302899E+01 -0.44935819655E+03  0.27429904584E+02  0.46735009607E+03  0.12508589759E+03 0.  0.
         23    2    1    2    0    0  0.97181302899E+01  0.44935819655E+03  0.30296544140E+03  0.55242287477E+03  0.10661023885E+03 0.  0.
          5    1    3    3  502    0  0.16629855510E+02 -0.18817524790E+03  0.69753465517E+02  0.20141870412E+03  0.41800000000E+01 0.  1.
         -5    1    3    3    0  502 -0.26347985799E+02 -0.26118294864E+03 -0.42323560933E+02  0.26593139195E+03  0.41800000000E+01 0.  1.
        -11    1    4    4    0    0  0.36914297749E+02  0.79405800695E+02  0.85719713904E+02  0.12253903833E+03  0.00000000000E+00 0.  1.
         11    1    4    4    0    0 -0.27196167459E+02  0.36995239585E+03  0.21724572750E+03  0.42988383645E+03  0.00000000000E+00 0. -1.
</event>
<event>
 8    1  0.6684013E-009  0.1550730E+03  0.7561462E-02  0.1194374E+00
          2   -1    0    0  501    0  0.00000000000E+00  0.00000000000E+00  0.24852254103E+03  0.24852254103E+03  0.00000000000E+00 0. -1.
         -2   -1    0    0    0  501 -0.00000000000E+00 -0.00000000000E+00 -0.11118001469E+03  0.11118001469E+03  0.00000000000E+00 0.  1.
         25    2    1    2    0    0 -0.77542944014E+02  0.85740119405E+02  0.21422843850E+02  0.17167179412E+03  0.12509192786E+03 0.  0.
         23    2    1    2    0    0  0.77542944014E+02 -0.85740119405E+02  0.11591968249E+03  0.18803076160E+03  0.92487395247E+02 0.  0.
          5    1    3    3  502    0  0.22360208167E+02  0.53210357949E+02 -0.16036489708E+02  0.60049666981E+02  0.41800000000E+01 0. -1.
         -5    1    3    3    0  502 -0.99903152181E+02  0.32529761456E+02  0.37459333558E+02  0.11162212714E+03  0.41800000000E+01 0. -1.
        -11    1    4    4    0    0  0.90836042950E+02 -0.94602484058E+02  0.10934389479E+03  0.17075392826E+03  0.00000000000E+00 0. -1.
         11    1    4    4    0    0 -0.13293098936E+02  0.88623646527E+01  0.65757876975E+01  0.17276833344E+02  0.00000000000E+00 0.  1.
</event>
<event>
 8    1  0.6684013E-009  0.1041412E+03  0.7561462E-02  0.1271821E+00
          2   -1    0    0  501    0  0.00000000000E+00  0.00000000000E+00  0.98189904895E+03  0.98189904895E+03  0.00000000000E+00 0.  1.
         -2   -1    0    0    0  501 -0.00000000000E+00 -0.00000000000E+00 -0.15700290700E+02  0.15700290700E+02  0.00000000000E+00 0. -1.
         25    2    1    2    0    0 -0.41322654812E+02 -0.48392209186E+01  0.71846376183E+03  0.73045767297E+03  0.12508898869E+03 0.  0.
         23    2    1    2    0    0  0.41322654812E+02  0.48392209186E+01  0.24773499642E+03  0.26714166667E+03  0.90890383215E+02 0.  0.
          5    1    3    3  502    0 -0.73906698496E+02  0.78506541624E+01  0.64167542679E+03  0.64597883758E+03  0.41800000000E+01 0. -1.
         -5    1    3    3    0  502  0.32584043683E+02 -0.12689875081E+02  0.76788335036E+02  0.84478835396E+02  0.41800000000E+01 0. -1.
        -11    1    4    4    0    0 -0.22276201356E+02 -0.20396092186E+02  0.57038876799E+02  0.64541949070E+02  0.00000000000E+00 0. -1.
         11    1    4    4    0    0  0.63598856169E+02  0.25235313105E+02  0.19069611962E+03  0.20259971760E+03  0.00000000000E+00 0.  1.
</event>
<event>
 8    1  0.6684013E-009  0.2502114E+03  0.7561462E-02  0.1113171E+00
         -1   -1    0    0    0  501 -0.00000000000E+00  0.00000000000E+00  0.79879377546E+03  0.79879377546E+03  0.00000000000E+00 0.  1.
          1   -1    0    0  501    0  0.00000000000E+00 -0.00000000000E+00 -0.82080040458E+02  0.82080040458E+02  0.00000000000E+00 0. -1.
         25    2    1    2    0    0 -0.18025839364E+03 -0.14220157468E+03  0.42474487291E+03  0.49877069371E+03  0.12509844733E+03 0.  0.
         23    2    1    2    0    0  0.18025839364E+03  0.14220157468E+03  0.29196886209E+03  0.38210312220E+03  0.89680562251E+02 0.  0.
          5    1    3    3  502    0 -0.10060616552E+03 -0.14372756590E+03  0.33850610802E+03  0.38129132078E+03  0.41800000000E+01 0.  1.
         -5    1    3    3    0  502 -0.79652228119E+02  0.15259912199E+01  0.86238764895E+02  0.11747937293E+03  0.41800000000E+01 0.  1.
        -11    1    4    4    0    0  0.10670130183E+03  0.29727320774E+02  0.15181606480E+03  0.18792817496E+03  0.00000000000E+00 0.  1.
         11    1    4    4    0    0  0.73557091814E+02  0.11247425391E+03  0.14015279728E+03  0.19417494724E+03  0.00000000000E+00 0. -1.
</event>
<event>
 8    1  0.6684013E-009  0.1338489E+03  0.7561462E-02  0.1221854E+00
          3   -1    0    0  501    0  0.00000000000E+00  0.00000000000E+00  0.42206293557E+03  0.42206293557E+03  0.00000000000E+00 0. -1.
         -3   -1    0    0    0  501 -0.00000000000E+00 -0.00000000000E+00 -0.63560308152E+02  0.63560308152E+02  0.00000000000E+00 0.  1.
         25    2    1    2    0    0 -0.75584666926E+02  0.42683823270E+02  0.31902897214E+03  0.35349956134E+03  0.12508998424E+03 0.  0.
         23    2    1    2    0    0  0.75584666926E+02 -0.42683823270E+02  0.39473655277E+02  0.13212368239E+03  0.91452432134E+02 0.  0.
          5    1    3    3  502    0 -0.77987793529E+02 -0.18490027042E+02  0.11352878420E+03  0.13903321287E+03  0.41800000000E+01 0.  1.
         -5    1    3    3    0  502  0.24031266036E+01  0.61173850312E+02  0.20550018795E+03  0.21446634847E+03  0.41800000000E+01 0.  1.
        -11    1    4    4    0    0  0.36633615788E+02 -0.69653028136E+02  0.23697977991E+02  0.82189782182E+02  0.00000000000E+00 0.  1.
         11    1    4    4    0    0  0.38951051137E+02  0.26969204866E+02  0.15775677286E+02  0.49933900205E+02  0.00000000000E+00 0. -1.
</event>
<event>
 8    1  0.6684013E-009  0.1221298E+03  0.7561462E-02  0.1239624E+00
          2   -1    0    0  501    0  0.00000000000E+00  0.00000000000E+00  0.35051983872E+03  0.35051983872E+03  0.00000000000E+00 0. -1.
         -2   -1    0    0    0  501 -0.00000000000E+00 -0.00000000000E+00 -0.84339749034E+02  0.84339749034E+02  0.00000000000E+00 0.  1.
         25    2    1    2    0    0  0.58389538755E+02 -0.13335305904E+02  0.29046719131E+03  0.32187536679E+03  0.12508154897E+03 0.  0.
         23    2    1    2    0    0 -0.58389538755E+02  0.13335305904E+02 -0.24287101632E+02  0.11298422096E+03  0.92673633045E+02 0.  0.
          5    1    3    3  502    0 -0.19690940627E+02 -0.48319389315E+02  0.12590897945E+03  0.13635629810E+03  0.41800000000E+01 0.  1.
         -5    1    3    3    0  502  0.78080479382E+02  0.34984083410E+02  0.16455821187E+03  0.18551906868E+03  0.41800000000E+01 0.  1.
        -11    1    4    4    0    0 -0.13493410134E+02  0.47791064244E+02  0.37987523143E+01  0.49804502385E+02  0.00000000000E+00 0.  1.
         11    1    4    4    0    0 -0.44896128621E+02 -0.34455758340E+02 -0.28085853947E+02  0.63179718580E+02  0.00000000000E+00 0. -1.
</event>
<event>
 8    1  0.6684013E-009  0.1302331E+03  0.7561462E-02  0.1227110E+00
         -2   -1    0    0    0  501 -0.00000000000E+00  0.00000000000E+00  0.52463352569E+02  0.52463352569E+02  0.00000000000E+00 0.  1.
          2   -1    0    0  501    0  0.00000000000E+00 -0.00000000000E+00 -0.41389909581E+03  0.41389909581E+03  0.00000000000E+00 0. -1.
         25    2    1    2    0    0  0.96076329701E+01  0.93275605015E+02 -0.14646643399E+03  0.21422367564E+03  0.12508685709E+03 0.  0.
         23    2    1    2    0    0 -0.96076329701E+01 -0.93275605015E+02 -0.21496930924E+03  0.25213877273E+03  0.92571657090E+02 0.  0.
          5    1    3    3  502    0  0.31930943865E+01 -0.19429114349E+02  0.90006807419E+01  0.22049285475E+02  0.41800000000E+01 0.  1.
         -5    1    3    3    0  502  0.64145385836E+01  0.11270471936E+03 -0.15546711474E+03  0.19217439017E+03  0.41800000000E+01 0.  1.
        -11    1    4    4    0    0 -0.37984445621E+02 -0.98317615046E+01 -0.98898824479E+02  0.10639764625E+03  0.00000000000E+00 0. -1.
         11    1    4    4    0    0  0.28376812651E+02 -0.83443843511E+02 -0.11607048476E+03  0.14574112649E+03  0.00000000000E+00 0.  1.
</event>
<event>
 8    1  0.6684013E-009  0.1607651E+03  0.7561462E-02  0.1187836E+00
         -2   -1    0    0    0  501 -0.00000000000E+00  0.00000000000E+00  0.33201583793E+02  0.33201583793E+02  0.00000000000E+00 0.  1.
          2   -1    0    0  501    0  0.00000000000E+00 -0.00000000000E+00 -0.91987298964E+03  0.91987298964E+03  0.00000000000E+00 0. -1.
         25    2    1    2    0    0  0.10037255897E+03 -0.70319772907E+02 -0.63607988822E+03  0.65974503908E+03  0.12508545614E+03 0.  0.
         23    2    1    2    0    0 -0.10037255897E+03  0.70319772907E+02 -0.25059151763E+03  0.29332953435E+03  0.90700529002E+02 0.  0.
          5    1    3    3  502    0 -0.25632448966E+02 -0.22092316041E+02 -0.70944943324E+02  0.78713088183E+02  0.41800000000E+01 0. -1.
         -5    1    3    3    0  502  0.12600500794E+03 -0.48227456866E+02 -0.56513494490E+03  0.58103195090E+03  0.41800000000E+01 0. -1.
        -11    1    4    4    0    0 -0.58113800853E+02  0.88962601843E+02 -0.17266242394E+03  0.20274089627E+03  0.00000000000E+00 0.  1.
         11    1    4    4    0    0 -0.42258758118E+02 -0.18642828936E+02 -0.77929093681E+02  0.90588638086E+02  0.00000000000E+00 0. -1.
</event>
<event>
 8    1  0.6684013E-009  0.1324797E+03  0.7561462E-02  0.1223822E+00
          2   -1    0    0  501    0  0.00000000000E+00  0.00000000000E+00  0.13266265498E+04  0.13266265498E+04  0.00000000000E+00 0. -1.
         -2   -1    0    0    0  501 -0.00000000000E+00 -0.00000000000E+00 -0.13653622176E+02  0.13653622176E+02  0.00000000000E+00 0.  1.
         25    2    1    2    0    0 -0.62704074545E+02  0.45149400276E+02  0.62041501027E+03  0.63759907987E+03  0.12509009700E+03 0.  0.
         23    2    1    2    0    0  0.62704074545E+02 -0.45149400276E+02  0.69255791737E+03  0.70268109213E+03  0.90299385436E+02 0.  0.
          5    1    3    3  502    0  0.35344285778E+02 -0.50599066756E+01  0.18384033002E+03  0.18732207701E+03  0.41800000000E+01 0.  1.
         -5    1    3    3    0  502 -0.98048360323E+02  0.50209306951E+02  0.43657468025E+03  0.45027700286E+03  0.41800000000E+01 0.  1.
        -11    1    4    4    0    0  0.74436952907E+02 -0.62929301910E+02  0.57736585976E+03  0.58553590241E+03  0.00000000000E+00 0.  1.
         11    1    4    4    0    0 -0.11732878362E+02  0.17779901634E+02  0.11519205761E+03  0.11714518972E+03  0.00000000000E+00 0. -1.
</event>
<event>
 8    1  0.6684013E-009  0.1690809E+03  0.7561462E-02  0.1178810E+00
          1   -1    0    0  501    0  0.00000000000E+00  0.00000000000E+00  0.13412536207E+04  0.13412536207E+04  0.00000000000E+00 0. -1.
         -1   -1    0    0    0  501 -0.00000000000E+00 -0.00000000000E+00 -0.21771012536E+02  0.21771012536E+02  0.00000000000E+00 0.  1.
         25    2    1    2    0    0 -0.11398541214E+03 -0.53007720622E+02  0.59753012819E+03  0.62329180868E+03  0.12509169455E+03 0.  0.
         23    2    1    2    0    0  0.11398541214E+03  0.53007720622E+02  0.72195247993E+03  0.73973282452E+03  0.10092955840E+03 0.  0.
          5    1    3    3  502    0 -0.13979591219E+03 -0.56736394199E+02  0.50981163961E+03  0.53168345448E+03  0.41800000000E+01 0. -1.
         -5    1    3    3    0  502  0.25810500049E+02  0.37286735768E+01  0.87718488582E+02  0.91608354197E+02  0.41800000000E+01 0. -1.
        -11    1    4    4    0    0  0.18628539747E+02 -0.29390353570E+02  0.13600312519E+03  0.14038399281E+03  0.00000000000E+00 0. -1.
         11    1    4    4    0    0  0.95356872388E+02  0.82398074192E+02  0.58594935475E+03  0.59934883171E+03  0.00000000000E+00 0.  1.
</event>
<event>
 8    1  0.6684013E-009  0.1381318E+03  0.7561462E-02  0.1215865E+00
          1   -1    0    0  501    0  0.00000000000E+00  0.00000000000E+00  0.44307745253E+02  0.44307745253E+02  0.00000000000E+00 0. -1.
         -1   -1    0    0    0  501 -0.00000000000E+00 -0.00000000000E+00 -0.55256662502E+03  0.55256662502E+03  0.00000000000E+00 0.  1.
         25    2    1    2    0    0 -0.94785870068E+02  0.78775465925E+01 -0.15848243884E+03  0.22318437131E+03  0.12509261878E+03 0.  0.
         23    2    1    2    0    0  0.94785870068E+02 -0.78775465925E+01 -0.34977644093E+03  0.37368999896E+03  0.90852846909E+02 0.  0.
          5    1    3    3  502    0  0.16781566069E+01  0.48026587213E+02 -0.75929713125E+02  0.89956450709E+02  0.41800000000E+01 0.  1.
         -5    1    3    3    0  502 -0.96464026675E+02 -0.40149040621E+02 -0.82552725719E+02  0.13322792061E+03  0.41800000000E+01 0.  1.
        -11    1    4    4    0    0  0.10177555679E+03  0.11911093175E+02 -0.32717936536E+03  0.34285051439E+03  0.00000000000E+00 0.  1.
         11    1    4    4    0    0 -0.69896867251E+01 -0.19788639768E+02 -0.22597075567E+02  0.30839484570E+02  0.00000000000E+00 0. -1.
</event>
<event>
 8    1  0.6684013E-009  0.2434238E+03  0.7561462E-02  0.1117533E+00
          1   -1    0    0  501    0  0.00000000000E+00  0.00000000000E+00  0.19748355562E+03  0.19748355562E+03  0.00000000000E+00 0. -1.
         -1   -1    0    0    0  501 -0.00000000000E+00 -0.00000000000E+00 -0.36367829158E+03  0.36367829158E+03  0.00000000000E+00 0.  1.
         25    2    1    2    0    0  0.19272161498E+03 -0.12965560100E+03 -0.16161188473E+03  0.30938332005E+03  0.12508973456E+03 0.  0.
         23    2    1    2    0    0 -0.19272161498E+03  0.12965560100E+03 -0.45828512354E+01  0.25177852715E+03  0.97052709701E+02 0.  0.
          5    1    3    3  502    0  0.19164259356E+03 -0.11763022990E+03 -0.99428529946E+02  0.24590091423E+03  0.41800000000E+01 0.  1.
         -5    1    3    3    0  502  0.10790214209E+01 -0.12025371102E+02 -0.62183354782E+02  0.63482405825E+02  0.41800000000E+01 0.  1.
        -11    1    4    4    0    0 -0.10415420132E+03  0.16468911691E+02  0.15782975599E+02  0.10662281662E+03  0.00000000000E+00 0.  1.
         11    1    4    4    0    0 -0.88567413658E+02  0.11318668931E+03 -0.20365826834E+02  0.14515571054E+03  0.00000000000E+00 0. -1.
</event>
<event>
 8    1  0.6684013E-009  0.7687168E+02  0.7561462E-02  0.1338171E+00
          1   -1    0    0  501    0  0.00000000000E+00  0.00000000000E+00  0.12217397794E+03  0.12217397794E+03  0.00000000000E+00 0. -1.
         -1   -1    0    0    0  501 -0.00000000000E+00 -0.00000000000E+00 -0.15610284765E+03  0.15610284765E+03  0.00000000000E+00 0.  1.
         25    2    1    2    0    0 -0.23048740217E+02 -0.66293437225E+02  0.29158842816E+02  0.14636963856E+03  0.12509104178E+03 0.  0.
         23    2    1    2    0    0  0.23048740217E+02  0.66293437225E+02 -0.63087712527E+02  0.13190718702E+03  0.92159547908E+02 0.  0.
          5    1    3    3  502    0 -0.28433413074E+02 -0.54887246101E+02  0.75784871091E+02  0.97887117895E+02  0.41800000000E+01 0.  1.
         -5    1    3    3    0  502  0.53846728563E+01 -0.11406191124E+02 -0.46626028275E+02  0.48482520669E+02  0.41800000000E+01 0.  1.
        -11    1    4    4    0    0  0.22394166325E+02  0.14449018787E+02 -0.74234873875E+02  0.78873882424E+02  0.00000000000E+00 0.  1.
         11    1    4    4    0    0  0.65457389255E+00  0.51844418438E+02  0.11147161349E+02  0.53033304595E+02  0.00000000000E+00 0. -1.
</event>
<event>
 8    1  0.6684013E-009  0.9057741E+02  0.7561462E-02  0.1301459E+00
         -1   -1    0    0    0  501 -0.00000000000E+00  0.00000000000E+00  0.35217929126E+03  0.35217929126E+03  0.00000000000E+00 0.  1.
          1   -1    0    0  501    0  0.00000000000E+00 -0.00000000000E+00 -0.55961266586E+02  0.55961266586E+02  0.00000000000E+00 0. -1.
         25    2    1    2    0    0  0.56606016725E+02 -0.58889166296E+02  0.19840594800E+03  0.24836988319E+03  0.12510197297E+03 0.  0.
         23    2    1    2    0    0 -0.56606016725E+02  0.58889166296E+02  0.97812076672E+02  0.15977067465E+03  0.96370592498E+02 0.  0.
          5    1    3    3  502    0 -0.64764438781E+01 -0.26124349332E+02 -0.93121828577E+01  0.28785675307E+02  0.41800000000E+01 0.  1.
         -5    1    3    3    0  502  0.63082460604E+02 -0.32764816964E+02  0.20771813086E+03  0.21958420789E+03  0.41800000000E+01 0.  1.
        -11    1    4    4    0    0 -0.12430083041E+02  0.21505108977E+02  0.98816701133E+02  0.10189071155E+03  0.00000000000E+00 0.  1.
         11    1    4    4    0    0 -0.44175933685E+02  0.37384057319E+02 -0.10046244611E+01  0.57879963103E+02  0.00000000000E+00 0. -1.
</event>
<event>
 8    1  0.6684013E-009  0.1380215E+03  0.7561462E-02  0.1216016E+00
         -2   -1    0    0    0  501 -0.00000000000E+00  0.00000000000E+00  0.82917972615E+02  0.82917972615E+02  0.00000000000E+00 0.  1.
          2   -1    0    0  501    0  0.00000000000E+00 -0.00000000000E+00 -0.58057417056E+03  0.58057417056E+03  0.00000000000E+00 0. -1.
         25    2    1    2    0    0  0.86961296868E+02  0.30363728501E+02 -0.51170693682E+03  0.53476666406E+03  0.12508865911E+03 0.  0.
         23    2    1    2    0    0 -0.86961296868E+02 -0.30363728501E+02  0.14050738871E+02  0.12872547912E+03  0.88817805365E+02 0.  0.
          5    1    3    3  502    0 -0.23946656465E+02 -0.19606741091E+02 -0.14713531276E+03  0.15041322852E+03  0.41800000000E+01 0.  1.
         -5    1    3    3    0  502  0.11090795333E+03  0.49970469591E+02 -0.36457162406E+03  0.38435343554E+03  0.41800000000E+01 0.  1.
        -11    1    4    4    0    0 -0.20297440921E+02 -0.49698963851E+02 -0.11244070480E+02  0.54848903697E+02  0.00000000000E+00 0. -1.
         11    1    4    4    0    0 -0.66663855947E+02  0.19335235351E+02  0.25294809352E+02  0.73876575421E+02  0.00000000000E+00 0.  1.
</event>
<event>
 8    1  0.6684013E-009  0.1121586E+03  0.7561462E-02  0.1256624E+00
         -1   -1    0    0    0  501 -0.00000000000E+00  0.00000000000E+00  0.31995700671E+02  0.31995700671E+02  0.00000000000E+00 0.  1.
          1   -1    0    0  501    0  0.00000000000E+00 -0.00000000000E+00 -0.50887227139E+03  0.50887227139E+03  0.00000000000E+00 0. -1.
         25    2    1    2    0    0 -0.54678383054E+02  0.27703227857E+02 -0.33157046991E+03  0.35964598824E+03  0.12509622669E+03 0.  0.
         23    2    1    2    0    0  0.54678383054E+02 -0.27703227857E+02 -0.14530610081E+03  0.18122198383E+03  0.89276817161E+02 0.  0.
          5    1    3    3  502    0 -0.77806440812E+02  0.51432000761E+02 -0.16340457635E+03  0.18819569843E+03  0.41800000000E+01 0. -1.
         -5    1    3    3    0  502  0.23128057758E+02 -0.23728772905E+02 -0.16816589356E+03  0.17145028981E+03  0.41800000000E+01 0. -1.
        -11    1    4    4    0    0 -0.18474624304E+02  0.20421655129E+01 -0.35052691930E+01  0.18914785097E+02  0.00000000000E+00 0.  1.
         11    1    4    4    0    0  0.73153007357E+02 -0.29745393370E+02 -0.14180083162E+03  0.16230719873E+03  0.00000000000E+00 0. -1.
</event>
<event>
 8    1  0.6684013E-009  0.1504458E+03  0.7561462E-02  0.1199926E+00
          1   -1    0    0  501    0  0.00000000000E+00  0.00000000000E+00  0.31653681669E+03  0.31653681669E+03  0.00000000000E+00 0. -1.
         -1   -1    0    0    0  501 -0.00000000000E+00 -0.00000000000E+00 -0.73549168008E+02  0.73549168008E+02  0.00000000000E+00 0.  1.
         25    2    1    2    0    0  0.10707447456E+03 -0.13048043860E+02  0.14462011541E+03  0.21953921890E+03  0.12508915343E+03 0.  0.
         23    2    1    2    0    0 -0.10707447456E+03  0.13048043860E+02  0.98367533275E+02  0.17054676580E+03  0.88175014434E+02 0.  0.
          5    1    3    3  502    0  0.24889356593E+02  0.52858802119E+02  0.64443194762E+02  0.87085766829E+02  0.41800000000E+01 0. -1.
         -5    1    3    3    0  502  0.82185117964E+02 -0.65906845980E+02  0.80176920646E+02  0.13245345207E+03  0.41800000000E+01 0. -1.
        -11    1    4    4    0    0 -0.76750002223E+02  0.48069437141E+02  0.79574458541E+02  0.12055425368E+03  0.00000000000E+00 0.  1.
         11    1    4    4    0    0 -0.30324472335E+02 -0.35021393280E+02  0.18793074733E+02  0.49992512115E+02  0.00000000000E+00 0. -1.
</event>
<event>
 7    1  0.6684013E-009  0.3217753E+03  0.7561462E-02  0.1074835E+00
         -2   -1    0    0    0  501 -0.00000000000E+00  0.00000000000E+00  0.17827259530E+03  0.17827259530E+03  0.00000000000E+00 0. -1.
          2   -1    0    0  501    0  0.00000000000E+00 -0.00000000000E+00 -0.60215900028E+03  0.60215900028E+03  0.00000000000E+00 0.  1.
         23    2    1    2    0    0 -0.30195005181E+03  0.66475507538E+02 -0.21693683889E+03  0.38796026691E+03  0.88649589671E+02 0.  0.
          5    1    1    2  502    0  0.18856112464E+03  0.20342760381E+02 -0.13225829582E+03  0.23125495636E+03  0.41800000000E+01 0. -1.
         -5    1    1    2    0  502  0.11338892716E+03 -0.86818267919E+02 -0.74691270270E+02  0.16121637231E+03  0.41800000000E+01 0. -1.
        -11    1    3    3    0    0 -0.16496055269E+03  0.19260949848E+02 -0.16479453114E+03  0.23396624890E+03  0.00000000000E+00 0.  1.
         11    1    3    3    0    0 -0.13698949911E+03  0.47214557691E+02 -0.52142307751E+02  0.15399401801E+03  0.00000000000E+00 0. -1.
</event>
<event>
 8    1  0.6684013E-009  0.1500198E+03  0.7561462E-02  0.1200449E+00
          2   -1    0    0  501    0  0.00000000000E+00  0.00000000000E+00  0.19075357340E+04  0.19075357340E+04  0.00000000000E+00 0.  1.
         -2   -1    0    0    0  501 -0.00000000000E+00 -0.00000000000E+00 -0.14297487853E+02  0.14297487853E+02  0.00000000000E+00 0. -1.
         25    2    1    2    0    0 -0.96776271671E+02 -0.40411003206E+02  0.13846384945E+04  0.13942277476E+04  0.12509418684E+03 0.  0.
         23    2    1    2    0    0  0.96776271671E+02  0.40411003206E+02  0.50859975160E+03  0.52760547428E+03  0.93247698222E+02 0.  0.
          5    1    3    3  502    0 -0.44351532288E+02  0.42962323380E+02  0.41463891661E+03  0.41923230221E+03  0.41800000000E+01 0. -1.
         -5    1    3    3    0  502 -0.52424739384E+02 -0.83373326586E+02  0.96999957793E+03  0.97499544535E+03  0.41800000000E+01 0. -1.
        -11    1    4    4    0    0 -0.16391515543E+02  0.17751241610E+02  0.11065077891E+03  0.11325803828E+03  0.00000000000E+00 0.  1.
         11    1    4    4    0    0  0.11316778721E+03  0.22659761595E+02  0.39794897269E+03  0.41434743600E+03  0.00000000000E+00 0. -1.
</event>
<event>
 8    1  0.6684013E-009  0.1945868E+03  0.7561462E-02  0.1154388E+00
         -1   -1    0    0    0  501 -0.00000000000E+00  0.00000000000E+00  0.10042539095E+04  0.10042539095E+04  0.00000000000E+00 0.  1.
          1   -1    0    0  501    0  0.00000000000E+00 -0.00000000000E+00 -0.45422873769E+02  0.45422873769E+02  0.00000000000E+00 0. -1.
         25    2    1    2    0    0 -0.15589646438E+03  0.95206543994E+02  0.51052279256E+03  0.55647126697E+03  0.12513494960E+03 0.  0.
         23    2    1    2    0    0  0.15589646438E+03 -0.95206543994E+02  0.44830824315E+03  0.49320551628E+03  0.94357865524E+02 0.  0.
          5    1    3    3  502    0 -0.89406683196E+02  0.82726443926E+02  0.16945351713E+03  0.20873233193E+03  0.41800000000E+01 0.  1.
         -5    1    3    3    0  502 -0.66489781187E+02  0.12480100068E+02  0.34106927543E+03  0.34773893504E+03  0.41800000000E+01 0.  1.
        -11    1    4    4    0    0  0.66234868506E+02  0.32937069830E+01  0.97078407845E+02  0.11756752775E+03  0.00000000000E+00 0. -1.
         11    1    4    4    0    0  0.89661595876E+02 -0.98500250977E+02  0.35122983530E+03  0.37563798853E+03  0.00000000000E+00 0.  1.
</event>
<event>
 8    1  0.6684013E-009  0.2119402E+03  0.7561462E-02  0.1140039E+00
         -2   -1    0    0    0  501 -0.00000000000E+00  0.00000000000E+00  0.22564188987E+02  0.22564188987E+02  0.00000000000E+00 0.  1.
          2   -1    0    0  501    0  0.00000000000E+00 -0.00000000000E+00 -0.42479397272E+04  0.42479397272E+04  0.00000000000E+00 0. -1.
         25    2    1    2    0    0 -0.49143869454E+02  0.20199476380E+03 -0.35504965017E+04  0.35587767378E+04  0.12509778744E+03 0.  0.
         23    2    1    2    0    0  0.49143869454E+02 -0.20199476380E+03 -0.67487903653E+03  0.71172717840E+03  0.88751664887E+02 0.  0.
          5    1    3    3  502    0 -0.14756040402E+02  0.75995262783E+02 -0.55012807783E+03  0.55556403331E+03  0.41800000000E+01 0.  1.
         -5    1    3    3    0  502 -0.34387829051E+02  0.12599950102E+03 -0.30003684239E+04  0.30032127045E+04  0.41800000000E+01 0.  1.
        -11    1    4    4    0    0  0.56502088970E+02 -0.11259828571E+03 -0.49424348442E+03  0.51004654875E+03  0.00000000000E+00 0. -1.
         11    1    4    4    0    0 -0.73582195166E+01 -0.89396478093E+02 -0.18063555211E+03  0.20168062965E+03  0.00000000000E+00 0.  1.
</event>
<event>
 8    1  0.6684013E-009  0.1500721E+03  0.7561462E-02  0.1200384E+00
          2   -1    0    0  501    0  0.00000000000E+00  0.00000000000E+00  0.79988568521E+03  0.79988568521E+03  0.00000000000E+00 0. -1.
         -2   -1    0    0    0  501 -0.00000000000E+00 -0.00000000000E+00 -0.34730220009E+02  0.34730220009E+02  0.00000000000E+00 0.  1.
         25    2    1    2    0    0  0.11566645984E+03 -0.43182707036E+01  0.53011432463E+03  0.55683622918E+03  0.12509201236E+03 0.  0.
         23    2    1    2    0    0 -0.11566645984E+03  0.43182707036E+01  0.23504114057E+03  0.27777967604E+03  0.92302942894E+02 0.  0.
          5    1    3    3  502    0 -0.18855050560E+02  0.20891771424E+02  0.15322932331E+03  0.15584824980E+03  0.41800000000E+01 0.  1.
         -5    1    3    3    0  502  0.13452151040E+03 -0.25210042127E+02  0.37688500132E+03  0.40098797937E+03  0.41800000000E+01 0.  1.
        -11    1    4    4    0    0 -0.53531065081E+02  0.36500713679E+02  0.56318686871E+02  0.85846790964E+02  0.00000000000E+00 0.  1.
         11    1    4    4    0    0 -0.62135394755E+02 -0.32182442976E+02  0.17872245370E+03  0.19193288507E+03  0.00000000000E+00 0. -1.
</event>
<event>
 8    1  0.6684013E-009  0.1201018E+03  0.7561462E-02  0.1242929E+00
          2   -1    0    0  501    0  0.00000000000E+00  0.00000000000E+00  0.29371664924E+03  0.29371664924E+03  0.00000000000E+00 0. -1.
         -2   -1    0    0    0  501 -0.00000000000E+00 -0.00000000000E+00 -0.54726247242E+02  0.54726247242E+02  0.00000000000E+00 0.  1.
         25    2    1    2    0    0  0.10511514504E+02  0.61472962149E+02  0.15665346128E+03  0.20994578333E+03  0.12508999958E+03 0.  0.
         23    2    1    2    0    0 -0.10511514504E+02 -0.61472962149E+02  0.82336940713E+02  0.13849711315E+03  0.92264085815E+02 0.  0.
          5    1    3    3  502    0  0.60919222565E+02  0.45397006523E+02  0.12981767328E+03  0.15047305598E+03  0.41800000000E+01 0.  1.
         -5    1    3    3    0  502 -0.50407708061E+02  0.16075955626E+02  0.26835787999E+02  0.59472727353E+02  0.41800000000E+01 0.  1.
        -11    1    4    4    0    0 -0.51256733410E+02 -0.39769448954E+02  0.42863416993E+02  0.77756892340E+02  0.00000000000E+00 0.  1.
         11    1    4    4    0    0  0.40745218907E+02 -0.21703513195E+02  0.39473523721E+02  0.60740220807E+02  0.00000000000E+00 0. -1.
</event>
<event>
 8    1  0.6684013E-009  0.2280541E+03  0.7561462E-02  0.1128017E+00
         -2   -1    0    0    0  501 -0.00000000000E+00  0.00000000000E+00  0.30137837980E+03  0.30137837980E+03  0.00000000000E+00 0.  1.
          2   -1    0    0  501    0  0.00000000000E+00 -0.00000000000E+00 -0.20938880452E+03  0.20938880452E+03  0.00000000000E+00 0. -1.
         25    2    1    2    0    0  0.10689597457E+03  0.18699214102E+03  0.11820192762E+03  0.27570234355E+03  0.12508907372E+03 0.  0.
         23    2    1    2    0    0 -0.10689597457E+03 -0.18699214102E+03 -0.26212352343E+02  0.23506484077E+03  0.90418923720E+02 0.  0.
          5    1    3    3  502    0 -0.10269131786E+02  0.29518637997E+02 -0.18420967760E+02  0.36518618677E+02  0.41800000000E+01 0. -1.
         -5    1    3    3    0  502  0.11716510636E+03  0.15747350302E+03  0.13662289538E+03  0.23918372487E+03  0.41800000000E+01 0. -1.
        -11    1    4    4    0    0 -0.26579694500E+02 -0.20923452532E+01  0.13053761890E+02  0.29686002894E+02  0.00000000000E+00 0.  1.
         11    1    4    4    0    0 -0.80316280072E+02 -0.18489979576E+03 -0.39266114233E+02  0.20537883787E+03  0.00000000000E+00 0. -1.
</event>
<event>
 8    1  0.6684013E-009  0.1305041E+03  0.7561462E-02  0.1226710E+00
         -1   -1    0    0    0  501 -0.00000000000E+00  0.00000000000E+00  0.10066367752E+03  0.10066367752E+03  0.00000000000E+00 0.  1.
          1   -1    0    0  501    0  0.00000000000E+00 -0.00000000000E+00 -0.17651649344E+03  0.17651649344E+03  0.00000000000E+00 0. -1.
         25    2    1    2    0    0  0.65223836142E+02  0.27358634131E+02 -0.14438692740E+02  0.14442718660E+03  0.12509233677E+03 0.  0.
         23    2    1    2    0    0 -0.65223836142E+02 -0.27358634131E+02 -0.61414123180E+02  0.13275298436E+03  0.94069212113E+02 0.  0.
          5    1    3    3  502    0  0.51605629721E+02  0.76585351754E+02 -0.10219510980E+02  0.93007354155E+02  0.41800000000E+01 0. -1.
         -5    1    3    3    0  502  0.13618206421E+02 -0.49226717623E+02 -0.42191817605E+01  0.51419832446E+02  0.41800000000E+01 0. -1.
        -11    1    4    4    0    0 -0.24854389213E+02  0.35063544751E+02 -0.27657955535E+02  0.51109249046E+02  0.00000000000E+00 0. -1.
         11    1    4    4    0    0 -0.40369446929E+02 -0.62422178882E+02 -0.33756167644E+02  0.81643735313E+02  0.00000000000E+00 0.  1.
</event>
<event>
 8    1  0.6684013E-009  0.1178898E+03  0.7561462E-02  0.1246619E+00
         -2   -1    0    0    0  501 -0.00000000000E+00  0.00000000000E+00  0.30127677682E+02  0.30127677682E+02  0.00000000000E+00 0. -1.
          2   -1    0    0  501    0  0.00000000000E+00 -0.00000000000E+00 -0.63021443749E+03  0.63021443749E+03  0.00000000000E+00 0.  1.
         25    2    1    2    0    0 -0.66381683754E+02  0.41407859993E+02 -0.25571801210E+03  0.29523073214E+03  0.12509334385E+03 0.  0.
         23    2    1    2    0    0  0.66381683754E+02 -0.41407859993E+02 -0.34436874770E+03  0.36511138303E+03  0.92711104080E+02 0.  0.
          5    1    3    3  502    0 -0.16771516285E+02  0.60439253446E+02 -0.22520753528E+03  0.23381636697E+03  0.41800000000E+01 0. -1.
         -5    1    3    3    0  502 -0.49610167468E+02 -0.19031393454E+02 -0.30510476826E+02  0.61414365169E+02  0.41800000000E+01 0. -1.
        -11    1    4    4    0    0  0.35648097701E+02 -0.69417346430E+02 -0.19420870233E+03  0.20930020286E+03  0.00000000000E+00 0. -1.
         11    1    4    4    0    0  0.30733586053E+02  0.28009486437E+02 -0.15016004537E+03  0.15581118018E+03  0.00000000000E+00 0.  1.
</event>
<event>
 8    1  0.6684013E-009  0.2567843E+03  0.7561462E-02  0.1109091E+00
          2   -1    0    0  501    0  0.00000000000E+00  0.00000000000E+00  0.15791062250E+04  0.15791062250E+04  0.00000000000E+00 0.  1.
         -2   -1    0    0    0  501 -0.00000000000E+00 -0.00000000000E+00 -0.45018191760E+02  0.45018191760E+02  0.00000000000E+00 0. -1.
         25    2    1    2    0    0 -0.44331652565E+02 -0.23763432397E+03  0.87115234628E+03  0.91268289909E+03  0.12509315135E+03 0.  0.
         23    2    1    2    0    0  0.44331652565E+02  0.23763432397E+03  0.66293568693E+03  0.71144151764E+03  0.90719020421E+02 0.  0.
          5    1    3    3  502    0 -0.70033689955E+02 -0.23540824815E+03  0.77155755402E+03  0.80971618027E+03  0.41800000000E+01 0.  1.
         -5    1    3    3    0  502  0.25702037390E+02 -0.22260758269E+01  0.99594792264E+02  0.10296671883E+03  0.41800000000E+01 0.  1.
        -11    1    4    4    0    0  0.24146523516E+02  0.11482505605E+03  0.44762636813E+03  0.46274962295E+03  0.00000000000E+00 0.  1.
         11    1    4    4    0    0  0.20185129049E+02  0.12280926792E+03  0.21530931880E+03  0.24869189469E+03  0.00000000000E+00 0. -1.
</event>
<event>
 8    1  0.6684013E-009  0.1177427E+03  0.7561462E-02  0.1246868E+00
         -1   -1    0    0    0  501 -0.00000000000E+00  0.00000000000E+00  0.11397744149E+03  0.11397744149E+03  0.00000000000E+00 0.  1.
          1   -1    0    0  501    0  0.00000000000E+00 -0.00000000000E+00 -0.21634428169E+03  0.21634428169E+03  0.00000000000E+00 0. -1.
         25    2    1    2    0    0  0.22947617825E+02  0.76122466065E+02 -0.13830256686E+03  0.20269862945E+03  0.12505163485E+03 0.  0.
         23    2    1    2    0    0 -0.22947617825E+02 -0.76122466065E+02  0.35935726652E+02  0.12762309373E+03  0.93139973150E+02 0.  0.
          5    1    3    3  502    0 -0.13121482368E+02  0.10242661862E+03 -0.96773449339E+02  0.14158375048E+03  0.41800000000E+01 0. -1.
         -5    1    3    3    0  502  0.36069100193E+02 -0.26304152556E+02 -0.41529117516E+02  0.61114878975E+02  0.41800000000E+01 0. -1.
        -11    1    4    4    0    0 -0.30519135079E+02 -0.39571317081E+02  0.63800775716E+02  0.81042246535E+02  0.00000000000E+00 0.  1.
         11    1    4    4    0    0  0.75715172545E+01 -0.36551148984E+02 -0.27865049064E+02  0.46580847190E+02  0.00000000000E+00 0. -1.
</event>
<event>
 8    1  0.6684013E-009  0.1135433E+03  0.7561462E-02  0.1254145E+00
         -1   -1    0    0    0  501 -0.00000000000E+00  0.00000000000E+00  0.13244913640E+03  0.13244913640E+03  0.00000000000E+00 0.  1.
          1   -1    0    0  501    0  0.00000000000E+00 -0.00000000000E+00 -0.16879836638E+03  0.16879836638E+03  0.00000000000E+00 0. -1.
         25    2    1    2    0    0 -0.18116808637E+02 -0.96868965182E+02  0.43999939884E+01  0.15930637315E+03  0.12508934970E+03 0.  0.
         23    2    1    2    0    0  0.18116808637E+02  0.96868965182E+02 -0.40749223976E+02  0.14194112963E+03  0.93674809081E+02 0.  0.
          5    1    3    3  502    0 -0.19197743139E+02 -0.10941976503E+03 -0.35943251946E+02  0.11683590236E+03  0.41800000000E+01 0.  1.
         -5    1    3    3    0  502  0.10809345021E+01  0.12550799846E+02  0.40343245934E+02  0.42470470785E+02  0.41800000000E+01 0.  1.
        -11    1    4    4    0    0 -0.74615438376E+01  0.33225642399E+02  0.28549192720E+02  0.44437308134E+02  0.00000000000E+00 0.  1.
         11    1    4    4    0    0  0.25578352475E+02  0.63643322784E+02 -0.69298416697E+02  0.97503821499E+02  0.00000000000E+00 0. -1.
</event>
<event>
 8    1  0.6684013E-009  0.1677712E+03  0.7561462E-02  0.1180192E+00
         -2   -1    0    0    0  501 -0.00000000000E+00  0.00000000000E+00  0.12866279489E+03  0.12866279489E+03  0.00000000000E+00 0.  1.
          2   -1    0    0  501    0  0.00000000000E+00 -0.00000000000E+00 -0.27686449431E+03  0.27686449431E+03  0.00000000000E+00 0. -1.
         25    2    1    2    0    0 -0.14730345718E+03  0.39433796417E+02 -0.10415560842E+03  0.22304241804E+03  0.12508475800E+03 0.  0.
         23    2    1    2    0    0  0.14730345718E+03 -0.39433796417E+02 -0.44046090996E+02  0.18248487116E+03  0.90040753393E+02 0.  0.
          5    1    3    3  502    0 -0.61838911831E+02 -0.31951321518E+02 -0.85051967820E+02  0.10998294228E+03  0.41800000000E+01 0. -1.
         -5    1    3    3    0  502 -0.85464545349E+02  0.71385117936E+02 -0.19103640598E+02  0.11305947576E+03  0.41800000000E+01 0. -1.
        -11    1    4    4    0    0  0.20418369506E+02  0.28855371158E+01 -0.44150110175E+02  0.48728516971E+02  0.00000000000E+00 0. -1.
         11    1    4    4    0    0  0.12688508767E+03 -0.42319333533E+02  0.10401917939E+00  0.13375635418E+03  0.00000000000E+00 0.  1.
</event>
<event>
 8    1  0.6684013E-009  0.1643867E+03  0.7561462E-02  0.1183831E+00
         -2   -1    0    0    0  501 -0.00000000000E+00  0.00000000000E+00  0.34919517349E+02  0.34919517349E+02  0.00000000000E+00 0.  1.
          2   -1    0    0  501    0  0.00000000000E+00 -0.00000000000E+00 -0.94191827391E+03  0.94191827391E+03  0.00000000000E+00 0. -1.
         25    2    1    2    0    0 -0.14201766022E+03  0.15381605760E+02 -0.52907003544E+03  0.56211053447E+03  0.12509013133E+03 0.  0.
         23    2    1    2    0    0  0.14201766022E+03 -0.15381605760E+02 -0.37792872113E+03  0.41472725679E+03  0.93610734763E+02 0.  0.
          5    1    3    3  502    0 -0.69423330960E+02 -0.51357347766E+02 -0.31005990862E+03  0.32188786151E+03  0.41800000000E+01 0. -1.
         -5    1    3    3    0  502 -0.72594329258E+02  0.66738953526E+02 -0.21901012682E+03  0.24022267297E+03  0.41800000000E+01 0. -1.
        -11    1    4    4    0    0  0.82871420337E+02 -0.16327483606E+02 -0.10153462584E+03  0.13207399166E+03  0.00000000000E+00 0.  1.
         11    1    4    4    0    0  0.59146239881E+02  0.94587784623E+00 -0.27639409529E+03  0.28265326513E+03  0.00000000000E+00 0. -1.
</event>
<event>
 8    1  0.6684013E-009  0.1044192E+03  0.7561462E-02  0.1271268E+00
         -1   -1    0    0    0  501 -0.00000000000E+00  0.00000000000E+00  0.55214557575E+02  0.55214557575E+02  0.00000000000E+00 0.  1.
          1   -1    0    0  501    0  0.00000000000E+00 -0.00000000000E+00 -0.42604533890E+03  0.42604533890E+03  0.00000000000E+00 0. -1.
         25    2    1    2    0    0  0.79697901218E+01 -0.91590387730E+02 -0.31679857504E+03  0.35279045607E+03  0.12508977601E+03 0.  0.
         23    2    1    2    0    0 -0.79697901218E+01  0.91590387730E+02 -0.54032206283E+02  0.12846944041E+03  0.71642174200E+02 0.  0.
          5    1    3    3  502    0 -0.36089401577E+01 -0.45726708347E+02 -0.16754248474E+02  0.49011565443E+02  0.41800000000E+01 0. -1.
         -5    1    3    3    0  502  0.11578730279E+02 -0.45863679384E+02 -0.30004432657E+03  0.30377889062E+03  0.41800000000E+01 0. -1.
        -11    1    4    4    0    0  0.30082972671E+02  0.27508630988E+02 -0.28296867939E+02  0.49622804825E+02  0.00000000000E+00 0. -1.
         11    1    4    4    0    0 -0.38052762792E+02  0.64081756743E+02 -0.25735338344E+02  0.78846635585E+02  0.00000000000E+00 0.  1.
</event>
<event>
 8    1  0.6684013E-009  0.1266974E+03  0.7561462E-02  0.1232440E+00
          1   -1    0    0  501    0  0.00000000000E+00  0.00000000000E+00  0.58020303169E+03  0.58020303169E+03  0.00000000000E+00 0. -1.
         -1   -1    0    0    0  501 -0.00000000000E+00 -0.00000000000E+00 -0.34774162787E+02  0.34774162787E+02  0.00000000000E+00 0.  1.
         25    2    1    2    0    0  0.75134335194E+02  0.46010508799E+02  0.35508208690E+03  0.38664298529E+03  0.12508946553E+03 0.  0.
         23    2    1    2    0    0 -0.75134335194E+02 -0.46010508799E+02  0.19034678200E+03  0.22833420919E+03  0.90235682652E+02 0.  0.
          5    1    3    3  502    0  0.69046196567E+02  0.81891444170E+02  0.31301197963E+03  0.33085881835E+03  0.41800000000E+01 0.  1.
         -5    1    3    3    0  502  0.60881386273E+01 -0.35880935371E+02  0.42070107279E+02  0.55784166942E+02  0.41800000000E+01 0.  1.
        -11    1    4    4    0    0 -0.38706897553E+02 -0.59278660324E+02  0.61491311908E+02  0.93772943476E+02  0.00000000000E+00 0.  1.
         11    1    4    4    0    0 -0.36427437641E+02  0.13268151525E+02  0.12885547009E+03  0.13456126571E+03  0.00000000000E+00 0. -1.
</event>
<event>
 8    1  0.6684013E-009  0.1228860E+03  0.7561462E-02  0.1238411E+00
         -2   -1    0    0    0  501 -0.00000000000E+00  0.00000000000E+00  0.58375232647E+02  0.58375232647E+02  0.00000000000E+00 0.  1.
          2   -1    0    0  501    0  0.00000000000E+00 -0.00000000000E+00 -0.36223595496E+03  0.36223595496E+03  0.00000000000E+00 0. -1.
         25    2    1    2    0    0 -0.28211152176E+02  0.85567818356E+02 -0.21397824809E+03  0.26372781792E+03  0.12509176890E+03 0.  0.
         23    2    1    2    0    0  0.28211152176E+02 -0.85567818356E+02 -0.89882474222E+02  0.15688336968E+03  0.91737734137E+02 0.  0.
          5    1    3    3  502    0  0.86242390053E+01  0.83773229548E+02 -0.21012655934E+03  0.22641328324E+03  0.41800000000E+01 0. -1.
         -5    1    3    3    0  502 -0.36835391181E+02  0.17945888077E+01 -0.38516887470E+01  0.37314534684E+02  0.41800000000E+01 0. -1.
        -11    1    4    4    0    0 -0.30413723102E+02 -0.20092533181E+02 -0.45879781771E+02  0.58597430131E+02  0.00000000000E+00 0.  1.
         11    1    4    4    0    0  0.58624875278E+02 -0.65475285175E+02 -0.44002692452E+02  0.98285939549E+02  0.00000000000E+00 0. -1.
</event>
<event>
 8    1  0.6684013E-009  0.1084543E+03  0.7561462E-02  0.1263459E+00
          1   -1    0    0  501    0  0.00000000000E+00  0.00000000000E+00  0.15605843061E+03  0.15605843061E+03  0.00000000000E+00 0. -1.
         -1   -1    0    0    0  501 -0.00000000000E+00 -0.00000000000E+00 -0.16429632069E+03  0.16429632069E+03  0.00000000000E+00 0.  1.
         25    2    1    2    0    0 -0.73520361974E+02  0.31264809606E+02 -0.90355879739E+02  0.17376300045E+03  0.12508662350E+03 0.  0.
         23    2    1    2    0    0  0.73520361974E+02 -0.31264809606E+02  0.82117989661E+02  0.14659175085E+03  0.91449686967E+02 0.  0.
          5    1    3    3  502    0  0.50079659777E+01  0.50819958561E+02  0.15166977735E+01  0.51259347279E+02  0.41800000000E+01 0.  1.
         -5    1    3    3    0  502 -0.78528327952E+02 -0.19555148955E+02 -0.91872577512E+02  0.12250365317E+03  0.41800000000E+01 0.  1.
        -11    1    4    4    0    0  0.61043723753E+02 -0.12830317256E+02  0.90570821461E+00  0.62384080965E+02  0.00000000000E+00 0.  1.
         11    1    4    4    0    0  0.12476638222E+02 -0.18434492350E+02  0.81212281447E+02  0.84207669884E+02  0.00000000000E+00 0. -1.
</event>
<event>
 8    1  0.6684013E-009  0.1438108E+03  0.7561462E-02  0.1208291E+00
         -2   -1    0    0    0  501 -0.00000000000E+00  0.00000000000E+00  0.83274057731E+02  0.83274057731E+02  0.00000000000E+00 0.  1.
          2   -1    0    0  501    0  0.00000000000E+00 -0.00000000000E+00 -0.27727028356E+03  0.27727028356E+03  0.00000000000E+00 0. -1.
         25    2    1    2    0    0  0.92491535165E+02 -0.33332471889E+02 -0.58228447161E+02  0.16942326239E+03  0.12509177440E+03 0.  0.
         23    2    1    2    0    0 -0.92491535165E+02  0.33332471889E+02 -0.13576777867E+03  0.19112107890E+03  0.91807621227E+02 0.  0.
          5    1    3    3  502    0  0.12887971397E+02 -0.66821517445E+02 -0.60793915619E+01  0.68451781585E+02  0.41800000000E+01 0. -1.
         -5    1    3    3    0  502  0.79603563768E+02  0.33489045556E+02 -0.52149055599E+02  0.10097148081E+03  0.41800000000E+01 0. -1.
        -11    1    4    4    0    0 -0.15860375052E+02  0.51782669972E+02 -0.69740835204E+02  0.88299379960E+02  0.00000000000E+00 0. -1.
         11    1    4    4    0    0 -0.76631160113E+02 -0.18450198083E+02 -0.66026943463E+02  0.10282169894E+03  0.00000000000E+00 0.  1.
</event>
<event>
 8    1  0.6684013E-009  0.1017342E+03  0.7561462E-02  0.1276691E+00
         -1   -1    0    0    0  501 -0.00000000000E+00  0.00000000000E+00  0.11447109565E+02  0.11447109565E+02  0.00000000000E+00 0.  1.
          1   -1    0    0  501    0  0.00000000000E+00 -0.00000000000E+00 -0.12241272800E+04  0.12241272800E+04  0.00000000000E+00 0. -1.
         25    2    1    2    0    0  0.10598171720E+02 -0.20567079004E+02 -0.90507186402E+03  0.91396848087E+03  0.12509188223E+03 0.  0.
         23    2    1    2    0    0 -0.10598171720E+02  0.20567079004E+02 -0.30760830637E+03  0.32160590865E+03  0.90951439510E+02 0.  0.
          5    1    3    3  502    0  0.54431894211E+02 -0.39068163628E+02 -0.70867500447E+03  0.71184751659E+03  0.41800000000E+01 0.  1.
         -5    1    3    3    0  502 -0.43833722491E+02  0.18501084624E+02 -0.19639685955E+03  0.20212096428E+03  0.41800000000E+01 0.  1.
        -11    1    4    4    0    0 -0.43625436709E+02 -0.86558422542E+01 -0.20752615922E+03  0.21223856646E+03  0.00000000000E+00 0. -1.
         11    1    4    4    0    0  0.33027264988E+02  0.29222921258E+02 -0.10008214715E+03  0.10936734219E+03  0.00000000000E+00 0.  1.
</event>
<event>
 8    1  0.6684013E-009  0.9770079E+02  0.7561462E-02  0.1285207E+00
          2   -1    0    0  501    0  0.00000000000E+00  0.00000000000E+00  0.16236063378E+04  0.16236063378E+04  0.00000000000E+00 0.  1.
         -2   -1    0    0    0  501 -0.00000000000E+00 -0.00000000000E+00 -0.12014708362E+02  0.12014708362E+02  0.00000000000E+00 0. -1.
         25    2    1    2    0    0 -0.12192850098E+01  0.22151455252E+02  0.14157934617E+04  0.14214817193E+04  0.12508788325E+03 0.  0.
         23    2    1    2    0    0  0.12192850098E+01 -0.22151455252E+02  0.19579816775E+03  0.21413932685E+03  0.83824550023E+02 0.  0.
          5    1    3    3  502    0 -0.34679298822E+02 -0.40364922001E+02  0.75403298892E+03  0.75592010257E+03  0.41800000000E+01 0.  1.
         -5    1    3    3    0  502  0.33460013812E+02  0.62516377253E+02  0.66176047274E+03  0.66556161671E+03  0.41800000000E+01 0.  1.
        -11    1    4    4    0    0  0.31642417065E+02 -0.25150449545E+02  0.16808594397E+03  0.17287762212E+03  0.00000000000E+00 0.  1.
         11    1    4    4    0    0 -0.30423132055E+02  0.29989942927E+01  0.27712223777E+02  0.41261704733E+02  0.00000000000E+00 0. -1.
</event>
<event>
 8    1  0.6684013E-009  0.1162767E+03  0.7561462E-02  0.1249369E+00
          1   -1    0    0  501    0  0.00000000000E+00  0.00000000000E+00  0.11293289918E+03  0.11293289918E+03  0.00000000000E+00 0. -1.
         -1   -1    0    0    0  501 -0.00000000000E+00 -0.00000000000E+00 -0.17727244098E+03  0.17727244098E+03  0.00000000000E+00 0.  1.
         25    2    1    2    0    0 -0.14975003962E+02 -0.87985586283E+02 -0.55787139921E+02  0.16347870096E+03  0.12508943420E+03 0.  0.
         23    2    1    2    0    0  0.14975003962E+02  0.87985586283E+02 -0.85524018795E+01  0.12672663920E+03  0.89558826305E+02 0.  0.
          5    1    3    3  502    0  0.25347673614E+02 -0.65280112969E+02 -0.83749396387E+02  0.10924940047E+03  0.41800000000E+01 0.  1.
         -5    1    3    3    0  502 -0.40322677576E+02 -0.22705473314E+02  0.27962256466E+02  0.54229300494E+02  0.41800000000E+01 0.  1.
        -11    1    4    4    0    0 -0.30041039712E+02  0.29198353610E+02  0.21173204881E+02  0.46939455956E+02  0.00000000000E+00 0.  1.
         11    1    4    4    0    0  0.45016043674E+02  0.58787232673E+02 -0.29725606761E+02  0.79787183248E+02  0.00000000000E+00 0. -1.
</event>
<event>
 8    1  0.6684013E-009  0.3281118E+03  0.7561462E-02  0.1071975E+00
         -1   -1    0    0    0  501 -0.00000000000E+00  0.00000000000E+00  0.53256047060E+02  0.53256047060E+02  0.00000000000E+00 0.  1.
          1   -1    0    0  501    0  0.00000000000E+00 -0.00000000000E+00 -0.24213343106E+04  0.24213343106E+04  0.00000000000E+00 0. -1.
         25    2    1    2    0    0  0.18794361076E+03  0.25425086463E+03 -0.75042867135E+03  0.82386835183E+03  0.12509823091E+03 0.  0.
         23    2    1    2    0    0 -0.18794361076E+03 -0.25425086463E+03 -0.16176495922E+04  0.16507220058E+04  0.90147847623E+02 0.  0.
          5    1    3    3  502    0  0.10782005594E+03  0.58262533336E+02 -0.20647530060E+03  0.24014414299E+03  0.41800000000E+01 0.  1.
         -5    1    3    3    0  502  0.80123554817E+02  0.19598833129E+03 -0.54395337075E+03  0.58372420884E+03  0.41800000000E+01 0.  1.
        -11    1    4    4    0    0 -0.90916509495E+02 -0.74441088908E+02 -0.43692265188E+03  0.45244744573E+03  0.00000000000E+00 0.  1.
         11    1    4    4    0    0 -0.97027101261E+02 -0.17980977572E+03 -0.11807269403E+04  0.11982745601E+04  0.00000000000E+00 0. -1.
</event>
<event>
 8    1  0.6684013E-009  0.7194100E+02  0.7561462E-02  0.1353614E+00
          2   -1    0    0  501    0  0.00000000000E+00  0.00000000000E+00  0.41813008160E+03  0.41813008160E+03  0.00000000000E+00 0. -1.
         -2   -1    0    0    0  501 -0.00000000000E+00 -0.00000000000E+00 -0.32240097416E+02  0.32240097416E+02  0.00000000000E+00 0.  1.
         25    2    1    2    0    0 -0.22294814896E+02 -0.34072230136E+02  0.23999821289E+03  0.27368716649E+03  0.12509015657E+03 0.  0.
         23    2    1    2    0    0  0.22294814896E+02  0.34072230136E+02  0.14589177129E+03  0.17668301253E+03  0.90964291612E+02 0.  0.
          5    1    3    3  502    0 -0.23113983045E+02 -0.38835968585E+02  0.25414399538E+03  0.25816493073E+03  0.41800000000E+01 0. -1.
         -5    1    3    3    0  502  0.81916814882E+00  0.47637384499E+01 -0.14145782495E+02  0.15522235756E+02  0.41800000000E+01 0. -1.
        -11    1    4    4    0    0  0.12270409576E+02  0.61599192632E+02  0.63837073507E+02  0.89555543871E+02  0.00000000000E+00 0.  1.
         11    1    4    4    0    0  0.10024405319E+02 -0.27526962497E+02  0.82054697785E+02  0.87127468659E+02  0.00000000000E+00 0. -1.
</event>
<event>
 8    1  0.6684013E-009  0.7441219E+02  0.7561462E-02  0.1345701E+00
         -2   -1    0    0    0  501 -0.00000000000E+00  0.00000000000E+00  0.95053991261E+02  0.95053991261E+02  0.00000000000E+00 0. -1.
          2   -1    0    0  501    0  0.00000000000E+00 -0.00000000000E+00 -0.18580507622E+03  0.18580507622E+03  0.00000000000E+00 0.  1.
         25    2    1    2    0    0  0.22577863791E+01  0.66857591867E+01 -0.13067671976E+03  0.18103465064E+03  0.12508933875E+03 0.  0.
         23    2    1    2    0    0 -0.22577863791E+01 -0.66857591867E+01  0.39925634801E+02  0.99824416843E+02  0.91219849312E+02 0.  0.
          5    1    3    3  502    0  0.77783579998E+01 -0.57857727057E+02 -0.46593342129E+02  0.74809299984E+02  0.41800000000E+01 0. -1.
         -5    1    3    3    0  502 -0.55205716207E+01  0.64543486244E+02 -0.84083377632E+02  0.10622535065E+03  0.41800000000E+01 0. -1.
        -11    1    4    4    0    0  0.78010537975E+01 -0.11763400620E+02 -0.27794540729E+02  0.31173234173E+02  0.00000000000E+00 0.  1.
         11    1    4    4    0    0 -0.10058840177E+02  0.50776414328E+01  0.67720175530E+02  0.68651182670E+02  0.00000000000E+00 0. -1.
</event>
<event>
 8    1  0.6684013E-009  0.1963859E+03  0.7561462E-02  0.1152825E+00
         -2   -1    0    0    0  501 -0.00000000000E+00  0.00000000000E+00  0.61880907564E+02  0.61880907564E+02  0.00000000000E+00 0.  1.
          2   -1    0    0  501    0  0.00000000000E+00 -0.00000000000E+00 -0.67905796366E+03  0.67905796366E+03  0.00000000000E+00 0. -1.
         25    2    1    2    0    0 -0.16456503982E+03  0.54344258957E+02 -0.33066111351E+03  0.39372532301E+03  0.12509159514E+03 0.  0.
         23    2    1    2    0    0  0.16456503982E+03 -0.54344258957E+02 -0.28651594259E+03  0.34721354822E+03  0.91819997260E+02 0.  0.
          5    1    3    3  502    0 -0.10989670051E+03 -0.26160075099E+02 -0.14293267182E+03  0.18223297008E+03  0.41800000000E+01 0.  1.
         -5    1    3    3    0  502 -0.54668339316E+02  0.80504334056E+02 -0.18772844169E+03  0.21149235293E+03  0.41800000000E+01 0.  1.
        -11    1    4    4    0    0  0.37667235531E+02  0.11471643509E+02 -0.18602281797E+02  0.43548411285E+02  0.00000000000E+00 0.  1.
         11    1    4    4    0    0  0.12689780429E+03 -0.65815902466E+02 -0.26791366079E+03  0.30366513693E+03  0.00000000000E+00 0. -1.
</event>
<event>
 8    1  0.6684013E-009  0.8979953E+02  0.7561462E-02  0.1303338E+00
          2   -1    0    0  501    0  0.00000000000E+00  0.00000000000E+00  0.87684786872E+02  0.87684786872E+02  0.00000000000E+00 0. -1.
         -2   -1    0    0    0  501 -0.00000000000E+00 -0.00000000000E+00 -0.18119297299E+03  0.18119297299E+03  0.00000000000E+00 0.  1.
         25    2    1    2    0    0 -0.14530063329E+01 -0.32061684371E+02  0.70485255882E+01  0.12933422101E+03  0.12509035206E+03 0.  0.
         23    2    1    2    0    0  0.14530063329E+01  0.32061684371E+02 -0.10055671170E+03  0.13954353885E+03  0.91272581501E+02 0.  0.
          5    1    3    3  502    0  0.38578955739E+02  0.15997392859E+02  0.40460095450E+02  0.58298748940E+02  0.41800000000E+01 0.  1.
         -5    1    3    3    0  502 -0.40031962072E+02 -0.48059077230E+02 -0.33411569861E+02  0.71035472070E+02  0.41800000000E+01 0.  1.
        -11    1    4    4    0    0  0.33693811173E+02  0.24942413467E+02 -0.97806199818E+02  0.10641169872E+03  0.00000000000E+00 0.  1.
         11    1    4    4    0    0 -0.32240804840E+02  0.71192709037E+01 -0.27505118855E+01  0.33131840133E+02  0.00000000000E+00 0. -1.
</event>
<event>
 8    1  0.6684013E-009  0.6662311E+02  0.7561462E-02  0.1371968E+00
          2   -1    0    0  501    0  0.00000000000E+00  0.00000000000E+00  0.10044515568E+04  0.10044515568E+04  0.00000000000E+00 0.  1.
         -2   -1    0    0    0  501 -0.00000000000E+00 -0.00000000000E+00 -0.14855060875E+02  0.14855060875E+02  0.00000000000E+00 0. -1.
         25    2    1    2    0    0 -0.31097891564E+02 -0.33178659458E+02  0.66709774902E+03  0.68024601935E+03  0.12508931925E+03 0.  0.
         23    2    1    2    0    0  0.31097891564E+02  0.33178659458E+02  0.32249874696E+03  0.33906059837E+03  0.94280142547E+02 0.  0.
          5    1    3    3  502    0 -0.11257882851E+02 -0.30158836105E+01  0.62290522830E+03  0.62302827489E+03  0.41800000000E+01 0.  1.
         -5    1    3    3    0  502 -0.19840008713E+02 -0.30162775848E+02  0.44192520722E+02  0.57217744453E+02  0.41800000000E+01 0.  1.
        -11    1    4    4    0    0 -0.13267125528E+02 -0.14322684347E+02  0.14606313003E+02  0.24382376550E+02  0.00000000000E+00 0. -1.
         11    1    4    4    0    0  0.44365017093E+02  0.47501343805E+02  0.30789243395E+03  0.31467822182E+03  0.00000000000E+00 0.  1.
</event>
<event>
 8    1  0.6684013E-009  0.1387945E+03  0.7561462E-02  0.1214960E+00
         -2   -1    0    0    0  501 -0.00000000000E+00  0.00000000000E+00  0.15376808405E+03  0.15376808405E+03  0.00000000000E+00 0.  1.
          2   -1    0    0  501    0  0.00000000000E+00 -0.00000000000E+00 -0.16624940311E+03  0.16624940311E+03  0.00000000000E+00 0. -1.
         25    2    1    2    0    0 -0.96026863443E+02  0.66222210878E+02 -0.12720625070E+02  0.17151110964E+03  0.12509079387E+03 0.  0.
         23    2    1    2    0    0  0.96026863443E+02 -0.66222210878E+02  0.23930600930E+00  0.14850637752E+03  0.91910538999E+02 0.  0.
          5    1    3    3  502    0 -0.27322231100E+02  0.76239955258E+02  0.33772018950E+02  0.87846779986E+02  0.41800000000E+01 0.  1.
         -5    1    3    3    0  502 -0.68704632343E+02 -0.10017744380E+02 -0.46492644020E+02  0.83664329650E+02  0.41800000000E+01 0.  1.
        -11    1    4    4    0    0  0.62354360909E+02 -0.12594283147E+02 -0.38419786592E+02  0.74315289773E+02  0.00000000000E+00 0. -1.
         11    1    4    4    0    0  0.33672502535E+02 -0.53627927731E+02  0.38659092601E+02  0.74191087742E+02  0.00000000000E+00 0.  1.
</event>
<event>
 8    1  0.6684013E-009  0.1513177E+03  0.7561462E-02  0.1198863E+00
         -2   -1    0    0    0  501 -0.00000000000E+00  0.00000000000E+00  0.55310178693E+02  0.55310178693E+02  0.00000000000E+00 0.  1.
          2   -1    0    0  501    0  0.00000000000E+00 -0.00000000000E+00 -0.48977310514E+03  0.48977310514E+03  0.00000000000E+00 0. -1.
         25    2    1    2    0    0 -0.11332757239E+03  0.50146755303E+02 -0.27349378766E+03  0.32527392325E+03  0.12508572071E+03 0.  0.
         23    2    1    2    0    0  0.11332757239E+03 -0.50146755303E+02 -0.16096913878E+03  0.21980936058E+03  0.83947934012E+02 0.  0.
          5    1    3    3  502    0 -0.73203715371E+02  0.75680255898E+02 -0.99783905599E+02  0.14512265603E+03  0.41800000000E+01 0.  1.
         -5    1    3    3    0  502 -0.40123857024E+02 -0.25533500595E+02 -0.17370988206E+03  0.18015126722E+03  0.41800000000E+01 0.  1.
        -11    1    4    4    0    0  0.43156155479E+02  0.22369642485E+02 -0.57227115214E+02  0.75085267372E+02  0.00000000000E+00 0.  1.
         11    1    4    4    0    0  0.70171416916E+02 -0.72516397788E+02 -0.10374202357E+03  0.14472409321E+03  0.00000000000E+00 0. -1.
</event>
<event>
 8    1  0.6684013E-009  0.1600412E+03  0.7561462E-02  0.1188650E+00
          3   -1    0    0  501    0  0.00000000000E+00  0.00000000000E+00  0.80436449996E+02  0.80436449996E+02  0.00000000000E+00 0. -1.
         -3   -1    0    0    0  501 -0.00000000000E+00 -0.00000000000E+00 -0.42814025268E+03  0.42814025268E+03  0.00000000000E+00 0.  1.
         25    2    1    2    0    0  0.10187619715E+02  0.14840694429E+03 -0.15432443135E+03  0.24817816959E+03  0.12509182643E+03 0.  0.
         23    2    1    2    0    0 -0.10187619715E+02 -0.14840694429E+03 -0.19337937133E+03  0.26039853309E+03  0.91013219207E+02 0.  0.
          5    1    3    3  502    0  0.25455944928E+02  0.86487343828E+02 -0.16032836574E+03  0.18398565987E+03  0.41800000000E+01 0. -1.
         -5    1    3    3    0  502 -0.15268325213E+02  0.61919600459E+02  0.60039343920E+01  0.64192509719E+02  0.41800000000E+01 0. -1.
        -11    1    4    4    0    0 -0.32699247456E+02 -0.13667739751E+03 -0.12732831694E+03  0.18963768631E+03  0.00000000000E+00 0.  1.
         11    1    4    4    0    0  0.22511627741E+02 -0.11729546781E+02 -0.66051054387E+02  0.70760846779E+02  0.00000000000E+00 0. -1.
</event>
<event>
 8    1  0.6684013E-009  0.9674074E+02  0.7561462E-02  0.1287303E+00
         -1   -1    0    0    0  501 -0.00000000000E+00  0.00000000000E+00  0.23770373114E+03  0.23770373114E+03  0.00000000000E+00 0.  1.
          1   -1    0    0  501    0  0.00000000000E+00 -0.00000000000E+00 -0.53478844934E+02  0.53478844934E+02  0.00000000000E+00 0. -1.
         25    2    1    2    0    0 -0.37806405609E+01  0.29786022623E+02  0.11916128321E+03  0.17534064257E+03  0.12507369481E+03 0.  0.
         23    2    1    2    0    0  0.37806405609E+01 -0.29786022623E+02  0.65063602996E+02  0.11584193350E+03  0.91019672246E+02 0.  0.
          5    1    3    3  502    0  0.52152785909E+02 -0.66022353728E+01  0.85577060491E+02  0.10052068579E+03  0.41800000000E+01 0.  1.
         -5    1    3    3    0  502 -0.55933426470E+02  0.36388257996E+02  0.33584222718E+02  0.74819956778E+02  0.41800000000E+01 0.  1.
        -11    1    4    4    0    0 -0.59927170663E+01  0.21170437303E+02  0.59765538352E+02  0.63686887567E+02  0.00000000000E+00 0.  1.
         11    1    4    4    0    0  0.97733576272E+01 -0.50956459926E+02  0.52980646437E+01  0.52155045935E+02  0.00000000000E+00 0. -1.
</event>
<event>
 8    1  0.6684013E-009  0.1743598E+03  0.7561462E-02  0.1173376E+00
         -2   -1    0    0    0  501 -0.00000000000E+00  0.00000000000E+00  0.86989735599E+02  0.86989735599E+02  0.00000000000E+00 0.  1.
          2   -1    0    0  501    0  0.00000000000E+00 -0.00000000000E+00 -0.43586944851E+03  0.43586944851E+03  0.00000000000E+00 0. -1.
         25    2    1    2    0    0 -0.14146386792E+03 -0.55346272039E+02 -0.25555254681E+03  0.32253692974E+03  0.12509089138E+03 0.  0.
         23    2    1    2    0    0  0.14146386792E+03  0.55346272039E+02 -0.93327166098E+02  0.20032225437E+03  0.91344457466E+02 0.  0.
          5    1    3    3  502    0 -0.14565848817E+03 -0.82795755396E+02 -0.20583755965E+03  0.26543945760E+03  0.41800000000E+01 0.  1.
         -5    1    3    3    0  502  0.41946202555E+01  0.27449483356E+02 -0.49714987167E+02  0.57097472139E+02  0.41800000000E+01 0.  1.
        -11    1    4    4    0    0  0.81511074372E+02  0.21953796201E+02 -0.10058556639E+03  0.13131443401E+03  0.00000000000E+00 0. -1.
         11    1    4    4    0    0  0.59952793546E+02  0.33392475838E+02  0.72584002915E+01  0.69007820364E+02  0.00000000000E+00 0.  1.
</event>
<event>
 8    1  0.6684013E-009  0.9559752E+02  0.7561462E-02  0.1289836E+00
          2   -1    0    0  501    0  0.00000000000E+00  0.00000000000E+00  0.37816285443E+03  0.37816285443E+03  0.00000000000E+00 0. -1.
         -2   -1    0    0    0  501 -0.00000000000E+00 -0.00000000000E+00 -0.38380859998E+02  0.38380859998E+02  0.00000000000E+00 0.  1.
         25    2    1    2    0    0  0.42693952107E+02 -0.21636833440E+02  0.19176833550E+03  0.23390901385E+03  0.12508959250E+03 0.  0.
         23    2    1    2    0    0 -0.42693952107E+02  0.21636833440E+02  0.14801365893E+03  0.18263470058E+03  0.95689416955E+02 0.  0.
          5    1    3    3  502    0  0.48335489699E+02 -0.41222750470E+02  0.29245960761E+02  0.70060212258E+02  0.41800000000E+01 0.  1.
         -5    1    3    3    0  502 -0.56415375923E+01  0.19585917030E+02  0.16252237474E+03  0.16384880160E+03  0.41800000000E+01 0.  1.
        -11    1    4    4    0    0  0.30783897359E+02  0.30655089549E+01  0.48923148742E+02  0.57883677877E+02  0.00000000000E+00 0.  1.
         11    1    4    4    0    0 -0.73477849466E+02  0.18571324485E+02  0.99090510191E+02  0.12475102270E+03  0.00000000000E+00 0. -1.
</event>
<event>
 8    1  0.6684013E-009  0.2281267E+03  0.7561462E-02  0.1127965E+00
          3   -1    0    0  501    0  0.00000000000E+00  0.00000000000E+00  0.10004749770E+03  0.10004749770E+03  0.00000000000E+00 0. -1.
         -3   -1    0    0    0  501 -0.00000000000E+00 -0.00000000000E+00 -0.54945260307E+03  0.54945260307E+03  0.00000000000E+00 0.  1.
         25    2    1    2    0    0 -0.76547723603E+02  0.19090214885E+03 -0.19106996711E+03  0.30733672627E+03  0.12507976080E+03 0.  0.
         23    2    1    2    0    0  0.76547723603E+02 -0.19090214885E+03 -0.25833513827E+03  0.34216337450E+03  0.89641211307E+02 0.  0.
          5    1    3    3  502    0 -0.99375138102E+02  0.97773636760E+02 -0.80951422991E+02  0.16126285190E+03  0.41800000000E+01 0. -1.
         -5    1    3    3    0  502  0.22827414499E+02  0.93128512089E+02 -0.11011854412E+03  0.14607387437E+03  0.41800000000E+01 0. -1.
        -11    1    4    4    0    0  0.52403107155E+02 -0.34937218195E+02 -0.47928444201E+02  0.79144365676E+02  0.00000000000E+00 0.  1.
         11    1    4    4    0    0  0.24144616449E+02 -0.15596493065E+03 -0.21040669407E+03  0.26301900883E+03  0.00000000000E+00 0. -1.
</event>
<event>
 8    1  0.6684013E-009  0.9504196E+02  0.7561462E-02  0.1291082E+00
          1   -1    0    0  501    0  0.00000000000E+00  0.00000000000E+00  0.11148331245E+03  0.11148331245E+03  0.00000000000E+00 0. -1.
         -1   -1    0    0    0  501 -0.00000000000E+00 -0.00000000000E+00 -0.13363599038E+03  0.13363599038E+03  0.00000000000E+00 0.  1.
         25    2    1    2    0    0 -0.51775653234E+02 -0.12457193909E+02  0.39201721570E+01  0.13601206013E+03  0.12509201734E+03 0.  0.
         23    2    1    2    0    0  0.51775653234E+02  0.12457193909E+02 -0.26072850087E+02  0.10910724271E+03  0.91589829957E+02 0.  0.
          5    1    3    3  502    0  0.32145824670E+02 -0.12415806769E+02 -0.29529022496E+02  0.45573477714E+02  0.41800000000E+01 0.  1.
         -5    1    3    3    0  502 -0.83921477904E+02 -0.41387139845E-01  0.33449194653E+02  0.90438582416E+02  0.41800000000E+01 0.  1.
        -11    1    4    4    0    0  0.38666325255E+02  0.30356627691E+02  0.23729366503E+02  0.54586558677E+02  0.00000000000E+00 0. -1.
         11    1    4    4    0    0  0.13109327979E+02 -0.17899433783E+02 -0.49802216591E+02  0.54520684030E+02  0.00000000000E+00 0.  1.
</event>
<event>
 8    1  0.6684013E-009  0.2033726E+03  0.7561462E-02  0.1146924E+00
          2   -1    0    0  501    0  0.00000000000E+00  0.00000000000E+00  0.19400052176E+04  0.19400052176E+04  0.00000000000E+00 0. -1.
         -2   -1    0    0    0  501 -0.00000000000E+00 -0.00000000000E+00 -0.21605308419E+02  0.21605308419E+02  0.00000000000E+00 0.  1.
         25    2    1    2    0    0  0.17138643304E+03 -0.24566578429E+02  0.10284003354E+04  0.10503485260E+04  0.12509176671E+03 0.  0.
         23    2    1    2    0    0 -0.17138643304E+03  0.24566578429E+02  0.88999957380E+03  0.91126200000E+03  0.91226997482E+02 0.  0.
          5    1    3    3  502    0 -0.14276771889E+02 -0.20641976414E+02  0.18455728341E+03  0.18630292716E+03  0.41800000000E+01 0. -1.
         -5    1    3    3    0  502  0.18566320493E+03 -0.39246020153E+01  0.84384305199E+03  0.86404559889E+03  0.41800000000E+01 0. -1.
        -11    1    4    4    0    0  0.82989071326E+01 -0.95522813575E+01  0.49334446189E+02  0.50931380499E+02  0.00000000000E+00 0. -1.
         11    1    4    4    0    0 -0.17968534018E+03  0.34118859787E+02  0.84066512761E+03  0.86033061950E+03  0.00000000000E+00 0.  1.
</event>
<event>
 8    1  0.6684013E-009  0.1473806E+03  0.7561462E-02  0.1203729E+00
          2   -1    0    0  501    0  0.00000000000E+00  0.00000000000E+00  0.95504307726E+03  0.95504307726E+03  0.00000000000E+00 0. -1.
         -2   -1    0    0    0  501 -0.00000000000E+00 -0.00000000000E+00 -0.23153522152E+02  0.23153522152E+02  0.00000000000E+00 0.  1.
         25    2    1    2    0    0 -0.98704024077E+02 -0.12127533726E+02  0.44358576629E+03  0.47149377738E+03  0.12509391915E+03 0.  0.
         23    2    1    2    0    0  0.98704024077E+02  0.12127533726E+02  0.48830378882E+03  0.50670282203E+03  0.91747469927E+02 0.  0.
          5    1    3    3  502    0 -0.92666007333E+02  0.44301902338E+02  0.27727755773E+03  0.29571940059E+03  0.41800000000E+01 0. -1.
         -5    1    3    3    0  502 -0.60380167441E+01 -0.56429436063E+02  0.16630820856E+03  0.17577437679E+03  0.41800000000E+01 0. -1.
        -11    1    4    4    0    0  0.15701154761E+02 -0.35885697313E+02  0.12816887206E+03  0.13402077935E+03  0.00000000000E+00 0.  1.
         11    1    4    4    0    0  0.83002869316E+02  0.48013231038E+02  0.36013491676E+03  0.37268204268E+03  0.00000000000E+00 0. -1.
</event>
<event>
 8    1  0.6684013E-009  0.1648818E+03  0.7561462E-02  0.1183293E+00
          1   -1    0    0  501    0  0.00000000000E+00  0.00000000000E+00  0.24496193975E+02  0.24496193975E+02  0.00000000000E+00 0. -1.
         -1   -1    0    0    0  501 -0.00000000000E+00 -0.00000000000E+00 -0.20620399705E+04  0.20620399705E+04  0.00000000000E+00 0.  1.
         25    2    1    2    0    0  0.19691643470E+02 -0.16022813852E+03 -0.15799767083E+04  0.15931209188E+04  0.12508815258E+03 0.  0.
         23    2    1    2    0    0 -0.19691643470E+02  0.16022813852E+03 -0.45756706828E+03  0.49341524574E+03  0.89611191035E+02 0.  0.
          5    1    3    3  502    0  0.13273750509E+02 -0.47805491444E+02 -0.13727906324E+03  0.14602935003E+03  0.41800000000E+01 0.  1.
         -5    1    3    3    0  502  0.64178929614E+01 -0.11242264708E+03 -0.14426976450E+04  0.14470915687E+04  0.41800000000E+01 0.  1.
        -11    1    4    4    0    0 -0.25063549902E+02  0.41784200199E+02 -0.24701773123E+03  0.25177740260E+03  0.00000000000E+00 0.  1.
         11    1    4    4    0    0  0.53719064317E+01  0.11844393832E+03 -0.21054933705E+03  0.24163784314E+03  0.00000000000E+00 0. -1.
</event>
<event>
 8    1  0.6684013E-009  0.1237940E+03  0.7561462E-02  0.1236966E+00
         -1   -1    0    0    0  501 -0.00000000000E+00  0.00000000000E+00  0.24856062147E+03  0.24856062147E+03  0.00000000000E+00 0.  1.
          1   -1    0    0  501    0  0.00000000000E+00 -0.00000000000E+00 -0.66195538203E+02  0.66195538203E+02  0.00000000000E+00 0. -1.
         25    2    1    2    0    0  0.46807700105E+02  0.48588517860E+02  0.12398713615E+03  0.18860459121E+03  0.12508827698E+03 0.  0.
         23    2    1    2    0    0 -0.46807700105E+02 -0.48588517860E+02  0.58377947112E+02  0.12615156846E+03  0.89187603728E+02 0.  0.
          5    1    3    3  502    0 -0.40833599481E+02  0.33587615978E+02  0.43421564301E+02  0.68544988438E+02  0.41800000000E+01 0.  1.
         -5    1    3    3    0  502  0.87641299586E+02  0.15000901882E+02  0.80565571852E+02  0.12005960277E+03  0.41800000000E+01 0.  1.
        -11    1    4    4    0    0 -0.59866980013E+02 -0.62437360058E+02  0.62446309329E+02  0.10668655387E+03  0.00000000000E+00 0.  1.
         11    1    4    4    0    0  0.13059279908E+02  0.13848842199E+02 -0.40683622173E+01  0.19465014593E+02  0.00000000000E+00 0. -1.
</event>
<event>
 8    1  0.6684013E-009  0.2727582E+03  0.7561462E-02  0.1099711E+00
         -1   -1    0    0    0  501 -0.00000000000E+00  0.00000000000E+00  0.27982401377E+03  0.27982401377E+03  0.00000000000E+00 0.  1.
          1   -1    0    0  501    0  0.00000000000E+00 -0.00000000000E+00 -0.31136367311E+03  0.31136367311E+03  0.00000000000E+00 0. -1.
         25    2    1    2    0    0  0.13084057172E+03  0.23795796080E+03 -0.54371891828E+02  0.30388947348E+03  0.12509701497E+03 0.  0.
         23    2    1    2    0    0 -0.13084057172E+03 -0.23795796080E+03  0.22832232486E+02  0.28729821341E+03  0.90970908929E+02 0.  0.
          5    1    3    3  502    0  0.72828461456E+02  0.11003833208E+03  0.35967520452E+02  0.13683403909E+03  0.41800000000E+01 0.  1.
         -5    1    3    3    0  502  0.58012110263E+02  0.12791962871E+03 -0.90339412280E+02  0.16705543439E+03  0.41800000000E+01 0.  1.
        -11    1    4    4    0    0 -0.82530182541E+02 -0.17614206213E+03 -0.23898899354E+02  0.19598064821E+03  0.00000000000E+00 0. -1.
         11    1    4    4    0    0 -0.48310389178E+02 -0.61815898664E+02  0.46731131839E+02  0.91317565195E+02  0.00000000000E+00 0.  1.
</event>
<event>
 8    1  0.6684013E-009  0.8480986E+02  0.7561462E-02  0.1315931E+00
         -2   -1    0    0    0  501 -0.00000000000E+00  0.00000000000E+00  0.63289380298E+02  0.63289380298E+02  0.00000000000E+00 0.  1.
          2   -1    0    0  501    0  0.00000000000E+00 -0.00000000000E+00 -0.21135082853E+03  0.21135082853E+03  0.00000000000E+00 0. -1.
         25    2    1    2    0    0 -0.25634414819E+02  0.33357518608E+02 -0.84631620895E+02  0.15677705478E+03  0.12508671545E+03 0.  0.
         23    2    1    2    0    0  0.25634414819E+02 -0.33357518608E+02 -0.63429827339E+02  0.11786315404E+03  0.89991848600E+02 0.  0.
          5    1    3    3  502    0  0.13464416234E+02 -0.62189470095E+01  0.27505951097E+02  0.31528012183E+02  0.41800000000E+01 0.  1.
         -5    1    3    3    0  502 -0.39098831053E+02  0.39576465617E+02 -0.11213757199E+03  0.12524904260E+03  0.41800000000E+01 0.  1.
        -11    1    4    4    0    0 -0.31850136157E+02 -0.24662962420E+02 -0.18201141606E+02  0.44203783145E+02  0.00000000000E+00 0. -1.
         11    1    4    4    0    0  0.57484550976E+02 -0.86945561875E+01 -0.45228685733E+02  0.73659370900E+02  0.00000000000E+00 0.  1.
</event>
<event>
 8    1  0.6684013E-009  0.8769124E+02  0.7561462E-02  0.1308541E+00
         -2   -1    0    0    0  501 -0.00000000000E+00  0.00000000000E+00  0.10212299036E+03  0.10212299036E+03  0.00000000000E+00 0.  1.
          2   -1    0    0  501    0  0.00000000000E+00 -0.00000000000E+00 -0.15799682295E+03  0.15799682295E+03  0.00000000000E+00 0. -1.
         25    2    1    2    0    0 -0.23153159310E+02 -0.57152629738E+02 -0.46874563090E+02  0.14713038528E+03  0.12509050218E+03 0.  0.
         23    2    1    2    0    0  0.23153159310E+02  0.57152629738E+02 -0.89992695064E+01  0.11298942803E+03  0.94250369353E+02 0.  0.
          5    1    3    3  502    0  0.11534300270E+02 -0.59046401255E+02  0.26474879846E+02  0.65862806247E+02  0.41800000000E+01 0. -1.
         -5    1    3    3    0  502 -0.34687459580E+02  0.18937715168E+01 -0.73349442937E+02  0.81267579032E+02  0.41800000000E+01 0. -1.
        -11    1    4    4    0    0 -0.77523787343E+01  0.46880880995E+02  0.34448275048E+02  0.58690715047E+02  0.00000000000E+00 0.  1.
         11    1    4    4    0    0  0.30905538044E+02  0.10271748743E+02 -0.43447544554E+02  0.54298712985E+02  0.00000000000E+00 0. -1.
</event>
<event>
 8    1  0.6684013E-009  0.1792894E+03  0.7561462E-02  0.1168493E+00
         -2   -1    0    0    0  501 -0.00000000000E+00  0.00000000000E+00  0.75732822044E+02  0.75732822044E+02  0.00000000000E+00 0.  1.
          2   -1    0    0  501    0  0.00000000000E+00 -0.00000000000E+00 -0.50299287216E+03  0.50299287216E+03  0.00000000000E+00 0. -1.
         25    2    1    2    0    0  0.14196018210E+02  0.15763854889E+03 -0.27612207764E+03  0.34196768248E+03  0.12508818917E+03 0.  0.
         23    2    1    2    0    0 -0.14196018210E+02 -0.15763854889E+03 -0.15113797248E+03  0.23675801173E+03  0.90333993386E+02 0.  0.
          5    1    3    3  502    0  0.35988639331E+02  0.72565211381E+01 -0.11349686614E+03  0.11936017043E+03  0.41800000000E+01 0. -1.
         -5    1    3    3    0  502 -0.21792621122E+02  0.15038202776E+03 -0.16262521149E+03  0.22260751205E+03  0.41800000000E+01 0. -1.
        -11    1    4    4    0    0 -0.38190217808E+02 -0.86910337679E+02 -0.40360291960E+02  0.10315450886E+03  0.00000000000E+00 0. -1.
         11    1    4    4    0    0  0.23994199599E+02 -0.70728211215E+02 -0.11077768052E+03  0.13360350286E+03  0.00000000000E+00 0.  1.
</event>
<event>
 8    1  0.6684013E-009  0.1556446E+03  0.7561462E-02  0.1193704E+00
         -2   -1    0    0    0  501 -0.00000000000E+00  0.00000000000E+00  0.67752281640E+03  0.67752281640E+03  0.00000000000E+00 0.  1.
          2   -1    0    0  501    0  0.00000000000E+00 -0.00000000000E+00 -0.46769658332E+02  0.46769658332E+02  0.00000000000E+00 0. -1.
         25    2    1    2    0    0  0.11882553988E+03 -0.74869078882E+02  0.37287120048E+03  0.41761967986E+03  0.12509347288E+03 0.  0.
         23    2    1    2    0    0 -0.11882553988E+03  0.74869078882E+02  0.25788195759E+03  0.30667279487E+03  0.88431957838E+02 0.  0.
          5    1    3    3  502    0  0.10360316549E+03 -0.26648381240E+02  0.12486494846E+03  0.16447638091E+03  0.41800000000E+01 0. -1.
         -5    1    3    3    0  502  0.15222374386E+02 -0.48220697642E+02  0.24800625202E+03  0.25314329895E+03  0.41800000000E+01 0. -1.
        -11    1    4    4    0    0 -0.52594014391E+02 -0.12305643029E+01  0.38453547239E+02  0.65163793118E+02  0.00000000000E+00 0. -1.
         11    1    4    4    0    0 -0.66231525484E+02  0.76099643185E+02  0.21942841035E+03  0.24150900175E+03  0.00000000000E+00 0.  1.
</event>
<event>
 8    1  0.6684013E-009  0.2177707E+03  0.7561462E-02  0.1135556E+00
         -1   -1    0    0    0  501 -0.00000000000E+00  0.00000000000E+00  0.83200662579E+02  0.83200662579E+02  0.00000000000E+00 0.  1.
          1   -1    0    0  501    0  0.00000000000E+00 -0.00000000000E+00 -0.76774515208E+03  0.76774515208E+03  0.00000000000E+00 0. -1.
         25    2    1    2    0    0 -0.16559011005E+03  0.96418645199E+02 -0.55989901577E+03  0.60485814070E+03  0.12509925192E+03 0.  0.
         23    2    1    2    0    0  0.16559011005E+03 -0.96418645199E+02 -0.12464547374E+03  0.24608767396E+03  0.91137311047E+02 0.  0.
          5    1    3    3  502    0 -0.64179032231E+02 -0.24413578264E+02 -0.13323179242E+03  0.14994383580E+03  0.41800000000E+01 0. -1.
         -5    1    3    3    0  502 -0.10141107782E+03  0.12083222346E+03 -0.42666722335E+03  0.45491430491E+03  0.41800000000E+01 0. -1.
        -11    1    4    4    0    0  0.83651921811E+02 -0.16542758200E+01 -0.29281262704E+02  0.88644080438E+02  0.00000000000E+00 0. -1.
         11    1    4    4    0    0  0.81938188235E+02 -0.94764369379E+02 -0.95364211035E+02  0.15744359352E+03  0.00000000000E+00 0.  1.
</event>
<event>
 8    1  0.6684013E-009  0.1432618E+03  0.7561462E-02  0.1209006E+00
          1   -1    0    0  501    0  0.00000000000E+00  0.00000000000E+00  0.21271852234E+03  0.21271852234E+03  0.00000000000E+00 0. -1.
         -1   -1    0    0    0  501 -0.00000000000E+00 -0.00000000000E+00 -0.10547710457E+03  0.10547710457E+03  0.00000000000E+00 0.  1.
         25    2    1    2    0    0  0.41686309609E+02  0.86511156717E+02  0.92959651738E+02  0.18306215157E+03  0.12509326857E+03 0.  0.
         23    2    1    2    0    0 -0.41686309609E+02 -0.86511156717E+02  0.14281766031E+02  0.13513347533E+03  0.93995524729E+02 0.  0.
          5    1    3    3  502    0  0.55792073326E+02 -0.80466989374E+01  0.12159537354E+02  0.57817225448E+02  0.41800000000E+01 0. -1.
         -5    1    3    3    0  502 -0.14105763718E+02  0.94557855654E+02  0.80800114383E+02  0.12524492613E+03  0.41800000000E+01 0. -1.
        -11    1    4    4    0    0  0.30425714812E+02 -0.29484928114E+02  0.65741764098E+01  0.42875458052E+02  0.00000000000E+00 0.  1.
         11    1    4    4    0    0 -0.72112024420E+02 -0.57026228602E+02  0.77075896212E+01  0.92258017280E+02  0.00000000000E+00 0. -1.
</event>
<event>
 8    1  0.6684013E-009  0.1749297E+03  0.7561462E-02  0.1172802E+00
          1   -1    0    0  501    0  0.00000000000E+00  0.00000000000E+00  0.69527841434E+02  0.69527841434E+02  0.00000000000E+00 0. -1.
         -1   -1    0    0    0  501 -0.00000000000E+00 -0.00000000000E+00 -0.73571635493E+03  0.73571635493E+03  0.00000000000E+00 0.  1.
         25    2    1    2    0    0  0.10211063014E+03  0.12864395420E+03 -0.54193065859E+03  0.57992103607E+03  0.12507486404E+03 0.  0.
         23    2    1    2    0    0 -0.10211063014E+03 -0.12864395420E+03 -0.12425785490E+03  0.22532316029E+03  0.91403852873E+02 0.  0.
          5    1    3    3  502    0  0.80511251116E+02  0.60313738960E+02 -0.46045006745E+03  0.47132955103E+03  0.41800000000E+01 0.  1.
         -5    1    3    3    0  502  0.21599379020E+02  0.68330215242E+02 -0.81480591141E+02  0.10859148503E+03  0.41800000000E+01 0.  1.
        -11    1    4    4    0    0 -0.29177131515E+02 -0.90495512376E+02 -0.10328111214E+03  0.14038422592E+03  0.00000000000E+00 0.  1.
         11    1    4    4    0    0 -0.72933498622E+02 -0.38148441826E+02 -0.20976742764E+02  0.84938934370E+02  0.00000000000E+00 0. -1.
</event>
<event>
 7    1  0.6684013E-009  0.1004538E+03  0.7561462E-02  0.1279345E+00
         -2   -1    0    0    0  501 -0.00000000000E+00  0.00000000000E+00  0.16464671674E+03  0.16464671674E+03  0.00000000000E+00 0. -1.
          2   -1    0    0  501    0  0.00000000000E+00 -0.00000000000E+00 -0.15738303506E+03  0.15738303506E+03  0.00000000000E+00 0.  1.
         23    2    1    2    0    0 -0.61639947800E+02  0.66313252245E+01  0.10493296752E+03  0.15174858535E+03  0.90406016636E+02 0.  0.
          5    1    1    2  502    0  0.57455278262E+02 -0.31717599054E+02 -0.11956869357E+03  0.13645973755E+03  0.41800000000E+01 0.  1.
         -5    1    1    2    0  502  0.41846695372E+01  0.25086273830E+02  0.21899407738E+02  0.33821428904E+02  0.41800000000E+01 0.  1.
        -11    1    3    3    0    0 -0.28381601958E+02 -0.41858020139E+02  0.43443259653E+02  0.66670278152E+02  0.00000000000E+00 0.  1.
         11    1    3    3    0    0 -0.33258345842E+02  0.48489345364E+02  0.61489707864E+02  0.85078307195E+02  0.00000000000E+00 0. -1.
</event>
<event>
 8    1  0.6684013E-009  0.1120449E+03  0.7561462E-02  0.1256829E+00
          2   -1    0    0  501    0  0.00000000000E+00  0.00000000000E+00  0.15679026219E+03  0.15679026219E+03  0.00000000000E+00 0. -1.
         -2   -1    0    0    0  501 -0.00000000000E+00 -0.00000000000E+00 -0.10459597929E+03  0.10459597929E+03  0.00000000000E+00 0.  1.
         25    2    1    2    0    0 -0.58090339743E+02  0.26238570782E+02  0.55777456414E+01  0.14049743149E+03  0.12508184057E+03 0.  0.
         23    2    1    2    0    0  0.58090339743E+02 -0.26238570782E+02  0.46616537262E+02  0.12088880999E+03  0.91531703066E+02 0.  0.
          5    1    3    3  502    0 -0.15473616105E+01  0.51138940979E+02 -0.38771975557E+02  0.64329807251E+02  0.41800000000E+01 0. -1.
         -5    1    3    3    0  502 -0.56542978132E+02 -0.24900370197E+02  0.44349721198E+02  0.76167624240E+02  0.41800000000E+01 0. -1.
        -11    1    4    4    0    0  0.20655627978E+02 -0.58107752886E+02  0.19156090219E+02  0.64576479504E+02  0.00000000000E+00 0. -1.
         11    1    4    4    0    0  0.37434711765E+02  0.31869182104E+02  0.27460447042E+02  0.56312330485E+02  0.00000000000E+00 0.  1.
</event>
<event>
 8    1  0.6684013E-009  0.8395882E+02  0.7561462E-02  0.1318178E+00
         -1   -1    0    0    0  501 -0.00000000000E+00  0.00000000000E+00  0.61404002668E+02  0.61404002668E+02  0.00000000000E+00 0.  1.
          1   -1    0    0  501    0  0.00000000000E+00 -0.00000000000E+00 -0.19502144800E+03  0.19502144800E+03  0.00000000000E+00 0. -1.
         25    2    1    2    0    0  0.61417553234E+01  0.32931212753E+01 -0.83232552714E+02  0.15041011051E+03  0.12508787993E+03 0.  0.
         23    2    1    2    0    0 -0.61417553234E+01 -0.32931212753E+01 -0.50384892621E+02  0.10601534016E+03  0.93016391779E+02 0.  0.
          5    1    3    3  502    0  0.28620899953E+02 -0.55250285054E+02 -0.43937542496E+02  0.76287154576E+02  0.41800000000E+01 0. -1.
         -5    1    3    3    0  502 -0.22479144629E+02  0.58543406330E+02 -0.39295010217E+02  0.74122955931E+02  0.41800000000E+01 0. -1.
        -11    1    4    4    0    0  0.78004312006E+01  0.16640747582E+02  0.22573274613E+02  0.29108657368E+02  0.00000000000E+00 0.  1.
         11    1    4    4    0    0 -0.13942186524E+02 -0.19933868857E+02 -0.72958167234E+02  0.76906682797E+02  0.00000000000E+00 0. -1.
</event>
<event>
 8    1  0.6684013E-009  0.1276079E+03  0.7561462E-02  0.1231049E+00
         -4   -1    0    0    0  501 -0.00000000000E+00  0.00000000000E+00  0.51392964522E+03  0.51392964522E+03  0.00000000000E+00 0.  1.
          4   -1    0    0  501    0  0.00000000000E+00 -0.00000000000E+00 -0.39520902787E+02  0.39520902787E+02  0.00000000000E+00 0. -1.
         25    2    1    2    0    0 -0.48702007829E+01 -0.82659108651E+02  0.34265230768E+03  0.37405052303E+03  0.12508774008E+03 0.  0.
         23    2    1    2    0    0  0.48702007829E+01  0.82659108651E+02  0.13175643475E+03  0.17940002498E+03  0.89265691986E+02 0.  0.
          5    1    3    3  502    0  0.49696825595E+02 -0.44762724304E+02  0.86681210791E+02  0.10956541729E+03  0.41800000000E+01 0.  1.
         -5    1    3    3    0  502 -0.54567026377E+02 -0.37896384346E+02  0.25597109689E+03  0.26448510574E+03  0.41800000000E+01 0.  1.
        -11    1    4    4    0    0  0.28116294990E+02  0.92285687059E+02  0.10768036112E+03  0.14457605006E+03  0.00000000000E+00 0. -1.
         11    1    4    4    0    0 -0.23246094207E+02 -0.96265784082E+01  0.24076073632E+02  0.34823974921E+02  0.00000000000E+00 0.  1.
</event>
<event>
 8    1  0.6684013E-009  0.1135993E+03  0.7561462E-02  0.1254046E+00
          2   -1    0    0  501    0  0.00000000000E+00  0.00000000000E+00  0.69373838284E+03  0.69373838284E+03  0.00000000000E+00 0.  1.
         -2   -1    0    0    0  501 -0.00000000000E+00 -0.00000000000E+00 -0.26900384403E+02  0.26900384403E+02  0.00000000000E+00 0. -1.
         25    2    1    2    0    0 -0.10901013420E+02  0.60606966489E+02  0.51061218344E+03  0.52930633548E+03  0.12509339882E+03 0.  0.
         23    2    1    2    0    0  0.10901013420E+02 -0.60606966489E+02  0.15622581500E+03  0.19133243176E+03  0.91703640548E+02 0.  0.
          5    1    3    3  502    0  0.43855323759E+02  0.65927069015E+02  0.36683516097E+03  0.37530677528E+03  0.41800000000E+01 0.  1.
         -5    1    3    3    0  502 -0.54756337179E+02 -0.53201025257E+01  0.14377702247E+03  0.15399956020E+03  0.41800000000E+01 0.  1.
        -11    1    4    4    0    0  0.39154281621E+02 -0.47589826058E+02  0.46276709052E+02  0.77067393327E+02  0.00000000000E+00 0. -1.
         11    1    4    4    0    0 -0.28253268201E+02 -0.13017140431E+02  0.10994910595E+03  0.11426503843E+03  0.00000000000E+00 0.  1.
</event>
<event>
 8    1  0.6684013E-009  0.1531708E+03  0.7561462E-02  0.1196630E+00
          1   -1    0    0  501    0  0.00000000000E+00  0.00000000000E+00  0.95440092894E+02  0.95440092894E+02  0.00000000000E+00 0. -1.
         -1   -1    0    0    0  501 -0.00000000000E+00 -0.00000000000E+00 -0.43465039041E+03  0.43465039041E+03  0.00000000000E+00 0.  1.
         25    2    1    2    0    0  0.96501154223E+02  0.10191090521E+03 -0.46938634096E+02  0.19378994051E+03  0.12511195108E+03 0.  0.
         23    2    1    2    0    0 -0.96501154223E+02 -0.10191090521E+03 -0.29227166342E+03  0.33630054280E+03  0.89314189688E+02 0.  0.
          5    1    3    3  502    0  0.85092881172E+02  0.11730706404E+03 -0.22617983231E+01  0.14499770285E+03  0.41800000000E+01 0.  1.
         -5    1    3    3    0  502  0.11408273052E+02 -0.15396158830E+02 -0.44676835773E+02  0.48792237655E+02  0.41800000000E+01 0.  1.
        -11    1    4    4    0    0 -0.58019372056E+02 -0.74855546666E+02 -0.97488673106E+02  0.13591777582E+03  0.00000000000E+00 0. -1.
         11    1    4    4    0    0 -0.38481782168E+02 -0.27055358548E+02 -0.19478299032E+03  0.20038276698E+03  0.00000000000E+00 0.  1.
</event>
<event>
 8    1  0.6684013E-009  0.2037183E+03  0.7561462E-02  0.1146639E+00
         -2   -1    0    0    0  501 -0.00000000000E+00  0.00000000000E+00  0.38347029847E+03  0.38347029847E+03  0.00000000000E+00 0.  1.
          2   -1    0    0  501    0  0.00000000000E+00 -0.00000000000E+00 -0.12950289018E+03  0.12950289018E+03  0.00000000000E+00 0. -1.
         25    2    1    2    0    0  0.18784113090E+03 -0.48006316999E+02  0.14553585005E+03  0.27279262506E+03  0.12508491397E+03 0.  0.
         23    2    1    2    0    0 -0.18784113090E+03  0.48006316999E+02  0.10843155825E+03  0.24018056360E+03  0.91325808923E+02 0.  0.
          5    1    3    3  502    0  0.70394596876E+02 -0.44008929051E+02  0.12982849767E+03  0.15415932120E+03  0.41800000000E+01 0. -1.
         -5    1    3    3    0  502  0.11744653403E+03 -0.39973879486E+01  0.15707352384E+02  0.11863330386E+03  0.41800000000E+01 0. -1.
        -11    1    4    4    0    0 -0.15637212489E+03  0.66829780007E+02  0.11155468027E+03  0.20337872954E+03  0.00000000000E+00 0.  1.
         11    1    4    4    0    0 -0.31469006011E+02 -0.18823463008E+02 -0.31231220219E+01  0.36801834059E+02  0.00000000000E+00 0. -1.
</event>
<event>
 8    1  0.6684013E-009  0.1881683E+03  0.7561462E-02  0.1160124E+00
         -1   -1    0    0    0  501 -0.00000000000E+00  0.00000000000E+00  0.89526585822E+02  0.89526585822E+02  0.00000000000E+00 0.  1.
          1   -1    0    0  501    0  0.00000000000E+00 -0.00000000000E+00 -0.52619817337E+03  0.52619817337E+03  0.00000000000E+00 0. -1.
         25    2    1    2    0    0 -0.15758915509E+03  0.61111110351E+02 -0.11097665749E+03  0.23777213323E+03  0.12510339412E+03 0.  0.
         23    2    1    2    0    0  0.15758915509E+03 -0.61111110351E+02 -0.32569493006E+03  0.37795262597E+03  0.90565392943E+02 0.  0.
          5    1    3    3  502    0 -0.15814567419E+03  0.40075788244E+02 -0.46312707761E+02  0.16964215976E+03  0.41800000000E+01 0.  1.
         -5    1    3    3    0  502  0.55651909525E+00  0.21035322107E+02 -0.64663949732E+02  0.68129973466E+02  0.41800000000E+01 0.  1.
        -11    1    4    4    0    0  0.14349053248E+03 -0.15950287872E+02 -0.24075058168E+03  0.28072190362E+03  0.00000000000E+00 0.  1.
         11    1    4    4    0    0  0.14098622618E+02 -0.45160822479E+02 -0.84944348379E+02  0.97230722347E+02  0.00000000000E+00 0. -1.
</event>
<event>
 8    1  0.6684013E-009  0.1126982E+03  0.7561462E-02  0.1255653E+00
          2   -1    0    0  501    0  0.00000000000E+00  0.00000000000E+00  0.46878706511E+03  0.46878706511E+03  0.00000000000E+00 0. -1.
         -2   -1    0    0    0  501 -0.00000000000E+00 -0.00000000000E+00 -0.39281132993E+02  0.39281132993E+02  0.00000000000E+00 0.  1.
         25    2    1    2    0    0  0.72794523932E+02  0.24100918442E+02  0.18896771615E+03  0.23923608437E+03  0.12508081122E+03 0.  0.
         23    2    1    2    0    0 -0.72794523932E+02 -0.24100918442E+02  0.24053821597E+03  0.26883211374E+03  0.92369773448E+02 0.  0.
          5    1    3    3  502    0  0.61329025965E+02  0.55469743986E+02  0.51051937932E+02  0.97272373727E+02  0.41800000000E+01 0. -1.
         -5    1    3    3    0  502  0.11465497967E+02 -0.31368825545E+02  0.13791577821E+03  0.14196371064E+03  0.41800000000E+01 0. -1.
        -11    1    4    4    0    0 -0.63502945264E+02  0.17855741732E+02  0.85738409843E+02  0.10817821635E+03  0.00000000000E+00 0.  1.
         11    1    4    4    0    0 -0.92915786680E+01 -0.41956660173E+02  0.15479980613E+03  0.16065389739E+03  0.00000000000E+00 0. -1.
</event>
<event>
 8    1  0.6684013E-009  0.1004927E+03  0.7561462E-02  0.1279263E+00
         -3   -1    0    0    0  501 -0.00000000000E+00  0.00000000000E+00  0.48918965273E+03  0.48918965273E+03  0.00000000000E+00 0.  1.
          3   -1    0    0  501    0  0.00000000000E+00 -0.00000000000E+00 -0.25974558538E+02  0.25974558538E+02  0.00000000000E+00 0. -1.
         25    2    1    2    0    0 -0.16237391521E+02 -0.21629354403E+02  0.23296132974E+03  0.26580162737E+03  0.12509213444E+03 0.  0.
         23    2    1    2    0    0  0.16237391521E+02  0.21629354403E+02  0.23025376445E+03  0.24936258390E+03  0.91833655876E+02 0.  0.
          5    1    3    3  502    0  0.51599920983E+02 -0.75473852308E+01  0.61005955824E+02  0.80366124177E+02  0.41800000000E+01 0.  1.
         -5    1    3    3    0  502 -0.67837312503E+02 -0.14081969172E+02  0.17195537392E+03  0.18543550319E+03  0.41800000000E+01 0.  1.
        -11    1    4    4    0    0  0.37271670863E+02 -0.12377656045E+02  0.18434183378E+03  0.18847889935E+03  0.00000000000E+00 0.  1.
         11    1    4    4    0    0 -0.21034279342E+02  0.34007010448E+02  0.45911930672E+02  0.60883684555E+02  0.00000000000E+00 0. -1.
</event>
<event>
 8    1  0.6684013E-009  0.6842393E+02  0.7561462E-02  0.1365536E+00
          2   -1    0    0  501    0  0.00000000000E+00  0.00000000000E+00  0.85910095250E+03  0.85910095250E+03  0.00000000000E+00 0. -1.
         -2   -1    0    0    0  501 -0.00000000000E+00 -0.00000000000E+00 -0.14681558925E+02  0.14681558925E+02  0.00000000000E+00 0.  1.
         25    2    1    2    0    0 -0.14823353076E+02  0.11387881304E+02  0.57787856611E+03  0.59155779644E+03  0.12509026228E+03 0.  0.
         23    2    1    2    0    0  0.14823353076E+02 -0.11387881304E+02  0.26654082746E+03  0.28222471499E+03  0.90870024802E+02 0.  0.
          5    1    3    3  502    0  0.20855659505E+02  0.30284638289E+01  0.53315454625E+03  0.53358726813E+03  0.41800000000E+01 0.  1.
         -5    1    3    3    0  502 -0.35679012581E+02  0.83594174746E+01  0.44724019861E+02  0.57970528303E+02  0.41800000000E+01 0.  1.
        -11    1    4    4    0    0  0.18554300669E+02 -0.42903863915E+02  0.22576940813E+03  0.23055764845E+03  0.00000000000E+00 0. -1.
         11    1    4    4    0    0 -0.37309475923E+01  0.31515982611E+02  0.40771419332E+02  0.51667066534E+02  0.00000000000E+00 0.  1.
</event>
<event>
 8    1  0.6684013E-009  0.1184149E+03  0.7561462E-02  0.1245735E+00
         -2   -1    0    0    0  501 -0.00000000000E+00  0.00000000000E+00  0.10036993453E+03  0.10036993453E+03  0.00000000000E+00 0.  1.
          2   -1    0    0  501    0  0.00000000000E+00 -0.00000000000E+00 -0.19830865133E+03  0.19830865133E+03  0.00000000000E+00 0. -1.
         25    2    1    2    0    0  0.73607774982E+02 -0.21526834924E+02 -0.10555837602E+03  0.18075271453E+03  0.12508982333E+03 0.  0.
         23    2    1    2    0    0 -0.73607774982E+02  0.21526834924E+02  0.76196592141E+01  0.11792587133E+03  0.89257732231E+02 0.  0.
          5    1    3    3  502    0  0.24200486363E+02 -0.63259296823E+02 -0.15174908632E+02  0.69535260313E+02  0.41800000000E+01 0. -1.
         -5    1    3    3    0  502  0.49407288619E+02  0.41732461899E+02 -0.90383467391E+02  0.11121745422E+03  0.41800000000E+01 0. -1.
        -11    1    4    4    0    0 -0.87758563659E+02  0.18218464305E+02  0.27086329602E+02  0.93633045387E+02  0.00000000000E+00 0.  1.
         11    1    4    4    0    0  0.14150788678E+02  0.33083706187E+01 -0.19466670388E+02  0.24292825944E+02  0.00000000000E+00 0. -1.
</event>
<event>
 8    1  0.6684013E-009  0.1047104E+03  0.7561462E-02  0.1270691E+00
          1   -1    0    0  501    0  0.00000000000E+00  0.00000000000E+00  0.65635990177E+02  0.65635990177E+02  0.00000000000E+00 0. -1.
         -1   -1    0    0    0  501 -0.00000000000E+00 -0.00000000000E+00 -0.24495362304E+03  0.24495362304E+03  0.00000000000E+00 0.  1.
         25    2    1    2    0    0  0.14795494654E+02  0.30063150995E+02 -0.29705236765E+02  0.13286648429E+03  0.12509357237E+03 0.  0.
         23    2    1    2    0    0 -0.14795494654E+02 -0.30063150995E+02 -0.14961239610E+03  0.17772312892E+03  0.89882933744E+02 0.  0.
          5    1    3    3  502    0 -0.54950110811E+02  0.52654737767E+01 -0.13124876011E+02  0.56894416795E+02  0.41800000000E+01 0.  1.
         -5    1    3    3    0  502  0.69745605465E+02  0.24797677218E+02 -0.16580360754E+02  0.75972067497E+02  0.41800000000E+01 0.  1.
        -11    1    4    4    0    0  0.17462663590E+02 -0.42030405811E+02 -0.33208954409E+02  0.56341230775E+02  0.00000000000E+00 0. -1.
         11    1    4    4    0    0 -0.32258158244E+02  0.11967254817E+02 -0.11640344169E+03  0.12138189815E+03  0.00000000000E+00 0.  1.
</event>
<event>
 8    1  0.6684013E-009  0.1558657E+03  0.7561462E-02  0.1193445E+00
          2   -1    0    0  501    0  0.00000000000E+00  0.00000000000E+00  0.18068283261E+03  0.18068283261E+03  0.00000000000E+00 0.  1.
         -2   -1    0    0    0  501 -0.00000000000E+00 -0.00000000000E+00 -0.17908069272E+03  0.17908069272E+03  0.00000000000E+00 0. -1.
         25    2    1    2    0    0 -0.12659171189E+03  0.19397606121E+02 -0.61335054171E+02  0.18923676871E+03  0.12508731798E+03 0.  0.
         23    2    1    2    0    0  0.12659171189E+03 -0.19397606121E+02  0.62937194062E+02  0.17052675661E+03  0.93362496111E+02 0.  0.
          5    1    3    3  502    0 -0.13928775890E+03 -0.15809120350E+02 -0.39478438216E+02  0.14569498121E+03  0.41800000000E+01 0. -1.
         -5    1    3    3    0  502  0.12696047001E+02  0.35206726471E+02 -0.21856615956E+02  0.43541787507E+02  0.41800000000E+01 0. -1.
        -11    1    4    4    0    0  0.70830599020E+02  0.87441606389E+01  0.78565378005E+02  0.10614119240E+03  0.00000000000E+00 0.  1.
         11    1    4    4    0    0  0.55761112874E+02 -0.28141766760E+02 -0.15628183944E+02  0.64385564211E+02  0.00000000000E+00 0. -1.
</event>
<event>
 8    1  0.6684013E-009  0.1407760E+03  0.7561462E-02  0.1212289E+00
         -1   -1    0    0    0  501 -0.00000000000E+00  0.00000000000E+00  0.24278339011E+02  0.24278339011E+02  0.00000000000E+00 0.  1.
          1   -1    0    0  501    0  0.00000000000E+00 -0.00000000000E+00 -0.10177172647E+04  0.10177172647E+04  0.00000000000E+00 0. -1.
         25    2    1    2    0    0  0.10321762818E+03 -0.27953614195E+01 -0.37427993591E+03  0.40791484810E+03  0.12508940829E+03 0.  0.
         23    2    1    2    0    0 -0.10321762818E+03  0.27953614195E+01 -0.61915898978E+03  0.63408075560E+03  0.89659674275E+02 0.  0.
          5    1    3    3  502    0 -0.13568491398E+02 -0.22343674515E+02 -0.16903822716E+02  0.31409479017E+02  0.41800000000E+01 0. -1.
         -5    1    3    3    0  502  0.11678611958E+03  0.19548313096E+02 -0.35737611319E+03  0.37650536909E+03  0.41800000000E+01 0. -1.
        -11    1    4    4    0    0 -0.48578402110E+01 -0.31920498494E+02 -0.15957425179E+03  0.16280804240E+03  0.00000000000E+00 0. -1.
         11    1    4    4    0    0 -0.98359787973E+02  0.34715859913E+02 -0.45958473798E+03  0.47127271320E+03  0.00000000000E+00 0.  1.
</event>
<event>
 8    1  0.6684013E-009  0.1573978E+03  0.7561462E-02  0.1191666E+00
         -2   -1    0    0    0  501 -0.00000000000E+00  0.00000000000E+00  0.74396856684E+02  0.74396856684E+02  0.00000000000E+00 0.  1.
          2   -1    0    0  501    0  0.00000000000E+00 -0.00000000000E+00 -0.62141121080E+03  0.62141121080E+03  0.00000000000E+00 0. -1.
         25    2    1    2    0    0 -0.51608632268E+02  0.13515671164E+03 -0.47260572194E+03  0.50983816394E+03  0.12509195565E+03 0.  0.
         23    2    1    2    0    0  0.51608632268E+02 -0.13515671164E+03 -0.74408632172E+02  0.18596990354E+03  0.90096464174E+02 0.  0.
          5    1    3    3  502    0 -0.73323992415E+02  0.70863112078E+02 -0.15891337682E+03  0.18886217792E+03  0.41800000000E+01 0. -1.
         -5    1    3    3    0  502  0.21715360147E+02  0.64293599562E+02 -0.31369234512E+03  0.32097598602E+03  0.41800000000E+01 0. -1.
        -11    1    4    4    0    0  0.48831260770E+02 -0.12443272630E+03 -0.25829729987E+02  0.13614393249E+03  0.00000000000E+00 0.  1.
         11    1    4    4    0    0  0.27773714975E+01 -0.10723985342E+02 -0.48578902185E+02  0.49825971055E+02  0.00000000000E+00 0. -1.
</event>
<event>
 8    1  0.6684013E-009  0.2194680E+03  0.7561462E-02  0.1134280E+00
         -2   -1    0    0    0  501 -0.00000000000E+00  0.00000000000E+00  0.10537125587E+03  0.10537125587E+03  0.00000000000E+00 0.  1.
          2   -1    0    0  501    0  0.00000000000E+00 -0.00000000000E+00 -0.53596069852E+03  0.53596069852E+03  0.00000000000E+00 0. -1.
         25    2    1    2    0    0 -0.20680775301E+03  0.33206399801E+02 -0.25236458791E+03  0.35100909241E+03  0.12508951208E+03 0.  0.
         23    2    1    2    0    0  0.20680775301E+03 -0.33206399801E+02 -0.17822485474E+03  0.29032286198E+03  0.93011578035E+02 0.  0.
          5    1    3    3  502    0 -0.79668139730E+02  0.34247579368E+02 -0.24782790679E+02  0.90286035988E+02  0.41800000000E+01 0. -1.
         -5    1    3    3    0  502 -0.12713961328E+03 -0.10411795671E+01 -0.22758179723E+03  0.26072305642E+03  0.41800000000E+01 0. -1.
        -11    1    4    4    0    0  0.13407979803E+03  0.18944882591E+02 -0.79294984203E+02  0.15692034710E+03  0.00000000000E+00 0.  1.
         11    1    4    4    0    0  0.72727954987E+02 -0.52151282393E+02 -0.98929870538E+02  0.13340251488E+03  0.00000000000E+00 0. -1.
</event>
<event>
 8    1  0.6684013E-009  0.9793728E+02  0.7561462E-02  0.1284694E+00
          2   -1    0    0  501    0  0.00000000000E+00  0.00000000000E+00  0.73681646366E+03  0.73681646366E+03  0.00000000000E+00 0.  1.
         -2   -1    0    0    0  501 -0.00000000000E+00 -0.00000000000E+00 -0.22215158964E+02  0.22215158964E+02  0.00000000000E+00 0. -1.
         25    2    1    2    0    0 -0.17081837530E+02 -0.25879515554E+02  0.56817453521E+03  0.58260769905E+03  0.12509152661E+03 0.  0.
         23    2    1    2    0    0  0.17081837530E+02  0.25879515554E+02  0.14642676949E+03  0.17642392358E+03  0.93397341983E+02 0.  0.
          5    1    3    3  502    0 -0.43905620153E+02 -0.48900899536E+02  0.51122992519E+03  0.51545369362E+03  0.41800000000E+01 0. -1.
         -5    1    3    3    0  502  0.26823782623E+02  0.23021383981E+02  0.56944610024E+02  0.67154005431E+02  0.41800000000E+01 0. -1.
        -11    1    4    4    0    0 -0.15711026580E+02  0.50842716125E+02  0.57126303870E+02  0.78071971495E+02  0.00000000000E+00 0.  1.
         11    1    4    4    0    0  0.32792864110E+02 -0.24963200571E+02  0.89300465615E+02  0.98351952082E+02  0.00000000000E+00 0. -1.
</event>
<event>
 8    1  0.6684013E-009  0.1109204E+03  0.7561462E-02  0.1258875E+00
         -1   -1    0    0    0  501 -0.00000000000E+00  0.00000000000E+00  0.18981595509E+03  0.18981595509E+03  0.00000000000E+00 0.  1.
          1   -1    0    0  501    0  0.00000000000E+00 -0.00000000000E+00 -0.91124180669E+02  0.91124180669E+02  0.00000000000E+00 0. -1.
         25    2    1    2    0    0  0.51601257950E+02 -0.45788798192E+02  0.78943623876E+02  0.16321394400E+03  0.12508953555E+03 0.  0.
         23    2    1    2    0    0 -0.51601257950E+02  0.45788798192E+02  0.19748150548E+02  0.11772619176E+03  0.93328253572E+02 0.  0.
          5    1    3    3  502    0  0.62922192782E+02 -0.34351914228E+01  0.96892497499E+02  0.11565738782E+03  0.41800000000E+01 0.  1.
         -5    1    3    3    0  502 -0.11320934832E+02 -0.42353606769E+02 -0.17948873624E+02  0.47556556185E+02  0.41800000000E+01 0.  1.
        -11    1    4    4    0    0 -0.59658571839E+02  0.68330059961E+02  0.22970246829E+02  0.93572295726E+02  0.00000000000E+00 0.  1.
         11    1    4    4    0    0  0.80573138888E+01 -0.22541261769E+02 -0.32220962818E+01  0.24153896035E+02  0.00000000000E+00 0. -1.
</event>
<event>
 8    1  0.6684013E-009  0.1425336E+03  0.7561462E-02  0.1209960E+00
         -2   -1    0    0    0  501 -0.00000000000E+00  0.00000000000E+00  0.60412938179E+03  0.60412938179E+03  0.00000000000E+00 0.  1.
          2   -1    0    0  501    0  0.00000000000E+00 -0.00000000000E+00 -0.36320292677E+02  0.36320292677E+02  0.00000000000E+00 0. -1.
         25    2    1    2    0    0  0.81750976067E+02  0.56151474516E+02  0.26631556439E+03  0.31047442928E+03  0.12503671951E+03 0.  0.
         23    2    1    2    0    0 -0.81750976067E+02 -0.56151474516E+02  0.30149352473E+03  0.32997524519E+03  0.90272403343E+02 0.  0.
          5    1    3    3  502    0  0.90120458864E+02 -0.99030334141E+01  0.12801384163E+03  0.15692285757E+03  0.41800000000E+01 0. -1.
         -5    1    3    3    0  502 -0.83694827971E+01  0.66054507930E+02  0.13830172275E+03  0.15355157171E+03  0.41800000000E+01 0. -1.
        -11    1    4    4    0    0 -0.40718356687E+02  0.16677709180E+02  0.15694052735E+03  0.16299220742E+03  0.00000000000E+00 0.  1.
         11    1    4    4    0    0 -0.41032619380E+02 -0.72829183695E+02  0.14455299738E+03  0.16698303777E+03  0.00000000000E+00 0. -1.
</event>
<event>
 8    1  0.6684013E-009  0.1318313E+03  0.7561462E-02  0.1224763E+00
         -2   -1    0    0    0  501 -0.00000000000E+00  0.00000000000E+00  0.97182735737E+03  0.97182735737E+03  0.00000000000E+00 0.  1.
          2   -1    0    0  501    0  0.00000000000E+00 -0.00000000000E+00 -0.38787215804E+02  0.38787215804E+02  0.00000000000E+00 0. -1.
         25    2    1    2    0    0 -0.88908814587E+02 -0.40788695180E+02  0.15825286929E+03  0.22418674759E+03  0.12508889716E+03 0.  0.
         23    2    1    2    0    0  0.88908814587E+02  0.40788695180E+02  0.77478727228E+03  0.78642782559E+03  0.92762668154E+02 0.  0.
          5    1    3    3  502    0 -0.10228404684E+03 -0.20828327531E+02  0.54936804798E+02  0.11803122632E+03  0.41800000000E+01 0. -1.
         -5    1    3    3    0  502  0.13375232251E+02 -0.19960367649E+02  0.10331606449E+03  0.10615552127E+03  0.41800000000E+01 0. -1.
        -11    1    4    4    0    0  0.68045397803E+02 -0.19685403334E+02  0.40881459974E+03  0.41490609567E+03  0.00000000000E+00 0.  1.
         11    1    4    4    0    0  0.20863416783E+02  0.60474098514E+02  0.36597267254E+03  0.37152172992E+03  0.00000000000E+00 0. -1.
</event>
<event>
 8    1  0.6684013E-009  0.1045267E+03  0.7561462E-02  0.1271055E+00
         -1   -1    0    0    0  501 -0.00000000000E+00  0.00000000000E+00  0.29191523136E+03  0.29191523136E+03  0.00000000000E+00 0.  1.
          1   -1    0    0  501    0  0.00000000000E+00 -0.00000000000E+00 -0.16876962046E+03  0.16876962046E+03  0.00000000000E+00 0. -1.
         25    2    1    2    0    0  0.34328496802E+02  0.59674935284E+02 -0.12338936090E+03  0.18871452001E+03  0.12509473245E+03 0.  0.
         23    2    1    2    0    0 -0.34328496802E+02 -0.59674935284E+02  0.24653497180E+03  0.27197033181E+03  0.91917492718E+02 0.  0.
          5    1    3    3  502    0 -0.44813188147E+02  0.35528462720E+02 -0.68502386467E+02  0.89333884091E+02  0.41800000000E+01 0. -1.
         -5    1    3    3    0  502  0.79141684948E+02  0.24146472564E+02 -0.54886974437E+02  0.99380635923E+02  0.41800000000E+01 0. -1.
        -11    1    4    4    0    0 -0.12158449545E+02 -0.19585414896E+02  0.19530549172E+01  0.23135055554E+02  0.00000000000E+00 0. -1.
         11    1    4    4    0    0 -0.22170047256E+02 -0.40089520388E+02  0.24458191689E+03  0.24883527625E+03  0.00000000000E+00 0.  1.
</event>
<event>
 8    1  0.6684013E-009  0.1664994E+03  0.7561462E-02  0.1181548E+00
          1   -1    0    0  501    0  0.00000000000E+00  0.00000000000E+00  0.70895573328E+03  0.70895573328E+03  0.00000000000E+00 0. -1.
         -1   -1    0    0    0  501 -0.00000000000E+00 -0.00000000000E+00 -0.52190624739E+02  0.52190624739E+02  0.00000000000E+00 0.  1.
         25    2    1    2    0    0  0.90630343383E+02  0.11454988291E+03  0.22384830188E+03  0.29511055751E+03  0.12508654638E+03 0.  0.
         23    2    1    2    0    0 -0.90630343383E+02 -0.11454988291E+03  0.43291680666E+03  0.46603580051E+03  0.91852441713E+02 0.  0.
          5    1    3    3  502    0  0.10440769691E+03  0.10639684775E+03  0.12412827589E+03  0.19402720856E+03  0.41800000000E+01 0.  1.
         -5    1    3    3    0  502 -0.13777353525E+02  0.81530351563E+01  0.99720025995E+02  0.10108334896E+03  0.41800000000E+01 0.  1.
        -11    1    4    4    0    0 -0.23806764780E+02 -0.94656900641E+02  0.30651535802E+03  0.32168051789E+03  0.00000000000E+00 0.  1.
         11    1    4    4    0    0 -0.66823578603E+02 -0.19892982267E+02  0.12640144864E+03  0.14435528262E+03  0.00000000000E+00 0. -1.
</event>
<event>
 8    1  0.6684013E-009  0.1142496E+03  0.7561462E-02  0.1252897E+00
         -2   -1    0    0    0  501 -0.00000000000E+00  0.00000000000E+00  0.28075706659E+03  0.28075706659E+03  0.00000000000E+00 0.  1.
          2   -1    0    0  501    0  0.00000000000E+00 -0.00000000000E+00 -0.83610925036E+02  0.83610925036E+02  0.00000000000E+00 0. -1.
         25    2    1    2    0    0 -0.20786052902E+02  0.33810463615E+02 -0.13238363496E+02  0.13190090880E+03  0.12508952006E+03 0.  0.
         23    2    1    2    0    0  0.20786052902E+02 -0.33810463615E+02  0.21038450505E+03  0.23246708283E+03  0.90576471484E+02 0.  0.
          5    1    3    3  502    0  0.49291288310E+02  0.35111104356E+02 -0.12780550652E+01  0.60675584687E+02  0.41800000000E+01 0.  1.
         -5    1    3    3    0  502 -0.70077341212E+02 -0.13006407408E+01 -0.11960308431E+02  0.71225324116E+02  0.41800000000E+01 0.  1.
        -11    1    4    4    0    0  0.39484756170E+02  0.17367962538E+02  0.74846162099E+02  0.86386573456E+02  0.00000000000E+00 0.  1.
         11    1    4    4    0    0 -0.18698703268E+02 -0.51178426153E+02  0.13553834295E+03  0.14608050937E+03  0.00000000000E+00 0. -1.
</event>
<event>
 8    1  0.6684013E-009  0.1023250E+03  0.7561462E-02  0.1275481E+00
          1   -1    0    0  501    0  0.00000000000E+00  0.00000000000E+00  0.13478161253E+03  0.13478161253E+03  0.00000000000E+00 0. -1.
         -1   -1    0    0    0  501 -0.00000000000E+00 -0.00000000000E+00 -0.15864155293E+03  0.15864155293E+03  0.00000000000E+00 0.  1.
         25    2    1    2    0    0  0.34161692343E+00  0.95323318635E+02 -0.35308424602E+02  0.16118627209E+03  0.12509067785E+03 0.  0.
         23    2    1    2    0    0 -0.34161692343E+00 -0.95323318635E+02  0.11448484210E+02  0.13223689337E+03  0.90933362411E+02 0.  0.
          5    1    3    3  502    0 -0.27861742731E+00  0.17854455957E+02  0.45564136759E+02  0.49116414606E+02  0.41800000000E+01 0. -1.
         -5    1    3    3    0  502  0.62023435075E+00  0.77468862679E+02 -0.80872561361E+02  0.11206985748E+03  0.41800000000E+01 0. -1.
        -11    1    4    4    0    0  0.25961080724E+02 -0.49283202652E+02  0.43148322433E+02  0.70459843207E+02  0.00000000000E+00 0. -1.
         11    1    4    4    0    0 -0.26302697648E+02 -0.46040115984E+02 -0.31699838223E+02  0.61777050162E+02  0.00000000000E+00 0.  1.
</event>
<event>
 8    1  0.6684013E-009  0.9886935E+02  0.7561462E-02  0.1282692E+00
         -1   -1    0    0    0  501 -0.00000000000E+00  0.00000000000E+00  0.33608869572E+03  0.33608869572E+03  0.00000000000E+00 0.  1.
          1   -1    0    0  501    0  0.00000000000E+00 -0.00000000000E+00 -0.72208304334E+02  0.72208304334E+02  0.00000000000E+00 0. -1.
         25    2    1    2    0    0  0.61083423248E+02 -0.63181893177E+02  0.22493948451E+03  0.27197326829E+03  0.12509416754E+03 0.  0.
         23    2    1    2    0    0 -0.61083423248E+02  0.63181893177E+02  0.38940906880E+02  0.13632373177E+03  0.96667623291E+02 0.  0.
          5    1    3    3  502    0 -0.38432350437E+01 -0.11594224499E+02  0.17417511143E+03  0.17465290819E+03  0.41800000000E+01 0.  1.
         -5    1    3    3    0  502  0.64926658291E+02 -0.51587668678E+02  0.50764373079E+02  0.97320360103E+02  0.41800000000E+01 0.  1.
        -11    1    4    4    0    0  0.93045377444E+01  0.56248621455E+01  0.43936738913E+02  0.45262020759E+02  0.00000000000E+00 0.  1.
         11    1    4    4    0    0 -0.70387960992E+02  0.57557031031E+02 -0.49958320332E+01  0.91061711007E+02  0.00000000000E+00 0. -1.
</event>
<event>
 8    1  0.6684013E-009  0.1032280E+03  0.7561462E-02  0.1273651E+00
          2   -1    0    0  501    0  0.00000000000E+00  0.00000000000E+00  0.21533235819E+02  0.21533235819E+02  0.00000000000E+00 0. -1.
         -2   -1    0    0    0  501 -0.00000000000E+00 -0.00000000000E+00 -0.60293335091E+03  0.60293335091E+03  0.00000000000E+00 0.  1.
         25    2    1    2    0    0 -0.28311426664E+02  0.83430290331E+01 -0.27619486658E+03  0.30463446523E+03  0.12508960816E+03 0.  0.
         23    2    1    2    0    0  0.28311426664E+02 -0.83430290331E+01 -0.30520524851E+03  0.31983212149E+03  0.90946133553E+02 0.  0.
          5    1    3    3  502    0 -0.34161528496E+01  0.56346713883E+02 -0.21738256051E+03  0.22463141427E+03  0.41800000000E+01 0.  1.
         -5    1    3    3    0  502 -0.24895273814E+02 -0.48003684850E+02 -0.58812306074E+02  0.80003050962E+02  0.41800000000E+01 0.  1.
        -11    1    4    4    0    0  0.27672090711E+02 -0.48293239507E+02 -0.17829338469E+03  0.18677931526E+03  0.00000000000E+00 0. -1.
         11    1    4    4    0    0  0.63933595224E+00  0.39950210474E+02 -0.12691186382E+03  0.13305280623E+03  0.00000000000E+00 0.  1.
</event>
<event>
 8    1  0.6684013E-009  0.1442714E+03  0.7561462E-02  0.1207694E+00
          1   -1    0    0  501    0  0.00000000000E+00  0.00000000000E+00  0.72384533589E+03  0.72384533589E+03  0.00000000000E+00 0. -1.
         -1   -1    0    0    0  501 -0.00000000000E+00 -0.00000000000E+00 -0.32495956828E+02  0.32495956828E+02  0.00000000000E+00 0.  1.
         25    2    1    2    0    0  0.53614743243E+02 -0.94307746642E+02  0.35503615114E+03  0.39174807066E+03  0.12508952986E+03 0.  0.
         23    2    1    2    0    0 -0.53614743243E+02  0.94307746642E+02  0.33631322792E+03  0.36459322205E+03  0.89739280841E+02 0.  0.
          5    1    3    3  502    0 -0.71783229443E+01  0.25757642371E+02  0.96877996442E+02  0.10058729072E+03  0.41800000000E+01 0. -1.
         -5    1    3    3    0  502  0.60793066187E+02 -0.12006538901E+03  0.25815815470E+03  0.29116077994E+03  0.41800000000E+01 0. -1.
        -11    1    4    4    0    0 -0.22896332676E+02  0.93333757845E+02  0.30857364095E+03  0.32319208575E+03  0.00000000000E+00 0. -1.
         11    1    4    4    0    0 -0.30718410566E+02  0.97398879742E+00  0.27739586963E+02  0.41401136298E+02  0.00000000000E+00 0.  1.
</event>
<event>
 8    1  0.6684013E-009  0.1188132E+03  0.7561462E-02  0.1245068E+00
         -1   -1    0    0    0  501 -0.00000000000E+00  0.00000000000E+00  0.43467472306E+02  0.43467472306E+02  0.00000000000E+00 0.  1.
          1   -1    0    0  501    0  0.00000000000E+00 -0.00000000000E+00 -0.50429935608E+03  0.50429935608E+03  0.00000000000E+00 0. -1.
         25    2    1    2    0    0 -0.21334365980E+01  0.90331409443E+02 -0.33045751584E+03  0.36471126979E+03  0.12509126850E+03 0.  0.
         23    2    1    2    0    0  0.21334365980E+01 -0.90331409443E+02 -0.13037436793E+03  0.18305555859E+03  0.91364909207E+02 0.  0.
          5    1    3    3  502    0 -0.55268621916E+02  0.34002683987E+02 -0.22237121592E+03  0.23168347623E+03  0.41800000000E+01 0.  1.
         -5    1    3    3    0  502  0.53135185318E+02  0.56328725456E+02 -0.10808629992E+03  0.13302779356E+03  0.41800000000E+01 0.  1.
        -11    1    4    4    0    0  0.11169822883E+02 -0.12765573566E+02  0.11926729371E+02  0.20735758612E+02  0.00000000000E+00 0.  1.
         11    1    4    4    0    0 -0.90363862854E+01 -0.77565835877E+02 -0.14230109730E+03  0.16231979998E+03  0.00000000000E+00 0. -1.
</event>
<event>
 8    1  0.6684013E-009  0.1455173E+03  0.7561462E-02  0.1206092E+00
         -2   -1    0    0    0  501 -0.00000000000E+00  0.00000000000E+00  0.10850178530E+03  0.10850178530E+03  0.00000000000E+00 0.  1.
          2   -1    0    0  501    0  0.00000000000E+00 -0.00000000000E+00 -0.30485828966E+03  0.30485828966E+03  0.00000000000E+00 0. -1.
         25    2    1    2    0    0  0.12618180367E+03  0.23253740921E+02 -0.17924993721E+03  0.25345761028E+03  0.12509051193E+03 0.  0.
         23    2    1    2    0    0 -0.12618180367E+03 -0.23253740921E+02 -0.17106567142E+02  0.15990246468E+03  0.93880666422E+02 0.  0.
          5    1    3    3  502    0  0.42050761474E+02  0.55539993964E+02 -0.23812425575E+02  0.73739144841E+02  0.41800000000E+01 0.  1.
         -5    1    3    3    0  502  0.84131042195E+02 -0.32286253043E+02 -0.15543751164E+03  0.17971846544E+03  0.41800000000E+01 0.  1.
        -11    1    4    4    0    0 -0.87735499529E+02 -0.28465899086E+02  0.31718566457E+02  0.97539185697E+02  0.00000000000E+00 0.  1.
         11    1    4    4    0    0 -0.38446304140E+02  0.52121581651E+01 -0.48825133599E+02  0.62363278984E+02  0.00000000000E+00 0. -1.
</event>
<event>
 8    1  0.6684013E-009  0.1179405E+03  0.7561462E-02  0.1246534E+00
         -1   -1    0    0    0  501 -0.00000000000E+00  0.00000000000E+00  0.10458310310E+02  0.10458310310E+02  0.00000000000E+00 0.  1.
          1   -1    0    0  501    0  0.00000000000E+00 -0.00000000000E+00 -0.13654769752E+04  0.13654769752E+04  0.00000000000E+00 0. -1.
         25    2    1    2    0    0 -0.40625940300E+02  0.29230205007E+02 -0.79686914737E+03  0.80817701597E+03  0.12507909175E+03 0.  0.
         23    2    1    2    0    0  0.40625940300E+02 -0.29230205007E+02 -0.55814951748E+03  0.56775826951E+03  0.91179475860E+02 0.  0.
          5    1    3    3  502    0  0.38211565899E+02  0.36238221187E+02 -0.24382638608E+03  0.24948368963E+03  0.41800000000E+01 0. -1.
         -5    1    3    3    0  502 -0.78837506199E+02 -0.70080161802E+01 -0.55304276129E+03  0.55869332633E+03  0.41800000000E+01 0. -1.
        -11    1    4    4    0    0 -0.29255426767E+02 -0.13212572377E+02 -0.19005723535E+03  0.19274907204E+03  0.00000000000E+00 0. -1.
         11    1    4    4    0    0  0.69881367067E+02 -0.16017632630E+02 -0.36809228214E+03  0.37500919747E+03  0.00000000000E+00 0.  1.
</event>
<event>
 8    1  0.6684013E-009  0.2586227E+03  0.7561462E-02  0.1107974E+00
         -3   -1    0    0    0  501 -0.00000000000E+00  0.00000000000E+00  0.51621901614E+03  0.51621901614E+03  0.00000000000E+00 0.  1.
          3   -1    0    0  501    0  0.00000000000E+00 -0.00000000000E+00 -0.16684445308E+03  0.16684445308E+03  0.00000000000E+00 0. -1.
         25    2    1    2    0    0  0.24578462439E+03 -0.28391541278E+02  0.46052376346E+02  0.28104269971E+03  0.12509203209E+03 0.  0.
         23    2    1    2    0    0 -0.24578462439E+03  0.28391541278E+02  0.30332218671E+03  0.40202076951E+03  0.91652544781E+02 0.  0.
          5    1    3    3  502    0  0.64101224995E+02  0.16343369418E+02  0.65116575548E+02  0.92917778605E+02  0.41800000000E+01 0. -1.
         -5    1    3    3    0  502  0.18168339939E+03 -0.44734910696E+02 -0.19064199202E+02  0.18812492111E+03  0.41800000000E+01 0. -1.
        -11    1    4    4    0    0 -0.22112916930E+03  0.54653702932E+02  0.25934889300E+03  0.34517674467E+03  0.00000000000E+00 0.  1.
         11    1    4    4    0    0 -0.24655455085E+02 -0.26262161654E+02  0.43973293710E+02  0.56844024839E+02  0.00000000000E+00 0. -1.
</event>
<event>
 8    1  0.6684013E-009  0.1748732E+03  0.7561462E-02  0.1172859E+00
         -2   -1    0    0    0  501 -0.00000000000E+00  0.00000000000E+00  0.26752304693E+03  0.26752304693E+03  0.00000000000E+00 0.  1.
          2   -1    0    0  501    0  0.00000000000E+00 -0.00000000000E+00 -0.14268505249E+03  0.14268505249E+03  0.00000000000E+00 0. -1.
         25    2    1    2    0    0 -0.12131016928E+03 -0.71146584404E+02  0.15135577154E+03  0.24152523139E+03  0.12509146323E+03 0.  0.
         23    2    1    2    0    0  0.12131016928E+03  0.71146584404E+02 -0.26517777088E+02  0.16868286803E+03  0.89290110438E+02 0.  0.
          5    1    3    3  502    0 -0.94372511679E+02  0.15379197459E+02  0.61053485439E+02  0.11352396733E+03  0.41800000000E+01 0.  1.
         -5    1    3    3    0  502 -0.26937657606E+02 -0.86525781863E+02  0.90302286098E+02  0.12800126405E+03  0.41800000000E+01 0.  1.
        -11    1    4    4    0    0  0.66908218034E+02  0.84028671487E+02 -0.33083300703E+02  0.11239231316E+03  0.00000000000E+00 0.  1.
         11    1    4    4    0    0  0.54401951251E+02 -0.12882087083E+02  0.65655236144E+01  0.56290554872E+02  0.00000000000E+00 0. -1.
</event>
<event>
 8    1  0.6684013E-009  0.1437787E+03  0.7561462E-02  0.1208333E+00
          2   -1    0    0  501    0  0.00000000000E+00  0.00000000000E+00  0.97050179962E+02  0.97050179962E+02  0.00000000000E+00 0.  1.
         -2   -1    0    0    0  501 -0.00000000000E+00 -0.00000000000E+00 -0.31710146593E+03  0.31710146593E+03  0.00000000000E+00 0. -1.
         25    2    1    2    0    0 -0.52024879518E+02 -0.10838068549E+03 -0.37658222946E+02  0.17753765685E+03  0.12509403171E+03 0.  0.
         23    2    1    2    0    0  0.52024879518E+02  0.10838068549E+03 -0.18239306302E+03  0.23661398904E+03  0.90917486190E+02 0.  0.
          5    1    3    3  502    0 -0.63842476800E+02 -0.44636169765E+02 -0.70138458462E+02  0.10490531565E+03  0.41800000000E+01 0. -1.
         -5    1    3    3    0  502  0.11817597282E+02 -0.63744515721E+02  0.32480235516E+02  0.72632341207E+02  0.41800000000E+01 0. -1.
        -11    1    4    4    0    0  0.65045643008E+02  0.11331478509E+03 -0.13778782615E+03  0.18988591635E+03  0.00000000000E+00 0.  1.
         11    1    4    4    0    0 -0.13020763491E+02 -0.49340995988E+01 -0.44605236873E+02  0.46728072689E+02  0.00000000000E+00 0. -1.
</event>
<event>
 8    1  0.6684013E-009  0.1159190E+03  0.7561462E-02  0.1249985E+00
          2   -1    0    0  501    0  0.00000000000E+00  0.00000000000E+00  0.37348433229E+03  0.37348433229E+03  0.00000000000E+00 0. -1.
         -2   -1    0    0    0  501 -0.00000000000E+00 -0.00000000000E+00 -0.54510729145E+02  0.54510729145E+02  0.00000000000E+00 0.  1.
         25    2    1    2    0    0  0.16215715180E+02 -0.82888797814E+02  0.11770898988E+03  0.19140658858E+03  0.12509026194E+03 0.  0.
         23    2    1    2    0    0 -0.16215715180E+02  0.82888797814E+02  0.20126461327E+03  0.23658847285E+03  0.91286136468E+02 0.  0.
          5    1    3    3  502    0  0.50997269217E+02 -0.78043998977E+02  0.12429895496E+03  0.15543258940E+03  0.41800000000E+01 0.  1.
         -5    1    3    3    0  502 -0.34781554037E+02 -0.48447988373E+01 -0.65899650862E+01  0.35973999177E+02  0.41800000000E+01 0.  1.
        -11    1    4    4    0    0 -0.25053863638E+02  0.60091864869E+01  0.12610825457E+03  0.12871324048E+03  0.00000000000E+00 0. -1.
         11    1    4    4    0    0  0.88381484576E+01  0.76879611328E+02  0.75156358701E+02  0.10787523237E+03  0.00000000000E+00 0.  1.
</event>
<event>
 8    1  0.6684013E-009  0.1457871E+03  0.7561462E-02  0.1205747E+00
          1   -1    0    0  501    0  0.00000000000E+00  0.00000000000E+00  0.78765150266E+02  0.78765150266E+02  0.00000000000E+00 0.  1.
         -1   -1    0    0    0  501 -0.00000000000E+00 -0.00000000000E+00 -0.35809988566E+03  0.35809988566E+03  0.00000000000E+00 0. -1.
         25    2    1    2    0    0 -0.60106762675E+02 -0.10992111263E+03 -0.18795517913E+03  0.25821151551E+03  0.12510221204E+03 0.  0.
         23    2    1    2    0    0  0.60106762675E+02  0.10992111263E+03 -0.91379556262E+02  0.17865352042E+03  0.88720815679E+02 0.  0.
          5    1    3    3  502    0 -0.34618862722E+02  0.15422557384E+02 -0.87736131826E+02  0.95663065810E+02  0.41800000000E+01 0.  1.
         -5    1    3    3    0  502 -0.25487899953E+02 -0.12534367001E+03 -0.10021904731E+03  0.16254844970E+03  0.41800000000E+01 0.  1.
        -11    1    4    4    0    0  0.29607313534E+02  0.47056989182E+02  0.90304100752E+01  0.56324963841E+02  0.00000000000E+00 0.  1.
         11    1    4    4    0    0  0.30499449140E+02  0.62864123447E+02 -0.10040996634E+03  0.12232855658E+03  0.00000000000E+00 0. -1.
</event>
<event>
 8    1  0.6684013E-009  0.1060737E+03  0.7561462E-02  0.1268019E+00
          2   -1    0    0  501    0  0.00000000000E+00  0.00000000000E+00  0.22433613848E+03  0.22433613848E+03  0.00000000000E+00 0.  1.
         -2   -1    0    0    0  501 -0.00000000000E+00 -0.00000000000E+00 -0.84922548716E+02  0.84922548716E+02  0.00000000000E+00 0. -1.
         25    2    1    2    0    0  0.11344808349E+02 -0.81977432469E+02  0.78099313045E+02  0.16910229516E+03  0.12508828650E+03 0.  0.
         23    2    1    2    0    0 -0.11344808349E+02  0.81977432469E+02  0.61314276723E+02  0.14015639204E+03  0.95054561122E+02 0.  0.
          5    1    3    3  502    0  0.17567015877E+02 -0.19550874355E+01 -0.29594295464E+02  0.34723437873E+02  0.41800000000E+01 0. -1.
         -5    1    3    3    0  502 -0.62222075275E+01 -0.80022345033E+02  0.10769360851E+03  0.13437885728E+03  0.41800000000E+01 0. -1.
        -11    1    4    4    0    0  0.33011360382E+02  0.25028069446E+02 -0.55068926794E+01  0.41790908598E+02  0.00000000000E+00 0. -1.
         11    1    4    4    0    0 -0.44356168731E+02  0.56949363023E+02  0.66821169402E+02  0.98365483446E+02  0.00000000000E+00 0.  1.
</event>
<event>
 8    1  0.6684013E-009  0.1255471E+03  0.7561462E-02  0.1234217E+00
         -1   -1    0    0    0  501 -0.00000000000E+00  0.00000000000E+00  0.48676776697E+03  0.48676776697E+03  0.00000000000E+00 0.  1.
          1   -1    0    0  501    0  0.00000000000E+00 -0.00000000000E+00 -0.52597452373E+02  0.52597452373E+02  0.00000000000E+00 0. -1.
         25    2    1    2    0    0 -0.46917096708E+01  0.11324101729E+03  0.28290969416E+03  0.32945447299E+03  0.12512719365E+03 0.  0.
         23    2    1    2    0    0  0.46917096708E+01 -0.11324101729E+03  0.15126062044E+03  0.20991074635E+03  0.91308301918E+02 0.  0.
          5    1    3    3  502    0 -0.57918477019E+01  0.57239833110E+02  0.26394004644E+03  0.27016988083E+03  0.41800000000E+01 0. -1.
         -5    1    3    3    0  502  0.11001380311E+01  0.56001184182E+02  0.18969647719E+02  0.59284592164E+02  0.41800000000E+01 0. -1.
        -11    1    4    4    0    0  0.34863213791E+02 -0.96790797746E+02  0.78378523632E+02  0.12933327171E+03  0.00000000000E+00 0. -1.
         11    1    4    4    0    0 -0.30171504120E+02 -0.16450219547E+02  0.72882096810E+02  0.80577474640E+02  0.00000000000E+00 0.  1.
</event>
<event>
 8    1  0.6684013E-009  0.8607470E+02  0.7561462E-02  0.1312646E+00
          2   -1    0    0  501    0  0.00000000000E+00  0.00000000000E+00  0.89316039477E+03  0.89316039477E+03  0.00000000000E+00 0. -1.
         -2   -1    0    0    0  501 -0.00000000000E+00 -0.00000000000E+00 -0.14669102786E+02  0.14669102786E+02  0.00000000000E+00 0.  1.
         25    2    1    2    0    0 -0.13620844456E+02  0.10154894893E+02  0.62694485565E+03  0.63952841203E+03  0.12509231979E+03 0.  0.
         23    2    1    2    0    0  0.13620844456E+02 -0.10154894893E+02  0.25154643633E+03  0.26830108553E+03  0.91767170433E+02 0.  0.
          5    1    3    3  502    0 -0.48474708811E+02 -0.19505395058E+02  0.52610818409E+03  0.52871310897E+03  0.41800000000E+01 0. -1.
         -5    1    3    3    0  502  0.34853864355E+02  0.29660289951E+02  0.10083667157E+03  0.11081530307E+03  0.41800000000E+01 0. -1.
        -11    1    4    4    0    0  0.84515754218E+00 -0.40677170693E+02  0.51976818015E+02  0.66007091421E+02  0.00000000000E+00 0.  1.
         11    1    4    4    0    0  0.12775686914E+02  0.30522275800E+02  0.19956961832E+03  0.20229399411E+03  0.00000000000E+00 0. -1.
</event>
<event>
 8    1  0.6684013E-009  0.1368511E+03  0.7561462E-02  0.1217630E+00
         -1   -1    0    0    0  501 -0.00000000000E+00  0.00000000000E+00  0.22317023957E+03  0.22317023957E+03  0.00000000000E+00 0.  1.
          1   -1    0    0  501    0  0.00000000000E+00 -0.00000000000E+00 -0.99530325454E+02  0.99530325454E+02  0.00000000000E+00 0. -1.
         25    2    1    2    0    0 -0.85789659248E+02  0.57648112312E+02  0.70090415724E+02  0.17676237995E+03  0.12509637126E+03 0.  0.
         23    2    1    2    0    0  0.85789659248E+02 -0.57648112312E+02  0.53549498392E+02  0.14593818507E+03  0.88018376472E+02 0.  0.
          5    1    3    3  502    0  0.28598259817E+02 -0.83624653821E+01  0.11301789602E+02  0.32140226197E+02  0.41800000000E+01 0. -1.
         -5    1    3    3    0  502 -0.11438791906E+03  0.66010577694E+02  0.58788626121E+02  0.14462215376E+03  0.41800000000E+01 0. -1.
        -11    1    4    4    0    0  0.18419917087E+02  0.54158258227E+01  0.50033087335E+02  0.53590431451E+02  0.00000000000E+00 0.  1.
         11    1    4    4    0    0  0.67369742161E+02 -0.63063938135E+02  0.35164110569E+01  0.92347753620E+02  0.00000000000E+00 0. -1.
</event>
<event>
 8    1  0.6684013E-009  0.1423812E+03  0.7561462E-02  0.1210160E+00
         -2   -1    0    0    0  501 -0.00000000000E+00  0.00000000000E+00  0.76647766746E+02  0.76647766746E+02  0.00000000000E+00 0.  1.
          2   -1    0    0  501    0  0.00000000000E+00 -0.00000000000E+00 -0.42528468787E+03  0.42528468787E+03  0.00000000000E+00 0. -1.
         25    2    1    2    0    0 -0.10344819609E+03 -0.69717727961E+02 -0.83665747036E+02  0.19546297646E+03  0.12507488586E+03 0.  0.
         23    2    1    2    0    0  0.10344819609E+03  0.69717727961E+02 -0.26497117409E+03  0.30646947816E+03  0.90286915301E+02 0.  0.
          5    1    3    3  502    0 -0.46083800636E+02 -0.37994822317E+01 -0.96456890208E+02  0.10704931954E+03  0.41800000000E+01 0.  1.
         -5    1    3    3    0  502 -0.57364395458E+02 -0.65918245730E+02  0.12791143171E+02  0.88413656920E+02  0.41800000000E+01 0.  1.
        -11    1    4    4    0    0  0.48470377488E+02 -0.14217381082E+02 -0.11963681851E+03  0.12986331184E+03  0.00000000000E+00 0. -1.
         11    1    4    4    0    0  0.54977818606E+02  0.83935109043E+02 -0.14533435558E+03  0.17660616632E+03  0.00000000000E+00 0.  1.
</event>
<event>
 8    1  0.6684013E-009  0.9836767E+02  0.7561462E-02  0.1283766E+00
          1   -1    0    0  501    0  0.00000000000E+00  0.00000000000E+00  0.13853205081E+03  0.13853205081E+03  0.00000000000E+00 0. -1.
         -1   -1    0    0    0  501 -0.00000000000E+00 -0.00000000000E+00 -0.12135238123E+03  0.12135238123E+03  0.00000000000E+00 0.  1.
         25    2    1    2    0    0  0.61645473300E+02  0.19971414044E+02 -0.13169199136E+02  0.14148967162E+03  0.12508747983E+03 0.  0.
         23    2    1    2    0    0 -0.61645473300E+02 -0.19971414044E+02  0.30348868710E+02  0.11839476043E+03  0.94325201869E+02 0.  0.
          5    1    3    3  502    0  0.73348341498E+02  0.11069861265E+02  0.41239346406E+02  0.84974567494E+02  0.41800000000E+01 0.  1.
         -5    1    3    3    0  502 -0.11702868197E+02  0.89015527795E+01 -0.54408545541E+02  0.56515104121E+02  0.41800000000E+01 0.  1.
        -11    1    4    4    0    0 -0.82960497831E+02 -0.98074884371E+01  0.49061905306E+01  0.83682147052E+02  0.00000000000E+00 0.  1.
         11    1    4    4    0    0  0.21315024530E+02 -0.10163925607E+02  0.25442678180E+02  0.34712613376E+02  0.00000000000E+00 0. -1.
</event>
<event>
 8    1  0.6684013E-009  0.1288644E+03  0.7561462E-02  0.1229150E+00
         -2   -1    0    0    0  501 -0.00000000000E+00  0.00000000000E+00  0.31396787874E+02  0.31396787874E+02  0.00000000000E+00 0.  1.
          2   -1    0    0  501    0  0.00000000000E+00 -0.00000000000E+00 -0.63241771818E+03  0.63241771818E+03  0.00000000000E+00 0. -1.
         25    2    1    2    0    0  0.72098904085E+02  0.44586272824E+02 -0.25797526716E+03  0.29897387707E+03  0.12509177832E+03 0.  0.
         23    2    1    2    0    0 -0.72098904085E+02 -0.44586272824E+02 -0.34304566315E+03  0.36484062899E+03  0.90786396926E+02 0.  0.
          5    1    3    3  502    0  0.56110368774E+02  0.83362356222E+02 -0.13080570148E+03  0.16500078745E+03  0.41800000000E+01 0. -1.
         -5    1    3    3    0  502  0.15988535311E+02 -0.38776083399E+02 -0.12716956569E+03  0.13397308962E+03  0.41800000000E+01 0. -1.
        -11    1    4    4    0    0  0.16955265618E+02 -0.71314456010E+01 -0.17978405293E+02  0.25720839905E+02  0.00000000000E+00 0.  1.
         11    1    4    4    0    0 -0.89054169703E+02 -0.37454827223E+02 -0.32506725785E+03  0.33911978909E+03  0.00000000000E+00 0. -1.
</event>
<event>
 8    1  0.6684013E-009  0.1516612E+03  0.7561462E-02  0.1198446E+00
         -1   -1    0    0    0  501 -0.00000000000E+00  0.00000000000E+00  0.14446028911E+03  0.14446028911E+03  0.00000000000E+00 0.  1.
          1   -1    0    0  501    0  0.00000000000E+00 -0.00000000000E+00 -0.20005936860E+03  0.20005936860E+03  0.00000000000E+00 0. -1.
         25    2    1    2    0    0  0.25606020046E+02  0.10715738559E+03 -0.99230017209E+02  0.19399295274E+03  0.12509314868E+03 0.  0.
         23    2    1    2    0    0 -0.25606020046E+02 -0.10715738559E+03  0.43630937718E+02  0.15052670498E+03  0.92823793484E+02 0.  0.
          5    1    3    3  502    0  0.60736645526E+02  0.79907510116E+01 -0.37057444461E+02  0.71718329606E+02  0.41800000000E+01 0.  1.
         -5    1    3    3    0  502 -0.35130625481E+02  0.99166634574E+02 -0.62172572748E+02  0.12227462313E+03  0.41800000000E+01 0.  1.
        -11    1    4    4    0    0 -0.48274229423E+02 -0.31478668094E+02 -0.48528985427E+01  0.57834750761E+02  0.00000000000E+00 0. -1.
         11    1    4    4    0    0  0.22668209378E+02 -0.75678717492E+02  0.48483836260E+02  0.92691954214E+02  0.00000000000E+00 0.  1.
</event>
<event>
 8    1  0.6684013E-009  0.9706855E+02  0.7561462E-02  0.1286584E+00
          1   -1    0    0  501    0  0.00000000000E+00  0.00000000000E+00  0.54158941006E+03  0.54158941006E+03  0.00000000000E+00 0. -1.
         -1   -1    0    0    0  501 -0.00000000000E+00 -0.00000000000E+00 -0.44109033001E+02  0.44109033001E+02  0.00000000000E+00 0.  1.
         25    2    1    2    0    0 -0.68108818584E+02 -0.25550031938E+02  0.42354016589E+03  0.44757877477E+03  0.12509545237E+03 0.  0.
         23    2    1    2    0    0  0.68108818584E+02  0.25550031938E+02  0.73940211172E+02  0.13811966829E+03  0.91204564796E+02 0.  0.
          5    1    3    3  502    0 -0.53491386105E+02 -0.32860451571E+02  0.71930580160E+02  0.95564734222E+02  0.41800000000E+01 0.  1.
         -5    1    3    3    0  502 -0.14617432479E+02  0.73104196335E+01  0.35160958573E+03  0.35201404055E+03  0.41800000000E+01 0.  1.
        -11    1    4    4    0    0  0.20399363659E+02 -0.33016686834E+02  0.38544505786E+02  0.54698396443E+02  0.00000000000E+00 0.  1.
         11    1    4    4    0    0  0.47709454925E+02  0.58566718771E+02  0.35395705386E+02  0.83421271848E+02  0.00000000000E+00 0. -1.
</event>
<event>
 8    1  0.6684013E-009  0.1397558E+03  0.7561462E-02  0.1213658E+00
         -2   -1    0    0    0  501 -0.00000000000E+00  0.00000000000E+00  0.65933793705E+02  0.65933793705E+02  0.00000000000E+00 0. -1.
          2   -1    0    0  501    0  0.00000000000E+00 -0.00000000000E+00 -0.52180502518E+03  0.52180502518E+03  0.00000000000E+00 0.  1.
         25    2    1    2    0    0  0.98546482128E+02  0.61929698791E+02 -0.38997669577E+03  0.42576539306E+03  0.12509056701E+03 0.  0.
         23    2    1    2    0    0 -0.98546482128E+02 -0.61929698791E+02 -0.65894535712E+02  0.16197342583E+03  0.91359751015E+02 0.  0.
          5    1    3    3  502    0  0.24959685958E+01 -0.29733059810E+02 -0.13433000729E+03  0.13766738163E+03  0.41800000000E+01 0.  1.
         -5    1    3    3    0  502  0.96050513532E+02  0.91662758602E+02 -0.25564668847E+03  0.28809801143E+03  0.41800000000E+01 0.  1.
        -11    1    4    4    0    0 -0.58609667307E+02 -0.40314824528E+02 -0.86594692534E+02  0.11206702884E+03  0.00000000000E+00 0.  1.
         11    1    4    4    0    0 -0.39936814821E+02 -0.21614874263E+02  0.20700156823E+02  0.49906396985E+02  0.00000000000E+00 0. -1.
</event>
<event>
 8    1  0.6684013E-009  0.8498102E+02  0.7561462E-02  0.1315482E+00
         -3   -1    0    0    0  501 -0.00000000000E+00  0.00000000000E+00  0.14496131200E+03  0.14496131200E+03  0.00000000000E+00 0.  1.
          3   -1    0    0  501    0  0.00000000000E+00 -0.00000000000E+00 -0.12593421103E+03  0.12593421103E+03  0.00000000000E+00 0. -1.
         25    2    1    2    0    0  0.39385357087E+02 -0.44231963278E+02  0.59175484978E+02  0.15052311811E+03  0.12509115930E+03 0.  0.
         23    2    1    2    0    0 -0.39385357087E+02  0.44231963278E+02 -0.40148384001E+02  0.12037240492E+03  0.96798503085E+02 0.  0.
          5    1    3    3  502    0  0.10833172587E+02 -0.60895176761E+02 -0.19577775792E+02  0.65010321381E+02  0.41800000000E+01 0. -1.
         -5    1    3    3    0  502  0.28552184500E+02  0.16663213483E+02  0.78753260770E+02  0.85512796734E+02  0.41800000000E+01 0. -1.
        -11    1    4    4    0    0 -0.33596153366E+02  0.38080987409E+01  0.25987801775E+02  0.42644682882E+02  0.00000000000E+00 0.  1.
         11    1    4    4    0    0 -0.57892037205E+01  0.40423864537E+02 -0.66136185776E+02  0.77727722035E+02  0.00000000000E+00 0. -1.
</event>
<event>
 8    1  0.6684013E-009  0.8870027E+02  0.7561462E-02  0.1306030E+00
          1   -1    0    0  501    0  0.00000000000E+00  0.00000000000E+00  0.22582951889E+03  0.22582951889E+03  0.00000000000E+00 0. -1.
         -1   -1    0    0    0  501 -0.00000000000E+00 -0.00000000000E+00 -0.86555664001E+02  0.86555664001E+02  0.00000000000E+00 0.  1.
         25    2    1    2    0    0  0.45360826404E+02  0.31679448549E+02  0.15063350506E+03  0.20346713436E+03  0.12508888794E+03 0.  0.
         23    2    1    2    0    0 -0.45360826404E+02 -0.31679448549E+02 -0.11359650169E+02  0.10891804853E+03  0.93128446840E+02 0.  0.
          5    1    3    3  502    0  0.31431613157E+02 -0.37434179915E+02  0.16294542174E+02  0.51693796883E+02  0.41800000000E+01 0. -1.
         -5    1    3    3    0  502  0.13929213247E+02  0.69113628463E+02  0.13433896288E+03  0.15177333748E+03  0.41800000000E+01 0. -1.
        -11    1    4    4    0    0 -0.27328862195E+02 -0.28351184377E+02 -0.51475348477E+02  0.64810245064E+02  0.00000000000E+00 0.  1.
         11    1    4    4    0    0 -0.18031964209E+02 -0.33282641718E+01  0.40115698308E+02  0.44107803463E+02  0.00000000000E+00 0. -1.
</event>
<event>
 8    1  0.6684013E-009  0.9439111E+02  0.7561462E-02  0.1292553E+00
          2   -1    0    0  501    0  0.00000000000E+00  0.00000000000E+00  0.27754876569E+03  0.27754876569E+03  0.00000000000E+00 0.  1.
         -2   -1    0    0    0  501 -0.00000000000E+00 -0.00000000000E+00 -0.81165219279E+02  0.81165219279E+02  0.00000000000E+00 0. -1.
         25    2    1    2    0    0 -0.68534130770E+01  0.49478736515E+02  0.21326454382E+03  0.25223971965E+03  0.12509194970E+03 0.  0.
         23    2    1    2    0    0  0.68534130770E+01 -0.49478736515E+02 -0.16880997414E+02  0.10647426532E+03  0.92502359229E+02 0.  0.
          5    1    3    3  502    0  0.52022527375E+02  0.48267563917E+01  0.13353831547E+03  0.14345589926E+03  0.41800000000E+01 0. -1.
         -5    1    3    3    0  502 -0.58875940452E+02  0.44651980123E+02  0.79726228347E+02  0.10878382039E+03  0.41800000000E+01 0. -1.
        -11    1    4    4    0    0 -0.13283209737E+02 -0.35338938769E+02 -0.51590267603E+02  0.63928397176E+02  0.00000000000E+00 0. -1.
         11    1    4    4    0    0  0.20136622814E+02 -0.14139797746E+02  0.34709270189E+02  0.42545868139E+02  0.00000000000E+00 0.  1.
</event>
<event>
 8    1  0.6684013E-009  0.1030896E+03  0.7561462E-02  0.1273930E+00
         -2   -1    0    0    0  501 -0.00000000000E+00  0.00000000000E+00  0.49228451844E+02  0.49228451844E+02  0.00000000000E+00 0.  1.
          2   -1    0    0  501    0  0.00000000000E+00 -0.00000000000E+00 -0.44146540259E+03  0.44146540259E+03  0.00000000000E+00 0. -1.
         25    2    1    2    0    0 -0.83985189329E+02  0.97437999787E+01 -0.12781793267E+03  0.19782361192E+03  0.12509318070E+03 0.  0.
         23    2    1    2    0    0  0.83985189329E+02 -0.97437999787E+01 -0.26441901808E+03  0.29287024252E+03  0.93311886519E+02 0.  0.
          5    1    3    3  502    0 -0.47755307286E+02  0.48599084095E+02 -0.10627497130E+02  0.69085862838E+02  0.41800000000E+01 0. -1.
         -5    1    3    3    0  502 -0.36229882044E+02 -0.38855284117E+02 -0.11719043554E+03  0.12873774908E+03  0.41800000000E+01 0. -1.
        -11    1    4    4    0    0  0.69108095587E+02 -0.94016603298E+01 -0.26852376235E+03  0.27743347137E+03  0.00000000000E+00 0. -1.
         11    1    4    4    0    0  0.14877093743E+02 -0.34213964892E+00  0.41047442712E+01  0.15436771143E+02  0.00000000000E+00 0.  1.
</event>
<event>
 8    1  0.6684013E-009  0.7251201E+02  0.7561462E-02  0.1351753E+00
         -3   -1    0    0    0  501 -0.00000000000E+00  0.00000000000E+00  0.13516346406E+03  0.13516346406E+03  0.00000000000E+00 0.  1.
          3   -1    0    0  501    0  0.00000000000E+00 -0.00000000000E+00 -0.83970295699E+02  0.83970295699E+02  0.00000000000E+00 0. -1.
         25    2    1    2    0    0 -0.54318943496E+01  0.18647285462E+02  0.48245754510E+02  0.13546862757E+03  0.12508744740E+03 0.  0.
         23    2    1    2    0    0  0.54318943496E+01 -0.18647285462E+02  0.29474138493E+01  0.83665132185E+02  0.81326135798E+02 0.  0.
          5    1    3    3  502    0  0.19043407951E+02 -0.11970541499E+02 -0.35886562208E+02  0.42558935575E+02  0.41800000000E+01 0.  1.
         -5    1    3    3    0  502 -0.24475302301E+02  0.30617826960E+02  0.84132316718E+02  0.92909691997E+02  0.41800000000E+01 0.  1.
        -11    1    4    4    0    0 -0.34051072427E+02  0.81431976164E+01  0.72616921952E+01  0.35756389281E+02  0.00000000000E+00 0.  1.
         11    1    4    4    0    0  0.39482966777E+02 -0.26790483078E+02 -0.43142783460E+01  0.47908742905E+02  0.00000000000E+00 0. -1.
</event>
<event>
 8    1  0.6684013E-009  0.1253746E+03  0.7561462E-02  0.1234485E+00
          1   -1    0    0  501    0  0.00000000000E+00  0.00000000000E+00  0.89801612930E+03  0.89801612930E+03  0.00000000000E+00 0. -1.
         -1   -1    0    0    0  501 -0.00000000000E+00 -0.00000000000E+00 -0.10345104406E+03  0.10345104406E+03  0.00000000000E+00 0.  1.
         25    2    1    2    0    0  0.69680361840E+02 -0.90313517495E+02  0.83274755320E+03  0.84978115942E+03  0.12509055626E+03 0.  0.
         23    2    1    2    0    0 -0.69680361840E+02  0.90313517495E+02 -0.38182467968E+02  0.15168601394E+03  0.92405961375E+02 0.  0.
          5    1    3    3  502    0  0.84315725868E+02 -0.66779787717E+02  0.34899223636E+03  0.36521464253E+03  0.41800000000E+01 0. -1.
         -5    1    3    3    0  502 -0.14635364027E+02 -0.23533729777E+02  0.48375531684E+03  0.48456651689E+03  0.41800000000E+01 0. -1.
        -11    1    4    4    0    0 -0.37694594244E+02  0.36431415085E+02  0.28924245243E+02  0.59872718355E+02  0.00000000000E+00 0. -1.
         11    1    4    4    0    0 -0.31985767596E+02  0.53882102410E+02 -0.67106713212E+02  0.91813295589E+02  0.00000000000E+00 0.  1.
</event>
<event>
 8    1  0.6684013E-009  0.1555693E+03  0.7561462E-02  0.1193792E+00
          2   -1    0    0  501    0  0.00000000000E+00  0.00000000000E+00  0.15168900463E+04  0.15168900463E+04  0.00000000000E+00 0.  1.
         -2   -1    0    0    0  501 -0.00000000000E+00 -0.00000000000E+00 -0.29579005756E+02  0.29579005756E+02  0.00000000000E+00 0. -1.
         25    2    1    2    0    0  0.12414462812E+03 -0.42785066261E+02  0.12289258877E+04  0.12422375925E+04  0.12511174293E+03 0.  0.
         23    2    1    2    0    0 -0.12414462812E+03  0.42785066261E+02  0.25838515281E+03  0.30423145950E+03  0.92474013500E+02 0.  0.
          5    1    3    3  502    0  0.21574454644E+02  0.41316708217E+02  0.40467466623E+03  0.40737155688E+03  0.41800000000E+01 0.  1.
         -5    1    3    3    0  502  0.10257017348E+03 -0.84101774477E+02  0.82425122146E+03  0.83486603563E+03  0.41800000000E+01 0.  1.
        -11    1    4    4    0    0 -0.62453984577E+02  0.26398433913E+02  0.44689764196E+02  0.81206850244E+02  0.00000000000E+00 0. -1.
         11    1    4    4    0    0 -0.61690643545E+02  0.16386632348E+02  0.21369538862E+03  0.22302460926E+03  0.00000000000E+00 0.  1.
</event>
<event>
 8    1  0.6684013E-009  0.8320054E+02  0.7561462E-02  0.1320207E+00
          2   -1    0    0  501    0  0.00000000000E+00  0.00000000000E+00  0.34411496827E+03  0.34411496827E+03  0.00000000000E+00 0. -1.
         -2   -1    0    0    0  501 -0.00000000000E+00 -0.00000000000E+00 -0.34965265635E+02  0.34965265635E+02  0.00000000000E+00 0.  1.
         25    2    1    2    0    0 -0.10511833578E+02  0.50900391744E+01  0.17436641157E+03  0.21491212325E+03  0.12508864094E+03 0.  0.
         23    2    1    2    0    0  0.10511833578E+02 -0.50900391744E+01  0.13478329107E+03  0.16416811066E+03  0.92995837868E+02 0.  0.
          5    1    3    3  502    0 -0.19366896305E+02  0.44925146041E+02  0.16492528606E+02  0.51795958521E+02  0.41800000000E+01 0. -1.
         -5    1    3    3    0  502  0.88550627263E+01 -0.39835106867E+02  0.15787388296E+03  0.16311616473E+03  0.41800000000E+01 0. -1.
        -11    1    4    4    0    0  0.91689697768E+01 -0.40155429926E+02  0.23365079433E+02  0.47354572073E+02  0.00000000000E+00 0.  1.
         11    1    4    4    0    0  0.13428638015E+01  0.35065390752E+02  0.11141821164E+03  0.11681353858E+03  0.00000000000E+00 0. -1.
</event>
<event>
 7    1  0.6684013E-009  0.1228002E+03  0.7561462E-02  0.1238548E+00
          2   -1    0    0  501    0  0.00000000000E+00  0.00000000000E+00  0.41214976219E+03  0.41214976219E+03  0.00000000000E+00 0. -1.
         -2   -1    0    0    0  501 -0.00000000000E+00 -0.00000000000E+00 -0.48975358624E+02  0.48975358624E+02  0.00000000000E+00 0.  1.
         25    2    1    2    0    0 -0.46518670387E+02 -0.92600702094E+02  0.28321883362E+03  0.32649674443E+03  0.12509332389E+03 0.  0.
          5    1    3    3  502    0 -0.46181297745E+02  0.26589545861E+01  0.28445477278E+02  0.54464666331E+02  0.41800000000E+01 0. -1.
         -5    1    3    3    0  502 -0.33737264118E+00 -0.95259656680E+02  0.25477335634E+03  0.27203207810E+03  0.41800000000E+01 0. -1.
        -11    1    1    2    0    0  0.34772353958E+02  0.74630040505E+02  0.45603445659E+02  0.94119253086E+02  0.00000000000E+00 0. -1.
         11    1    1    2    0    0  0.11746316429E+02  0.17970661589E+02  0.34352124288E+02  0.40509123302E+02  0.00000000000E+00 0.  1.
</event>
<event>
 8    1  0.6684013E-009  0.9210308E+02  0.7561462E-02  0.1297837E+00
         -2   -1    0    0    0  501 -0.00000000000E+00  0.00000000000E+00  0.22246697477E+02  0.22246697477E+02  0.00000000000E+00 0.  1.
          2   -1    0    0  501    0  0.00000000000E+00 -0.00000000000E+00 -0.55096772105E+03  0.55096772105E+03  0.00000000000E+00 0. -1.
         25    2    1    2    0    0 -0.40076964500E+01  0.23459307702E+01 -0.33980487734E+03  0.36214211864E+03  0.12513190803E+03 0.  0.
         23    2    1    2    0    0  0.40076964500E+01 -0.23459307702E+01 -0.18891614623E+03  0.21107229988E+03  0.94024680005E+02 0.  0.
          5    1    3    3  502    0  0.11973558723E+02 -0.59223146409E+02 -0.14388657257E+03  0.15611394987E+03  0.41800000000E+01 0. -1.
         -5    1    3    3    0  502 -0.15981255173E+02  0.61569077179E+02 -0.19591830477E+03  0.20602816877E+03  0.41800000000E+01 0. -1.
        -11    1    4    4    0    0 -0.14042308946E+02 -0.26351396754E+02 -0.12924978645E+02  0.32536711948E+02  0.00000000000E+00 0.  1.
         11    1    4    4    0    0  0.18050005396E+02  0.24005465983E+02 -0.17599116758E+03  0.17853558794E+03  0.00000000000E+00 0. -1.
</event>
<event>
 8    1  0.6684013E-009  0.1338794E+03  0.7561462E-02  0.1221810E+00
         -2   -1    0    0    0  501 -0.00000000000E+00  0.00000000000E+00  0.57902285215E+02  0.57902285215E+02  0.00000000000E+00 0.  1.
          2   -1    0    0  501    0  0.00000000000E+00 -0.00000000000E+00 -0.52281124914E+03  0.52281124914E+03  0.00000000000E+00 0. -1.
         25    2    1    2    0    0 -0.90343687165E+02  0.84485695280E+02 -0.33934345446E+03  0.38223192536E+03  0.12508976842E+03 0.  0.
         23    2    1    2    0    0  0.90343687165E+02 -0.84485695280E+02 -0.12556550947E+03  0.19848160900E+03  0.91260272979E+02 0.  0.
          5    1    3    3  502    0 -0.84918746704E+02  0.88689316134E+02 -0.15533941910E+03  0.19805250785E+03  0.41800000000E+01 0. -1.
         -5    1    3    3    0  502 -0.54249404608E+01 -0.42036208541E+01 -0.18400403535E+03  0.18417941751E+03  0.41800000000E+01 0. -1.
        -11    1    4    4    0    0  0.14168627847E+02 -0.52269871540E+02 -0.80083152188E+01  0.54745069171E+02  0.00000000000E+00 0.  1.
         11    1    4    4    0    0  0.76175059318E+02 -0.32215823740E+02 -0.11755719425E+03  0.14373653983E+03  0.00000000000E+00 0. -1.
</event>
<event>
 8    1  0.6684013E-009  0.2024796E+03  0.7561462E-02  0.1147664E+00
          1   -1    0    0  501    0  0.00000000000E+00  0.00000000000E+00  0.34652152985E+03  0.34652152985E+03  0.00000000000E+00 0. -1.
         -1   -1    0    0    0  501 -0.00000000000E+00 -0.00000000000E+00 -0.14821087532E+03  0.14821087532E+03  0.00000000000E+00 0.  1.
         25    2    1    2    0    0  0.86861729926E+02  0.16127650417E+03  0.18676573478E+03  0.28997899416E+03  0.12510518152E+03 0.  0.
         23    2    1    2    0    0 -0.86861729926E+02 -0.16127650417E+03  0.11544919746E+02  0.20475341100E+03  0.90750224366E+02 0.  0.
          5    1    3    3  502    0 -0.99129476115E+01  0.10355785676E+03  0.59382829343E+02  0.11985945540E+03  0.41800000000E+01 0. -1.
         -5    1    3    3    0  502  0.96774677537E+02  0.57718647402E+02  0.12738290544E+03  0.17011953876E+03  0.41800000000E+01 0. -1.
        -11    1    4    4    0    0  0.37006129927E+00 -0.32756148663E+02 -0.29511030354E+02  0.44090850901E+02  0.00000000000E+00 0.  1.
         11    1    4    4    0    0 -0.87231791225E+02 -0.12852035550E+03  0.41055950101E+02  0.16066256010E+03  0.00000000000E+00 0. -1.
</event>
<event>
 8    1  0.6684013E-009  0.1922745E+03  0.7561462E-02  0.1156426E+00
         -1   -1    0    0    0  501 -0.00000000000E+00  0.00000000000E+00  0.74314987925E+02  0.74314987925E+02  0.00000000000E+00 0.  1.
          1   -1    0    0  501    0  0.00000000000E+00 -0.00000000000E+00 -0.50316097150E+03  0.50316097150E+03  0.00000000000E+00 0. -1.
         25    2    1    2    0    0  0.14010074046E+03 -0.76894070973E+02 -0.25569375305E+03  0.32644611818E+03  0.12508739784E+03 0.  0.
         23    2    1    2    0    0 -0.14010074046E+03  0.76894070973E+02 -0.17315223052E+03  0.25102984124E+03  0.86564257250E+02 0.  0.
          5    1    3    3  502    0 -0.18439080339E+02 -0.33452214785E+02 -0.52204473266E+02  0.64821522558E+02  0.41800000000E+01 0.  1.
         -5    1    3    3    0  502  0.15853982079E+03 -0.43441856187E+02 -0.20348927979E+03  0.26162459562E+03  0.41800000000E+01 0.  1.
        -11    1    4    4    0    0 -0.53397353205E+02  0.78533663307E+02 -0.87098428019E+02  0.12886019465E+03  0.00000000000E+00 0.  1.
         11    1    4    4    0    0 -0.86703387252E+02 -0.16395923344E+01 -0.86053802504E+02  0.12216964660E+03  0.00000000000E+00 0. -1.
</event>
<event>
 8    1  0.6684013E-009  0.1720846E+03  0.7561462E-02  0.1175691E+00
          2   -1    0    0  501    0  0.00000000000E+00  0.00000000000E+00  0.86429768487E+03  0.86429768487E+03  0.00000000000E+00 0. -1.
         -2   -1    0    0    0  501 -0.00000000000E+00 -0.00000000000E+00 -0.50080672591E+02  0.50080672591E+02  0.00000000000E+00 0.  1.
         25    2    1    2    0    0  0.92593603820E+02  0.10323059934E+03  0.18250362947E+03  0.26111017934E+03  0.12506325949E+03 0.  0.
         23    2    1    2    0    0 -0.92593603820E+02 -0.10323059934E+03  0.63171338281E+03  0.65326817812E+03  0.92018380912E+02 0.  0.
          5    1    3    3  502    0 -0.19233963084E+02  0.65790416867E+02  0.70431070078E+02  0.98368350194E+02  0.41800000000E+01 0.  1.
         -5    1    3    3    0  502  0.11182756690E+03  0.37440182473E+02  0.11207255940E+03  0.16274182914E+03  0.41800000000E+01 0.  1.
        -11    1    4    4    0    0  0.11274523063E+02 -0.32077397640E+00  0.11716217518E+02  0.16263072255E+02  0.00000000000E+00 0.  1.
         11    1    4    4    0    0 -0.10386812688E+03 -0.10290982536E+03  0.61999716529E+03  0.63700510587E+03  0.00000000000E+00 0. -1.
</event>
<event>
 8    1  0.6684013E-009  0.1485003E+03  0.7561462E-02  0.1202328E+00
         -1   -1    0    0    0  501 -0.00000000000E+00  0.00000000000E+00  0.30027748044E+03  0.30027748044E+03  0.00000000000E+00 0.  1.
          1   -1    0    0  501    0  0.00000000000E+00 -0.00000000000E+00 -0.10868778837E+03  0.10868778837E+03  0.00000000000E+00 0. -1.
         25    2    1    2    0    0  0.72775486321E+02 -0.11508045539E+03  0.15442682704E+03  0.24088778633E+03  0.12505797885E+03 0.  0.
         23    2    1    2    0    0 -0.72775486321E+02  0.11508045539E+03  0.37162865036E+02  0.16807748249E+03  0.91264335633E+02 0.  0.
          5    1    3    3  502    0  0.18498206809E+02 -0.51012845577E+02  0.14668954819E+03  0.15646018668E+03  0.41800000000E+01 0.  1.
         -5    1    3    3    0  502  0.54277279512E+02 -0.64067609815E+02  0.77372788480E+01  0.84427599650E+02  0.41800000000E+01 0.  1.
        -11    1    4    4    0    0 -0.90021644830E+02  0.84886150185E+02  0.10342535449E+02  0.12416329196E+03  0.00000000000E+00 0. -1.
         11    1    4    4    0    0  0.17246158509E+02  0.30194305207E+02  0.26820329587E+02  0.43914190524E+02  0.00000000000E+00 0.  1.
</event>
<event>
 8    1  0.6684013E-009  0.1199463E+03  0.7561462E-02  0.1243186E+00
         -1   -1    0    0    0  501 -0.00000000000E+00  0.00000000000E+00  0.64059132735E+02  0.64059132735E+02  0.00000000000E+00 0.  1.
          1   -1    0    0  501    0  0.00000000000E+00 -0.00000000000E+00 -0.29804442565E+03  0.29804442565E+03  0.00000000000E+00 0. -1.
         25    2    1    2    0    0  0.75920724472E+02  0.15606951739E+02 -0.88392730308E+02  0.17166201634E+03  0.12508812787E+03 0.  0.
         23    2    1    2    0    0 -0.75920724472E+02 -0.15606951739E+02 -0.14559256261E+03  0.19044154205E+03  0.95201120291E+02 0.  0.
          5    1    3    3  502    0  0.73502375292E+02 -0.41780513436E+02 -0.73673128150E+02  0.11222037555E+03  0.41800000000E+01 0. -1.
         -5    1    3    3    0  502  0.24183491802E+01  0.57387465175E+02 -0.14719602158E+02  0.59441640789E+02  0.41800000000E+01 0. -1.
        -11    1    4    4    0    0 -0.82259316433E+02 -0.15970155388E+01 -0.55966100877E+02  0.99505527716E+02  0.00000000000E+00 0.  1.
         11    1    4    4    0    0  0.63385919609E+01 -0.14009936200E+02 -0.89626461733E+02  0.90936014335E+02  0.00000000000E+00 0. -1.
</event>
<event>
 8    1  0.6684013E-009  0.1599723E+03  0.7561462E-02  0.1188728E+00
         -2   -1    0    0    0  501 -0.00000000000E+00  0.00000000000E+00  0.39419483077E+03  0.39419483077E+03  0.00000000000E+00 0.  1.
          2   -1    0    0  501    0  0.00000000000E+00 -0.00000000000E+00 -0.10060840900E+03  0.10060840900E+03  0.00000000000E+00 0. -1.
         25    2    1    2    0    0  0.14526816018E+03  0.15032080708E+02  0.25191474181E+03  0.31692026319E+03  0.12509442140E+03 0.  0.
         23    2    1    2    0    0 -0.14526816018E+03 -0.15032080708E+02  0.41671679953E+02  0.17788297658E+03  0.92612216429E+02 0.  0.
          5    1    3    3  502    0  0.10177727856E+02  0.10339854502E+02  0.14158513618E+03  0.14238792758E+03  0.41800000000E+01 0.  1.
         -5    1    3    3    0  502  0.13509043233E+03  0.46922262066E+01  0.11032960563E+03  0.17453233561E+03  0.41800000000E+01 0.  1.
        -11    1    4    4    0    0 -0.36744994107E+02  0.34421849009E+02  0.28608839232E+02  0.57909618919E+02  0.00000000000E+00 0.  1.
         11    1    4    4    0    0 -0.10852316608E+03 -0.49453929718E+02  0.13062840721E+02  0.11997335766E+03  0.00000000000E+00 0. -1.
</event>
<event>
 8    1  0.6684013E-009  0.1215415E+03  0.7561462E-02  0.1240575E+00
          1   -1    0    0  501    0  0.00000000000E+00  0.00000000000E+00  0.58079511410E+03  0.58079511410E+03  0.00000000000E+00 0. -1.
         -1   -1    0    0    0  501 -0.00000000000E+00 -0.00000000000E+00 -0.51512125492E+02  0.51512125492E+02  0.00000000000E+00 0.  1.
         25    2    1    2    0    0 -0.94016747076E+02 -0.70908217537E+02  0.39918351961E+03  0.43458270237E+03  0.12509004286E+03 0.  0.
         23    2    1    2    0    0  0.94016747076E+02  0.70908217537E+02  0.13009946899E+03  0.19772453722E+03  0.91115293675E+02 0.  0.
          5    1    3    3  502    0 -0.64269281430E+02 -0.22336935846E+02  0.35734030763E+03  0.36378434147E+03  0.41800000000E+01 0.  1.
         -5    1    3    3    0  502 -0.29747465646E+02 -0.48571281691E+02  0.41843211982E+02  0.70798360902E+02  0.41800000000E+01 0.  1.
        -11    1    4    4    0    0  0.26214538572E+02  0.21634003970E+02  0.10479979411E+03  0.11017363117E+03  0.00000000000E+00 0. -1.
         11    1    4    4    0    0  0.67802208504E+02  0.49274213567E+02  0.25299674885E+02  0.87550906049E+02  0.00000000000E+00 0.  1.
</event>
<event>
 8    1  0.6684013E-009  0.1273370E+03  0.7561462E-02  0.1231462E+00
         -2   -1    0    0    0  501 -0.00000000000E+00  0.00000000000E+00  0.46746325328E+02  0.46746325328E+02  0.00000000000E+00 0.  1.
          2   -1    0    0  501    0  0.00000000000E+00 -0.00000000000E+00 -0.41604724192E+03  0.41604724192E+03  0.00000000000E+00 0. -1.
         25    2    1    2    0    0  0.80367248661E+02 -0.82783388483E+01 -0.27110937733E+03  0.30931161367E+03  0.12508378923E+03 0.  0.
         23    2    1    2    0    0 -0.80367248661E+02  0.82783388483E+01 -0.98191539266E+02  0.15348195357E+03  0.85951766345E+02 0.  0.
          5    1    3    3  502    0 -0.16522533950E+02  0.37851211529E+02 -0.74554916896E+02  0.85332387612E+02  0.41800000000E+01 0.  1.
         -5    1    3    3    0  502  0.96889782610E+02 -0.46129550377E+02 -0.19655446043E+03  0.22397922606E+03  0.41800000000E+01 0.  1.
        -11    1    4    4    0    0  0.99925895368E+01 -0.93757995969E+01  0.55445732617E+01  0.14781737259E+02  0.00000000000E+00 0.  1.
         11    1    4    4    0    0 -0.90359838197E+02  0.17654138445E+02 -0.10373611253E+03  0.13870021631E+03  0.00000000000E+00 0. -1.
</event>
<event>
 8    1  0.6684013E-009  0.2119524E+03  0.7561462E-02  0.1140029E+00
          2   -1    0    0  501    0  0.00000000000E+00  0.00000000000E+00  0.11970255153E+03  0.11970255153E+03  0.00000000000E+00 0.  1.
         -2   -1    0    0    0  501 -0.00000000000E+00 -0.00000000000E+00 -0.43649317467E+03  0.43649317467E+03  0.00000000000E+00 0. -1.
         25    2    1    2    0    0  0.50622316878E+02  0.17937787467E+03 -0.72857765850E+02  0.23599732300E+03  0.12508973391E+03 0.  0.
         23    2    1    2    0    0 -0.50622316878E+02 -0.17937787467E+03 -0.24393285728E+03  0.32019840320E+03  0.91020534290E+02 0.  0.
          5    1    3    3  502    0 -0.30673980773E+02  0.93589297141E+02 -0.29574072986E+01  0.98620830932E+02  0.41800000000E+01 0.  1.
         -5    1    3    3    0  502  0.81296297652E+02  0.85788577534E+02 -0.69900358552E+02  0.13737649207E+03  0.41800000000E+01 0.  1.
        -11    1    4    4    0    0 -0.19443024277E+02 -0.17441218800E+03 -0.21320823529E+03  0.27614379246E+03  0.00000000000E+00 0.  1.
         11    1    4    4    0    0 -0.31179292601E+02 -0.49656866699E+01 -0.30724621988E+02  0.44054610741E+02  0.00000000000E+00 0. -1.
</event>
<event>
 8    1  0.6684013E-009  0.1295284E+03  0.7561462E-02  0.1228157E+00
          1   -1    0    0  501    0  0.00000000000E+00  0.00000000000E+00  0.86705532973E+02  0.86705532973E+02  0.00000000000E+00 0. -1.
         -1   -1    0    0    0  501 -0.00000000000E+00 -0.00000000000E+00 -0.23595820531E+03  0.23595820531E+03  0.00000000000E+00 0.  1.
         25    2    1    2    0    0 -0.78800171020E+02  0.44801200416E+02 -0.67028945223E+02  0.16839583839E+03  0.12509062466E+03 0.  0.
         23    2    1    2    0    0  0.78800171020E+02 -0.44801200416E+02 -0.82223727115E+02  0.15426789989E+03  0.93921398656E+02 0.  0.
          5    1    3    3  502    0  0.28974574802E+01  0.63614211765E+02 -0.53699362910E+02  0.83404179603E+02  0.41800000000E+01 0. -1.
         -5    1    3    3    0  502 -0.81697628500E+02 -0.18813011349E+02 -0.13329582313E+02  0.84991658786E+02  0.41800000000E+01 0. -1.
        -11    1    4    4    0    0  0.24210202737E+02 -0.50905665212E+02 -0.12036577943E+01  0.56382350601E+02  0.00000000000E+00 0. -1.
         11    1    4    4    0    0  0.54589968283E+02  0.61044647957E+01 -0.81020069321E+02  0.97885549293E+02  0.00000000000E+00 0.  1.
</event>
<event>
 8    1  0.6684013E-009  0.5120666E+02  0.7561462E-02  0.1438940E+00
          1   -1    0    0  501    0  0.00000000000E+00  0.00000000000E+00  0.32283289367E+03  0.32283289367E+03  0.00000000000E+00 0. -1.
         -1   -1    0    0    0  501 -0.00000000000E+00 -0.00000000000E+00 -0.10105561842E+03  0.10105561842E+03  0.00000000000E+00 0.  1.
         25    2    1    2    0    0  0.15460728223E+02  0.38604926101E+02  0.26377579455E+03  0.29488132653E+03  0.12509177634E+03 0.  0.
         23    2    1    2    0    0 -0.15460728223E+02 -0.38604926101E+02 -0.41998519294E+02  0.12900718557E+03  0.11467172218E+03 0.  0.
          5    1    3    3  502    0 -0.17171072110E+01 -0.21021105710E+01 -0.13336692584E+02  0.14237524192E+02  0.41800000000E+01 0. -1.
         -5    1    3    3    0  502  0.17177835434E+02  0.40707036672E+02  0.27711248713E+03  0.28064380233E+03  0.41800000000E+01 0. -1.
        -11    1    4    4    0    0 -0.25507453024E+02 -0.32418694518E+02 -0.79569876768E+02  0.89626821895E+02  0.00000000000E+00 0.  1.
         11    1    4    4    0    0  0.10046724801E+02 -0.61862315839E+01  0.37571357474E+02  0.39380363671E+02  0.00000000000E+00 0. -1.
</event>
<event>
 8    1  0.6684013E-009  0.1971547E+03  0.7561462E-02  0.1152162E+00
          2   -1    0    0  501    0  0.00000000000E+00  0.00000000000E+00  0.10284833224E+04  0.10284833224E+04  0.00000000000E+00 0. -1.
         -2   -1    0    0    0  501 -0.00000000000E+00 -0.00000000000E+00 -0.39469368196E+02  0.39469368196E+02  0.00000000000E+00 0.  1.
         25    2    1    2    0    0 -0.13047882714E+03  0.10511177971E+03  0.58206858377E+03  0.61848592477E+03  0.12509113625E+03 0.  0.
         23    2    1    2    0    0  0.13047882714E+03 -0.10511177971E+03  0.40694537047E+03  0.44946676585E+03  0.91337990418E+02 0.  0.
          5    1    3    3  502    0  0.21545434100E+02  0.22403761212E+02  0.50581939790E+02  0.59515874184E+02  0.41800000000E+01 0.  1.
         -5    1    3    3    0  502 -0.15202426124E+03  0.82708018500E+02  0.53148664398E+03  0.55897005059E+03  0.41800000000E+01 0.  1.
        -11    1    4    4    0    0  0.19554241466E+02 -0.71201503037E+02  0.18116360391E+03  0.19563300789E+03  0.00000000000E+00 0.  1.
         11    1    4    4    0    0  0.11092458568E+03 -0.33910276675E+02  0.22578176656E+03  0.25383375796E+03  0.00000000000E+00 0. -1.
</event>
<event>
 8    1  0.6684013E-009  0.9524525E+02  0.7561462E-02  0.1290625E+00
          1   -1    0    0  501    0  0.00000000000E+00  0.00000000000E+00  0.61626580806E+03  0.61626580806E+03  0.00000000000E+00 0. -1.
         -1   -1    0    0    0  501 -0.00000000000E+00 -0.00000000000E+00 -0.27470799206E+02  0.27470799206E+02  0.00000000000E+00 0.  1.
         25    2    1    2    0    0  0.30003604787E+01  0.69387019490E+02  0.38842128929E+03  0.41393453982E+03  0.12508854719E+03 0.  0.
         23    2    1    2    0    0 -0.30003604787E+01 -0.69387019490E+02  0.20037371956E+03  0.22980206745E+03  0.88520065960E+02 0.  0.
          5    1    3    3  502    0  0.27260702733E+02  0.46554447193E+02  0.37314253948E+03  0.37704547423E+03  0.41800000000E+01 0.  1.
         -5    1    3    3    0  502 -0.24260342254E+02  0.22832572296E+02  0.15278749813E+02  0.36889065586E+02  0.41800000000E+01 0.  1.
        -11    1    4    4    0    0  0.36425447876E+02 -0.32768274283E+02  0.14292318561E+03  0.15108808702E+03  0.00000000000E+00 0. -1.
         11    1    4    4    0    0 -0.39425808354E+02 -0.36618745206E+02  0.57450533941E+02  0.78713980429E+02  0.00000000000E+00 0.  1.
</event>
<event>
 8    1  0.6684013E-009  0.8325899E+02  0.7561462E-02  0.1320049E+00
         -2   -1    0    0    0  501 -0.00000000000E+00  0.00000000000E+00  0.32673086143E+03  0.32673086143E+03  0.00000000000E+00 0. -1.
          2   -1    0    0  501    0  0.00000000000E+00 -0.00000000000E+00 -0.59215172451E+02  0.59215172451E+02  0.00000000000E+00 0.  1.
         25    2    1    2    0    0  0.39694200302E+02 -0.21428895269E+02  0.39793220173E+02  0.13880868568E+03  0.12509805658E+03 0.  0.
         23    2    1    2    0    0 -0.39694200302E+02  0.21428895269E+02  0.22772246881E+03  0.24713734820E+03  0.84761541895E+02 0.  0.
          5    1    3    3  502    0  0.11832363731E+02  0.19845068948E+02  0.74403760302E+02  0.78020660982E+02  0.41800000000E+01 0. -1.
         -5    1    3    3    0  502  0.27861836571E+02 -0.41273964217E+02 -0.34610540128E+02  0.60788024703E+02  0.41800000000E+01 0. -1.
        -11    1    4    4    0    0  0.20668798931E+02  0.25191010281E+02  0.52704653348E+02  0.61964237531E+02  0.00000000000E+00 0.  1.
         11    1    4    4    0    0 -0.60362999233E+02 -0.37621150129E+01  0.17501781546E+03  0.18517311067E+03  0.00000000000E+00 0. -1.
</event>
<event>
 8    1  0.6684013E-009  0.1183974E+03  0.7561462E-02  0.1245764E+00
         -1   -1    0    0    0  501 -0.00000000000E+00  0.00000000000E+00  0.45225083500E+02  0.45225083500E+02  0.00000000000E+00 0.  1.
          1   -1    0    0  501    0  0.00000000000E+00 -0.00000000000E+00 -0.34272006408E+03  0.34272006408E+03  0.00000000000E+00 0. -1.
         25    2    1    2    0    0  0.31663474751E+01  0.59577646610E+02 -0.17699231840E+03  0.22479309572E+03  0.12508450494E+03 0.  0.
         23    2    1    2    0    0 -0.31663474751E+01 -0.59577646610E+02 -0.12050266218E+03  0.16315205186E+03  0.92402265683E+02 0.  0.
          5    1    3    3  502    0  0.54850693637E+01 -0.38366755740E+02 -0.36065324587E+02  0.53106251699E+02  0.41800000000E+01 0. -1.
         -5    1    3    3    0  502 -0.23187218886E+01  0.97944402350E+02 -0.14092699381E+03  0.17168684402E+03  0.41800000000E+01 0. -1.
        -11    1    4    4    0    0  0.89328847021E+01 -0.77563136238E+02 -0.58765675358E+02  0.97720218647E+02  0.00000000000E+00 0.  1.
         11    1    4    4    0    0 -0.12099232177E+02  0.17985489628E+02 -0.61736986820E+02  0.65431833216E+02  0.00000000000E+00 0. -1.
</event>
<event>
 8    1  0.6684013E-009  0.1224901E+03  0.7561462E-02  0.1239045E+00
         -2   -1    0    0    0  501 -0.00000000000E+00  0.00000000000E+00  0.11391496866E+03  0.11391496866E+03  0.00000000000E+00 0.  1.
          2   -1    0    0  501    0  0.00000000000E+00 -0.00000000000E+00 -0.17617855221E+03  0.17617855221E+03  0.00000000000E+00 0. -1.
         25    2    1    2    0    0 -0.62178467002E+02  0.57191847257E+02 -0.51239570097E+02  0.15940566152E+03  0.12509037625E+03 0.  0.
         23    2    1    2    0    0  0.62178467002E+02 -0.57191847257E+02 -0.11024013458E+02  0.13068785935E+03  0.99099538639E+02 0.  0.
          5    1    3    3  502    0 -0.21824281622E+02  0.92158804683E+02 -0.46632128447E+02  0.10564834288E+03  0.41800000000E+01 0. -1.
         -5    1    3    3    0  502 -0.40354185380E+02 -0.34966957426E+02 -0.46074416502E+01  0.53757318645E+02  0.41800000000E+01 0. -1.
        -11    1    4    4    0    0  0.42785512601E+02 -0.77101851012E+01  0.38479461944E+02  0.58057867980E+02  0.00000000000E+00 0.  1.
         11    1    4    4    0    0  0.19392954401E+02 -0.49481662155E+02 -0.49503475403E+02  0.72629991374E+02  0.00000000000E+00 0. -1.
</event>
<event>
 8    1  0.6684013E-009  0.6748906E+02  0.7561462E-02  0.1368846E+00
          1   -1    0    0  501    0  0.00000000000E+00  0.00000000000E+00  0.15175480370E+03  0.15175480370E+03  0.00000000000E+00 0. -1.
         -1   -1    0    0    0  501 -0.00000000000E+00 -0.00000000000E+00 -0.99682098145E+02  0.99682098145E+02  0.00000000000E+00 0.  1.
         25    2    1    2    0    0  0.33773435628E+00 -0.37334739080E+02  0.84904567071E+02  0.15572513397E+03  0.12509010765E+03 0.  0.
         23    2    1    2    0    0 -0.33773435628E+00  0.37334739080E+02 -0.32831861521E+02  0.95711767874E+02  0.81785173301E+02 0.  0.
          5    1    3    3  502    0 -0.11259023069E+02 -0.41202455182E+02  0.11512205653E+03  0.12286158152E+03  0.41800000000E+01 0. -1.
         -5    1    3    3    0  502  0.11596757425E+02  0.38677161023E+01 -0.30217489456E+02  0.32863552450E+02  0.41800000000E+01 0. -1.
        -11    1    4    4    0    0 -0.78974011999E+01 -0.19899871090E+02  0.10191931361E+02  0.23711796220E+02  0.00000000000E+00 0. -1.
         11    1    4    4    0    0  0.75596668436E+01  0.57234610170E+02 -0.43023792882E+02  0.71999971654E+02  0.00000000000E+00 0.  1.
</event>
<event>
 8    1  0.6684013E-009  0.9947586E+02  0.7561462E-02  0.1281402E+00
         -2   -1    0    0    0  501 -0.00000000000E+00  0.00000000000E+00  0.71291243307E+02  0.71291243307E+02  0.00000000000E+00 0.  1.
          2   -1    0    0  501    0  0.00000000000E+00 -0.00000000000E+00 -0.35113444881E+03  0.35113444881E+03  0.00000000000E+00 0. -1.
         25    2    1    2    0    0 -0.57780242259E+02  0.72726504149E+02 -0.58823851679E+02  0.16653916445E+03  0.12508935593E+03 0.  0.
         23    2    1    2    0    0  0.57780242259E+02 -0.72726504149E+02 -0.22101935382E+03  0.25588652767E+03  0.89446405606E+02 0.  0.
          5    1    3    3  502    0 -0.61256082513E+02  0.77459853033E+02 -0.90523067915E+02  0.13403072298E+03  0.41800000000E+01 0.  1.
         -5    1    3    3    0  502  0.34758402538E+01 -0.47333488833E+01  0.31699216236E+02  0.32508441474E+02  0.41800000000E+01 0.  1.
        -11    1    4    4    0    0  0.11373040034E+02 -0.13241263096E+02  0.45467301756E+01  0.18037456674E+02  0.00000000000E+00 0.  1.
         11    1    4    4    0    0  0.46407202225E+02 -0.59485241053E+02 -0.22556608400E+03  0.23784907099E+03  0.00000000000E+00 0. -1.
</event>
<event>
 8    1  0.6684013E-009  0.1161238E+03  0.7561462E-02  0.1249632E+00
         -1   -1    0    0    0  501 -0.00000000000E+00  0.00000000000E+00  0.28618698538E+02  0.28618698538E+02  0.00000000000E+00 0.  1.
          1   -1    0    0  501    0  0.00000000000E+00 -0.00000000000E+00 -0.59604215408E+03  0.59604215408E+03  0.00000000000E+00 0. -1.
         25    2    1    2    0    0 -0.72311452037E+02 -0.58086472734E+01 -0.32899131377E+03  0.35936849231E+03  0.12509093592E+03 0.  0.
         23    2    1    2    0    0  0.72311452037E+02  0.58086472734E+01 -0.23843214176E+03  0.26529236030E+03  0.90925594472E+02 0.  0.
          5    1    3    3  502    0 -0.11687257517E+02 -0.61086814158E+02 -0.13471326711E+03  0.14843627450E+03  0.41800000000E+01 0.  1.
         -5    1    3    3    0  502 -0.60624194520E+02  0.55278166884E+02 -0.19427804667E+03  0.21093221781E+03  0.41800000000E+01 0.  1.
        -11    1    4    4    0    0  0.57955024068E+02  0.25563953592E+02 -0.23135071258E+03  0.23986548887E+03  0.00000000000E+00 0. -1.
         11    1    4    4    0    0  0.14356427969E+02 -0.19755306319E+02 -0.70814291850E+01  0.25426871437E+02  0.00000000000E+00 0.  1.
</event>
<event>
 8    1  0.6684013E-009  0.1138801E+03  0.7561462E-02  0.1253549E+00
          1   -1    0    0  501    0  0.00000000000E+00  0.00000000000E+00  0.38597742815E+02  0.38597742815E+02  0.00000000000E+00 0.  1.
         -1   -1    0    0    0  501 -0.00000000000E+00 -0.00000000000E+00 -0.38024067872E+03  0.38024067872E+03  0.00000000000E+00 0. -1.
         25    2    1    2    0    0  0.51483727787E+02  0.34315768407E+01 -0.22272357469E+03  0.26060526233E+03  0.12508781749E+03 0.  0.
         23    2    1    2    0    0 -0.51483727787E+02 -0.34315768407E+01 -0.11891936122E+03  0.15823315921E+03  0.90739011761E+02 0.  0.
          5    1    3    3  502    0  0.25045076592E+02 -0.54299471940E+02 -0.55530020405E+02  0.81711346095E+02  0.41800000000E+01 0.  1.
         -5    1    3    3    0  502  0.26438651195E+02  0.57731048781E+02 -0.16719355428E+03  0.17889391623E+03  0.41800000000E+01 0.  1.
        -11    1    4    4    0    0 -0.60035382150E+02 -0.36342762451E+02 -0.84626976762E+02  0.10993984122E+03  0.00000000000E+00 0.  1.
         11    1    4    4    0    0  0.85516543636E+01  0.32911185611E+02 -0.34292384458E+02  0.48293317990E+02  0.00000000000E+00 0. -1.
</event>
<event>
 8    1  0.6684013E-009  0.1477821E+03  0.7561462E-02  0.1203225E+00
          1   -1    0    0  501    0  0.00000000000E+00  0.00000000000E+00  0.33588977015E+03  0.33588977015E+03  0.00000000000E+00 0. -1.
         -1   -1    0    0    0  501 -0.00000000000E+00 -0.00000000000E+00 -0.10696983874E+03  0.10696983874E+03  0.00000000000E+00 0.  1.
         25    2    1    2    0    0  0.69690314364E+02 -0.99681450682E+02  0.89172858531E+01  0.17469668882E+03  0.12508510532E+03 0.  0.
         23    2    1    2    0    0 -0.69690314364E+02  0.99681450682E+02  0.22000264556E+03  0.26816292007E+03  0.93365176182E+02 0.  0.
          5    1    3    3  502    0  0.42203972700E+02 -0.10820568267E+03  0.48202478159E+02  0.12581969788E+03  0.41800000000E+01 0. -1.
         -5    1    3    3    0  502  0.27486341663E+02  0.85242319880E+01 -0.39285192306E+02  0.48876990942E+02  0.41800000000E+01 0. -1.
        -11    1    4    4    0    0 -0.16353301795E+02  0.95360395775E+02  0.11480559029E+03  0.15013780045E+03  0.00000000000E+00 0.  1.
         11    1    4    4    0    0 -0.53337012569E+02  0.43210549071E+01  0.10519705526E+03  0.11802511962E+03  0.00000000000E+00 0. -1.
</event>
<event>
 8    1  0.6684013E-009  0.1793690E+03  0.7561462E-02  0.1168415E+00
         -1   -1    0    0    0  501 -0.00000000000E+00  0.00000000000E+00  0.16534590484E+04  0.16534590484E+04  0.00000000000E+00 0.  1.
          1   -1    0    0  501    0  0.00000000000E+00 -0.00000000000E+00 -0.19788656851E+02  0.19788656851E+02  0.00000000000E+00 0. -1.
         25    2    1    2    0    0  0.10733437609E+03 -0.94559535652E+02  0.77802596072E+03  0.80089537862E+03  0.12508732093E+03 0.  0.
         23    2    1    2    0    0 -0.10733437609E+03  0.94559535652E+02  0.85564443079E+03  0.87235232660E+03  0.91700685412E+02 0.  0.
          5    1    3    3  502    0  0.21275725583E+02  0.30246361573E+02  0.19127549309E+03  0.19486222195E+03  0.41800000000E+01 0.  1.
         -5    1    3    3    0  502  0.86058650506E+02 -0.12480589722E+03  0.58675046763E+03  0.60603315666E+03  0.41800000000E+01 0.  1.
        -11    1    4    4    0    0 -0.11771057715E+03  0.56785618155E+02  0.66711422552E+03  0.67979539297E+03  0.00000000000E+00 0.  1.
         11    1    4    4    0    0  0.10376201063E+02  0.37773917496E+02  0.18853020527E+03  0.19255693363E+03  0.00000000000E+00 0. -1.
</event>
<event>
 8    1  0.6684013E-009  0.9064735E+02  0.7561462E-02  0.1301292E+00
          1   -1    0    0  501    0  0.00000000000E+00  0.00000000000E+00  0.10461789818E+04  0.10461789818E+04  0.00000000000E+00 0. -1.
         -1   -1    0    0    0  501 -0.00000000000E+00 -0.00000000000E+00 -0.15554769775E+02  0.15554769775E+02  0.00000000000E+00 0.  1.
         25    2    1    2    0    0 -0.61241912349E+02 -0.17979785168E+02  0.55783315808E+03  0.57523879558E+03  0.12509194689E+03 0.  0.
         23    2    1    2    0    0  0.61241912349E+02  0.17979785168E+02  0.47279105394E+03  0.48649495600E+03  0.95247661500E+02 0.  0.
          5    1    3    3  502    0 -0.74148165228E+01  0.27583679561E+01 -0.44471699562E+01  0.99918876328E+01  0.41800000000E+01 0. -1.
         -5    1    3    3    0  502 -0.53827095826E+02 -0.20738153124E+02  0.56228032804E+03  0.56524690794E+03  0.41800000000E+01 0. -1.
        -11    1    4    4    0    0 -0.20721371515E+02  0.24738761261E+02  0.14446047816E+03  0.14802098263E+03  0.00000000000E+00 0.  1.
         11    1    4    4    0    0  0.81963283864E+02 -0.67589760930E+01  0.32833057578E+03  0.33847397337E+03  0.00000000000E+00 0. -1.
</event>
<event>
 8    1  0.6684013E-009  0.1283161E+03  0.7561462E-02  0.1229976E+00
          1   -1    0    0  501    0  0.00000000000E+00  0.00000000000E+00  0.29445193468E+03  0.29445193468E+03  0.00000000000E+00 0. -1.
         -1   -1    0    0    0  501 -0.00000000000E+00 -0.00000000000E+00 -0.67196160797E+02  0.67196160797E+02  0.00000000000E+00 0.  1.
         25    2    1    2    0    0  0.85431551414E+02 -0.28577750846E+02  0.10249274245E+03  0.18511034820E+03  0.12508333596E+03 0.  0.
         23    2    1    2    0    0 -0.85431551414E+02  0.28577750846E+02  0.12476303143E+03  0.17653774727E+03  0.86513145709E+02 0.  0.
          5    1    3    3  502    0  0.40621507148E+02 -0.76051204557E+02  0.74239381492E+02  0.11385451560E+03  0.41800000000E+01 0.  1.
         -5    1    3    3    0  502  0.44810044266E+02  0.47473453712E+02  0.28253360959E+02  0.71255832603E+02  0.41800000000E+01 0.  1.
        -11    1    4    4    0    0 -0.77003869734E+02  0.42996519925E+02  0.53082076104E+02  0.10293689078E+03  0.00000000000E+00 0.  1.
         11    1    4    4    0    0 -0.84276816796E+01 -0.14418769080E+02  0.71680955327E+02  0.73600856495E+02  0.00000000000E+00 0. -1.
</event>
<event>
 8    1  0.6684013E-009  0.6237202E+02  0.7561462E-02  0.1388139E+00
          4   -1    0    0  501    0  0.00000000000E+00  0.00000000000E+00  0.17903185836E+03  0.17903185836E+03  0.00000000000E+00 0. -1.
         -4   -1    0    0    0  501 -0.00000000000E+00 -0.00000000000E+00 -0.75803095648E+02  0.75803095648E+02  0.00000000000E+00 0.  1.
         25    2    1    2    0    0  0.21444527109E+02  0.22543559065E+02  0.72125955908E+02  0.14770746113E+03  0.12508901135E+03 0.  0.
         23    2    1    2    0    0 -0.21444527109E+02 -0.22543559065E+02  0.31102806805E+02  0.10712749288E+03  0.97677199696E+02 0.  0.
          5    1    3    3  502    0  0.31563687730E+02 -0.23481783641E+02  0.89065461158E+02  0.97456602226E+02  0.41800000000E+01 0.  1.
         -5    1    3    3    0  502 -0.10119160621E+02  0.46025342707E+02 -0.16939505250E+02  0.50250858909E+02  0.41800000000E+01 0.  1.
        -11    1    4    4    0    0 -0.24934516077E+01 -0.18278194384E+02 -0.34275434518E+02  0.38924479474E+02  0.00000000000E+00 0.  1.
         11    1    4    4    0    0 -0.18951075501E+02 -0.42653646810E+01  0.65378241324E+02  0.68203013402E+02  0.00000000000E+00 0. -1.
</event>
<event>
 8    1  0.6684013E-009  0.1516008E+03  0.7561462E-02  0.1198520E+00
          2   -1    0    0  501    0  0.00000000000E+00  0.00000000000E+00  0.51343972468E+03  0.51343972468E+03  0.00000000000E+00 0. -1.
         -2   -1    0    0    0  501 -0.00000000000E+00 -0.00000000000E+00 -0.50738493367E+02  0.50738493367E+02  0.00000000000E+00 0.  1.
         25    2    1    2    0    0  0.11186482252E+03  0.77591662048E+01  0.18379301834E+03  0.24900106575E+03  0.12509082291E+03 0.  0.
         23    2    1    2    0    0 -0.11186482252E+03 -0.77591662048E+01  0.27890821298E+03  0.31517715231E+03  0.94725407849E+02 0.  0.
          5    1    3    3  502    0  0.60352436563E+02 -0.57533214921E+02  0.10708521069E+03  0.13578365942E+03  0.41800000000E+01 0. -1.
         -5    1    3    3    0  502  0.51512385953E+02  0.65292381126E+02  0.76707807650E+02  0.11321740632E+03  0.41800000000E+01 0. -1.
        -11    1    4    4    0    0 -0.67869868204E+02  0.33890997345E+02  0.21074108803E+03  0.22397929568E+03  0.00000000000E+00 0. -1.
         11    1    4    4    0    0 -0.43994954312E+02 -0.41650163550E+02  0.68167124947E+02  0.91197856621E+02  0.00000000000E+00 0.  1.
</event>
<event>
 8    1  0.6684013E-009  0.1101355E+03  0.7561462E-02  0.1260319E+00
         -1   -1    0    0    0  501 -0.00000000000E+00  0.00000000000E+00  0.18578094885E+02  0.18578094885E+02  0.00000000000E+00 0.  1.
          1   -1    0    0  501    0  0.00000000000E+00 -0.00000000000E+00 -0.95027951408E+03  0.95027951408E+03  0.00000000000E+00 0. -1.
         25    2    1    2    0    0  0.23142449088E+02  0.75042208394E+02 -0.50717031740E+03  0.52823907141E+03  0.12509148544E+03 0.  0.
         23    2    1    2    0    0 -0.23142449088E+02 -0.75042208394E+02 -0.42453110180E+03  0.44061853755E+03  0.88040520492E+02 0.  0.
          5    1    3    3  502    0 -0.25285498300E+02  0.39513909739E+02 -0.41800422487E+03  0.42064915298E+03  0.41800000000E+01 0.  1.
         -5    1    3    3    0  502  0.48427947388E+02  0.35528298655E+02 -0.89166092521E+02  0.10758991844E+03  0.41800000000E+01 0.  1.
        -11    1    4    4    0    0  0.24369951742E+02 -0.26594762590E+00 -0.48340214048E+02  0.54136323945E+02  0.00000000000E+00 0.  1.
         11    1    4    4    0    0 -0.47512400830E+02 -0.74776260768E+02 -0.37619088775E+03  0.38648221361E+03  0.00000000000E+00 0. -1.
</event>
<event>
 8    1  0.6684013E-009  0.1284458E+03  0.7561462E-02  0.1229780E+00
         -2   -1    0    0    0  501 -0.00000000000E+00  0.00000000000E+00  0.98323674797E+03  0.98323674797E+03  0.00000000000E+00 0.  1.
          2   -1    0    0  501    0  0.00000000000E+00 -0.00000000000E+00 -0.32928627132E+02  0.32928627132E+02  0.00000000000E+00 0. -1.
         25    2    1    2    0    0  0.54029047872E+02  0.80676543764E+02  0.79960339220E+03  0.81513238850E+03  0.12508950091E+03 0.  0.
         23    2    1    2    0    0 -0.54029047872E+02 -0.80676543764E+02  0.15070472864E+03  0.20103298660E+03  0.90964299264E+02 0.  0.
          5    1    3    3  502    0 -0.39396347104E+02  0.10131371155E+02  0.18509764148E+03  0.18956087711E+03  0.41800000000E+01 0. -1.
         -5    1    3    3    0  502  0.93425394976E+02  0.70545172609E+02  0.61450575072E+03  0.62557151139E+03  0.41800000000E+01 0. -1.
        -11    1    4    4    0    0 -0.36246797117E+02 -0.37465667631E+02  0.10406723419E+02  0.53158314915E+02  0.00000000000E+00 0. -1.
         11    1    4    4    0    0 -0.17782250756E+02 -0.43210876132E+02  0.14029800522E+03  0.14787467169E+03  0.00000000000E+00 0.  1.
</event>
<event>
 8    1  0.6684013E-009  0.1160532E+03  0.7561462E-02  0.1249754E+00
         -1   -1    0    0    0  501 -0.00000000000E+00  0.00000000000E+00  0.54913316697E+02  0.54913316697E+02  0.00000000000E+00 0.  1.
          1   -1    0    0  501    0  0.00000000000E+00 -0.00000000000E+00 -0.29989486000E+03  0.29989486000E+03  0.00000000000E+00 0. -1.
         25    2    1    2    0    0  0.10466407636E+01  0.68497178912E+02 -0.14745050939E+03  0.20513871256E+03  0.12508908704E+03 0.  0.
         23    2    1    2    0    0 -0.10466407636E+01 -0.68497178912E+02 -0.97531033914E+02  0.14966946414E+03  0.90530033373E+02 0.  0.
          5    1    3    3  502    0 -0.49715654792E+02  0.65520904333E+02 -0.53432415099E+02  0.98168888245E+02  0.41800000000E+01 0. -1.
         -5    1    3    3    0  502  0.50762295555E+02  0.29762745791E+01 -0.94018094290E+02  0.10696982432E+03  0.41800000000E+01 0. -1.
        -11    1    4    4    0    0 -0.35890301054E+02 -0.29704109098E+02 -0.97932730403E+01  0.47606260134E+02  0.00000000000E+00 0.  1.
         11    1    4    4    0    0  0.34843660291E+02 -0.38793069814E+02 -0.87737760874E+02  0.10206320400E+03  0.00000000000E+00 0. -1.
</event>
<event>
 8    1  0.6684013E-009  0.2795024E+03  0.7561462E-02  0.1095961E+00
          2   -1    0    0  501    0  0.00000000000E+00  0.00000000000E+00  0.32161937905E+03  0.32161937905E+03  0.00000000000E+00 0. -1.
         -2   -1    0    0    0  501 -0.00000000000E+00 -0.00000000000E+00 -0.25636516540E+03  0.25636516540E+03  0.00000000000E+00 0.  1.
         25    2    1    2    0    0  0.85900727576E+02  0.25187808237E+03  0.56761961183E+02  0.29948357105E+03  0.12508791194E+03 0.  0.
         23    2    1    2    0    0 -0.85900727576E+02 -0.25187808237E+03  0.84922524638E+01  0.27850097341E+03  0.81664989192E+02 0.  0.
          5    1    3    3  502    0  0.12455717576E+02  0.18398407889E+03  0.97309929790E-01  0.18445261737E+03  0.41800000000E+01 0. -1.
         -5    1    3    3    0  502  0.73445010000E+02  0.67894003481E+02  0.56664651253E+02  0.11503095368E+03  0.41800000000E+01 0. -1.
        -11    1    4    4    0    0  0.97440650966E+01 -0.51474310691E+02  0.20168357039E+02  0.56136566437E+02  0.00000000000E+00 0. -1.
         11    1    4    4    0    0 -0.95644792672E+02 -0.20040377168E+03 -0.11676104575E+02  0.22236440697E+03  0.00000000000E+00 0.  1.
</event>
<event>
 8    1  0.6684013E-009  0.6978836E+02  0.7561462E-02  0.1360814E+00
          1   -1    0    0  501    0  0.00000000000E+00  0.00000000000E+00  0.23081025044E+03  0.23081025044E+03  0.00000000000E+00 0. -1.
         -1   -1    0    0    0  501 -0.00000000000E+00 -0.00000000000E+00 -0.56109819102E+02  0.56109819102E+02  0.00000000000E+00 0.  1.
         25    2    1    2    0    0  0.17859771385E+02 -0.10162543349E+02  0.13212574921E+03  0.18309994355E+03  0.12508447947E+03 0.  0.
         23    2    1    2    0    0 -0.17859771385E+02  0.10162543349E+02  0.42574682130E+02  0.10382012599E+03  0.92432495803E+02 0.  0.
          5    1    3    3  502    0 -0.37684374027E+02 -0.24316303388E+00 -0.15459880532E+01  0.37947775338E+02  0.41800000000E+01 0.  1.
         -5    1    3    3    0  502  0.55544145412E+02 -0.99193803153E+01  0.13367173726E+03  0.14515216822E+03  0.41800000000E+01 0.  1.
        -11    1    4    4    0    0 -0.15240171063E+02 -0.14050419570E+02 -0.24716074710E+02  0.32257734781E+02  0.00000000000E+00 0.  1.
         11    1    4    4    0    0 -0.26196003219E+01  0.24212962919E+02  0.67290756840E+02  0.71562391207E+02  0.00000000000E+00 0. -1.
</event>
<event>
 8    1  0.6684013E-009  0.2079217E+03  0.7561462E-02  0.1143222E+00
         -1   -1    0    0    0  501 -0.00000000000E+00  0.00000000000E+00  0.31188620488E+02  0.31188620488E+02  0.00000000000E+00 0.  1.
          1   -1    0    0  501    0  0.00000000000E+00 -0.00000000000E+00 -0.15146976165E+04  0.15146976165E+04  0.00000000000E+00 0. -1.
         25    2    1    2    0    0 -0.11021091521E+03  0.14905464116E+03 -0.91053522162E+03  0.93759583085E+03  0.12509124802E+03 0.  0.
         23    2    1    2    0    0  0.11021091521E+03 -0.14905464116E+03 -0.57297377436E+03  0.60829040611E+03  0.85758615763E+02 0.  0.
          5    1    3    3  502    0 -0.94368084833E+01 -0.18678966089E+02 -0.18130460848E+03  0.18255626690E+03  0.41800000000E+01 0.  1.
         -5    1    3    3    0  502 -0.10077410672E+03  0.16773360725E+03 -0.72923061313E+03  0.75503956394E+03  0.41800000000E+01 0.  1.
        -11    1    4    4    0    0  0.90992820902E+02 -0.15405592778E+03 -0.45975457828E+03  0.49334287731E+03  0.00000000000E+00 0.  1.
         11    1    4    4    0    0  0.19218094304E+02  0.50012866225E+01 -0.11321919607E+03  0.11494752879E+03  0.00000000000E+00 0. -1.
</event>
<event>
 8    1  0.6684013E-009  0.1048922E+03  0.7561462E-02  0.1270332E+00
         -2   -1    0    0    0  501 -0.00000000000E+00  0.00000000000E+00  0.34438235216E+02  0.34438235216E+02  0.00000000000E+00 0.  1.
          2   -1    0    0  501    0  0.00000000000E+00 -0.00000000000E+00 -0.67262206913E+03  0.67262206913E+03  0.00000000000E+00 0. -1.
         25    2    1    2    0    0  0.61744465797E+01  0.84670702718E+02 -0.46892904357E+03  0.49269702984E+03  0.12509461865E+03 0.  0.
         23    2    1    2    0    0 -0.61744465797E+01 -0.84670702718E+02 -0.16925479034E+03  0.21436327450E+03  0.10048471384E+03 0.  0.
          5    1    3    3  502    0 -0.38525533608E+02  0.64109206058E+02 -0.40525049870E+03  0.41211605907E+03  0.41800000000E+01 0.  1.
         -5    1    3    3    0  502  0.44699980187E+02  0.20561496660E+02 -0.63678544871E+02  0.80580970772E+02  0.41800000000E+01 0.  1.
        -11    1    4    4    0    0 -0.84867375857E+01 -0.47573934583E+02 -0.81264665169E+01  0.49003504207E+02  0.00000000000E+00 0.  1.
         11    1    4    4    0    0  0.23122910061E+01 -0.37096768136E+02 -0.16112832382E+03  0.16535977030E+03  0.00000000000E+00 0. -1.
</event>
<event>
 8    1  0.6684013E-009  0.1145731E+03  0.7561462E-02  0.1252328E+00
          2   -1    0    0  501    0  0.00000000000E+00  0.00000000000E+00  0.22632184366E+03  0.22632184366E+03  0.00000000000E+00 0. -1.
         -2   -1    0    0    0  501 -0.00000000000E+00 -0.00000000000E+00 -0.65960926004E+02  0.65960926004E+02  0.00000000000E+00 0.  1.
         25    2    1    2    0    0 -0.52578159778E+02  0.24111355963E+02  0.85714469521E+02  0.16229830156E+03  0.12509175845E+03 0.  0.
         23    2    1    2    0    0  0.52578159778E+02 -0.24111355963E+02  0.74646448135E+02  0.12998446810E+03  0.89319926989E+02 0.  0.
          5    1    3    3  502    0  0.24630308197E+02  0.42684812982E+02  0.62012696580E+02  0.79320188340E+02  0.41800000000E+01 0.  1.
         -5    1    3    3    0  502 -0.77208467975E+02 -0.18573457019E+02  0.23701772941E+02  0.82978113218E+02  0.41800000000E+01 0.  1.
        -11    1    4    4    0    0  0.34669331530E+02  0.28317215869E+02  0.55640712072E+02  0.71412296583E+02  0.00000000000E+00 0. -1.
         11    1    4    4    0    0  0.17908828248E+02 -0.52428571832E+02  0.19005736063E+02  0.58572171522E+02  0.00000000000E+00 0.  1.
</event>
<event>
 8    1  0.6684013E-009  0.1163251E+03  0.7561462E-02  0.1249286E+00
          3   -1    0    0  501    0  0.00000000000E+00  0.00000000000E+00  0.37500633426E+03  0.37500633426E+03  0.00000000000E+00 0. -1.
         -3   -1    0    0    0  501 -0.00000000000E+00 -0.00000000000E+00 -0.66691774903E+02  0.66691774903E+02  0.00000000000E+00 0.  1.
         25    2    1    2    0    0 -0.77028446367E+02 -0.33652285384E+02  0.28133982143E+03  0.31916457513E+03  0.12509225808E+03 0.  0.
         23    2    1    2    0    0  0.77028446367E+02  0.33652285384E+02  0.26974737926E+02  0.12253353404E+03  0.84976306202E+02 0.  0.
          5    1    3    3  502    0  0.20066853769E+02 -0.45238379408E+02  0.12748076194E+03  0.13681376633E+03  0.41800000000E+01 0. -1.
         -5    1    3    3    0  502 -0.97095300136E+02  0.11586094023E+02  0.15385905949E+03  0.18235080880E+03  0.41800000000E+01 0. -1.
        -11    1    4    4    0    0  0.57732147103E+02  0.18652221369E+02 -0.24594290504E+02  0.65465909423E+02  0.00000000000E+00 0.  1.
         11    1    4    4    0    0  0.19296299264E+02  0.15000064016E+02  0.51569028430E+02  0.57067624613E+02  0.00000000000E+00 0. -1.
</event>
<event>
 8    1  0.6684013E-009  0.1328090E+03  0.7561462E-02  0.1223346E+00
          1   -1    0    0  501    0  0.00000000000E+00  0.00000000000E+00  0.36185011723E+03  0.36185011723E+03  0.00000000000E+00 0.  1.
         -1   -1    0    0    0  501 -0.00000000000E+00 -0.00000000000E+00 -0.63362476729E+02  0.63362476729E+02  0.00000000000E+00 0. -1.
         25    2    1    2    0    0  0.10359679266E+03  0.18230603276E+02  0.15138317365E+03  0.22277458027E+03  0.12508796108E+03 0.  0.
         23    2    1    2    0    0 -0.10359679266E+03 -0.18230603276E+02  0.14710446685E+03  0.20243801369E+03  0.90976782046E+02 0.  0.
          5    1    3    3  502    0  0.11035742694E+03  0.48459529288E+02  0.14862018017E+03  0.19139623302E+03  0.41800000000E+01 0. -1.
         -5    1    3    3    0  502 -0.67606342793E+01 -0.30228926012E+02  0.27629934815E+01  0.31378347259E+02  0.41800000000E+01 0. -1.
        -11    1    4    4    0    0 -0.27058181393E+02  0.14289846833E+02 -0.30924256506E+01  0.30755617360E+02  0.00000000000E+00 0. -1.
         11    1    4    4    0    0 -0.76538611268E+02 -0.32520450109E+02  0.15019689251E+03  0.17168239633E+03  0.00000000000E+00 0.  1.
</event>
<event>
 8    1  0.6684013E-009  0.1395402E+03  0.7561462E-02  0.1213949E+00
          4   -1    0    0  501    0  0.00000000000E+00  0.00000000000E+00  0.10785192475E+03  0.10785192475E+03  0.00000000000E+00 0. -1.
         -4   -1    0    0    0  501 -0.00000000000E+00 -0.00000000000E+00 -0.46079093577E+03  0.46079093577E+03  0.00000000000E+00 0.  1.
         25    2    1    2    0    0  0.64268285215E+02  0.95756432456E+02  0.16171970865E+02  0.17090575780E+03  0.12509012177E+03 0.  0.
         23    2    1    2    0    0 -0.64268285215E+02 -0.95756432456E+02 -0.36911098189E+03  0.39773710272E+03  0.93017090295E+02 0.  0.
          5    1    3    3  502    0  0.39763514843E+02  0.76049529439E+00  0.52684370037E+02  0.66142503067E+02  0.41800000000E+01 0. -1.
         -5    1    3    3    0  502  0.24504770372E+02  0.94995937161E+02 -0.36512399172E+02  0.10476325473E+03  0.41800000000E+01 0. -1.
        -11    1    4    4    0    0 -0.25994762445E+02 -0.99122846748E+02 -0.20496332573E+03  0.22915285579E+03  0.00000000000E+00 0. -1.
         11    1    4    4    0    0 -0.38273522770E+02  0.33664142923E+01 -0.16414765616E+03  0.16858424693E+03  0.00000000000E+00 0.  1.
</event>
<event>
 8    1  0.6684013E-009  0.1233686E+03  0.7561462E-02  0.1237641E+00
          1   -1    0    0  501    0  0.00000000000E+00  0.00000000000E+00  0.38524111451E+03  0.38524111451E+03  0.00000000000E+00 0. -1.
         -1   -1    0    0    0  501 -0.00000000000E+00 -0.00000000000E+00 -0.41054634209E+02  0.41054634209E+02  0.00000000000E+00 0.  1.
         25    2    1    2    0    0  0.51263723370E+02 -0.31299022519E+02  0.15312026861E+03  0.20664168848E+03  0.12508945844E+03 0.  0.
         23    2    1    2    0    0 -0.51263723370E+02  0.31299022519E+02  0.19106621169E+03  0.21965406024E+03  0.90188750887E+02 0.  0.
          5    1    3    3  502    0 -0.41362900014E+02 -0.24298147951E+01  0.45040987779E+02  0.61342941547E+02  0.41800000000E+01 0. -1.
         -5    1    3    3    0  502  0.92626623385E+02 -0.28869207724E+02  0.10807928083E+03  0.14529874693E+03  0.41800000000E+01 0. -1.
        -11    1    4    4    0    0 -0.65855516730E+02 -0.77360138382E+01  0.10826083025E+03  0.12695354410E+03  0.00000000000E+00 0. -1.
         11    1    4    4    0    0  0.14591793360E+02  0.39035036357E+02  0.82805381446E+02  0.92700516143E+02  0.00000000000E+00 0.  1.
</event>
<event>
 8    1  0.6684013E-009  0.1812936E+03  0.7561462E-02  0.1166557E+00
          1   -1    0    0  501    0  0.00000000000E+00  0.00000000000E+00  0.12356723305E+04  0.12356723305E+04  0.00000000000E+00 0. -1.
         -1   -1    0    0    0  501 -0.00000000000E+00 -0.00000000000E+00 -0.34342680340E+02  0.34342680340E+02  0.00000000000E+00 0.  1.
         25    2    1    2    0    0  0.12071546793E+03  0.84286096974E+02  0.91807455124E+03  0.93818100836E+03  0.12508538073E+03 0.  0.
         23    2    1    2    0    0 -0.12071546793E+03 -0.84286096974E+02  0.28325509891E+03  0.33183400247E+03  0.90575845545E+02 0.  0.
          5    1    3    3  502    0  0.13683224522E+03  0.10010564547E+03  0.83096500433E+03  0.84809463765E+03  0.41800000000E+01 0. -1.
         -5    1    3    3    0  502 -0.16116777294E+02 -0.15819548495E+02  0.87109546912E+02  0.90086370713E+02  0.41800000000E+01 0. -1.
        -11    1    4    4    0    0 -0.52528931106E+02 -0.87177089181E+02  0.13931036844E+03  0.17252974304E+03  0.00000000000E+00 0.  1.
         11    1    4    4    0    0 -0.68186536823E+02  0.28909922070E+01  0.14394473047E+03  0.15930425942E+03  0.00000000000E+00 0. -1.
</event>
<event>
 8    1  0.6684013E-009  0.1187732E+03  0.7561462E-02  0.1245135E+00
         -1   -1    0    0    0  501 -0.00000000000E+00  0.00000000000E+00  0.89706069619E+01  0.89706069619E+01  0.00000000000E+00 0.  1.
          1   -1    0    0  501    0  0.00000000000E+00 -0.00000000000E+00 -0.18485424488E+04  0.18485424488E+04  0.00000000000E+00 0. -1.
         25    2    1    2    0    0  0.96953692876E+01  0.53507133374E+02 -0.13287324426E+04  0.13357150498E+04  0.12509107405E+03 0.  0.
         23    2    1    2    0    0 -0.96953692876E+01 -0.53507133374E+02 -0.51083939928E+03  0.52179800598E+03  0.91428954263E+02 0.  0.
          5    1    3    3  502    0  0.32089125973E+02 -0.30872779499E+02 -0.62055439524E+03  0.62216402208E+03  0.41800000000E+01 0. -1.
         -5    1    3    3    0  502 -0.22393756685E+02  0.84379912873E+02 -0.70817804737E+03  0.71355102775E+03  0.41800000000E+01 0. -1.
        -11    1    4    4    0    0  0.40118235246E+02 -0.31287282582E+02 -0.21178822774E+03  0.21781326924E+03  0.00000000000E+00 0.  1.
         11    1    4    4    0    0 -0.49813604533E+02 -0.22219850792E+02 -0.29905117154E+03  0.30398473673E+03  0.00000000000E+00 0. -1.
</event>
