<event>
 6    1  0.9263730E-006  0.1354100E+03  0.7546771E-02  0.1230490E+00
          1   -1    0    0  501    0  0.00000000000E+00  0.00000000000E+00  0.18616099185E+04  0.18616099185E+04  0.00000000000E+00 0. -1.
         -1   -1    0    0    0  501 -0.00000000000E+00 -0.00000000000E+00 -0.84990567492E+01  0.84990567492E+01  0.00000000000E+00 0.  1.
          5    1    1    2  502    0 -0.34025619953E+02  0.14140103124E+02  0.19220102143E+03  0.19575752340E+03  0.47000000000E+01 0.  1.
         -5    1    1    2    0  502  0.80968412228E+02 -0.36637024186E+02  0.10662522869E+04  0.10699598986E+04  0.47000000000E+01 0.  1.
        -11    1    1    2    0    0 -0.74396831874E+02  0.52181782416E+01  0.45029580664E+03  0.45643009482E+03  0.00000000000E+00 0. -1.
         11    1    1    2    0    0  0.27454039598E+02  0.17278742821E+02  0.14436174680E+03  0.14796145843E+03  0.00000000000E+00 0.  1.
<mgrwt>
<rscale>  0 0.12797615E+03</rscale>
<asrwt>0</asrwt>
<pdfrwt beam="1">  1        1 0.28640120E+00 0.13540998E+03</pdfrwt>
<pdfrwt beam="2">  1       -1 0.13075487E-02 0.13540998E+03</pdfrwt>
<totfact> 0.52182464E+03</totfact>
</mgrwt>
</event>
<event>
 6    1  0.9263730E-006  0.1352244E+03  0.7546771E-02  0.1232085E+00
          1   -1    0    0  501    0  0.00000000000E+00  0.00000000000E+00  0.46415878537E+03  0.46415878537E+03  0.00000000000E+00 0. -1.
         -1   -1    0    0    0  501 -0.00000000000E+00 -0.00000000000E+00 -0.34660330851E+02  0.34660330851E+02  0.00000000000E+00 0.  1.
          5    1    1    2  502    0  0.21796468365E+02  0.54496146210E+02  0.18580129738E+03  0.19490799905E+03  0.47000000000E+01 0.  1.
         -5    1    1    2    0  502 -0.66305817456E+02 -0.28431001221E+02  0.13284248643E+03  0.15124152690E+03  0.47000000000E+01 0.  1.
        -11    1    1    2    0    0  0.13246160063E+02  0.33322289114E+02  0.25080255561E+02  0.43759055374E+02  0.00000000000E+00 0. -1.
         11    1    1    2    0    0  0.31263189028E+02 -0.59387434102E+02  0.85774415152E+02  0.10891053490E+03  0.00000000000E+00 0.  1.
<mgrwt>
<rscale>  0 0.12692882E+03</rscale>
<asrwt>0</asrwt>
<pdfrwt beam="1">  1        1 0.71409039E-01 0.13522438E+03</pdfrwt>
<pdfrwt beam="2">  1       -1 0.53323589E-02 0.13522438E+03</pdfrwt>
<totfact> 0.76107344E+03</totfact>
</mgrwt>
</event>
<event>
 6    1  0.9263730E-006  0.4343920E+03  0.7546771E-02  0.1032481E+00
         -2   -1    0    0    0  501 -0.00000000000E+00  0.00000000000E+00  0.30746317905E+02  0.30746317905E+02  0.00000000000E+00 0.  1.
          2   -1    0    0  501    0  0.00000000000E+00 -0.00000000000E+00 -0.15343007927E+04  0.15343007927E+04  0.00000000000E+00 0. -1.
          5    1    1    2  502    0  0.17768845703E+02  0.72506176870E+01 -0.86636142917E+02  0.88860647050E+02  0.47000000000E+01 0.  1.
         -5    1    1    2    0  502 -0.15859803721E+03 -0.12738335947E+03 -0.78379532315E+03  0.80977592966E+03  0.47000000000E+01 0.  1.
        -11    1    1    2    0    0  0.11067186672E+03  0.13401165220E+03 -0.55342901784E+03  0.58007849710E+03  0.00000000000E+00 0.  1.
         11    1    1    2    0    0  0.30157324790E+02 -0.13878910422E+02 -0.79693990918E+02  0.86332036819E+02  0.00000000000E+00 0. -1.
<mgrwt>
<rscale>  0 0.43439199E+03</rscale>
<asrwt>0</asrwt>
<pdfrwt beam="2">  1        2 0.23604629E+00 0.43439199E+03</pdfrwt>
<pdfrwt beam="1">  1       -2 0.47302026E-02 0.43439199E+03</pdfrwt>
<totfact> 0.27826451E+03</totfact>
</mgrwt>
</event>
<event>
 6    1  0.9263730E-006  0.1459595E+03  0.7546771E-02  0.1211033E+00
         -2   -1    0    0    0  501 -0.00000000000E+00  0.00000000000E+00  0.28046251168E+02  0.28046251168E+02  0.00000000000E+00 0.  1.
          2   -1    0    0  501    0  0.00000000000E+00 -0.00000000000E+00 -0.72627773771E+03  0.72627773771E+03  0.00000000000E+00 0. -1.
          5    1    1    2  502    0  0.35917346076E+02 -0.10850803658E+01 -0.86922729962E+02  0.94174753160E+02  0.47000000000E+01 0.  1.
         -5    1    1    2    0  502 -0.10192503120E+03 -0.35266052395E+02 -0.37898182843E+03  0.39405801948E+03  0.47000000000E+01 0.  1.
        -11    1    1    2    0    0  0.78358074507E+02  0.62791562748E+02 -0.18485892638E+03  0.21037012824E+03  0.00000000000E+00 0. -1.
         11    1    1    2    0    0 -0.12350389384E+02 -0.26440429988E+02 -0.47468001766E+02  0.55721087997E+02  0.00000000000E+00 0.  1.
<mgrwt>
<rscale>  0 0.14171987E+03</rscale>
<asrwt>0</asrwt>
<pdfrwt beam="2">  1        2 0.11173502E+00 0.14595952E+03</pdfrwt>
<pdfrwt beam="1">  1       -2 0.43148084E-02 0.14595952E+03</pdfrwt>
<totfact> 0.94622988E+03</totfact>
</mgrwt>
</event>
<event>
 6    1  0.9263730E-006  0.3887512E+03  0.7546771E-02  0.1047746E+00
          1   -1    0    0  501    0  0.00000000000E+00  0.00000000000E+00  0.22221661538E+03  0.22221661538E+03  0.00000000000E+00 0. -1.
         -1   -1    0    0    0  501 -0.00000000000E+00 -0.00000000000E+00 -0.17002274253E+03  0.17002274253E+03  0.00000000000E+00 0.  1.
          5    1    1    2  502    0  0.11620829010E+03  0.45562671150E+02  0.12502588034E+03  0.17673110774E+03  0.47000000000E+01 0. -1.
         -5    1    1    2    0  502 -0.16086451597E+02 -0.30847528670E+02  0.28036199166E+02  0.44927301429E+02  0.47000000000E+01 0.  1.
        -11    1    1    2    0    0 -0.59671755555E+02 -0.22492517092E+02 -0.11113364294E+03  0.12813008363E+03  0.00000000000E+00 0.  1.
         11    1    1    2    0    0 -0.40450082950E+02  0.77773746117E+01  0.10265436285E+02  0.42450865111E+02  0.00000000000E+00 0. -1.
<mgrwt>
<rscale>  0 0.38875122E+03</rscale>
<asrwt>0</asrwt>
<pdfrwt beam="1">  1        1 0.34187172E-01 0.38875122E+03</pdfrwt>
<pdfrwt beam="2">  1       -1 0.26157345E-01 0.38875122E+03</pdfrwt>
<totfact> 0.16629798E+03</totfact>
</mgrwt>
</event>
<event>
 6    1  0.9263730E-006  0.1364737E+03  0.7546771E-02  0.1229883E+00
          1   -1    0    0  501    0  0.00000000000E+00  0.00000000000E+00  0.34997780636E+03  0.34997780636E+03  0.00000000000E+00 0. -1.
         -1   -1    0    0    0  501 -0.00000000000E+00 -0.00000000000E+00 -0.10215729222E+03  0.10215729222E+03  0.00000000000E+00 0.  1.
          5    1    1    2  502    0  0.43813802574E+02 -0.47654833566E+02  0.26868611074E+03  0.27641445071E+03  0.47000000000E+01 0.  1.
         -5    1    1    2    0  502 -0.43162156087E+02 -0.71850229038E+01  0.33987824680E+02  0.55604482721E+02  0.47000000000E+01 0.  1.
        -11    1    1    2    0    0 -0.35700481401E+01  0.67760695308E+02 -0.71678847009E+02  0.98702148816E+02  0.00000000000E+00 0.  1.
         11    1    1    2    0    0  0.29184016528E+01 -0.12920838838E+02  0.16825425734E+02  0.21414016335E+02  0.00000000000E+00 0. -1.
<mgrwt>
<rscale>  0 0.12837786E+03</rscale>
<asrwt>0</asrwt>
<pdfrwt beam="1">  1        1 0.53842739E-01 0.13647366E+03</pdfrwt>
<pdfrwt beam="2">  1       -1 0.15716507E-01 0.13647366E+03</pdfrwt>
<totfact> 0.20998491E+03</totfact>
</mgrwt>
</event>
<event>
 6    1  0.9263730E-006  0.3286592E+03  0.7546771E-02  0.1074876E+00
         -1   -1    0    0    0  501 -0.00000000000E+00  0.00000000000E+00  0.10938884036E+03  0.10938884036E+03  0.00000000000E+00 0.  1.
          1   -1    0    0  501    0  0.00000000000E+00 -0.00000000000E+00 -0.95419057102E+03  0.95419057102E+03  0.00000000000E+00 0. -1.
          5    1    1    2  502    0 -0.20198900513E+03  0.93445348170E+02 -0.14517606155E+03  0.26576261990E+03  0.47000000000E+01 0. -1.
         -5    1    1    2    0  502 -0.33108140284E+02  0.73020235979E+02 -0.17748206603E+03  0.19480779650E+03  0.47000000000E+01 0.  1.
        -11    1    1    2    0    0  0.22771619571E+03 -0.14162927112E+03 -0.42552133396E+03  0.50297308266E+03  0.00000000000E+00 0.  1.
         11    1    1    2    0    0  0.73809497007E+01 -0.24836313028E+02 -0.96622269119E+02  0.10003591232E+03  0.00000000000E+00 0. -1.
<mgrwt>
<rscale>  0 0.32168519E+03</rscale>
<asrwt>0</asrwt>
<pdfrwt beam="2">  1        1 0.14679855E+00 0.32865916E+03</pdfrwt>
<pdfrwt beam="1">  1       -1 0.16829052E-01 0.32865916E+03</pdfrwt>
<totfact> 0.46286440E+02</totfact>
</mgrwt>
</event>
<event>
 6    1  0.9263730E-006  0.4351164E+03  0.7546771E-02  0.1032256E+00
         -2   -1    0    0    0  501 -0.00000000000E+00  0.00000000000E+00  0.32133756567E+03  0.32133756567E+03  0.00000000000E+00 0.  1.
          2   -1    0    0  501    0  0.00000000000E+00 -0.00000000000E+00 -0.14729547762E+03  0.14729547762E+03  0.00000000000E+00 0. -1.
          5    1    1    2  502    0 -0.18721280299E+03  0.15394919173E+02 -0.45686044802E+01  0.18795903620E+03  0.47000000000E+01 0. -1.
         -5    1    1    2    0  502  0.16996942320E+02 -0.12553917702E+02  0.85721308729E+01  0.23282360825E+02  0.47000000000E+01 0. -1.
        -11    1    1    2    0    0  0.13704701102E+03 -0.14132233902E+02  0.17421104688E+03  0.22210603801E+03  0.00000000000E+00 0. -1.
         11    1    1    2    0    0  0.33168849652E+02  0.11291232431E+02 -0.41724852190E+01  0.35285608255E+02  0.00000000000E+00 0.  1.
<mgrwt>
<rscale>  0 0.43511640E+03</rscale>
<asrwt>0</asrwt>
<pdfrwt beam="2">  1        2 0.22660843E-01 0.43511640E+03</pdfrwt>
<pdfrwt beam="1">  1       -2 0.49436549E-01 0.43511640E+03</pdfrwt>
<totfact> 0.95201896E+02</totfact>
</mgrwt>
</event>
<event>
 6    1  0.9263730E-006  0.1391779E+03  0.7546771E-02  0.1225704E+00
          2   -1    0    0  501    0  0.00000000000E+00  0.00000000000E+00  0.10962527111E+04  0.10962527111E+04  0.00000000000E+00 0. -1.
         -2   -1    0    0    0  501 -0.00000000000E+00 -0.00000000000E+00 -0.15920700609E+02  0.15920700609E+02  0.00000000000E+00 0.  1.
          5    1    1    2  502    0  0.27122550482E+02 -0.38339624826E+02  0.42362944654E+03  0.42625058071E+03  0.47000000000E+01 0.  1.
         -5    1    1    2    0  502  0.15517153531E+02  0.82181375616E+02  0.35762531274E+03  0.36730438993E+03  0.47000000000E+01 0.  1.
        -11    1    1    2    0    0 -0.14868812069E+02 -0.67585966795E+02  0.15103619775E+03  0.16613511823E+03  0.00000000000E+00 0.  1.
         11    1    1    2    0    0 -0.27770891945E+02  0.23744216005E+02  0.14804105350E+03  0.15248332288E+03  0.00000000000E+00 0. -1.
<mgrwt>
<rscale>  0 0.13118780E+03</rscale>
<asrwt>0</asrwt>
<pdfrwt beam="1">  1        2 0.16865420E+00 0.13917792E+03</pdfrwt>
<pdfrwt beam="2">  1       -2 0.24493394E-02 0.13917792E+03</pdfrwt>
<totfact> 0.12684141E+04</totfact>
</mgrwt>
</event>
<event>
 6    1  0.9263730E-006  0.2285256E+03  0.7546771E-02  0.1127682E+00
         -3   -1    0    0    0  501 -0.00000000000E+00  0.00000000000E+00  0.25802866973E+02  0.25802866973E+02  0.00000000000E+00 0.  1.
          3   -1    0    0  501    0  0.00000000000E+00 -0.00000000000E+00 -0.50598995479E+03  0.50598995479E+03  0.00000000000E+00 0. -1.
          5    1    1    2  502    0 -0.36905474554E+02  0.97675374264E+01 -0.14786414922E+03  0.15278519386E+03  0.47000000000E+01 0. -1.
         -5    1    1    2    0  502  0.78025029036E+02 -0.17269605980E+02 -0.17121462393E+03  0.18900444941E+03  0.47000000000E+01 0.  1.
        -11    1    1    2    0    0 -0.20002636334E+02 -0.31722121983E+02 -0.20995534071E+02  0.42979191876E+02  0.00000000000E+00 0.  1.
         11    1    1    2    0    0 -0.21116918148E+02  0.39224190536E+02 -0.14011278060E+03  0.14702398662E+03  0.00000000000E+00 0. -1.
<mgrwt>
<rscale>  0 0.22852564E+03</rscale>
<asrwt>0</asrwt>
<pdfrwt beam="2">  1        3 0.77844595E-01 0.22852564E+03</pdfrwt>
<pdfrwt beam="1">  1       -3 0.39696725E-02 0.22852564E+03</pdfrwt>
<totfact> 0.12962607E+03</totfact>
</mgrwt>
</event>
<event>
 6    1  0.9263730E-006  0.1284827E+03  0.7546771E-02  0.1243987E+00
         -4   -1    0    0    0  501 -0.00000000000E+00  0.00000000000E+00  0.55491543646E+02  0.55491543646E+02  0.00000000000E+00 0. -1.
          4   -1    0    0  501    0  0.00000000000E+00 -0.00000000000E+00 -0.22802462271E+03  0.22802462271E+03  0.00000000000E+00 0.  1.
          5    1    1    2  502    0 -0.19742934753E+02 -0.51827990359E+02 -0.55581821929E+02  0.78659729127E+02  0.47000000000E+01 0. -1.
         -5    1    1    2    0  502  0.49446346471E+02  0.52310626291E+02 -0.52134587205E+02  0.89002516736E+02  0.47000000000E+01 0. -1.
        -11    1    1    2    0    0 -0.15053558752E+01  0.22350694921E+02  0.15823928647E+02  0.27426563357E+02  0.00000000000E+00 0. -1.
         11    1    1    2    0    0 -0.28198055843E+02 -0.22833330853E+02 -0.80640598572E+02  0.88427357131E+02  0.00000000000E+00 0.  1.
<mgrwt>
<rscale>  0 0.11946215E+03</rscale>
<asrwt>0</asrwt>
<pdfrwt beam="2">  1        4 0.35080711E-01 0.12848270E+03</pdfrwt>
<pdfrwt beam="1">  1       -4 0.85371605E-02 0.12848270E+03</pdfrwt>
<totfact> 0.12699024E+03</totfact>
</mgrwt>
</event>
<event>
 6    1  0.9263730E-006  0.1251998E+03  0.7546771E-02  0.1250430E+00
          1   -1    0    0  501    0  0.00000000000E+00  0.00000000000E+00  0.15884754909E+03  0.15884754909E+03  0.00000000000E+00 0. -1.
         -1   -1    0    0    0  501 -0.00000000000E+00 -0.00000000000E+00 -0.76425163666E+02  0.76425163666E+02  0.00000000000E+00 0.  1.
          5    1    1    2  502    0  0.11749154447E+02 -0.48577188138E+02 -0.86016127685E+01  0.50929987039E+02  0.47000000000E+01 0. -1.
         -5    1    1    2    0  502 -0.18682592781E+02  0.45244952784E+02  0.78026765070E+02  0.92230207052E+02  0.47000000000E+01 0. -1.
        -11    1    1    2    0    0  0.23878357341E+02 -0.52708823460E+01  0.47101580924E+02  0.53070868427E+02  0.00000000000E+00 0. -1.
         11    1    1    2    0    0 -0.16944919007E+02  0.86031176996E+01 -0.34104347802E+02  0.39041650238E+02  0.00000000000E+00 0.  1.
<mgrwt>
<rscale>  0 0.11566199E+03</rscale>
<asrwt>0</asrwt>
<pdfrwt beam="1">  1        1 0.24438084E-01 0.12519980E+03</pdfrwt>
<pdfrwt beam="2">  1       -1 0.11757717E-01 0.12519980E+03</pdfrwt>
<totfact> 0.87410572E+03</totfact>
</mgrwt>
</event>
<event>
 6    1  0.9263730E-006  0.1773155E+03  0.7546771E-02  0.1176358E+00
          2   -1    0    0  501    0  0.00000000000E+00  0.00000000000E+00  0.10105105243E+04  0.10105105243E+04  0.00000000000E+00 0. -1.
         -2   -1    0    0    0  501 -0.00000000000E+00 -0.00000000000E+00 -0.31048442603E+02  0.31048442603E+02  0.00000000000E+00 0.  1.
          5    1    1    2  502    0 -0.13707232478E+03  0.40712149433E+02  0.48405613639E+03  0.50475611389E+03  0.47000000000E+01 0.  1.
         -5    1    1    2    0  502  0.22363548797E+02  0.99041262333E+01  0.21498983686E+03  0.21642767841E+03  0.47000000000E+01 0.  1.
        -11    1    1    2    0    0 -0.84615756630E+01  0.11532688241E+02  0.48104993931E+02  0.50186567943E+02  0.00000000000E+00 0. -1.
         11    1    1    2    0    0  0.12317035165E+03 -0.62148963907E+02  0.23231111452E+03  0.27018860666E+03  0.00000000000E+00 0.  1.
<mgrwt>
<rscale>  0 0.17143615E+03</rscale>
<asrwt>0</asrwt>
<pdfrwt beam="1">  1        2 0.15546313E+00 0.17731551E+03</pdfrwt>
<pdfrwt beam="2">  1       -2 0.47766843E-02 0.17731551E+03</pdfrwt>
<totfact> 0.53486811E+03</totfact>
</mgrwt>
</event>
<event>
 6    1  0.9263730E-006  0.2217551E+03  0.7546771E-02  0.1135562E+00
          1   -1    0    0  501    0  0.00000000000E+00  0.00000000000E+00  0.26291568554E+03  0.26291568554E+03  0.00000000000E+00 0. -1.
         -1   -1    0    0    0  501 -0.00000000000E+00 -0.00000000000E+00 -0.18071335694E+03  0.18071335694E+03  0.00000000000E+00 0.  1.
          5    1    1    2  502    0 -0.35719899277E+02  0.96910919194E+02  0.48179726950E+01  0.10350333485E+03  0.47000000000E+01 0.  1.
         -5    1    1    2    0  502 -0.10547737313E+03  0.19771933326E+02  0.79935176004E+02  0.13389595943E+03  0.47000000000E+01 0.  1.
        -11    1    1    2    0    0  0.33666052964E+02 -0.16127008070E+02 -0.39595993910E+02  0.54418069106E+02  0.00000000000E+00 0.  1.
         11    1    1    2    0    0  0.10753121944E+03 -0.10055584445E+03  0.37045173811E+02  0.15181167910E+03  0.00000000000E+00 0. -1.
<mgrwt>
<rscale>  0 0.21776333E+03</rscale>
<asrwt>0</asrwt>
<pdfrwt beam="1">  1        1 0.40448567E-01 0.22175511E+03</pdfrwt>
<pdfrwt beam="2">  1       -1 0.27802055E-01 0.22175511E+03</pdfrwt>
<totfact> 0.12024533E+03</totfact>
</mgrwt>
</event>
<event>
 6    1  0.9263730E-006  0.3045301E+03  0.7546771E-02  0.1082998E+00
          1   -1    0    0  501    0  0.00000000000E+00  0.00000000000E+00  0.23739366527E+02  0.23739366527E+02  0.00000000000E+00 0. -1.
         -1   -1    0    0    0  501 -0.00000000000E+00 -0.00000000000E+00 -0.97663300358E+03  0.97663300358E+03  0.00000000000E+00 0.  1.
          5    1    1    2  502    0  0.51210292610E+01  0.20151460352E+02 -0.16853182524E+03  0.16987457848E+03  0.47000000000E+01 0.  1.
         -5    1    1    2    0  502 -0.67065123644E+02 -0.91914597554E+02 -0.19061977948E+03  0.22204507286E+03  0.47000000000E+01 0.  1.
        -11    1    1    2    0    0  0.38967049557E+02 -0.14522085070E+02 -0.14169660590E+03  0.14767278026E+03  0.00000000000E+00 0. -1.
         11    1    1    2    0    0  0.22977044826E+02  0.86285222272E+02 -0.45204542643E+03  0.46077993850E+03  0.00000000000E+00 0.  1.
<mgrwt>
<rscale>  0 0.30453012E+03</rscale>
<asrwt>0</asrwt>
<pdfrwt beam="1">  1        1 0.36522108E-02 0.30453012E+03</pdfrwt>
<pdfrwt beam="2">  1       -1 0.15025121E+00 0.30453012E+03</pdfrwt>
<totfact> 0.97393837E+02</totfact>
</mgrwt>
</event>
<event>
 6    1  0.9263730E-006  0.1599848E+03  0.7546771E-02  0.1196216E+00
          2   -1    0    0  501    0  0.00000000000E+00  0.00000000000E+00  0.82333844186E+03  0.82333844186E+03  0.00000000000E+00 0. -1.
         -2   -1    0    0    0  501 -0.00000000000E+00 -0.00000000000E+00 -0.34677732027E+02  0.34677732027E+02  0.00000000000E+00 0.  1.
          5    1    1    2  502    0 -0.64546366330E+02 -0.56490580797E+02  0.62328701915E+03  0.62917900264E+03  0.47000000000E+01 0. -1.
         -5    1    1    2    0  502 -0.42114502855E+01 -0.15918656151E+02  0.32095161474E+01  0.17422138820E+02  0.47000000000E+01 0. -1.
        -11    1    1    2    0    0 -0.55590228327E+01  0.25274398206E+02  0.10095183765E+03  0.10421598469E+03  0.00000000000E+00 0. -1.
         11    1    1    2    0    0  0.74316839448E+02  0.47134838742E+02  0.61212336885E+02  0.10719904774E+03  0.00000000000E+00 0.  1.
<mgrwt>
<rscale>  0 0.15351773E+03</rscale>
<asrwt>0</asrwt>
<pdfrwt beam="1">  1        2 0.12666744E+00 0.15998477E+03</pdfrwt>
<pdfrwt beam="2">  1       -2 0.53350363E-02 0.15998477E+03</pdfrwt>
<totfact> 0.59191725E+03</totfact>
</mgrwt>
</event>
<event>
 6    1  0.9263730E-006  0.1383360E+03  0.7546771E-02  0.1224030E+00
          2   -1    0    0  501    0  0.00000000000E+00  0.00000000000E+00  0.88833848709E+03  0.88833848709E+03  0.00000000000E+00 0. -1.
         -2   -1    0    0    0  501 -0.00000000000E+00 -0.00000000000E+00 -0.43822457345E+02  0.43822457345E+02  0.00000000000E+00 0.  1.
          5    1    1    2  502    0 -0.32204840770E+02  0.85876962102E+02  0.55678446764E+03  0.56430757375E+03  0.47000000000E+01 0. -1.
         -5    1    1    2    0  502 -0.22667673538E+02 -0.39857491631E+02  0.23689349351E+03  0.24133599054E+03  0.47000000000E+01 0.  1.
        -11    1    1    2    0    0  0.29596679059E+01  0.14659140774E+02 -0.16349400120E+02  0.22157457585E+02  0.00000000000E+00 0.  1.
         11    1    1    2    0    0  0.51912846401E+02 -0.60678611245E+02  0.67187468722E+02  0.10435992256E+03  0.00000000000E+00 0. -1.
<mgrwt>
<rscale>  0 0.13233634E+03</rscale>
<asrwt>0</asrwt>
<pdfrwt beam="1">  1        2 0.13666745E+00 0.13833599E+03</pdfrwt>
<pdfrwt beam="2">  1       -2 0.67419172E-02 0.13833599E+03</pdfrwt>
<totfact> 0.37413334E+03</totfact>
</mgrwt>
</event>
<event>
 6    1  0.9263730E-006  0.2355419E+03  0.7546771E-02  0.1152097E+00
          1   -1    0    0  501    0  0.00000000000E+00  0.00000000000E+00  0.80611198911E+03  0.80611198911E+03  0.00000000000E+00 0. -1.
         -1   -1    0    0    0  501 -0.00000000000E+00 -0.00000000000E+00 -0.39845658409E+02  0.39845658409E+02  0.00000000000E+00 0.  1.
          5    1    1    2  502    0 -0.10875486045E+03 -0.58969757108E+02  0.36361555960E+03  0.38411380749E+03  0.47000000000E+01 0. -1.
         -5    1    1    2    0  502  0.10754227635E+03 -0.14589361452E+02  0.22395009258E+03  0.24890545320E+03  0.47000000000E+01 0.  1.
        -11    1    1    2    0    0  0.40716031446E+02  0.54654580261E+02  0.80908863903E+02  0.10578829150E+03  0.00000000000E+00 0.  1.
         11    1    1    2    0    0 -0.39503447348E+02  0.18904538298E+02  0.97791814629E+02  0.10715009533E+03  0.00000000000E+00 0. -1.
<mgrwt>
<rscale>  0 0.19723091E+03</rscale>
<asrwt>0</asrwt>
<pdfrwt beam="1">  1        1 0.12401722E+00 0.23554190E+03</pdfrwt>
<pdfrwt beam="2">  1       -1 0.61301019E-02 0.23554190E+03</pdfrwt>
<totfact> 0.29314509E+03</totfact>
</mgrwt>
</event>
<event>
 6    1  0.9263730E-006  0.1315769E+03  0.7546771E-02  0.1237162E+00
          2   -1    0    0  501    0  0.00000000000E+00  0.00000000000E+00  0.94892228069E+02  0.94892228069E+02  0.00000000000E+00 0. -1.
         -2   -1    0    0    0  501 -0.00000000000E+00 -0.00000000000E+00 -0.15708062561E+03  0.15708062561E+03  0.00000000000E+00 0.  1.
          5    1    1    2  502    0 -0.32855574590E+02 -0.15949373966E+02  0.34150215591E+02  0.50221494766E+02  0.47000000000E+01 0. -1.
         -5    1    1    2    0  502  0.73402836879E+02  0.93435669370E+01 -0.33490324945E+02  0.81357056055E+02  0.47000000000E+01 0. -1.
        -11    1    1    2    0    0 -0.64924920062E+02 -0.16854751732E+00 -0.68594798192E+02  0.94448504447E+02  0.00000000000E+00 0.  1.
         11    1    1    2    0    0  0.24377657774E+02  0.67743545465E+01  0.57465100033E+01  0.25945798413E+02  0.00000000000E+00 0. -1.
<mgrwt>
<rscale>  0 0.12367016E+03</rscale>
<asrwt>0</asrwt>
<pdfrwt beam="1">  1        2 0.14598804E-01 0.13157690E+03</pdfrwt>
<pdfrwt beam="2">  1       -2 0.24166250E-01 0.13157690E+03</pdfrwt>
<totfact> 0.57610034E+03</totfact>
</mgrwt>
</event>
<event>
 6    1  0.9263730E-006  0.1453442E+03  0.7546771E-02  0.1227702E+00
         -2   -1    0    0    0  501 -0.00000000000E+00  0.00000000000E+00  0.36414192521E+03  0.36414192521E+03  0.00000000000E+00 0.  1.
          2   -1    0    0  501    0  0.00000000000E+00 -0.00000000000E+00 -0.51791848876E+02  0.51791848876E+02  0.00000000000E+00 0. -1.
          5    1    1    2  502    0 -0.55168908630E+02 -0.44106442198E+02  0.24477430079E+02  0.74901410574E+02  0.47000000000E+01 0. -1.
         -5    1    1    2    0  502  0.61857964336E+02 -0.36697524931E+02  0.55691464706E+02  0.91086471712E+02  0.47000000000E+01 0.  1.
        -11    1    1    2    0    0 -0.12302834906E+02  0.19645777569E+01  0.46549268548E+02  0.48187692566E+02  0.00000000000E+00 0. -1.
         11    1    1    2    0    0  0.56137791991E+01  0.78839389372E+02  0.18563191301E+03  0.20175819924E+03  0.00000000000E+00 0.  1.
<mgrwt>
<rscale>  0 0.12983391E+03</rscale>
<asrwt>0</asrwt>
<pdfrwt beam="2">  1        2 0.79679770E-02 0.14534416E+03</pdfrwt>
<pdfrwt beam="1">  1       -2 0.56021833E-01 0.14534416E+03</pdfrwt>
<totfact> 0.25142033E+03</totfact>
</mgrwt>
</event>
<event>
 6    1  0.9263730E-006  0.1272754E+03  0.7546771E-02  0.1246662E+00
         -1   -1    0    0    0  501 -0.00000000000E+00  0.00000000000E+00  0.28295355647E+03  0.28295355647E+03  0.00000000000E+00 0.  1.
          1   -1    0    0  501    0  0.00000000000E+00 -0.00000000000E+00 -0.74196977085E+02  0.74196977085E+02  0.00000000000E+00 0. -1.
          5    1    1    2  502    0  0.58362171351E+02 -0.48560974845E+01 -0.24818581436E+02  0.63779124423E+02  0.47000000000E+01 0. -1.
         -5    1    1    2    0  502 -0.55616483903E+02 -0.18945932146E+02  0.23627486209E+02  0.63501887619E+02  0.47000000000E+01 0. -1.
        -11    1    1    2    0    0 -0.12627855198E+02  0.56878500875E+02  0.14605696088E+03  0.15724904581E+03  0.00000000000E+00 0. -1.
         11    1    1    2    0    0  0.98821677497E+01 -0.33076471244E+02  0.63890713733E+02  0.72620475699E+02  0.00000000000E+00 0.  1.
<mgrwt>
<rscale>  0 0.11786468E+03</rscale>
<asrwt>0</asrwt>
<pdfrwt beam="2">  1        1 0.11414920E-01 0.12727544E+03</pdfrwt>
<pdfrwt beam="1">  1       -1 0.43531316E-01 0.12727544E+03</pdfrwt>
<totfact> 0.27393476E+03</totfact>
</mgrwt>
</event>
<event>
 6    1  0.9263730E-006  0.1516899E+03  0.7546771E-02  0.1205855E+00
         -2   -1    0    0    0  501 -0.00000000000E+00  0.00000000000E+00  0.28474889742E+02  0.28474889742E+02  0.00000000000E+00 0.  1.
          2   -1    0    0  501    0  0.00000000000E+00 -0.00000000000E+00 -0.77490872535E+03  0.77490872535E+03  0.00000000000E+00 0. -1.
          5    1    1    2  502    0  0.58856984575E+01 -0.99186146256E+02 -0.28304887095E+03  0.30001881008E+03  0.47000000000E+01 0.  1.
         -5    1    1    2    0  502 -0.41060284124E+02  0.20760716079E+02 -0.24772572781E+03  0.25200611199E+03  0.47000000000E+01 0.  1.
        -11    1    1    2    0    0  0.16698034637E+02  0.76597378613E+02 -0.21889666699E+03  0.23251179237E+03  0.00000000000E+00 0. -1.
         11    1    1    2    0    0  0.18476551029E+02  0.18280515637E+01  0.32374301331E+01  0.18846900656E+02  0.00000000000E+00 0.  1.
<mgrwt>
<rscale>  0 0.14570250E+03</rscale>
<asrwt>0</asrwt>
<pdfrwt beam="2">  1        2 0.11921671E+00 0.15168995E+03</pdfrwt>
<pdfrwt beam="1">  1       -2 0.43807529E-02 0.15168995E+03</pdfrwt>
<totfact> 0.85660804E+03</totfact>
</mgrwt>
</event>
<event>
 6    1  0.9263730E-006  0.1300033E+03  0.7546771E-02  0.1241446E+00
         -2   -1    0    0    0  501 -0.00000000000E+00  0.00000000000E+00  0.52913750483E+02  0.52913750483E+02  0.00000000000E+00 0.  1.
          2   -1    0    0  501    0  0.00000000000E+00 -0.00000000000E+00 -0.28648247496E+03  0.28648247496E+03  0.00000000000E+00 0. -1.
          5    1    1    2  502    0 -0.13194534011E+02  0.44016393075E+02 -0.50960415608E+02  0.68779303181E+02  0.47000000000E+01 0.  1.
         -5    1    1    2    0  502  0.27448487225E+02 -0.76759957351E+02 -0.14426651635E+03  0.16577221794E+03  0.47000000000E+01 0.  1.
        -11    1    1    2    0    0 -0.29124799913E+02  0.28249476605E+02  0.19454210443E+02  0.44997257721E+02  0.00000000000E+00 0.  1.
         11    1    1    2    0    0  0.14870846698E+02  0.44940876703E+01 -0.57796002965E+02  0.59847446598E+02  0.00000000000E+00 0. -1.
<mgrwt>
<rscale>  0 0.12100649E+03</rscale>
<asrwt>0</asrwt>
<pdfrwt beam="2">  1        2 0.44074227E-01 0.13000331E+03</pdfrwt>
<pdfrwt beam="1">  1       -2 0.81405771E-02 0.13000331E+03</pdfrwt>
<totfact> 0.99704266E+03</totfact>
</mgrwt>
</event>
<event>
 6    1  0.9263730E-006  0.1432388E+03  0.7546771E-02  0.1220825E+00
         -2   -1    0    0    0  501 -0.00000000000E+00  0.00000000000E+00  0.24495348114E+03  0.24495348114E+03  0.00000000000E+00 0.  1.
          2   -1    0    0  501    0  0.00000000000E+00 -0.00000000000E+00 -0.78442406150E+02  0.78442406150E+02  0.00000000000E+00 0. -1.
          5    1    1    2  502    0 -0.81305320991E+02  0.22643205420E+02  0.40309377462E+02  0.93649377385E+02  0.47000000000E+01 0.  1.
         -5    1    1    2    0  502  0.16231657034E+02 -0.48275372236E+02 -0.11580395168E+02  0.52442099566E+02  0.47000000000E+01 0.  1.
        -11    1    1    2    0    0  0.54064847582E+02 -0.24186747613E+02  0.87575252299E+02  0.10572337168E+03  0.00000000000E+00 0.  1.
         11    1    1    2    0    0  0.11008816375E+02  0.49818914429E+02  0.50206840399E+02  0.71581038661E+02  0.00000000000E+00 0. -1.
<mgrwt>
<rscale>  0 0.13457197E+03</rscale>
<asrwt>0</asrwt>
<pdfrwt beam="2">  1        2 0.12068063E-01 0.14323884E+03</pdfrwt>
<pdfrwt beam="1">  1       -2 0.37685151E-01 0.14323884E+03</pdfrwt>
<totfact> 0.32615566E+03</totfact>
</mgrwt>
</event>
<event>
 6    1  0.9263730E-006  0.1132901E+03  0.7546771E-02  0.1263718E+00
          2   -1    0    0  501    0  0.00000000000E+00  0.00000000000E+00  0.77240838814E+03  0.77240838814E+03  0.00000000000E+00 0. -1.
         -2   -1    0    0    0  501 -0.00000000000E+00 -0.00000000000E+00 -0.15579481392E+02  0.15579481392E+02  0.00000000000E+00 0.  1.
          5    1    1    2  502    0 -0.34870781887E+02  0.45892150913E+02  0.45436800098E+03  0.45803322070E+03  0.47000000000E+01 0. -1.
         -5    1    1    2    0  502  0.21244753262E+02 -0.30042476783E+02  0.79573735134E+02  0.87794984342E+02  0.47000000000E+01 0.  1.
        -11    1    1    2    0    0  0.13093558763E+02 -0.50329972081E+02  0.81898723534E+02  0.97015196167E+02  0.00000000000E+00 0.  1.
         11    1    1    2    0    0  0.53246986182E+00  0.34480297951E+02  0.14098844710E+03  0.14514446833E+03  0.00000000000E+00 0. -1.
<mgrwt>
<rscale>  0 0.10831743E+03</rscale>
<asrwt>0</asrwt>
<pdfrwt beam="1">  1        2 0.11883203E+00 0.11329012E+03</pdfrwt>
<pdfrwt beam="2">  1       -2 0.23968439E-02 0.11329012E+03</pdfrwt>
<totfact> 0.20487581E+04</totfact>
</mgrwt>
</event>
<event>
 6    1  0.9263730E-006  0.2983068E+03  0.7546771E-02  0.1086090E+00
          2   -1    0    0  501    0  0.00000000000E+00  0.00000000000E+00  0.11242667226E+04  0.11242667226E+04  0.00000000000E+00 0. -1.
         -2   -1    0    0    0  501 -0.00000000000E+00 -0.00000000000E+00 -0.19787780969E+02  0.19787780969E+02  0.00000000000E+00 0.  1.
          5    1    1    2  502    0  0.78023902716E+02  0.85515473233E+02  0.50348909387E+03  0.51664686508E+03  0.47000000000E+01 0.  1.
         -5    1    1    2    0  502 -0.14741571807E+02 -0.24438690070E+02  0.28914709967E+03  0.29059025923E+03  0.47000000000E+01 0.  1.
        -11    1    1    2    0    0 -0.46997583130E+02 -0.21901591817E+02  0.27730663228E+03  0.28211242591E+03  0.00000000000E+00 0. -1.
         11    1    1    2    0    0 -0.16284747779E+02 -0.39175191347E+02  0.34536115858E+02  0.54704953394E+02  0.00000000000E+00 0.  1.
<mgrwt>
<rscale>  0 0.29830685E+03</rscale>
<asrwt>0</asrwt>
<pdfrwt beam="1">  1        2 0.17296406E+00 0.29830685E+03</pdfrwt>
<pdfrwt beam="2">  1       -2 0.30442749E-02 0.29830685E+03</pdfrwt>
<totfact> 0.91691853E+03</totfact>
</mgrwt>
</event>
<event>
 6    1  0.9263730E-006  0.1523231E+03  0.7546771E-02  0.1214042E+00
          1   -1    0    0  501    0  0.00000000000E+00  0.00000000000E+00  0.20953367150E+02  0.20953367150E+02  0.00000000000E+00 0. -1.
         -1   -1    0    0    0  501 -0.00000000000E+00 -0.00000000000E+00 -0.80434586987E+03  0.80434586987E+03  0.00000000000E+00 0.  1.
          5    1    1    2  502    0 -0.37986194318E+02  0.38323837534E+02 -0.14476748840E+03  0.15456837704E+03  0.47000000000E+01 0. -1.
         -5    1    1    2    0  502  0.93447892848E+02 -0.26280240656E+02 -0.33318284057E+03  0.34706779593E+03  0.47000000000E+01 0.  1.
        -11    1    1    2    0    0 -0.22733287784E+02 -0.44761169151E+02 -0.87656901693E+02  0.10101533078E+03  0.00000000000E+00 0. -1.
         11    1    1    2    0    0 -0.32728410746E+02  0.32717572273E+02 -0.21778527206E+03  0.22264773327E+03  0.00000000000E+00 0.  1.
<mgrwt>
<rscale>  0 0.13947166E+03</rscale>
<asrwt>0</asrwt>
<pdfrwt beam="1">  1        1 0.32235948E-02 0.15232312E+03</pdfrwt>
<pdfrwt beam="2">  1       -1 0.12374552E+00 0.15232312E+03</pdfrwt>
<totfact> 0.18476319E+03</totfact>
</mgrwt>
</event>
<event>
 6    1  0.9263730E-006  0.1442295E+03  0.7546771E-02  0.1216980E+00
         -2   -1    0    0    0  501 -0.00000000000E+00  0.00000000000E+00  0.47326773390E+02  0.47326773390E+02  0.00000000000E+00 0.  1.
          2   -1    0    0  501    0  0.00000000000E+00 -0.00000000000E+00 -0.46863201266E+03  0.46863201266E+03  0.00000000000E+00 0. -1.
          5    1    1    2  502    0  0.32626064247E+02  0.18441775053E+02 -0.60791326791E+02  0.71569787958E+02  0.47000000000E+01 0. -1.
         -5    1    1    2    0  502 -0.55654983365E+02 -0.86610667912E+02 -0.28695495073E+03  0.30490017829E+03  0.47000000000E+01 0. -1.
        -11    1    1    2    0    0  0.56374166179E+02  0.51068083130E+02 -0.29344600383E+02  0.81529757136E+02  0.00000000000E+00 0.  1.
         11    1    1    2    0    0 -0.33345247061E+02  0.17100809729E+02 -0.44214361370E+02  0.57959062676E+02  0.00000000000E+00 0. -1.
<mgrwt>
<rscale>  0 0.13732056E+03</rscale>
<asrwt>0</asrwt>
<pdfrwt beam="2">  1        2 0.72097233E-01 0.14422955E+03</pdfrwt>
<pdfrwt beam="1">  1       -2 0.72810421E-02 0.14422955E+03</pdfrwt>
<totfact> 0.70515438E+03</totfact>
</mgrwt>
</event>
<event>
 6    1  0.9263730E-006  0.3570797E+03  0.7546771E-02  0.1059746E+00
         -1   -1    0    0    0  501 -0.00000000000E+00  0.00000000000E+00  0.32441357710E+02  0.32441357710E+02  0.00000000000E+00 0.  1.
          1   -1    0    0  501    0  0.00000000000E+00 -0.00000000000E+00 -0.98258756239E+03  0.98258756239E+03  0.00000000000E+00 0. -1.
          5    1    1    2  502    0 -0.35366493068E+01  0.44382916097E+02 -0.17743080161E+03  0.18299215964E+03  0.47000000000E+01 0. -1.
         -5    1    1    2    0  502  0.12772397754E+03 -0.32338132355E+02 -0.52960616172E+03  0.54576913230E+03  0.47000000000E+01 0. -1.
        -11    1    1    2    0    0 -0.62720588247E+02 -0.42862132690E+02 -0.16834727272E+03  0.18469390580E+03  0.00000000000E+00 0. -1.
         11    1    1    2    0    0 -0.61466739982E+02  0.30817348949E+02 -0.74761968644E+02  0.10157372237E+03  0.00000000000E+00 0.  1.
<mgrwt>
<rscale>  0 0.35707968E+03</rscale>
<asrwt>0</asrwt>
<pdfrwt beam="2">  1        1 0.15116729E+00 0.35707968E+03</pdfrwt>
<pdfrwt beam="1">  1       -1 0.49909790E-02 0.35707968E+03</pdfrwt>
<totfact> 0.29164230E+03</totfact>
</mgrwt>
</event>
<event>
 6    1  0.9263730E-006  0.2431151E+03  0.7546771E-02  0.1120333E+00
         -1   -1    0    0    0  501 -0.00000000000E+00  0.00000000000E+00  0.11009802047E+03  0.11009802047E+03  0.00000000000E+00 0.  1.
          1   -1    0    0  501    0  0.00000000000E+00 -0.00000000000E+00 -0.58126376212E+03  0.58126376212E+03  0.00000000000E+00 0. -1.
          5    1    1    2  502    0  0.16728385396E+02  0.99742093806E+02 -0.29265315034E+03  0.30967124594E+03  0.47000000000E+01 0. -1.
         -5    1    1    2    0  502  0.29583925404E+02  0.10356649721E+03 -0.75916034905E+02  0.13185811444E+03  0.47000000000E+01 0. -1.
        -11    1    1    2    0    0 -0.22041330425E+02 -0.20010913791E+03 -0.10116837371E+03  0.22530984701E+03  0.00000000000E+00 0. -1.
         11    1    1    2    0    0 -0.24270980375E+02 -0.31994531112E+01 -0.14281826971E+01  0.24522575199E+02  0.00000000000E+00 0.  1.
<mgrwt>
<rscale>  0 0.23919084E+03</rscale>
<asrwt>0</asrwt>
<pdfrwt beam="2">  1        1 0.89425193E-01 0.24311506E+03</pdfrwt>
<pdfrwt beam="1">  1       -1 0.16938157E-01 0.24311506E+03</pdfrwt>
<totfact> 0.97360607E+02</totfact>
</mgrwt>
</event>
<event>
 6    1  0.9263730E-006  0.1580931E+03  0.7546771E-02  0.1198708E+00
         -1   -1    0    0    0  501 -0.00000000000E+00  0.00000000000E+00  0.58522340401E+02  0.58522340401E+02  0.00000000000E+00 0.  1.
          1   -1    0    0  501    0  0.00000000000E+00 -0.00000000000E+00 -0.44733681479E+03  0.44733681479E+03  0.00000000000E+00 0. -1.
          5    1    1    2  502    0  0.93782419674E+02 -0.48210827752E+02 -0.23432567481E+03  0.25700201950E+03  0.47000000000E+01 0.  1.
         -5    1    1    2    0  502 -0.39707459076E+02 -0.32057334320E+02 -0.83520384006E+02  0.97990303267E+02  0.47000000000E+01 0.  1.
        -11    1    1    2    0    0  0.25130947854E+02  0.11725900864E+02 -0.89618006110E+01  0.29144041609E+02  0.00000000000E+00 0.  1.
         11    1    1    2    0    0 -0.79205908451E+02  0.68542261207E+02 -0.62006614968E+02  0.12172279082E+03  0.00000000000E+00 0. -1.
<mgrwt>
<rscale>  0 0.15144530E+03</rscale>
<asrwt>0</asrwt>
<pdfrwt beam="2">  1        1 0.68821051E-01 0.15809311E+03</pdfrwt>
<pdfrwt beam="1">  1       -1 0.90034367E-02 0.15809311E+03</pdfrwt>
<totfact> 0.36641366E+03</totfact>
</mgrwt>
</event>
<event>
 6    1  0.9263730E-006  0.2049431E+03  0.7546771E-02  0.1149651E+00
         -2   -1    0    0    0  501 -0.00000000000E+00  0.00000000000E+00  0.31718649509E+02  0.31718649509E+02  0.00000000000E+00 0. -1.
          2   -1    0    0  501    0  0.00000000000E+00 -0.00000000000E+00 -0.14115886455E+04  0.14115886455E+04  0.00000000000E+00 0.  1.
          5    1    1    2  502    0  0.18972486764E+02  0.19226272997E+02 -0.52147452311E+03  0.52219476546E+03  0.47000000000E+01 0.  1.
         -5    1    1    2    0  502  0.13697000600E+03  0.26148796404E+02 -0.47157479211E+03  0.49178187914E+03  0.47000000000E+01 0.  1.
        -11    1    1    2    0    0  0.12279425917E+02 -0.17171811447E+01 -0.22926517671E+02  0.26064501232E+02  0.00000000000E+00 0.  1.
         11    1    1    2    0    0 -0.16822191868E+03 -0.43657888256E+02 -0.36389416311E+03  0.40326614918E+03  0.00000000000E+00 0. -1.
<mgrwt>
<rscale>  0 0.20010491E+03</rscale>
<asrwt>0</asrwt>
<pdfrwt beam="2">  1        2 0.21716747E+00 0.20494315E+03</pdfrwt>
<pdfrwt beam="1">  1       -2 0.48797925E-02 0.20494315E+03</pdfrwt>
<totfact> 0.30884641E+03</totfact>
</mgrwt>
</event>
<event>
 6    1  0.9263730E-006  0.1205436E+03  0.7546771E-02  0.1254895E+00
         -2   -1    0    0    0  501 -0.00000000000E+00  0.00000000000E+00  0.33020372979E+03  0.33020372979E+03  0.00000000000E+00 0. -1.
          2   -1    0    0  501    0  0.00000000000E+00 -0.00000000000E+00 -0.34684766271E+02  0.34684766271E+02  0.00000000000E+00 0.  1.
          5    1    1    2  502    0  0.57987845734E+02  0.24125550556E+02  0.10588598616E+03  0.12320131698E+03  0.47000000000E+01 0. -1.
         -5    1    1    2    0  502 -0.41724246792E+02 -0.36444728205E+02  0.59257438047E+02  0.81256784013E+02  0.47000000000E+01 0.  1.
        -11    1    1    2    0    0 -0.15114339138E+02 -0.30622670617E+02  0.14965244607E+02  0.37284712007E+02  0.00000000000E+00 0. -1.
         11    1    1    2    0    0 -0.11492598040E+01  0.42941848266E+02  0.11541029471E+03  0.12314568306E+03  0.00000000000E+00 0.  1.
<mgrwt>
<rscale>  0 0.11312222E+03</rscale>
<asrwt>0</asrwt>
<pdfrwt beam="2">  1        2 0.53361181E-02 0.12054362E+03</pdfrwt>
<pdfrwt beam="1">  1       -2 0.50800572E-01 0.12054362E+03</pdfrwt>
<totfact> 0.50387284E+03</totfact>
</mgrwt>
</event>
<event>
 6    1  0.9263730E-006  0.1548580E+03  0.7546771E-02  0.1202542E+00
         -2   -1    0    0    0  501 -0.00000000000E+00  0.00000000000E+00  0.12195239422E+02  0.12195239422E+02  0.00000000000E+00 0.  1.
          2   -1    0    0  501    0  0.00000000000E+00 -0.00000000000E+00 -0.17252226970E+04  0.17252226970E+04  0.00000000000E+00 0. -1.
          5    1    1    2  502    0 -0.14681882364E+02 -0.49591037563E+02 -0.10015163301E+04  0.10028618440E+04  0.47000000000E+01 0.  1.
         -5    1    1    2    0  502  0.33044545614E+01 -0.41094374883E+02 -0.84483727994E+02  0.94123628079E+02  0.47000000000E+01 0.  1.
        -11    1    1    2    0    0  0.51326185958E+02  0.36437604791E+02 -0.29577660650E+03  0.30240019404E+03  0.00000000000E+00 0.  1.
         11    1    1    2    0    0 -0.39948758155E+02  0.54247807656E+02 -0.33125079296E+03  0.33803227028E+03  0.00000000000E+00 0. -1.
<mgrwt>
<rscale>  0 0.14832885E+03</rscale>
<asrwt>0</asrwt>
<pdfrwt beam="2">  1        2 0.26541880E+00 0.15485800E+03</pdfrwt>
<pdfrwt beam="1">  1       -2 0.18761913E-02 0.15485800E+03</pdfrwt>
<totfact> 0.86698549E+03</totfact>
</mgrwt>
</event>
<event>
 6    1  0.9263730E-006  0.2553638E+03  0.7546771E-02  0.1109961E+00
          2   -1    0    0  501    0  0.00000000000E+00  0.00000000000E+00  0.45721971213E+03  0.45721971213E+03  0.00000000000E+00 0.  1.
         -2   -1    0    0    0  501 -0.00000000000E+00 -0.00000000000E+00 -0.35656081399E+02  0.35656081399E+02  0.00000000000E+00 0. -1.
          5    1    1    2  502    0  0.52061097914E+02  0.60994625585E+02  0.10924311232E+03  0.13559811893E+03  0.47000000000E+01 0. -1.
         -5    1    1    2    0  502 -0.51346230919E+01 -0.30422351645E+02  0.20278861775E+03  0.20517601547E+03  0.47000000000E+01 0. -1.
        -11    1    1    2    0    0 -0.46343332737E+02  0.22462610419E+02  0.64402626006E+02  0.82461940266E+02  0.00000000000E+00 0.  1.
         11    1    1    2    0    0 -0.58314208484E+00 -0.53034884358E+02  0.45129274651E+02  0.69639718869E+02  0.00000000000E+00 0. -1.
<mgrwt>
<rscale>  0 0.25536377E+03</rscale>
<asrwt>0</asrwt>
<pdfrwt beam="1">  1        2 0.70341490E-01 0.25536377E+03</pdfrwt>
<pdfrwt beam="2">  1       -2 0.54855513E-02 0.25536377E+03</pdfrwt>
<totfact> 0.11570528E+04</totfact>
</mgrwt>
</event>
<event>
 6    1  0.9263730E-006  0.1543780E+03  0.7546771E-02  0.1203915E+00
         -1   -1    0    0    0  501 -0.00000000000E+00  0.00000000000E+00  0.17909919915E+03  0.17909919915E+03  0.00000000000E+00 0.  1.
          1   -1    0    0  501    0  0.00000000000E+00 -0.00000000000E+00 -0.11139383227E+03  0.11139383227E+03  0.00000000000E+00 0. -1.
          5    1    1    2  502    0 -0.35084920793E+02 -0.45283520051E+02  0.65019393415E+02  0.86782258413E+02  0.47000000000E+01 0.  1.
         -5    1    1    2    0  502 -0.53788984416E+02  0.27756820659E+02 -0.35593206414E+02  0.70375153858E+02  0.47000000000E+01 0.  1.
        -11    1    1    2    0    0  0.42462221392E+01  0.36792618222E+02 -0.31330826643E+01  0.37169118433E+02  0.00000000000E+00 0. -1.
         11    1    1    2    0    0  0.84627683070E+02 -0.19265918831E+02  0.41412262548E+02  0.96166500714E+02  0.00000000000E+00 0.  1.
<mgrwt>
<rscale>  0 0.14723328E+03</rscale>
<asrwt>0</asrwt>
<pdfrwt beam="2">  1        1 0.17137513E-01 0.15437795E+03</pdfrwt>
<pdfrwt beam="1">  1       -1 0.27553723E-01 0.15437795E+03</pdfrwt>
<totfact> 0.35761007E+03</totfact>
</mgrwt>
</event>
<event>
 6    1  0.9263730E-006  0.1306600E+03  0.7546771E-02  0.1239453E+00
         -1   -1    0    0    0  501 -0.00000000000E+00  0.00000000000E+00  0.20478233313E+02  0.20478233313E+02  0.00000000000E+00 0.  1.
          1   -1    0    0  501    0  0.00000000000E+00 -0.00000000000E+00 -0.77340977822E+03  0.77340977822E+03  0.00000000000E+00 0. -1.
          5    1    1    2  502    0 -0.11242967293E+02 -0.44545995662E+02 -0.40533301499E+03  0.40795550380E+03  0.47000000000E+01 0. -1.
         -5    1    1    2    0  502  0.38938638660E+02  0.51984929480E+02 -0.17044523121E+03  0.18246182427E+03  0.47000000000E+01 0.  1.
        -11    1    1    2    0    0 -0.48701110889E+02  0.29223452604E+02 -0.86873058817E+02  0.10379179511E+03  0.00000000000E+00 0.  1.
         11    1    1    2    0    0  0.21005439522E+02 -0.36662386422E+02 -0.90280239885E+02  0.99678888344E+02  0.00000000000E+00 0. -1.
<mgrwt>
<rscale>  0 0.12223605E+03</rscale>
<asrwt>0</asrwt>
<pdfrwt beam="2">  1        1 0.11898613E+00 0.13065999E+03</pdfrwt>
<pdfrwt beam="1">  1       -1 0.31504971E-02 0.13065999E+03</pdfrwt>
<totfact> 0.81825961E+03</totfact>
</mgrwt>
</event>
<event>
 6    1  0.9263730E-006  0.1343878E+03  0.7546771E-02  0.1227286E+00
          2   -1    0    0  501    0  0.00000000000E+00  0.00000000000E+00  0.43343657968E+03  0.43343657968E+03  0.00000000000E+00 0. -1.
         -2   -1    0    0    0  501 -0.00000000000E+00 -0.00000000000E+00 -0.49102381238E+02  0.49102381238E+02  0.00000000000E+00 0.  1.
          5    1    1    2  502    0  0.41271333437E+02 -0.30728814940E+02  0.23452797977E+03  0.24015213163E+03  0.47000000000E+01 0. -1.
         -5    1    1    2    0  502 -0.49115582361E+02 -0.41823967592E+02  0.87662843174E+02  0.10894241033E+03  0.47000000000E+01 0.  1.
        -11    1    1    2    0    0  0.49272240887E+02  0.35297079320E+02  0.20857303105E+02  0.64098866006E+02  0.00000000000E+00 0.  1.
         11    1    1    2    0    0 -0.41427991963E+02  0.37255703212E+02  0.41286072390E+02  0.69345552945E+02  0.00000000000E+00 0. -1.
<mgrwt>
<rscale>  0 0.13011415E+03</rscale>
<asrwt>0</asrwt>
<pdfrwt beam="1">  1        2 0.66682548E-01 0.13438777E+03</pdfrwt>
<pdfrwt beam="2">  1       -2 0.75542128E-02 0.13438777E+03</pdfrwt>
<totfact> 0.72204397E+03</totfact>
</mgrwt>
</event>
<event>
 6    1  0.9263730E-006  0.1363828E+03  0.7546771E-02  0.1232896E+00
         -1   -1    0    0    0  501 -0.00000000000E+00  0.00000000000E+00  0.21292794054E+02  0.21292794054E+02  0.00000000000E+00 0.  1.
          1   -1    0    0  501    0  0.00000000000E+00 -0.00000000000E+00 -0.69499245390E+03  0.69499245390E+03  0.00000000000E+00 0. -1.
          5    1    1    2  502    0 -0.64141183991E+02 -0.27036189254E+02 -0.17692324217E+03  0.19018141505E+03  0.47000000000E+01 0. -1.
         -5    1    1    2    0  502  0.54360704694E+02 -0.26623263658E+02 -0.28815688994E+03  0.29448322126E+03  0.47000000000E+01 0. -1.
        -11    1    1    2    0    0  0.33798740700E+02  0.45148617108E+01 -0.13879051627E+03  0.14291797037E+03  0.00000000000E+00 0. -1.
         11    1    1    2    0    0 -0.24018261402E+02  0.49144591201E+02 -0.69829011471E+02  0.88702641270E+02  0.00000000000E+00 0.  1.
<mgrwt>
<rscale>  0 0.12640072E+03</rscale>
<asrwt>0</asrwt>
<pdfrwt beam="2">  1        1 0.10692191E+00 0.13638285E+03</pdfrwt>
<pdfrwt beam="1">  1       -1 0.32758147E-02 0.13638285E+03</pdfrwt>
<totfact> 0.90526480E+03</totfact>
</mgrwt>
</event>
<event>
 6    1  0.9263730E-006  0.1414357E+03  0.7546771E-02  0.1222307E+00
         -1   -1    0    0    0  501 -0.00000000000E+00  0.00000000000E+00  0.76771076015E+03  0.76771076015E+03  0.00000000000E+00 0.  1.
          1   -1    0    0  501    0  0.00000000000E+00 -0.00000000000E+00 -0.21653669338E+02  0.21653669338E+02  0.00000000000E+00 0. -1.
          5    1    1    2  502    0  0.35398365240E+02 -0.68720172974E+02  0.34734108285E+03  0.35586995415E+03  0.47000000000E+01 0.  1.
         -5    1    1    2    0  502 -0.57218211109E+02  0.62569752597E+01  0.13635918389E+03  0.14808440314E+03  0.47000000000E+01 0.  1.
        -11    1    1    2    0    0  0.34317054126E+02 -0.11890593928E+02  0.10028730276E+03  0.10666109657E+03  0.00000000000E+00 0.  1.
         11    1    1    2    0    0 -0.12497208257E+02  0.74353791643E+02  0.16206952132E+03  0.17874897562E+03  0.00000000000E+00 0. -1.
<mgrwt>
<rscale>  0 0.13353195E+03</rscale>
<asrwt>0</asrwt>
<pdfrwt beam="2">  1        1 0.33313343E-02 0.14143566E+03</pdfrwt>
<pdfrwt beam="1">  1       -1 0.11810933E+00 0.14143566E+03</pdfrwt>
<totfact> 0.19643516E+03</totfact>
</mgrwt>
</event>
<event>
 6    1  0.9263730E-006  0.1615813E+03  0.7546771E-02  0.1194964E+00
          1   -1    0    0  501    0  0.00000000000E+00  0.00000000000E+00  0.11817042186E+03  0.11817042186E+03  0.00000000000E+00 0. -1.
         -1   -1    0    0    0  501 -0.00000000000E+00 -0.00000000000E+00 -0.20160548811E+03  0.20160548811E+03  0.00000000000E+00 0.  1.
          5    1    1    2  502    0  0.51965100590E+02 -0.90720500286E+01 -0.39567000173E+02  0.66108329836E+02  0.47000000000E+01 0.  1.
         -5    1    1    2    0  502  0.15553859626E+02  0.86044907589E+02  0.38061635088E+02  0.95479980818E+02  0.47000000000E+01 0.  1.
        -11    1    1    2    0    0 -0.62542712319E+02 -0.67203845556E+02 -0.18286994779E+02  0.93607488481E+02  0.00000000000E+00 0. -1.
         11    1    1    2    0    0 -0.49762478971E+01 -0.97690120048E+01 -0.63642706390E+02  0.64580110834E+02  0.00000000000E+00 0.  1.
<mgrwt>
<rscale>  0 0.15457237E+03</rscale>
<asrwt>0</asrwt>
<pdfrwt beam="1">  1        1 0.18180065E-01 0.16158130E+03</pdfrwt>
<pdfrwt beam="2">  1       -1 0.31016229E-01 0.16158130E+03</pdfrwt>
<totfact> 0.27224540E+03</totfact>
</mgrwt>
</event>
<event>
 6    1  0.9263730E-006  0.1776249E+03  0.7546771E-02  0.1179680E+00
         -1   -1    0    0    0  501 -0.00000000000E+00  0.00000000000E+00  0.28834087632E+02  0.28834087632E+02  0.00000000000E+00 0.  1.
          1   -1    0    0  501    0  0.00000000000E+00 -0.00000000000E+00 -0.91205615746E+03  0.91205615746E+03  0.00000000000E+00 0. -1.
          5    1    1    2  502    0  0.17622783310E+02 -0.80883787226E+02 -0.53453493868E+03  0.54092738903E+03  0.47000000000E+01 0. -1.
         -5    1    1    2    0  502  0.34564439930E+02 -0.15926511909E+02 -0.24157103578E+02  0.45321186464E+02  0.47000000000E+01 0.  1.
        -11    1    1    2    0    0  0.16544564868E+02 -0.33442938207E+01 -0.16843027089E+02  0.23845219423E+02  0.00000000000E+00 0. -1.
         11    1    1    2    0    0 -0.68731788107E+02  0.10015459296E+03 -0.30768700047E+03  0.33079645017E+03  0.00000000000E+00 0.  1.
<mgrwt>
<rscale>  0 0.16825465E+03</rscale>
<asrwt>0</asrwt>
<pdfrwt beam="2">  1        1 0.14031634E+00 0.17762487E+03</pdfrwt>
<pdfrwt beam="1">  1       -1 0.44360132E-02 0.17762487E+03</pdfrwt>
<totfact> 0.38858692E+03</totfact>
</mgrwt>
</event>
<event>
 6    1  0.9263730E-006  0.1752427E+03  0.7546771E-02  0.1178642E+00
         -1   -1    0    0    0  501 -0.00000000000E+00  0.00000000000E+00  0.24406451714E+03  0.24406451714E+03  0.00000000000E+00 0.  1.
          1   -1    0    0  501    0  0.00000000000E+00 -0.00000000000E+00 -0.14097202428E+03  0.14097202428E+03  0.00000000000E+00 0. -1.
          5    1    1    2  502    0  0.27011350364E+02 -0.41956611604E+02  0.44390040696E+02  0.66951743956E+02  0.47000000000E+01 0. -1.
         -5    1    1    2    0  502 -0.46423241637E+00 -0.77961308400E+02 -0.80131288016E+02  0.11189858997E+03  0.47000000000E+01 0. -1.
        -11    1    1    2    0    0 -0.26454438513E+02  0.11613167804E+02 -0.14873795090E+01  0.28929488092E+02  0.00000000000E+00 0. -1.
         11    1    1    2    0    0 -0.92679435154E-01  0.10830475220E+03  0.14032111969E+03  0.17725671939E+03  0.00000000000E+00 0.  1.
<mgrwt>
<rscale>  0 0.16924065E+03</rscale>
<asrwt>0</asrwt>
<pdfrwt beam="2">  1        1 0.21688004E-01 0.17524270E+03</pdfrwt>
<pdfrwt beam="1">  1       -1 0.37548387E-01 0.17524270E+03</pdfrwt>
<totfact> 0.15684231E+03</totfact>
</mgrwt>
</event>
<event>
 6    1  0.9263730E-006  0.2495894E+03  0.7546771E-02  0.1113565E+00
         -1   -1    0    0    0  501 -0.00000000000E+00  0.00000000000E+00  0.20190976644E+02  0.20190976644E+02  0.00000000000E+00 0.  1.
          1   -1    0    0  501    0  0.00000000000E+00 -0.00000000000E+00 -0.77132084276E+03  0.77132084276E+03  0.00000000000E+00 0. -1.
          5    1    1    2  502    0 -0.66786295694E+01  0.11042529646E+02 -0.27307167591E+03  0.27341684612E+03  0.47000000000E+01 0. -1.
         -5    1    1    2    0  502  0.49533555687E+02 -0.48775727422E+02 -0.83690332521E+02  0.10889814728E+03  0.47000000000E+01 0. -1.
        -11    1    1    2    0    0 -0.34817926996E+02 -0.25461095364E+02 -0.20205247726E+03  0.20660532177E+03  0.00000000000E+00 0. -1.
         11    1    1    2    0    0 -0.80369991216E+01  0.63194293139E+02 -0.19231538042E+03  0.20259150423E+03  0.00000000000E+00 0.  1.
<mgrwt>
<rscale>  0 0.24958943E+03</rscale>
<asrwt>0</asrwt>
<pdfrwt beam="2">  1        1 0.11866474E+00 0.24958943E+03</pdfrwt>
<pdfrwt beam="1">  1       -1 0.31063042E-02 0.24958943E+03</pdfrwt>
<totfact> 0.86756289E+03</totfact>
</mgrwt>
</event>
<event>
 6    1  0.9263730E-006  0.1485370E+03  0.7546771E-02  0.1212132E+00
          1   -1    0    0  501    0  0.00000000000E+00  0.00000000000E+00  0.93810442905E+02  0.93810442905E+02  0.00000000000E+00 0. -1.
         -1   -1    0    0    0  501 -0.00000000000E+00 -0.00000000000E+00 -0.19254482366E+03  0.19254482366E+03  0.00000000000E+00 0.  1.
          5    1    1    2  502    0  0.48248016970E+02 -0.54712207189E+02 -0.19008279046E+02  0.75529473911E+02  0.47000000000E+01 0. -1.
         -5    1    1    2    0  502 -0.71306278037E+02 -0.22146957406E+02 -0.34064677647E+02  0.82204411518E+02  0.47000000000E+01 0. -1.
        -11    1    1    2    0    0 -0.16104320669E+01  0.22839104297E+02 -0.62773795936E+02  0.66818916728E+02  0.00000000000E+00 0.  1.
         11    1    1    2    0    0  0.24668693134E+02  0.54020060298E+02  0.17112371874E+02  0.61802464407E+02  0.00000000000E+00 0. -1.
<mgrwt>
<rscale>  0 0.14089363E+03</rscale>
<asrwt>0</asrwt>
<pdfrwt beam="1">  1        1 0.14432376E-01 0.14853700E+03</pdfrwt>
<pdfrwt beam="2">  1       -1 0.29622280E-01 0.14853700E+03</pdfrwt>
<totfact> 0.39487263E+03</totfact>
</mgrwt>
</event>
<event>
 6    1  0.9263730E-006  0.1592320E+03  0.7546771E-02  0.1197411E+00
          1   -1    0    0  501    0  0.00000000000E+00  0.00000000000E+00  0.41824841301E+03  0.41824841301E+03  0.00000000000E+00 0. -1.
         -1   -1    0    0    0  501 -0.00000000000E+00 -0.00000000000E+00 -0.16008799268E+03  0.16008799268E+03  0.00000000000E+00 0.  1.
          5    1    1    2  502    0  0.15170270074E+02 -0.61845609189E+02  0.16217212368E+03  0.17428971332E+03  0.47000000000E+01 0. -1.
         -5    1    1    2    0  502 -0.94843755457E+02  0.36875368253E+01  0.20844512546E+03  0.22908600177E+03  0.47000000000E+01 0. -1.
        -11    1    1    2    0    0  0.69341289505E+02 -0.34754775425E+01 -0.74534416246E+02  0.10186104545E+03  0.00000000000E+00 0.  1.
         11    1    1    2    0    0  0.10332195878E+02  0.61633549906E+02 -0.37922412570E+02  0.73099645148E+02  0.00000000000E+00 0. -1.
<mgrwt>
<rscale>  0 0.15251945E+03</rscale>
<asrwt>0</asrwt>
<pdfrwt beam="1">  1        1 0.64345909E-01 0.15923198E+03</pdfrwt>
<pdfrwt beam="2">  1       -1 0.24628922E-01 0.15923198E+03</pdfrwt>
<totfact> 0.81738078E+02</totfact>
</mgrwt>
</event>
<event>
 6    1  0.9263730E-006  0.1514618E+03  0.7546771E-02  0.1207310E+00
          1   -1    0    0  501    0  0.00000000000E+00  0.00000000000E+00  0.12089956802E+03  0.12089956802E+03  0.00000000000E+00 0. -1.
         -1   -1    0    0    0  501 -0.00000000000E+00 -0.00000000000E+00 -0.21966109940E+03  0.21966109940E+03  0.00000000000E+00 0.  1.
          5    1    1    2  502    0  0.45235825128E+02 -0.30825618977E+02  0.51408338343E+02  0.75242314634E+02  0.47000000000E+01 0.  1.
         -5    1    1    2    0  502  0.28812522624E+02  0.73631692483E+02 -0.14805070853E+02  0.80579573843E+02  0.47000000000E+01 0.  1.
        -11    1    1    2    0    0  0.16460503561E+02  0.15193288489E+01 -0.50007588970E+02  0.52668923401E+02  0.00000000000E+00 0.  1.
         11    1    1    2    0    0 -0.90508851312E+02 -0.44325402355E+02 -0.85357209899E+02  0.13206985554E+03  0.00000000000E+00 0. -1.
<mgrwt>
<rscale>  0 0.14456921E+03</rscale>
<asrwt>0</asrwt>
<pdfrwt beam="1">  1        1 0.18599934E-01 0.15146175E+03</pdfrwt>
<pdfrwt beam="2">  1       -1 0.33794015E-01 0.15146175E+03</pdfrwt>
<totfact> 0.22781556E+03</totfact>
</mgrwt>
</event>
<event>
 6    1  0.9263730E-006  0.1344231E+03  0.7546771E-02  0.1233257E+00
         -1   -1    0    0    0  501 -0.00000000000E+00  0.00000000000E+00  0.22427577081E+03  0.22427577081E+03  0.00000000000E+00 0.  1.
          1   -1    0    0  501    0  0.00000000000E+00 -0.00000000000E+00 -0.63644562897E+02  0.63644562897E+02  0.00000000000E+00 0. -1.
          5    1    1    2  502    0 -0.28496380980E+02 -0.17226777642E+02 -0.62326395585E+01  0.34201482318E+02  0.47000000000E+01 0.  1.
         -5    1    1    2    0  502  0.76819624617E+02  0.27604953572E+02  0.10260342751E+03  0.13119771921E+03  0.47000000000E+01 0.  1.
        -11    1    1    2    0    0 -0.27473054221E+02 -0.16697123330E+02  0.85957842605E+02  0.91773162422E+02  0.00000000000E+00 0.  1.
         11    1    1    2    0    0 -0.20850189416E+02  0.63189473994E+01 -0.21697422645E+02  0.30747969760E+02  0.00000000000E+00 0. -1.
<mgrwt>
<rscale>  0 0.12616652E+03</rscale>
<asrwt>0</asrwt>
<pdfrwt beam="2">  1        1 0.97914713E-02 0.13442309E+03</pdfrwt>
<pdfrwt beam="1">  1       -1 0.34503964E-01 0.13442309E+03</pdfrwt>
<totfact> 0.50454482E+03</totfact>
</mgrwt>
</event>
<event>
 6    1  0.9263730E-006  0.2875858E+03  0.7546771E-02  0.1093303E+00
         -1   -1    0    0    0  501 -0.00000000000E+00  0.00000000000E+00  0.27494658388E+03  0.27494658388E+03  0.00000000000E+00 0.  1.
          1   -1    0    0  501    0  0.00000000000E+00 -0.00000000000E+00 -0.44833823711E+03  0.44833823711E+03  0.00000000000E+00 0. -1.
          5    1    1    2  502    0  0.43390633856E+02 -0.19217837962E+02 -0.14306386287E+03  0.15080262352E+03  0.47000000000E+01 0. -1.
         -5    1    1    2    0  502  0.21335795037E+03 -0.14849281422E+02 -0.16117463330E+03  0.26784597918E+03  0.47000000000E+01 0. -1.
        -11    1    1    2    0    0 -0.18142854726E+03  0.65168620810E+02  0.80946237059E+02  0.20908266354E+03  0.00000000000E+00 0.  1.
         11    1    1    2    0    0 -0.75320036966E+02 -0.31101501426E+02  0.49900605877E+02  0.95553554755E+02  0.00000000000E+00 0. -1.
<mgrwt>
<rscale>  0 0.28441329E+03</rscale>
<asrwt>0</asrwt>
<pdfrwt beam="2">  1        1 0.68975113E-01 0.28758580E+03</pdfrwt>
<pdfrwt beam="1">  1       -1 0.42299475E-01 0.28758580E+03</pdfrwt>
<totfact> 0.29335724E+02</totfact>
</mgrwt>
</event>
<event>
 6    1  0.9263730E-006  0.1928631E+03  0.7546771E-02  0.1160318E+00
         -1   -1    0    0    0  501 -0.00000000000E+00  0.00000000000E+00  0.30363072061E+03  0.30363072061E+03  0.00000000000E+00 0.  1.
          1   -1    0    0  501    0  0.00000000000E+00 -0.00000000000E+00 -0.11537665104E+03  0.11537665104E+03  0.00000000000E+00 0. -1.
          5    1    1    2  502    0 -0.35756024941E+02  0.42848020732E+02  0.60490016773E+02  0.82435297837E+02  0.47000000000E+01 0.  1.
         -5    1    1    2    0  502  0.60599624032E+02  0.10190483736E+03 -0.33886864189E+01  0.11870334243E+03  0.47000000000E+01 0.  1.
        -11    1    1    2    0    0  0.16240000803E+01 -0.14225242506E+03  0.12749589395E+03  0.19103296256E+03  0.00000000000E+00 0.  1.
         11    1    1    2    0    0 -0.26467599170E+02 -0.25004330329E+01  0.36568452695E+01  0.26835768827E+02  0.00000000000E+00 0. -1.
<mgrwt>
<rscale>  0 0.18795585E+03</rscale>
<asrwt>0</asrwt>
<pdfrwt beam="2">  1        1 0.17750254E-01 0.19286314E+03</pdfrwt>
<pdfrwt beam="1">  1       -1 0.46712418E-01 0.19286314E+03</pdfrwt>
<totfact> 0.13786085E+03</totfact>
</mgrwt>
</event>
<event>
 6    1  0.9263730E-006  0.1250585E+03  0.7546771E-02  0.1250923E+00
         -2   -1    0    0    0  501 -0.00000000000E+00  0.00000000000E+00  0.46665449058E+02  0.46665449058E+02  0.00000000000E+00 0.  1.
          2   -1    0    0  501    0  0.00000000000E+00 -0.00000000000E+00 -0.33016086168E+03  0.33016086168E+03  0.00000000000E+00 0. -1.
          5    1    1    2  502    0 -0.43702926279E+02  0.41991512137E+01 -0.27722899518E+02  0.52136626224E+02  0.47000000000E+01 0. -1.
         -5    1    1    2    0  502  0.47053658207E+02 -0.43855185682E+01 -0.22352879498E+03  0.22851803366E+03  0.47000000000E+01 0. -1.
        -11    1    1    2    0    0  0.40996668939E+02 -0.12675078316E+02 -0.67878433489E+01  0.43444899490E+02  0.00000000000E+00 0.  1.
         11    1    1    2    0    0 -0.44347400867E+02  0.12861445670E+02 -0.25455874772E+02  0.52726751358E+02  0.00000000000E+00 0. -1.
<mgrwt>
<rscale>  0 0.11537808E+03</rscale>
<asrwt>0</asrwt>
<pdfrwt beam="2">  1        2 0.50793979E-01 0.12505848E+03</pdfrwt>
<pdfrwt beam="1">  1       -2 0.71792998E-02 0.12505848E+03</pdfrwt>
<totfact> 0.10378313E+04</totfact>
</mgrwt>
</event>
<event>
 6    1  0.9263730E-006  0.1251429E+03  0.7546771E-02  0.1261024E+00
         -1   -1    0    0    0  501 -0.00000000000E+00  0.00000000000E+00  0.12984603490E+03  0.12984603490E+03  0.00000000000E+00 0.  1.
          1   -1    0    0  501    0  0.00000000000E+00 -0.00000000000E+00 -0.96199591033E+02  0.96199591033E+02  0.00000000000E+00 0. -1.
          5    1    1    2  502    0  0.41502131141E+02 -0.37101571737E+02  0.74327944675E+01  0.56358583625E+02  0.47000000000E+01 0. -1.
         -5    1    1    2    0  502 -0.46313844330E+02  0.40943883369E+02 -0.37114535376E+02  0.72256158894E+02  0.47000000000E+01 0. -1.
        -11    1    1    2    0    0 -0.11792090989E+02 -0.14530594489E+02 -0.10189342873E+02  0.21307611182E+02  0.00000000000E+00 0. -1.
         11    1    1    2    0    0  0.16603804177E+02  0.10688282857E+02  0.73517527646E+02  0.76123272229E+02  0.00000000000E+00 0.  1.
<mgrwt>
<rscale>  0 0.10975522E+03</rscale>
<asrwt>0</asrwt>
<pdfrwt beam="2">  1        1 0.14799937E-01 0.12514290E+03</pdfrwt>
<pdfrwt beam="1">  1       -1 0.19976313E-01 0.12514290E+03</pdfrwt>
<totfact> 0.72088881E+03</totfact>
</mgrwt>
</event>
<event>
 6    1  0.9263730E-006  0.2431267E+03  0.7546771E-02  0.1117727E+00
         -1   -1    0    0    0  501 -0.00000000000E+00  0.00000000000E+00  0.12687808061E+02  0.12687808061E+02  0.00000000000E+00 0.  1.
          1   -1    0    0  501    0  0.00000000000E+00 -0.00000000000E+00 -0.11647121378E+04  0.11647121378E+04  0.00000000000E+00 0. -1.
          5    1    1    2  502    0 -0.95311648268E+01 -0.36752727711E+02 -0.10890767036E+03  0.11543213054E+03  0.47000000000E+01 0.  1.
         -5    1    1    2    0  502 -0.10259545315E+02  0.82133501489E+02 -0.65372082433E+03  0.65895688516E+03  0.47000000000E+01 0.  1.
        -11    1    1    2    0    0 -0.32012525948E+02 -0.39620218523E+02 -0.16738995294E+03  0.17496845395E+03  0.00000000000E+00 0.  1.
         11    1    1    2    0    0  0.51803236090E+02 -0.57605552561E+01 -0.22200588214E+03  0.22804247624E+03  0.00000000000E+00 0. -1.
<mgrwt>
<rscale>  0 0.24312667E+03</rscale>
<asrwt>0</asrwt>
<pdfrwt beam="2">  1        1 0.17918650E+00 0.24312667E+03</pdfrwt>
<pdfrwt beam="1">  1       -1 0.19519702E-02 0.24312667E+03</pdfrwt>
<totfact> 0.85757906E+03</totfact>
</mgrwt>
</event>
<event>
 6    1  0.9263730E-006  0.1302714E+03  0.7546771E-02  0.1240042E+00
          2   -1    0    0  501    0  0.00000000000E+00  0.00000000000E+00  0.69317200026E+03  0.69317200026E+03  0.00000000000E+00 0. -1.
         -2   -1    0    0    0  501 -0.00000000000E+00 -0.00000000000E+00 -0.26707649740E+02  0.26707649740E+02  0.00000000000E+00 0.  1.
          5    1    1    2  502    0 -0.34981443615E+02  0.14238745768E+02  0.48115280084E+03  0.48265572723E+03  0.47000000000E+01 0.  1.
         -5    1    1    2    0  502  0.14269576001E+02 -0.44536057158E+02  0.74687041145E+02  0.88245823139E+02  0.47000000000E+01 0.  1.
        -11    1    1    2    0    0  0.39964602764E+02  0.38856858578E+02  0.11469165282E+03  0.12751941091E+03  0.00000000000E+00 0.  1.
         11    1    1    2    0    0 -0.19252735150E+02 -0.85595471878E+01 -0.40671442806E+01  0.21458688716E+02  0.00000000000E+00 0. -1.
<mgrwt>
<rscale>  0 0.12187126E+03</rscale>
<asrwt>0</asrwt>
<pdfrwt beam="1">  1        2 0.10664183E+00 0.13027145E+03</pdfrwt>
<pdfrwt beam="2">  1       -2 0.41088697E-02 0.13027145E+03</pdfrwt>
<totfact> 0.10684020E+04</totfact>
</mgrwt>
</event>
<event>
 6    1  0.9263730E-006  0.1327107E+03  0.7546771E-02  0.1236058E+00
          2   -1    0    0  501    0  0.00000000000E+00  0.00000000000E+00  0.34646351913E+03  0.34646351913E+03  0.00000000000E+00 0. -1.
         -2   -1    0    0    0  501 -0.00000000000E+00 -0.00000000000E+00 -0.47416164184E+02  0.47416164184E+02  0.00000000000E+00 0.  1.
          5    1    1    2  502    0 -0.37912090477E+02  0.79489307712E+02  0.17626434146E+03  0.19709663801E+03  0.47000000000E+01 0. -1.
         -5    1    1    2    0  502  0.19716999240E+02 -0.38798482472E+02  0.67487064907E+02  0.80440513617E+02  0.47000000000E+01 0. -1.
        -11    1    1    2    0    0  0.30327763105E+02  0.15896531437E+02  0.46587587913E+02  0.57817612146E+02  0.00000000000E+00 0.  1.
         11    1    1    2    0    0 -0.12132671867E+02 -0.56587356677E+02  0.87083606729E+01  0.58524919546E+02  0.00000000000E+00 0. -1.
<mgrwt>
<rscale>  0 0.12436950E+03</rscale>
<asrwt>0</asrwt>
<pdfrwt beam="1">  1        2 0.53302078E-01 0.13271067E+03</pdfrwt>
<pdfrwt beam="2">  1       -2 0.72947947E-02 0.13271067E+03</pdfrwt>
<totfact> 0.96671362E+03</totfact>
</mgrwt>
</event>
<event>
 6    1  0.9263730E-006  0.1420255E+03  0.7546771E-02  0.1221508E+00
          1   -1    0    0  501    0  0.00000000000E+00  0.00000000000E+00  0.11416011244E+04  0.11416011244E+04  0.00000000000E+00 0. -1.
         -1   -1    0    0    0  501 -0.00000000000E+00 -0.00000000000E+00 -0.17973242676E+02  0.17973242676E+02  0.00000000000E+00 0.  1.
          5    1    1    2  502    0 -0.54794899380E+02  0.26355009670E+02  0.41111716437E+03  0.41561578455E+03  0.47000000000E+01 0.  1.
         -5    1    1    2    0  502  0.70257991141E+02  0.39275426064E+02  0.46495973578E+03  0.47189870767E+03  0.47000000000E+01 0.  1.
        -11    1    1    2    0    0  0.10935815473E+02 -0.81331396640E+02  0.18436587560E+03  0.20180476760E+03  0.00000000000E+00 0.  1.
         11    1    1    2    0    0 -0.26398907234E+02  0.15700960906E+02  0.63185105947E+02  0.70255107217E+02  0.00000000000E+00 0. -1.
<mgrwt>
<rscale>  0 0.13409110E+03</rscale>
<asrwt>0</asrwt>
<pdfrwt beam="1">  1        1 0.17563089E+00 0.14202549E+03</pdfrwt>
<pdfrwt beam="2">  1       -1 0.27651151E-02 0.14202549E+03</pdfrwt>
<totfact> 0.52495303E+03</totfact>
</mgrwt>
</event>
<event>
 6    1  0.9263730E-006  0.2651679E+03  0.7546771E-02  0.1106227E+00
         -2   -1    0    0    0  501 -0.00000000000E+00  0.00000000000E+00  0.44478765961E+03  0.44478765961E+03  0.00000000000E+00 0.  1.
          2   -1    0    0  501    0  0.00000000000E+00 -0.00000000000E+00 -0.15018387830E+03  0.15018387830E+03  0.00000000000E+00 0. -1.
          5    1    1    2  502    0  0.23185852985E+03  0.64454671678E+02  0.14657309622E+03  0.28181296120E+03  0.47000000000E+01 0.  1.
         -5    1    1    2    0  502 -0.51979227597E+01 -0.68857605873E+01 -0.12032496843E+02  0.15533933184E+02  0.47000000000E+01 0.  1.
        -11    1    1    2    0    0 -0.85564739893E+02 -0.31813358488E+02  0.11593714790E+03  0.14756299249E+03  0.00000000000E+00 0.  1.
         11    1    1    2    0    0 -0.14109586720E+03 -0.25755552603E+02  0.44126034031E+02  0.15006165103E+03  0.00000000000E+00 0. -1.
<mgrwt>
<rscale>  0 0.26153147E+03</rscale>
<asrwt>0</asrwt>
<pdfrwt beam="2">  1        2 0.23105212E-01 0.26516788E+03</pdfrwt>
<pdfrwt beam="1">  1       -2 0.68428870E-01 0.26516788E+03</pdfrwt>
<totfact> 0.47238929E+02</totfact>
</mgrwt>
</event>
<event>
 6    1  0.1206108E-005  0.1831419E+03  0.7546771E-02  0.1170201E+00
          1   -1    0    0  501    0  0.00000000000E+00  0.00000000000E+00  0.10665597728E+03  0.10665597728E+03  0.00000000000E+00 0. -1.
         -1   -1    0    0    0  501 -0.00000000000E+00 -0.00000000000E+00 -0.33320362117E+03  0.33320362117E+03  0.00000000000E+00 0.  1.
          5    1    1    2  502    0  0.15124772181E+01  0.30693576923E+02 -0.25237981375E+02  0.40042839004E+02  0.47000000000E+01 0.  1.
         -5    1    1    2    0  502 -0.13173591961E+03 -0.61641488593E+02 -0.52139496251E+01  0.14561353269E+03  0.47000000000E+01 0.  1.
        -11    1    1    2    0    0  0.12061443886E+03  0.17845422726E+02 -0.20279618796E+03  0.23662754663E+03  0.00000000000E+00 0.  1.
         11    1    1    2    0    0  0.96090035361E+01  0.13102488944E+02  0.67004750754E+01  0.17575680121E+02  0.00000000000E+00 0. -1.
<mgrwt>
<rscale>  0 0.17754461E+03</rscale>
<asrwt>0</asrwt>
<pdfrwt beam="1">  1        1 0.16408612E-01 0.18314193E+03</pdfrwt>
<pdfrwt beam="2">  1       -1 0.51262095E-01 0.18314193E+03</pdfrwt>
<totfact> 0.12857250E+03</totfact>
</mgrwt>
</event>
<event>
 6    1  0.9263730E-006  0.1266879E+03  0.7546771E-02  0.1245951E+00
         -1   -1    0    0    0  501 -0.00000000000E+00  0.00000000000E+00  0.13315465576E+02  0.13315465576E+02  0.00000000000E+00 0.  1.
          1   -1    0    0  501    0  0.00000000000E+00 -0.00000000000E+00 -0.10176488888E+04  0.10176488888E+04  0.00000000000E+00 0. -1.
          5    1    1    2  502    0 -0.20168983302E+02 -0.49732682926E+02 -0.28649459835E+03  0.29151564713E+03  0.47000000000E+01 0. -1.
         -5    1    1    2    0  502  0.18163002751E+02  0.70213513461E+02 -0.42554325478E+03  0.43170474149E+03  0.47000000000E+01 0. -1.
        -11    1    1    2    0    0  0.25230032111E+02  0.23492886210E+02 -0.52228359578E+02  0.62580122778E+02  0.00000000000E+00 0.  1.
         11    1    1    2    0    0 -0.23224051560E+02 -0.43973716744E+02 -0.24006721055E+03  0.24516384300E+03  0.00000000000E+00 0. -1.
<mgrwt>
<rscale>  0 0.11828625E+03</rscale>
<asrwt>0</asrwt>
<pdfrwt beam="2">  1        1 0.15656142E+00 0.12668791E+03</pdfrwt>
<pdfrwt beam="1">  1       -1 0.20485324E-02 0.12668791E+03</pdfrwt>
<totfact> 0.98692644E+03</totfact>
</mgrwt>
</event>
<event>
 6    1  0.9263730E-006  0.1347772E+03  0.7546771E-02  0.1229430E+00
         -2   -1    0    0    0  501 -0.00000000000E+00  0.00000000000E+00  0.45915924650E+02  0.45915924650E+02  0.00000000000E+00 0. -1.
          2   -1    0    0  501    0  0.00000000000E+00 -0.00000000000E+00 -0.33467457520E+03  0.33467457520E+03  0.00000000000E+00 0.  1.
          5    1    1    2  502    0 -0.35337906104E+02 -0.43101269516E+02 -0.16870699398E+02  0.58422577313E+02  0.47000000000E+01 0. -1.
         -5    1    1    2    0  502  0.35505236274E+02 -0.72909525410E+01 -0.15903004076E+03  0.16317605111E+03  0.47000000000E+01 0. -1.
        -11    1    1    2    0    0  0.44196670669E+02  0.44820520478E+02 -0.43661440859E+02  0.76606436884E+02  0.00000000000E+00 0.  1.
         11    1    1    2    0    0 -0.44364000839E+02  0.55717015788E+01 -0.69196469533E+02  0.82385434543E+02  0.00000000000E+00 0. -1.
<mgrwt>
<rscale>  0 0.12867848E+03</rscale>
<asrwt>0</asrwt>
<pdfrwt beam="2">  1        2 0.51488399E-01 0.13477716E+03</pdfrwt>
<pdfrwt beam="1">  1       -2 0.70639881E-02 0.13477716E+03</pdfrwt>
<totfact> 0.10547076E+04</totfact>
</mgrwt>
</event>
<event>
 6    1  0.9263730E-006  0.2945397E+03  0.7546771E-02  0.1088002E+00
          1   -1    0    0  501    0  0.00000000000E+00  0.00000000000E+00  0.14961098229E+03  0.14961098229E+03  0.00000000000E+00 0. -1.
         -1   -1    0    0    0  501 -0.00000000000E+00 -0.00000000000E+00 -0.14496539653E+03  0.14496539653E+03  0.00000000000E+00 0.  1.
          5    1    1    2  502    0 -0.16707575891E+02  0.25746745251E+02  0.24295167981E+02  0.39425666391E+02  0.47000000000E+01 0.  1.
         -5    1    1    2    0  502  0.93536082711E+02 -0.74352861236E+02  0.19147289286E+02  0.12110349058E+03  0.47000000000E+01 0.  1.
        -11    1    1    2    0    0 -0.42944119446E+02 -0.19592243922E+02  0.27804600605E+01  0.47284081624E+02  0.00000000000E+00 0. -1.
         11    1    1    2    0    0 -0.33884387374E+02  0.68198359907E+02 -0.41577331568E+02  0.86763140227E+02  0.00000000000E+00 0.  1.
<mgrwt>
<rscale>  0 0.29453975E+03</rscale>
<asrwt>0</asrwt>
<pdfrwt beam="1">  1        1 0.23017074E-01 0.29453975E+03</pdfrwt>
<pdfrwt beam="2">  1       -1 0.22302369E-01 0.29453975E+03</pdfrwt>
<totfact> 0.35757216E+03</totfact>
</mgrwt>
</event>
<event>
 6    1  0.9263730E-006  0.2123114E+03  0.7546771E-02  0.1142900E+00
          1   -1    0    0  501    0  0.00000000000E+00  0.00000000000E+00  0.26068471764E+03  0.26068471764E+03  0.00000000000E+00 0. -1.
         -1   -1    0    0    0  501 -0.00000000000E+00 -0.00000000000E+00 -0.18552254464E+03  0.18552254464E+03  0.00000000000E+00 0.  1.
          5    1    1    2  502    0  0.55458771544E+02 -0.10625146813E+03  0.95555527554E+01  0.12032642440E+03  0.47000000000E+01 0.  1.
         -5    1    1    2    0  502  0.41682733292E+02 -0.35219074532E+02  0.11111656047E+03  0.12388225650E+03  0.47000000000E+01 0.  1.
        -11    1    1    2    0    0 -0.92483228943E+02  0.15049498215E+03 -0.57983146709E+02  0.18591377730E+03  0.00000000000E+00 0.  1.
         11    1    1    2    0    0 -0.46582758932E+01 -0.90244394859E+01  0.12473206485E+02  0.16084804082E+02  0.00000000000E+00 0. -1.
<mgrwt>
<rscale>  0 0.20832389E+03</rscale>
<asrwt>0</asrwt>
<pdfrwt beam="1">  1        1 0.40105341E-01 0.21231138E+03</pdfrwt>
<pdfrwt beam="2">  1       -1 0.28541930E-01 0.21231138E+03</pdfrwt>
<totfact> 0.11619646E+03</totfact>
</mgrwt>
</event>
<event>
 6    1  0.9263730E-006  0.2858040E+03  0.7546771E-02  0.1094688E+00
          2   -1    0    0  501    0  0.00000000000E+00  0.00000000000E+00  0.28257093448E+03  0.28257093448E+03  0.00000000000E+00 0. -1.
         -2   -1    0    0    0  501 -0.00000000000E+00 -0.00000000000E+00 -0.30290551959E+03  0.30290551959E+03  0.00000000000E+00 0.  1.
          5    1    1    2  502    0 -0.74276037195E+02 -0.10776055155E+03  0.94303620919E+02  0.16138317475E+03  0.47000000000E+01 0. -1.
         -5    1    1    2    0  502 -0.12294442991E+02 -0.13423930658E+03 -0.13679829121E+02  0.13557496998E+03  0.47000000000E+01 0. -1.
        -11    1    1    2    0    0 -0.11349430604E+02  0.10641297472E+02 -0.18350912917E+02  0.24058320636E+02  0.00000000000E+00 0.  1.
         11    1    1    2    0    0  0.97919910790E+02  0.23135856067E+03 -0.82607463993E+02  0.26445998871E+03  0.00000000000E+00 0. -1.
<mgrwt>
<rscale>  0 0.28184086E+03</rscale>
<asrwt>0</asrwt>
<pdfrwt beam="1">  1        2 0.43472452E-01 0.28580403E+03</pdfrwt>
<pdfrwt beam="2">  1       -2 0.46600849E-01 0.28580403E+03</pdfrwt>
<totfact> 0.51799156E+02</totfact>
</mgrwt>
</event>
<event>
 6    1  0.9263730E-006  0.2516970E+03  0.7546771E-02  0.1150711E+00
          2   -1    0    0  501    0  0.00000000000E+00  0.00000000000E+00  0.31170706848E+03  0.31170706848E+03  0.00000000000E+00 0. -1.
         -2   -1    0    0    0  501 -0.00000000000E+00 -0.00000000000E+00 -0.99272091344E+02  0.99272091344E+02  0.00000000000E+00 0.  1.
          5    1    1    2  502    0  0.37370570752E+02  0.58838953349E+02  0.20570893910E+03  0.21724833628E+03  0.47000000000E+01 0. -1.
         -5    1    1    2    0  502 -0.55900474501E+02 -0.58683588346E+02 -0.33393357162E+02  0.87782873575E+02  0.47000000000E+01 0.  1.
        -11    1    1    2    0    0 -0.37381461950E+02  0.86945828386E+01  0.35222313323E+01  0.38540570596E+02  0.00000000000E+00 0. -1.
         11    1    1    2    0    0  0.55911365699E+02 -0.88499478417E+01  0.36597163863E+02  0.67407379373E+02  0.00000000000E+00 0.  1.
<mgrwt>
<rscale>  0 0.19885177E+03</rscale>
<asrwt>0</asrwt>
<pdfrwt beam="1">  1        2 0.47954933E-01 0.25169700E+03</pdfrwt>
<pdfrwt beam="2">  1       -2 0.15272630E-01 0.25169700E+03</pdfrwt>
<totfact> 0.34565635E+03</totfact>
</mgrwt>
</event>
<event>
 6    1  0.9263730E-006  0.1285043E+03  0.7546771E-02  0.1244186E+00
          1   -1    0    0  501    0  0.00000000000E+00  0.00000000000E+00  0.43157343740E+03  0.43157343740E+03  0.00000000000E+00 0. -1.
         -1   -1    0    0    0  501 -0.00000000000E+00 -0.00000000000E+00 -0.36523434563E+02  0.36523434563E+02  0.00000000000E+00 0.  1.
          5    1    1    2  502    0  0.52294007367E+01  0.31625145019E+02  0.27985159293E+03  0.28172060715E+03  0.47000000000E+01 0. -1.
         -5    1    1    2    0  502 -0.34538171766E+02 -0.36730636184E+02  0.45449640110E+02  0.68042521481E+02  0.47000000000E+01 0. -1.
        -11    1    1    2    0    0  0.50724048149E+02  0.20664002420E+02  0.13867159873E+02  0.56499806899E+02  0.00000000000E+00 0.  1.
         11    1    1    2    0    0 -0.21415277120E+02 -0.15558511256E+02  0.55881609923E+02  0.61833936429E+02  0.00000000000E+00 0. -1.
<mgrwt>
<rscale>  0 0.11934234E+03</rscale>
<asrwt>0</asrwt>
<pdfrwt beam="1">  1        1 0.66395910E-01 0.12850430E+03</pdfrwt>
<pdfrwt beam="2">  1       -1 0.56189903E-02 0.12850430E+03</pdfrwt>
<totfact> 0.77029663E+03</totfact>
</mgrwt>
</event>
<event>
 6    1  0.9263730E-006  0.1757861E+03  0.7546771E-02  0.1177474E+00
         -1   -1    0    0    0  501 -0.00000000000E+00  0.00000000000E+00  0.60497628361E+03  0.60497628361E+03  0.00000000000E+00 0.  1.
          1   -1    0    0  501    0  0.00000000000E+00 -0.00000000000E+00 -0.59912473407E+02  0.59912473407E+02  0.00000000000E+00 0. -1.
          5    1    1    2  502    0  0.78424041196E+02 -0.28585969770E+02  0.24779222082E+02  0.87198553613E+02  0.47000000000E+01 0. -1.
         -5    1    1    2    0  502 -0.18320456096E+02 -0.79413698663E+02  0.96330378168E+02  0.12626878634E+03  0.47000000000E+01 0. -1.
        -11    1    1    2    0    0 -0.56710029511E+02  0.79575050239E+02  0.40608396859E+03  0.41767499998E+03  0.00000000000E+00 0.  1.
         11    1    1    2    0    0 -0.33935555888E+01  0.28424618193E+02  0.17870241365E+02  0.33746417075E+02  0.00000000000E+00 0. -1.
<mgrwt>
<rscale>  0 0.17035881E+03</rscale>
<asrwt>0</asrwt>
<pdfrwt beam="2">  1        1 0.92173040E-02 0.17578615E+03</pdfrwt>
<pdfrwt beam="1">  1       -1 0.93073270E-01 0.17578615E+03</pdfrwt>
<totfact> 0.84088610E+02</totfact>
</mgrwt>
</event>
<event>
 6    1  0.9263730E-006  0.1654581E+03  0.7546771E-02  0.1190189E+00
          2   -1    0    0  501    0  0.00000000000E+00  0.00000000000E+00  0.65610448952E+03  0.65610448952E+03  0.00000000000E+00 0. -1.
         -2   -1    0    0    0  501 -0.00000000000E+00 -0.00000000000E+00 -0.38883164710E+02  0.38883164710E+02  0.00000000000E+00 0.  1.
          5    1    1    2  502    0  0.50913288326E+02 -0.82772378451E+01  0.55287482013E+02  0.75759298188E+02  0.47000000000E+01 0. -1.
         -5    1    1    2    0  502  0.20620638063E+02  0.47785587027E+02  0.33122423822E+03  0.33532112822E+03  0.47000000000E+01 0.  1.
        -11    1    1    2    0    0 -0.11546605335E+03 -0.35640131536E+02  0.15877779864E+03  0.19953199691E+03  0.00000000000E+00 0.  1.
         11    1    1    2    0    0  0.43932126956E+02 -0.38682176463E+01  0.71931805933E+02  0.84375230912E+02  0.00000000000E+00 0. -1.
<mgrwt>
<rscale>  0 0.15868522E+03</rscale>
<asrwt>0</asrwt>
<pdfrwt beam="1">  1        2 0.10093914E+00 0.16545813E+03</pdfrwt>
<pdfrwt beam="2">  1       -2 0.59820258E-02 0.16545813E+03</pdfrwt>
<totfact> 0.65685463E+03</totfact>
</mgrwt>
</event>
<event>
 6    1  0.9263730E-006  0.3014676E+03  0.7546771E-02  0.1084509E+00
         -1   -1    0    0    0  501 -0.00000000000E+00  0.00000000000E+00  0.28675206900E+02  0.28675206900E+02  0.00000000000E+00 0.  1.
          1   -1    0    0  501    0  0.00000000000E+00 -0.00000000000E+00 -0.79234597278E+03  0.79234597278E+03  0.00000000000E+00 0. -1.
          5    1    1    2  502    0  0.30469610682E+02 -0.88313988502E+02 -0.47866422139E+03  0.48771844806E+03  0.47000000000E+01 0. -1.
         -5    1    1    2    0  502  0.22015815193E+02  0.79320852267E+01 -0.10256125095E+02  0.25978687354E+02  0.47000000000E+01 0. -1.
        -11    1    1    2    0    0 -0.57011956587E+02  0.30008355267E+02 -0.23299397488E+03  0.24173757861E+03  0.00000000000E+00 0. -1.
         11    1    1    2    0    0  0.45265307123E+01  0.50373548008E+02 -0.41756444513E+02  0.65586465659E+02  0.00000000000E+00 0.  1.
<mgrwt>
<rscale>  0 0.30146764E+03</rscale>
<asrwt>0</asrwt>
<pdfrwt beam="2">  1        1 0.12189937E+00 0.30146764E+03</pdfrwt>
<pdfrwt beam="1">  1       -1 0.44115707E-02 0.30146764E+03</pdfrwt>
<totfact> 0.49716168E+03</totfact>
</mgrwt>
</event>
<event>
 6    1  0.9647055E-006  0.2903078E+03  0.7546771E-02  0.1091892E+00
         -2   -1    0    0    0  501 -0.00000000000E+00  0.00000000000E+00  0.31604820914E+02  0.31604820914E+02  0.00000000000E+00 0.  1.
          2   -1    0    0  501    0  0.00000000000E+00 -0.00000000000E+00 -0.25811834735E+04  0.25811834735E+04  0.00000000000E+00 0. -1.
          5    1    1    2  502    0 -0.11346248853E+03 -0.13361724010E+03 -0.62333258778E+03  0.64752830683E+03  0.47000000000E+01 0.  1.
         -5    1    1    2    0  502 -0.67853358773E+02 -0.55531007824E+02 -0.82164454280E+03  0.82632294888E+03  0.47000000000E+01 0.  1.
        -11    1    1    2    0    0  0.42372815201E+02  0.70451370716E+02 -0.20324602786E+03  0.21924369762E+03  0.00000000000E+00 0.  1.
         11    1    1    2    0    0  0.13894303210E+03  0.11869687720E+03 -0.90135549418E+03  0.91969334113E+03  0.00000000000E+00 0. -1.
<mgrwt>
<rscale>  0 0.28706395E+03</rscale>
<asrwt>0</asrwt>
<pdfrwt beam="2">  1        2 0.39710516E+00 0.29030780E+03</pdfrwt>
<pdfrwt beam="1">  1       -2 0.48622800E-02 0.29030780E+03</pdfrwt>
<totfact> 0.73675651E+02</totfact>
</mgrwt>
</event>
<event>
 6    1  0.9263730E-006  0.1632734E+03  0.7546771E-02  0.1192188E+00
          2   -1    0    0  501    0  0.00000000000E+00  0.00000000000E+00  0.12811339496E+04  0.12811339496E+04  0.00000000000E+00 0. -1.
         -2   -1    0    0    0  501 -0.00000000000E+00 -0.00000000000E+00 -0.26886026220E+02  0.26886026220E+02  0.00000000000E+00 0.  1.
          5    1    1    2  502    0  0.23493850961E+02 -0.85805364628E+02  0.32107275171E+03  0.33320312652E+03  0.47000000000E+01 0.  1.
         -5    1    1    2    0  502 -0.22771320097E+02 -0.19217057097E+02  0.71674844127E+03  0.71738291474E+03  0.47000000000E+01 0.  1.
        -11    1    1    2    0    0 -0.28257364726E+02  0.43553068183E+00  0.69239849353E+02  0.74785192964E+02  0.00000000000E+00 0. -1.
         11    1    1    2    0    0  0.27534833862E+02  0.10458689104E+03  0.14718688106E+03  0.18264874161E+03  0.00000000000E+00 0.  1.
<mgrwt>
<rscale>  0 0.15694606E+03</rscale>
<asrwt>0</asrwt>
<pdfrwt beam="1">  1        2 0.19709748E+00 0.16327339E+03</pdfrwt>
<pdfrwt beam="2">  1       -2 0.41363127E-02 0.16327339E+03</pdfrwt>
<totfact> 0.46421625E+03</totfact>
</mgrwt>
</event>
<event>
 6    1  0.9263730E-006  0.1371726E+03  0.7546771E-02  0.1229417E+00
          2   -1    0    0  501    0  0.00000000000E+00  0.00000000000E+00  0.57213021535E+03  0.57213021535E+03  0.00000000000E+00 0. -1.
         -2   -1    0    0    0  501 -0.00000000000E+00 -0.00000000000E+00 -0.28855672124E+02  0.28855672124E+02  0.00000000000E+00 0.  1.
          5    1    1    2  502    0 -0.33649770056E+02 -0.44831837611E+02  0.37311256207E+03  0.37732913307E+03  0.47000000000E+01 0.  1.
         -5    1    1    2    0  502  0.33670871439E+02 -0.11662882767E+02  0.25077629374E+02  0.43826109945E+02  0.47000000000E+01 0.  1.
        -11    1    1    2    0    0  0.19405646995E+02  0.96190743487E+01  0.12230904451E+03  0.12421194829E+03  0.00000000000E+00 0. -1.
         11    1    1    2    0    0 -0.19426748379E+02  0.46875646030E+02  0.22775307270E+02  0.55618696178E+02  0.00000000000E+00 0.  1.
<mgrwt>
<rscale>  0 0.12868716E+03</rscale>
<asrwt>0</asrwt>
<pdfrwt beam="1">  1        2 0.88020024E-01 0.13717256E+03</pdfrwt>
<pdfrwt beam="2">  1       -2 0.44393346E-02 0.13717256E+03</pdfrwt>
<totfact> 0.11918738E+04</totfact>
</mgrwt>
</event>
<event>
 6    1  0.9263730E-006  0.1378576E+03  0.7546771E-02  0.1227455E+00
          1   -1    0    0  501    0  0.00000000000E+00  0.00000000000E+00  0.17627115140E+03  0.17627115140E+03  0.00000000000E+00 0. -1.
         -1   -1    0    0    0  501 -0.00000000000E+00 -0.00000000000E+00 -0.10794706230E+03  0.10794706230E+03  0.00000000000E+00 0.  1.
          5    1    1    2  502    0  0.94178256561E+02 -0.14573838484E+02  0.62294761563E+02  0.11395028782E+03  0.47000000000E+01 0.  1.
         -5    1    1    2    0  502 -0.36532199289E+02  0.19839395093E+02  0.38148708628E+02  0.56618169809E+02  0.47000000000E+01 0.  1.
        -11    1    1    2    0    0 -0.35525423390E+02  0.30754472429E+01  0.30369612432E+02  0.46838311691E+02  0.00000000000E+00 0. -1.
         11    1    1    2    0    0 -0.22120633882E+02 -0.83410038515E+01 -0.62488993526E+02  0.66811444382E+02  0.00000000000E+00 0.  1.
<mgrwt>
<rscale>  0 0.13000082E+03</rscale>
<asrwt>0</asrwt>
<pdfrwt beam="1">  1        1 0.27118639E-01 0.13785756E+03</pdfrwt>
<pdfrwt beam="2">  1       -1 0.16607240E-01 0.13785756E+03</pdfrwt>
<totfact> 0.45097969E+03</totfact>
</mgrwt>
</event>
<event>
 6    1  0.9263730E-006  0.1442640E+03  0.7546771E-02  0.1218438E+00
         -1   -1    0    0    0  501 -0.00000000000E+00  0.00000000000E+00  0.64035910616E+03  0.64035910616E+03  0.00000000000E+00 0.  1.
          1   -1    0    0  501    0  0.00000000000E+00 -0.00000000000E+00 -0.26232241195E+02  0.26232241195E+02  0.00000000000E+00 0. -1.
          5    1    1    2  502    0 -0.10395351650E+03 -0.17780616331E+02  0.20622377359E+03  0.23167394913E+03  0.47000000000E+01 0. -1.
         -5    1    1    2    0  502  0.33565370143E+02  0.24940997553E+01  0.12636716355E+03  0.13085719174E+03  0.47000000000E+01 0. -1.
        -11    1    1    2    0    0  0.47664426518E+02  0.52572218201E+02  0.16500928410E+03  0.17962126689E+03  0.00000000000E+00 0. -1.
         11    1    1    2    0    0  0.22723719843E+02 -0.37285701626E+02  0.11652664373E+03  0.12443893959E+03  0.00000000000E+00 0.  1.
<mgrwt>
<rscale>  0 0.13626979E+03</rscale>
<asrwt>0</asrwt>
<pdfrwt beam="2">  1        1 0.40357299E-02 0.14426398E+03</pdfrwt>
<pdfrwt beam="1">  1       -1 0.98516774E-01 0.14426398E+03</pdfrwt>
<totfact> 0.22736991E+03</totfact>
</mgrwt>
</event>
<event>
 6    1  0.9263730E-006  0.1146058E+03  0.7546771E-02  0.1269104E+00
         -2   -1    0    0    0  501 -0.00000000000E+00  0.00000000000E+00  0.56509541912E+02  0.56509541912E+02  0.00000000000E+00 0.  1.
          2   -1    0    0  501    0  0.00000000000E+00 -0.00000000000E+00 -0.50524588108E+03  0.50524588108E+03  0.00000000000E+00 0. -1.
          5    1    1    2  502    0  0.23373980815E+02 -0.44513506300E+02 -0.40479907915E+03  0.40793648979E+03  0.47000000000E+01 0. -1.
         -5    1    1    2    0  502 -0.12572097522E+02  0.34885838258E+02 -0.59250151216E+02  0.70055333603E+02  0.47000000000E+01 0.  1.
        -11    1    1    2    0    0 -0.44590433085E+02  0.35939311096E+01 -0.30468010075E+01  0.44838667017E+02  0.00000000000E+00 0. -1.
         11    1    1    2    0    0  0.33788549793E+02  0.60337369325E+01  0.18359692206E+02  0.38924932580E+02  0.00000000000E+00 0.  1.
<mgrwt>
<rscale>  0 0.10551728E+03</rscale>
<asrwt>0</asrwt>
<pdfrwt beam="2">  1        2 0.77730133E-01 0.11460582E+03</pdfrwt>
<pdfrwt beam="1">  1       -2 0.86937760E-02 0.11460582E+03</pdfrwt>
<totfact> 0.48776931E+03</totfact>
</mgrwt>
</event>
<event>
 6    1  0.9263730E-006  0.4204470E+03  0.7546771E-02  0.1036921E+00
         -3   -1    0    0    0  501 -0.00000000000E+00  0.00000000000E+00  0.12066790025E+04  0.12066790025E+04  0.00000000000E+00 0.  1.
          3   -1    0    0  501    0  0.00000000000E+00 -0.00000000000E+00 -0.36624426097E+02  0.36624426097E+02  0.00000000000E+00 0. -1.
          5    1    1    2  502    0 -0.30381813216E+01 -0.38052206882E+02  0.12396986778E+02  0.40410101157E+02  0.47000000000E+01 0.  1.
         -5    1    1    2    0  502 -0.10711675881E+03 -0.79575221678E+02  0.36354671452E+03  0.38729125934E+03  0.47000000000E+01 0.  1.
        -11    1    1    2    0    0  0.10011247407E+03  0.43230912821E+02  0.52567638376E+03  0.53686784196E+03  0.00000000000E+00 0.  1.
         11    1    1    2    0    0  0.10042466054E+02  0.74396515739E+02  0.26843449136E+03  0.27873422616E+03  0.00000000000E+00 0. -1.
<mgrwt>
<rscale>  0 0.42044703E+03</rscale>
<asrwt>0</asrwt>
<pdfrwt beam="2">  1        3 0.56345280E-02 0.42044703E+03</pdfrwt>
<pdfrwt beam="1">  1       -3 0.18564289E+00 0.42044703E+03</pdfrwt>
<totfact> 0.94903650E+01</totfact>
</mgrwt>
</event>
<event>
 6    1  0.9263730E-006  0.1475637E+03  0.7546771E-02  0.1213279E+00
          3   -1    0    0  501    0  0.00000000000E+00  0.00000000000E+00  0.77071020784E+03  0.77071020784E+03  0.00000000000E+00 0.  1.
         -3   -1    0    0    0  501 -0.00000000000E+00 -0.00000000000E+00 -0.25115715335E+02  0.25115715335E+02  0.00000000000E+00 0. -1.
          5    1    1    2  502    0 -0.29355438575E+02  0.12157970250E+02  0.21688792413E+03  0.21925332301E+03  0.47000000000E+01 0. -1.
         -5    1    1    2    0  502  0.73230118073E+02 -0.77109588713E+02  0.30206236967E+03  0.32026911190E+03  0.47000000000E+01 0. -1.
        -11    1    1    2    0    0 -0.64671995049E+02  0.39290454506E+02  0.99891182936E+02  0.12531741773E+03  0.00000000000E+00 0. -1.
         11    1    1    2    0    0  0.20797315550E+02  0.25661163957E+02  0.12675301576E+03  0.13098607053E+03  0.00000000000E+00 0.  1.
<mgrwt>
<rscale>  0 0.14003684E+03</rscale>
<asrwt>0</asrwt>
<pdfrwt beam="1">  1        3 0.11857078E+00 0.14756372E+03</pdfrwt>
<pdfrwt beam="2">  1       -3 0.38639568E-02 0.14756372E+03</pdfrwt>
<totfact> 0.49156361E+02</totfact>
</mgrwt>
</event>
<event>
 6    1  0.9263730E-006  0.1396720E+03  0.7546771E-02  0.1224655E+00
         -1   -1    0    0    0  501 -0.00000000000E+00  0.00000000000E+00  0.26016638960E+03  0.26016638960E+03  0.00000000000E+00 0.  1.
          1   -1    0    0  501    0  0.00000000000E+00 -0.00000000000E+00 -0.81822373253E+02  0.81822373253E+02  0.00000000000E+00 0. -1.
          5    1    1    2  502    0  0.48794900375E+02 -0.79210896068E+02  0.35157576823E+02  0.99566327474E+02  0.47000000000E+01 0.  1.
         -5    1    1    2    0  502 -0.13065968258E+02  0.28153754689E+02 -0.25493477342E+02  0.40439594664E+02  0.47000000000E+01 0.  1.
        -11    1    1    2    0    0  0.71794312341E+01 -0.16856792704E+02  0.81082802398E+02  0.83127110727E+02  0.00000000000E+00 0.  1.
         11    1    1    2    0    0 -0.42908363352E+02  0.67913934082E+02  0.87597114466E+02  0.11885572999E+03  0.00000000000E+00 0. -1.
<mgrwt>
<rscale>  0 0.13190603E+03</rscale>
<asrwt>0</asrwt>
<pdfrwt beam="2">  1        1 0.12588058E-01 0.13967199E+03</pdfrwt>
<pdfrwt beam="1">  1       -1 0.40025598E-01 0.13967199E+03</pdfrwt>
<totfact> 0.28074719E+03</totfact>
</mgrwt>
</event>
<event>
 6    1  0.9263730E-006  0.1299996E+03  0.7546771E-02  0.1240294E+00
          2   -1    0    0  501    0  0.00000000000E+00  0.00000000000E+00  0.93357729081E+02  0.93357729081E+02  0.00000000000E+00 0. -1.
         -2   -1    0    0    0  501 -0.00000000000E+00 -0.00000000000E+00 -0.14300375620E+03  0.14300375620E+03  0.00000000000E+00 0.  1.
          5    1    1    2  502    0  0.33009614776E+01  0.62272790043E+02 -0.52683577009E+02  0.81770691650E+02  0.47000000000E+01 0.  1.
         -5    1    1    2    0  502 -0.15521696104E+02 -0.28741461350E+02  0.36529265768E+02  0.49228771141E+02  0.47000000000E+01 0.  1.
        -11    1    1    2    0    0  0.14484772298E+02  0.31579811066E+02 -0.11227868036E+02  0.36512437828E+02  0.00000000000E+00 0. -1.
         11    1    1    2    0    0 -0.22640376714E+01 -0.65111139759E+02 -0.22263847840E+02  0.68849584660E+02  0.00000000000E+00 0.  1.
<mgrwt>
<rscale>  0 0.12171523E+03</rscale>
<asrwt>0</asrwt>
<pdfrwt beam="1">  1        2 0.14362727E-01 0.12999961E+03</pdfrwt>
<pdfrwt beam="2">  1       -2 0.22000578E-01 0.12999961E+03</pdfrwt>
<totfact> 0.68980913E+03</totfact>
</mgrwt>
</event>
<event>
 6    1  0.9263730E-006  0.3698921E+03  0.7546771E-02  0.1054734E+00
         -1   -1    0    0    0  501 -0.00000000000E+00  0.00000000000E+00  0.60138277203E+02  0.60138277203E+02  0.00000000000E+00 0.  1.
          1   -1    0    0  501    0  0.00000000000E+00 -0.00000000000E+00 -0.56877306659E+03  0.56877306659E+03  0.00000000000E+00 0. -1.
          5    1    1    2  502    0  0.11691727394E+03  0.73848304469E+02 -0.33674330389E+03  0.36406230749E+03  0.47000000000E+01 0. -1.
         -5    1    1    2    0  502 -0.11289071298E+02  0.23639782859E+02 -0.48451004653E+01  0.27052679404E+02  0.47000000000E+01 0. -1.
        -11    1    1    2    0    0 -0.52744576238E+02 -0.10252417986E+03 -0.12494528960E+03  0.17001330293E+03  0.00000000000E+00 0. -1.
         11    1    1    2    0    0 -0.52883626403E+02  0.50360925329E+01 -0.42101095431E+02  0.67783053974E+02  0.00000000000E+00 0.  1.
<mgrwt>
<rscale>  0 0.36989205E+03</rscale>
<asrwt>0</asrwt>
<pdfrwt beam="2">  1        1 0.87503549E-01 0.36989205E+03</pdfrwt>
<pdfrwt beam="1">  1       -1 0.92520426E-02 0.36989205E+03</pdfrwt>
<totfact> 0.26153471E+03</totfact>
</mgrwt>
</event>
<event>
 6    1  0.9263730E-006  0.1559230E+03  0.7546771E-02  0.1201015E+00
          2   -1    0    0  501    0  0.00000000000E+00  0.00000000000E+00  0.14908418035E+04  0.14908418035E+04  0.00000000000E+00 0. -1.
         -2   -1    0    0    0  501 -0.00000000000E+00 -0.00000000000E+00 -0.14813852922E+02  0.14813852922E+02  0.00000000000E+00 0.  1.
          5    1    1    2  502    0  0.37266611584E+02  0.90465544714E+01  0.11464025922E+03  0.12097569806E+03  0.47000000000E+01 0. -1.
         -5    1    1    2    0  502 -0.17904754412E+02 -0.10021607219E+03  0.86731304407E+03  0.87327993666E+03  0.47000000000E+01 0. -1.
        -11    1    1    2    0    0 -0.33990495657E+02  0.10588221105E+03  0.42051910975E+03  0.43497438784E+03  0.00000000000E+00 0. -1.
         11    1    1    2    0    0  0.14628638485E+02 -0.14712693336E+02  0.73555537576E+02  0.76425633901E+02  0.00000000000E+00 0.  1.
<mgrwt>
<rscale>  0 0.14955961E+03</rscale>
<asrwt>0</asrwt>
<pdfrwt beam="1">  1        2 0.22936016E+00 0.15592299E+03</pdfrwt>
<pdfrwt beam="2">  1       -2 0.22790555E-02 0.15592299E+03</pdfrwt>
<totfact> 0.86402351E+03</totfact>
</mgrwt>
</event>
<event>
 6    1  0.9263730E-006  0.1300033E+03  0.7546771E-02  0.1234497E+00
         -2   -1    0    0    0  501 -0.00000000000E+00  0.00000000000E+00  0.33672401895E+02  0.33672401895E+02  0.00000000000E+00 0.  1.
          2   -1    0    0  501    0  0.00000000000E+00 -0.00000000000E+00 -0.52375862094E+03  0.52375862094E+03  0.00000000000E+00 0. -1.
          5    1    1    2  502    0 -0.36275832839E+02 -0.52247422040E+02 -0.19062582022E+03  0.20101249337E+03  0.47000000000E+01 0.  1.
         -5    1    1    2    0  502  0.32604339534E+01  0.65887790983E+02 -0.18282564797E+03  0.19442000665E+03  0.47000000000E+01 0.  1.
        -11    1    1    2    0    0 -0.13132809147E+02 -0.80115888771E+01  0.15551763274E+02  0.21874953105E+02  0.00000000000E+00 0.  1.
         11    1    1    2    0    0  0.46148208033E+02 -0.56287800658E+01 -0.13218651413E+03  0.14012356971E+03  0.00000000000E+00 0. -1.
<mgrwt>
<rscale>  0 0.12536711E+03</rscale>
<asrwt>0</asrwt>
<pdfrwt beam="2">  1        2 0.80578248E-01 0.13000332E+03</pdfrwt>
<pdfrwt beam="1">  1       -2 0.51803696E-02 0.13000332E+03</pdfrwt>
<totfact> 0.10397812E+04</totfact>
</mgrwt>
</event>
<event>
 6    1  0.9263730E-006  0.1336583E+03  0.7546771E-02  0.1234875E+00
         -2   -1    0    0    0  501 -0.00000000000E+00  0.00000000000E+00  0.16226631113E+02  0.16226631113E+02  0.00000000000E+00 0.  1.
          2   -1    0    0  501    0  0.00000000000E+00 -0.00000000000E+00 -0.89010371722E+03  0.89010371722E+03  0.00000000000E+00 0. -1.
          5    1    1    2  502    0  0.40091527409E+02  0.18383063850E+02 -0.16136906812E+03  0.16735391765E+03  0.47000000000E+01 0.  1.
         -5    1    1    2    0  502 -0.67485118833E+02 -0.56952542211E+02 -0.41311571811E+03  0.42247428310E+03  0.47000000000E+01 0.  1.
        -11    1    1    2    0    0  0.17326785516E+02  0.63324835621E+02 -0.26464419213E+03  0.27266609751E+03  0.00000000000E+00 0.  1.
         11    1    1    2    0    0  0.10066805908E+02 -0.24755357260E+02 -0.34748107735E+02  0.43836050066E+02  0.00000000000E+00 0. -1.
<mgrwt>
<rscale>  0 0.12512410E+03</rscale>
<asrwt>0</asrwt>
<pdfrwt beam="2">  1        2 0.13693905E+00 0.13365828E+03</pdfrwt>
<pdfrwt beam="1">  1       -2 0.24964045E-02 0.13365828E+03</pdfrwt>
<totfact> 0.16365920E+04</totfact>
</mgrwt>
</event>
<event>
 6    1  0.9263730E-006  0.1342553E+03  0.7546771E-02  0.1229276E+00
          2   -1    0    0  501    0  0.00000000000E+00  0.00000000000E+00  0.40047895488E+03  0.40047895488E+03  0.00000000000E+00 0. -1.
         -2   -1    0    0    0  501 -0.00000000000E+00 -0.00000000000E+00 -0.45118878149E+02  0.45118878149E+02  0.00000000000E+00 0.  1.
          5    1    1    2  502    0  0.34531437909E+02 -0.50429119206E+02  0.82262296143E+02  0.10258991975E+03  0.47000000000E+01 0. -1.
         -5    1    1    2    0  502 -0.63776208845E+02  0.11141943223E+02  0.19389981315E+03  0.20447683305E+03  0.47000000000E+01 0. -1.
        -11    1    1    2    0    0  0.88573629094E+01 -0.12395673777E+02 -0.19815414589E+02  0.24995124753E+02  0.00000000000E+00 0.  1.
         11    1    1    2    0    0  0.20387408026E+02  0.51682849761E+02  0.99013382029E+02  0.11353595548E+03  0.00000000000E+00 0. -1.
<mgrwt>
<rscale>  0 0.12878053E+03</rscale>
<asrwt>0</asrwt>
<pdfrwt beam="1">  1        2 0.61612145E-01 0.13425528E+03</pdfrwt>
<pdfrwt beam="2">  1       -2 0.69413661E-02 0.13425528E+03</pdfrwt>
<totfact> 0.89477623E+03</totfact>
</mgrwt>
</event>
<event>
 6    1  0.9263730E-006  0.1933222E+03  0.7546771E-02  0.1185562E+00
          2   -1    0    0  501    0  0.00000000000E+00  0.00000000000E+00  0.48875915766E+03  0.48875915766E+03  0.00000000000E+00 0. -1.
         -2   -1    0    0    0  501 -0.00000000000E+00 -0.00000000000E+00 -0.43448797932E+02  0.43448797932E+02  0.00000000000E+00 0.  1.
          5    1    1    2  502    0 -0.40393807671E+02 -0.17545803697E+01  0.28497306375E+03  0.28786537707E+03  0.47000000000E+01 0. -1.
         -5    1    1    2    0  502  0.75364026039E+02  0.10356571474E+02  0.30423638371E+02  0.82065112961E+02  0.47000000000E+01 0.  1.
        -11    1    1    2    0    0  0.16972877780E+02 -0.33198446861E+02  0.69650027598E+02  0.79002163253E+02  0.00000000000E+00 0. -1.
         11    1    1    2    0    0 -0.51943096149E+02  0.24596455757E+02  0.60263630008E+02  0.83275302312E+02  0.00000000000E+00 0.  1.
<mgrwt>
<rscale>  0 0.16280854E+03</rscale>
<asrwt>0</asrwt>
<pdfrwt beam="1">  1        2 0.75193713E-01 0.19332224E+03</pdfrwt>
<pdfrwt beam="2">  1       -2 0.66844308E-02 0.19332224E+03</pdfrwt>
<totfact> 0.78094756E+03</totfact>
</mgrwt>
</event>
<event>
 6    1  0.9263730E-006  0.1502080E+03  0.7546771E-02  0.1209305E+00
         -1   -1    0    0    0  501 -0.00000000000E+00  0.00000000000E+00  0.37691587446E+02  0.37691587446E+02  0.00000000000E+00 0.  1.
          1   -1    0    0  501    0  0.00000000000E+00 -0.00000000000E+00 -0.50053241695E+03  0.50053241695E+03  0.00000000000E+00 0. -1.
          5    1    1    2  502    0  0.61836193821E+02  0.30904024291E+02 -0.66324690493E+02  0.95915734646E+02  0.47000000000E+01 0.  1.
         -5    1    1    2    0  502  0.16902190133E+02 -0.58011971520E+02 -0.21031053830E+03  0.21886910561E+03  0.47000000000E+01 0.  1.
        -11    1    1    2    0    0 -0.49359539007E+02 -0.28838455686E+02 -0.11369244496E+03  0.12725561936E+03  0.00000000000E+00 0. -1.
         11    1    1    2    0    0 -0.29378844947E+02  0.55946402916E+02 -0.72513155750E+02  0.96183544780E+02  0.00000000000E+00 0.  1.
<mgrwt>
<rscale>  0 0.14303343E+03</rscale>
<asrwt>0</asrwt>
<pdfrwt beam="2">  1        1 0.77004978E-01 0.15020801E+03</pdfrwt>
<pdfrwt beam="1">  1       -1 0.57987065E-02 0.15020801E+03</pdfrwt>
<totfact> 0.61301083E+03</totfact>
</mgrwt>
</event>
<event>
 6    1  0.9263730E-006  0.1900575E+03  0.7546771E-02  0.1178034E+00
          1   -1    0    0  501    0  0.00000000000E+00  0.00000000000E+00  0.98530740881E+02  0.98530740881E+02  0.00000000000E+00 0. -1.
         -1   -1    0    0    0  501 -0.00000000000E+00 -0.00000000000E+00 -0.36836131370E+03  0.36836131370E+03  0.00000000000E+00 0.  1.
          5    1    1    2  502    0  0.13114114377E+03 -0.14185127695E+02  0.20290800365E+01  0.13200539611E+03  0.47000000000E+01 0. -1.
         -5    1    1    2    0  502 -0.52436143623E+02  0.12532250398E+02 -0.24401473719E+02  0.59364369598E+02  0.47000000000E+01 0.  1.
        -11    1    1    2    0    0 -0.96659877906E+02 -0.10617045476E+02 -0.17919960633E+03  0.20388318361E+03  0.00000000000E+00 0.  1.
         11    1    1    2    0    0  0.17954877758E+02  0.12269922772E+02 -0.68258572808E+02  0.71639105256E+02  0.00000000000E+00 0. -1.
<mgrwt>
<rscale>  0 0.16982178E+03</rscale>
<asrwt>0</asrwt>
<pdfrwt beam="1">  1        1 0.15158576E-01 0.19005753E+03</pdfrwt>
<pdfrwt beam="2">  1       -1 0.56670971E-01 0.19005753E+03</pdfrwt>
<totfact> 0.11829188E+03</totfact>
</mgrwt>
</event>
<event>
 6    1  0.9263730E-006  0.1297996E+03  0.7546771E-02  0.1241441E+00
         -1   -1    0    0    0  501 -0.00000000000E+00  0.00000000000E+00  0.10583013293E+03  0.10583013293E+03  0.00000000000E+00 0.  1.
          1   -1    0    0  501    0  0.00000000000E+00 -0.00000000000E+00 -0.12663194112E+03  0.12663194112E+03  0.00000000000E+00 0. -1.
          5    1    1    2  502    0  0.40766951514E+02  0.31156845933E+02 -0.10577758836E+02  0.52599166973E+02  0.47000000000E+01 0. -1.
         -5    1    1    2    0  502 -0.41556430857E+02 -0.66076640712E+02 -0.21666362185E+02  0.81145428976E+02  0.47000000000E+01 0. -1.
        -11    1    1    2    0    0 -0.76704604229E+01 -0.13288412153E+02  0.39447889419E+02  0.42326750882E+02  0.00000000000E+00 0.  1.
         11    1    1    2    0    0  0.84599397659E+01  0.48208206932E+02 -0.28005576588E+02  0.56390727220E+02  0.00000000000E+00 0. -1.
<mgrwt>
<rscale>  0 0.12100943E+03</rscale>
<asrwt>0</asrwt>
<pdfrwt beam="2">  1        1 0.19481837E-01 0.12979959E+03</pdfrwt>
<pdfrwt beam="1">  1       -1 0.16281559E-01 0.12979959E+03</pdfrwt>
<totfact> 0.70321490E+03</totfact>
</mgrwt>
</event>
<event>
 6    1  0.9263730E-006  0.1343054E+03  0.7546771E-02  0.1234274E+00
          2   -1    0    0  501    0  0.00000000000E+00  0.00000000000E+00  0.22137540209E+04  0.22137540209E+04  0.00000000000E+00 0. -1.
         -2   -1    0    0    0  501 -0.00000000000E+00 -0.00000000000E+00 -0.34825531821E+02  0.34825531821E+02  0.00000000000E+00 0.  1.
          5    1    1    2  502    0 -0.30251310250E+02 -0.12858035292E+02  0.13196471861E+03  0.13607809450E+03  0.47000000000E+01 0.  1.
         -5    1    1    2    0  502 -0.64180847797E+01 -0.19794695286E+02  0.19994872529E+04  0.19996010568E+04  0.47000000000E+01 0.  1.
        -11    1    1    2    0    0  0.38489367879E+02  0.53362539616E+02  0.54592152398E+01  0.66021171642E+02  0.00000000000E+00 0.  1.
         11    1    1    2    0    0 -0.18199728500E+01 -0.20709809037E+02  0.42017302294E+02  0.46879229768E+02  0.00000000000E+00 0. -1.
<mgrwt>
<rscale>  0 0.12551042E+03</rscale>
<asrwt>0</asrwt>
<pdfrwt beam="1">  1        2 0.34057743E+00 0.13430536E+03</pdfrwt>
<pdfrwt beam="2">  1       -2 0.53577759E-02 0.13430536E+03</pdfrwt>
<totfact> 0.10327063E+03</totfact>
</mgrwt>
</event>
<event>
 6    1  0.9263730E-006  0.3773599E+03  0.7546771E-02  0.1051914E+00
         -1   -1    0    0    0  501 -0.00000000000E+00  0.00000000000E+00  0.11857648963E+03  0.11857648963E+03  0.00000000000E+00 0.  1.
          1   -1    0    0  501    0  0.00000000000E+00 -0.00000000000E+00 -0.30022920261E+03  0.30022920261E+03  0.00000000000E+00 0. -1.
          5    1    1    2  502    0 -0.12039923192E+02  0.20614321354E+02 -0.25983445710E+02  0.35596902201E+02  0.47000000000E+01 0. -1.
         -5    1    1    2    0  502  0.11158351603E+03 -0.13064609797E+03 -0.71357247677E+02  0.18610005578E+03  0.47000000000E+01 0.  1.
        -11    1    1    2    0    0 -0.59390609817E+02  0.58536714499E+02  0.82882157938E+01  0.83800274462E+02  0.00000000000E+00 0.  1.
         11    1    1    2    0    0 -0.40152983024E+02  0.51495062114E+02 -0.92600235387E+02  0.11330845980E+03  0.00000000000E+00 0. -1.
<mgrwt>
<rscale>  0 0.37735991E+03</rscale>
<asrwt>0</asrwt>
<pdfrwt beam="2">  1        1 0.46189107E-01 0.37735991E+03</pdfrwt>
<pdfrwt beam="1">  1       -1 0.18242537E-01 0.37735991E+03</pdfrwt>
<totfact> 0.20603058E+03</totfact>
</mgrwt>
</event>
<event>
 6    1  0.9263730E-006  0.2695554E+03  0.7546771E-02  0.1103577E+00
         -1   -1    0    0    0  501 -0.00000000000E+00  0.00000000000E+00  0.17709232873E+03  0.17709232873E+03  0.00000000000E+00 0.  1.
          1   -1    0    0  501    0  0.00000000000E+00 -0.00000000000E+00 -0.84974209052E+03  0.84974209052E+03  0.00000000000E+00 0. -1.
          5    1    1    2  502    0  0.62407233005E+02 -0.58908545770E+02 -0.10808957799E+03  0.13809535244E+03  0.47000000000E+01 0.  1.
         -5    1    1    2    0  502  0.10965633269E+03 -0.10672329705E+03 -0.61009650168E+03  0.62901049657E+03  0.47000000000E+01 0.  1.
        -11    1    1    2    0    0 -0.10016849892E+03  0.56090524640E+02 -0.14288975733E+02  0.11568945483E+03  0.00000000000E+00 0. -1.
         11    1    1    2    0    0 -0.71895066770E+02  0.10954131818E+03  0.59825293612E+02  0.14403911541E+03  0.00000000000E+00 0.  1.
<mgrwt>
<rscale>  0 0.26602421E+03</rscale>
<asrwt>0</asrwt>
<pdfrwt beam="2">  1        1 0.13072955E+00 0.26955545E+03</pdfrwt>
<pdfrwt beam="1">  1       -1 0.27244973E-01 0.26955545E+03</pdfrwt>
<totfact> 0.25466641E+02</totfact>
</mgrwt>
</event>
<event>
 6    1  0.9263730E-006  0.1267405E+03  0.7546771E-02  0.1247315E+00
          2   -1    0    0  501    0  0.00000000000E+00  0.00000000000E+00  0.20007645471E+03  0.20007645471E+03  0.00000000000E+00 0. -1.
         -2   -1    0    0    0  501 -0.00000000000E+00 -0.00000000000E+00 -0.66481811303E+02  0.66481811303E+02  0.00000000000E+00 0.  1.
          5    1    1    2  502    0  0.40028062442E+02 -0.42886312744E+02  0.84691670942E+02  0.10313220026E+03  0.47000000000E+01 0.  1.
         -5    1    1    2    0  502 -0.23641765389E+02  0.55919919511E+02  0.30369842908E+02  0.68046953107E+02  0.47000000000E+01 0.  1.
        -11    1    1    2    0    0  0.17207607413E+02 -0.43713524228E+02  0.16661273602E+02  0.49845481152E+02  0.00000000000E+00 0.  1.
         11    1    1    2    0    0 -0.33593904466E+02  0.30679917460E+02  0.18718559592E+01  0.45533631498E+02  0.00000000000E+00 0. -1.
<mgrwt>
<rscale>  0 0.11747906E+03</rscale>
<asrwt>0</asrwt>
<pdfrwt beam="1">  1        2 0.30780993E-01 0.12674049E+03</pdfrwt>
<pdfrwt beam="2">  1       -2 0.10227971E-01 0.12674049E+03</pdfrwt>
<totfact> 0.10225974E+04</totfact>
</mgrwt>
</event>
<event>
 6    1  0.9263730E-006  0.1319752E+03  0.7546771E-02  0.1237260E+00
         -1   -1    0    0    0  501 -0.00000000000E+00  0.00000000000E+00  0.98409661582E+02  0.98409661582E+02  0.00000000000E+00 0.  1.
          1   -1    0    0  501    0  0.00000000000E+00 -0.00000000000E+00 -0.14322030658E+03  0.14322030658E+03  0.00000000000E+00 0. -1.
          5    1    1    2  502    0  0.24760094105E+02 -0.50419392056E+02  0.74696398465E+01  0.56860028797E+02  0.47000000000E+01 0.  1.
         -5    1    1    2    0  502  0.16510208830E+02  0.60607290024E+02 -0.54339609153E+02  0.83190827154E+02  0.47000000000E+01 0.  1.
        -11    1    1    2    0    0  0.22131818100E+02 -0.43649306838E+01  0.25212459802E+02  0.33831023064E+02  0.00000000000E+00 0.  1.
         11    1    1    2    0    0 -0.63402121035E+02 -0.58229672844E+01 -0.23153135492E+02  0.67748089146E+02  0.00000000000E+00 0. -1.
<mgrwt>
<rscale>  0 0.12360840E+03</rscale>
<asrwt>0</asrwt>
<pdfrwt beam="2">  1        1 0.22033893E-01 0.13197518E+03</pdfrwt>
<pdfrwt beam="1">  1       -1 0.15139948E-01 0.13197518E+03</pdfrwt>
<totfact> 0.67527788E+03</totfact>
</mgrwt>
</event>
<event>
 6    1  0.9263730E-006  0.2844518E+03  0.7546771E-02  0.1093282E+00
          3   -1    0    0  501    0  0.00000000000E+00  0.00000000000E+00  0.26240634692E+03  0.26240634692E+03  0.00000000000E+00 0. -1.
         -3   -1    0    0    0  501 -0.00000000000E+00 -0.00000000000E+00 -0.77087333330E+02  0.77087333330E+02  0.00000000000E+00 0.  1.
          5    1    1    2  502    0 -0.81964126622E+02  0.63290437478E+02  0.13164846382E+03  0.16756254222E+03  0.47000000000E+01 0. -1.
         -5    1    1    2    0  502  0.11301950473E+02 -0.63624512681E+01 -0.19094976934E+02  0.23556804001E+02  0.47000000000E+01 0. -1.
        -11    1    1    2    0    0  0.44595026992E+02  0.14563630198E+02  0.62911446270E+01  0.47332803189E+02  0.00000000000E+00 0.  1.
         11    1    1    2    0    0  0.26067149157E+02 -0.71491616408E+02  0.66474382074E+02  0.10104153084E+03  0.00000000000E+00 0. -1.
<mgrwt>
<rscale>  0 0.28445179E+03</rscale>
<asrwt>0</asrwt>
<pdfrwt beam="1">  1        3 0.40370207E-01 0.28445179E+03</pdfrwt>
<pdfrwt beam="2">  1       -3 0.11859590E-01 0.28445179E+03</pdfrwt>
<totfact> 0.86273220E+02</totfact>
</mgrwt>
</event>
<event>
 6    1  0.9263730E-006  0.1444768E+03  0.7546771E-02  0.1217071E+00
         -2   -1    0    0    0  501 -0.00000000000E+00  0.00000000000E+00  0.58407806628E+02  0.58407806628E+02  0.00000000000E+00 0. -1.
          2   -1    0    0  501    0  0.00000000000E+00 -0.00000000000E+00 -0.48357396913E+03  0.48357396913E+03  0.00000000000E+00 0.  1.
          5    1    1    2  502    0  0.58148900277E+02 -0.57346360778E+02 -0.30996540995E+03  0.32057845384E+03  0.47000000000E+01 0. -1.
         -5    1    1    2    0  502 -0.50319118193E+02 -0.14675588929E+02 -0.84890302023E+02  0.99879126666E+02  0.47000000000E+01 0. -1.
        -11    1    1    2    0    0 -0.35804122790E+02  0.36724836109E+02 -0.50670035812E+02  0.72097859366E+02  0.00000000000E+00 0.  1.
         11    1    1    2    0    0  0.27974340706E+02  0.35297113598E+02  0.20359585285E+02  0.49426335887E+02  0.00000000000E+00 0. -1.
<mgrwt>
<rscale>  0 0.13725478E+03</rscale>
<asrwt>0</asrwt>
<pdfrwt beam="2">  1        2 0.74395993E-01 0.14447679E+03</pdfrwt>
<pdfrwt beam="1">  1       -2 0.89858167E-02 0.14447679E+03</pdfrwt>
<totfact> 0.49204462E+03</totfact>
</mgrwt>
</event>
<event>
 6    1  0.9263730E-006  0.1838661E+03  0.7546771E-02  0.1170041E+00
         -3   -1    0    0    0  501 -0.00000000000E+00  0.00000000000E+00  0.27044608576E+03  0.27044608576E+03  0.00000000000E+00 0.  1.
          3   -1    0    0  501    0  0.00000000000E+00 -0.00000000000E+00 -0.11013199907E+03  0.11013199907E+03  0.00000000000E+00 0. -1.
          5    1    1    2  502    0 -0.23168254741E+02  0.22200848830E+02  0.82974200751E+02  0.89086776273E+02  0.47000000000E+01 0.  1.
         -5    1    1    2    0  502 -0.10704752377E+03  0.12799426815E+02 -0.10769934491E+02  0.10844850926E+03  0.47000000000E+01 0.  1.
        -11    1    1    2    0    0  0.10727520905E+03  0.11580498124E+02  0.51837450574E+02  0.11970463523E+03  0.00000000000E+00 0.  1.
         11    1    1    2    0    0  0.22940569464E+02 -0.46580773769E+02  0.36272369866E+02  0.63338164072E+02  0.00000000000E+00 0. -1.
<mgrwt>
<rscale>  0 0.17770722E+03</rscale>
<asrwt>0</asrwt>
<pdfrwt beam="2">  1        3 0.16943385E-01 0.18386607E+03</pdfrwt>
<pdfrwt beam="1">  1       -3 0.41607090E-01 0.18386607E+03</pdfrwt>
<totfact> 0.41772878E+02</totfact>
</mgrwt>
</event>
<event>
 6    1  0.9263730E-006  0.3223457E+03  0.7546771E-02  0.1076027E+00
         -2   -1    0    0    0  501 -0.00000000000E+00  0.00000000000E+00  0.29052195837E+03  0.29052195837E+03  0.00000000000E+00 0.  1.
          2   -1    0    0  501    0  0.00000000000E+00 -0.00000000000E+00 -0.37997633646E+03  0.37997633646E+03  0.00000000000E+00 0. -1.
          5    1    1    2  502    0 -0.60955215918E+02 -0.19780151729E+03 -0.64403021890E+02  0.21681978189E+03  0.47000000000E+01 0. -1.
         -5    1    1    2    0  502  0.46548116891E+02 -0.98967675823E+02 -0.84331536375E+02  0.13818547706E+03  0.47000000000E+01 0. -1.
        -11    1    1    2    0    0  0.31229305118E-01  0.51587101528E+02  0.46671816340E+02  0.69566431990E+02  0.00000000000E+00 0.  1.
         11    1    1    2    0    0  0.14375869721E+02  0.24518209159E+03  0.12608363834E+02  0.24592660389E+03  0.00000000000E+00 0. -1.
<mgrwt>
<rscale>  0 0.31918143E+03</rscale>
<asrwt>0</asrwt>
<pdfrwt beam="2">  1        2 0.58457898E-01 0.32234572E+03</pdfrwt>
<pdfrwt beam="1">  1       -2 0.44695686E-01 0.32234572E+03</pdfrwt>
<totfact> 0.40716427E+02</totfact>
</mgrwt>
</event>
<event>
 6    1  0.9263730E-006  0.1601993E+03  0.7546771E-02  0.1231729E+00
         -1   -1    0    0    0  501 -0.00000000000E+00  0.00000000000E+00  0.13753692532E+03  0.13753692532E+03  0.00000000000E+00 0.  1.
          1   -1    0    0  501    0  0.00000000000E+00 -0.00000000000E+00 -0.17322548588E+03  0.17322548588E+03  0.00000000000E+00 0. -1.
          5    1    1    2  502    0  0.73766706288E+01 -0.53398322593E+02 -0.14195306127E+03  0.15191628527E+03  0.47000000000E+01 0. -1.
         -5    1    1    2    0  502 -0.30251498143E+02  0.35535585738E+02  0.18409182969E+02  0.50387687100E+02  0.47000000000E+01 0.  1.
        -11    1    1    2    0    0 -0.61825765019E+01  0.20773272011E+02  0.74569434891E+01  0.22920713088E+02  0.00000000000E+00 0. -1.
         11    1    1    2    0    0  0.29057404016E+02 -0.29105351557E+01  0.80398374249E+02  0.85537725741E+02  0.00000000000E+00 0.  1.
<mgrwt>
<rscale>  0 0.12716157E+03</rscale>
<asrwt>0</asrwt>
<pdfrwt beam="2">  1        1 0.26650075E-01 0.16019927E+03</pdfrwt>
<pdfrwt beam="1">  1       -1 0.21159527E-01 0.16019927E+03</pdfrwt>
<totfact> 0.31529967E+03</totfact>
</mgrwt>
</event>
<event>
 6    1  0.9263730E-006  0.1267547E+03  0.7546771E-02  0.1247189E+00
          1   -1    0    0  501    0  0.00000000000E+00  0.00000000000E+00  0.68680599082E+02  0.68680599082E+02  0.00000000000E+00 0. -1.
         -1   -1    0    0    0  501 -0.00000000000E+00 -0.00000000000E+00 -0.21445643627E+03  0.21445643627E+03  0.00000000000E+00 0.  1.
          5    1    1    2  502    0 -0.15538116616E+02  0.23080072152E+02 -0.62998213668E+02  0.69028890501E+02  0.47000000000E+01 0. -1.
         -5    1    1    2    0  502  0.10069777848E+02 -0.43366692658E+02  0.39716548883E+02  0.59846175427E+02  0.47000000000E+01 0. -1.
        -11    1    1    2    0    0 -0.30976847407E+02  0.16644914833E+02 -0.10908139903E+02  0.36818552134E+02  0.00000000000E+00 0. -1.
         11    1    1    2    0    0  0.36445186175E+02  0.36417056732E+01 -0.11158603251E+03  0.11744341729E+03  0.00000000000E+00 0.  1.
<mgrwt>
<rscale>  0 0.11755295E+03</rscale>
<asrwt>0</asrwt>
<pdfrwt beam="1">  1        1 0.10566246E-01 0.12675467E+03</pdfrwt>
<pdfrwt beam="2">  1       -1 0.32993298E-01 0.12675467E+03</pdfrwt>
<totfact> 0.49043550E+03</totfact>
</mgrwt>
</event>
<event>
 6    1  0.9263730E-006  0.1200407E+03  0.7546771E-02  0.1253761E+00
          1   -1    0    0  501    0  0.00000000000E+00  0.00000000000E+00  0.25108597983E+02  0.25108597983E+02  0.00000000000E+00 0. -1.
         -1   -1    0    0    0  501 -0.00000000000E+00 -0.00000000000E+00 -0.48237129322E+03  0.48237129322E+03  0.00000000000E+00 0.  1.
          5    1    1    2  502    0  0.38338415266E+02  0.18233051608E+02 -0.31098404870E+02  0.52834449382E+02  0.47000000000E+01 0. -1.
         -5    1    1    2    0  502 -0.38705111768E+02 -0.47303104018E+02 -0.17814485001E+03  0.18839678052E+03  0.47000000000E+01 0.  1.
        -11    1    1    2    0    0 -0.12146977346E+01 -0.33490102594E+02 -0.10263309129E+03  0.10796579963E+03  0.00000000000E+00 0.  1.
         11    1    1    2    0    0  0.15813942359E+01  0.62560155003E+02 -0.14538634907E+03  0.15828286167E+03  0.00000000000E+00 0. -1.
<mgrwt>
<rscale>  0 0.11376039E+03</rscale>
<asrwt>0</asrwt>
<pdfrwt beam="1">  1        1 0.38628616E-02 0.12004069E+03</pdfrwt>
<pdfrwt beam="2">  1       -1 0.74210960E-01 0.12004069E+03</pdfrwt>
<totfact> 0.43160132E+03</totfact>
</mgrwt>
</event>
<event>
 6    1  0.9263730E-006  0.1378571E+03  0.7546771E-02  0.1218247E+00
          1   -1    0    0  501    0  0.00000000000E+00  0.00000000000E+00  0.23211274893E+02  0.23211274893E+02  0.00000000000E+00 0. -1.
         -1   -1    0    0    0  501 -0.00000000000E+00 -0.00000000000E+00 -0.78552304841E+03  0.78552304841E+03  0.00000000000E+00 0.  1.
          5    1    1    2  502    0  0.35828182063E+02  0.43855581333E+02 -0.11092345921E+03  0.12463175537E+03  0.47000000000E+01 0.  1.
         -5    1    1    2    0  502 -0.70217984478E+02  0.24401223361E+02 -0.28642565119E+03  0.29595224058E+03  0.47000000000E+01 0. -1.
        -11    1    1    2    0    0 -0.36543824767E+02 -0.41056890391E+02 -0.12784155737E+03  0.13915668568E+03  0.00000000000E+00 0. -1.
         11    1    1    2    0    0  0.70933627183E+02 -0.27199914303E+02 -0.23712110576E+03  0.24899364169E+03  0.00000000000E+00 0.  1.
<mgrwt>
<rscale>  0 0.13640696E+03</rscale>
<asrwt>0</asrwt>
<pdfrwt beam="1">  1        1 0.35709653E-02 0.13785711E+03</pdfrwt>
<pdfrwt beam="2">  1       -1 0.12084970E+00 0.13785711E+03</pdfrwt>
<totfact> 0.16888624E+03</totfact>
</mgrwt>
</event>
<event>
 6    1  0.9263730E-006  0.1629136E+03  0.7546771E-02  0.1192584E+00
         -2   -1    0    0    0  501 -0.00000000000E+00  0.00000000000E+00  0.11067668673E+03  0.11067668673E+03  0.00000000000E+00 0. -1.
          2   -1    0    0  501    0  0.00000000000E+00 -0.00000000000E+00 -0.20637723316E+03  0.20637723316E+03  0.00000000000E+00 0.  1.
          5    1    1    2  502    0  0.53536921076E+02  0.86601693755E+02 -0.18682688999E+02  0.10362040411E+03  0.47000000000E+01 0. -1.
         -5    1    1    2    0  502 -0.54010880530E+02  0.17875917435E+02 -0.39291524047E+02  0.69301064218E+02  0.47000000000E+01 0. -1.
        -11    1    1    2    0    0 -0.64612398720E+01 -0.11893057520E+03 -0.43921638984E+02  0.12694620794E+03  0.00000000000E+00 0.  1.
         11    1    1    2    0    0  0.69351993264E+01  0.14452964011E+02  0.61953056034E+01  0.17186243625E+02  0.00000000000E+00 0. -1.
<mgrwt>
<rscale>  0 0.15660496E+03</rscale>
<asrwt>0</asrwt>
<pdfrwt beam="2">  1        2 0.31750343E-01 0.16291355E+03</pdfrwt>
<pdfrwt beam="1">  1       -2 0.17027183E-01 0.16291355E+03</pdfrwt>
<totfact> 0.44144288E+03</totfact>
</mgrwt>
</event>
<event>
 6    1  0.9263730E-006  0.1261660E+03  0.7546771E-02  0.1248276E+00
          1   -1    0    0  501    0  0.00000000000E+00  0.00000000000E+00  0.31995519126E+03  0.31995519126E+03  0.00000000000E+00 0. -1.
         -1   -1    0    0    0  501 -0.00000000000E+00 -0.00000000000E+00 -0.38437303595E+02  0.38437303595E+02  0.00000000000E+00 0.  1.
          5    1    1    2  502    0  0.37737628941E+02 -0.38305831632E+02  0.45768561465E+02  0.70769460883E+02  0.47000000000E+01 0. -1.
         -5    1    1    2    0  502 -0.53853204321E+02  0.32520256970E+02  0.14279290357E+03  0.15610777700E+03  0.47000000000E+01 0. -1.
        -11    1    1    2    0    0  0.48952857568E+02 -0.17397085767E+02  0.61275846882E+02  0.80335361258E+02  0.00000000000E+00 0. -1.
         11    1    1    2    0    0 -0.32837282188E+02  0.23182660429E+02  0.31680575753E+02  0.51179895722E+02  0.00000000000E+00 0.  1.
<mgrwt>
<rscale>  0 0.11691423E+03</rscale>
<asrwt>0</asrwt>
<pdfrwt beam="1">  1        1 0.49223874E-01 0.12616598E+03</pdfrwt>
<pdfrwt beam="2">  1       -1 0.59134315E-02 0.12616598E+03</pdfrwt>
<totfact> 0.10369314E+04</totfact>
</mgrwt>
</event>
<event>
 6    1  0.9263730E-006  0.3657087E+03  0.7546771E-02  0.1056346E+00
          1   -1    0    0  501    0  0.00000000000E+00  0.00000000000E+00  0.16556457574E+03  0.16556457574E+03  0.00000000000E+00 0. -1.
         -1   -1    0    0    0  501 -0.00000000000E+00 -0.00000000000E+00 -0.20194967684E+03  0.20194967684E+03  0.00000000000E+00 0.  1.
          5    1    1    2  502    0 -0.91820257567E+02  0.13426560081E+03  0.17371472822E+02  0.16365228177E+03  0.47000000000E+01 0. -1.
         -5    1    1    2    0  502  0.16665110413E+02 -0.96136220877E+01 -0.20108402293E+02  0.28223845902E+02  0.47000000000E+01 0. -1.
        -11    1    1    2    0    0  0.56853209841E+02 -0.68017815008E+02 -0.63507521539E+02  0.10905006153E+03  0.00000000000E+00 0.  1.
         11    1    1    2    0    0  0.18301937312E+02 -0.56634163712E+02  0.29859349904E+02  0.66588063385E+02  0.00000000000E+00 0. -1.
<mgrwt>
<rscale>  0 0.36570870E+03</rscale>
<asrwt>0</asrwt>
<pdfrwt beam="1">  1        1 0.25471473E-01 0.36570870E+03</pdfrwt>
<pdfrwt beam="2">  1       -1 0.31069181E-01 0.36570870E+03</pdfrwt>
<totfact> 0.18044854E+03</totfact>
</mgrwt>
</event>
<event>
 6    1  0.9263730E-006  0.1405276E+03  0.7546771E-02  0.1228857E+00
          1   -1    0    0  501    0  0.00000000000E+00  0.00000000000E+00  0.36277219327E+03  0.36277219327E+03  0.00000000000E+00 0. -1.
         -1   -1    0    0    0  501 -0.00000000000E+00 -0.00000000000E+00 -0.42702113126E+02  0.42702113126E+02  0.00000000000E+00 0.  1.
          5    1    1    2  502    0  0.29857193902E+02  0.34119731543E+02  0.24374190282E+03  0.24796736337E+03  0.47000000000E+01 0. -1.
         -5    1    1    2    0  502  0.26908279441E+01 -0.25966199908E+02 -0.69173852862E+01  0.27412119799E+02  0.47000000000E+01 0.  1.
        -11    1    1    2    0    0  0.19464919879E+02  0.27649162706E+02  0.44940157606E+02  0.56240350905E+02  0.00000000000E+00 0. -1.
         11    1    1    2    0    0 -0.52012941725E+02 -0.35802694341E+02  0.38305405005E+02  0.73854472320E+02  0.00000000000E+00 0.  1.
<mgrwt>
<rscale>  0 0.12906046E+03</rscale>
<asrwt>0</asrwt>
<pdfrwt beam="1">  1        1 0.55811105E-01 0.14052760E+03</pdfrwt>
<pdfrwt beam="2">  1       -1 0.65695561E-02 0.14052760E+03</pdfrwt>
<totfact> 0.76397355E+03</totfact>
</mgrwt>
</event>
<event>
 6    1  0.9263730E-006  0.1374735E+03  0.7546771E-02  0.1229470E+00
         -2   -1    0    0    0  501 -0.00000000000E+00  0.00000000000E+00  0.54034935433E+02  0.54034935433E+02  0.00000000000E+00 0.  1.
          2   -1    0    0  501    0  0.00000000000E+00 -0.00000000000E+00 -0.27716857074E+03  0.27716857074E+03  0.00000000000E+00 0. -1.
          5    1    1    2  502    0  0.60456111538E+02  0.27277950931E+02 -0.23538940468E+02  0.70535095858E+02  0.47000000000E+01 0.  1.
         -5    1    1    2    0  502 -0.54158977873E+01 -0.42923760692E+02 -0.12263784364E+03  0.13013036492E+03  0.47000000000E+01 0.  1.
        -11    1    1    2    0    0 -0.22424126213E+02 -0.18639197992E+02  0.10588262134E+02  0.31022128122E+02  0.00000000000E+00 0.  1.
         11    1    1    2    0    0 -0.32616087538E+02  0.34285007753E+02 -0.87545113331E+02  0.99515917275E+02  0.00000000000E+00 0. -1.
<mgrwt>
<rscale>  0 0.12865208E+03</rscale>
<asrwt>0</asrwt>
<pdfrwt beam="2">  1        2 0.42641318E-01 0.13747354E+03</pdfrwt>
<pdfrwt beam="1">  1       -2 0.83130670E-02 0.13747354E+03</pdfrwt>
<totfact> 0.10038274E+04</totfact>
</mgrwt>
</event>
<event>
 6    1  0.9263730E-006  0.1483968E+03  0.7546771E-02  0.1211653E+00
         -2   -1    0    0    0  501 -0.00000000000E+00  0.00000000000E+00  0.42926380980E+03  0.42926380980E+03  0.00000000000E+00 0. -1.
          2   -1    0    0  501    0  0.00000000000E+00 -0.00000000000E+00 -0.43712385275E+02  0.43712385275E+02  0.00000000000E+00 0.  1.
          5    1    1    2  502    0  0.87161577749E+02  0.24034520318E+02  0.48241290983E+02  0.10258708963E+03  0.47000000000E+01 0.  1.
         -5    1    1    2    0  502 -0.85780346079E+01 -0.91722441368E+01  0.12417535664E+03  0.12489724551E+03  0.47000000000E+01 0.  1.
        -11    1    1    2    0    0 -0.94005287951E+02 -0.24622621629E+02  0.14210138954E+03  0.17215130719E+03  0.00000000000E+00 0.  1.
         11    1    1    2    0    0  0.15421744810E+02  0.97603454478E+01  0.71033387361E+02  0.73340552740E+02  0.00000000000E+00 0. -1.
<mgrwt>
<rscale>  0 0.14125280E+03</rscale>
<asrwt>0</asrwt>
<pdfrwt beam="2">  1        2 0.67249826E-02 0.14839684E+03</pdfrwt>
<pdfrwt beam="1">  1       -2 0.66040583E-01 0.14839684E+03</pdfrwt>
<totfact> 0.22230629E+03</totfact>
</mgrwt>
</event>
<event>
 6    1  0.9263730E-006  0.1251334E+03  0.7546771E-02  0.1253706E+00
         -3   -1    0    0    0  501 -0.00000000000E+00  0.00000000000E+00  0.50453530286E+02  0.50453530286E+02  0.00000000000E+00 0.  1.
          3   -1    0    0  501    0  0.00000000000E+00 -0.00000000000E+00 -0.28762207053E+03  0.28762207053E+03  0.00000000000E+00 0. -1.
          5    1    1    2  502    0 -0.62264928569E+01  0.12462704929E+02 -0.23166682575E+03  0.23213292826E+03  0.47000000000E+01 0. -1.
         -5    1    1    2    0  502  0.43156503581E+01 -0.70123877811E+01  0.15191315712E+02  0.17907107345E+02  0.47000000000E+01 0. -1.
        -11    1    1    2    0    0  0.28828911611E+02  0.13838092843E+02  0.18327021820E+02  0.36857545862E+02  0.00000000000E+00 0.  1.
         11    1    1    2    0    0 -0.26918069112E+02 -0.19288409991E+02 -0.39020052024E+02  0.51178019351E+02  0.00000000000E+00 0. -1.
<mgrwt>
<rscale>  0 0.11379132E+03</rscale>
<asrwt>0</asrwt>
<pdfrwt beam="2">  1        3 0.44249550E-01 0.12513342E+03</pdfrwt>
<pdfrwt beam="1">  1       -3 0.77620814E-02 0.12513342E+03</pdfrwt>
<totfact> 0.12972070E+03</totfact>
</mgrwt>
</event>
<event>
 6    1  0.9263730E-006  0.1438929E+03  0.7546771E-02  0.1218803E+00
         -1   -1    0    0    0  501 -0.00000000000E+00  0.00000000000E+00  0.71957291663E+02  0.71957291663E+02  0.00000000000E+00 0.  1.
          1   -1    0    0  501    0  0.00000000000E+00 -0.00000000000E+00 -0.26568514583E+03  0.26568514583E+03  0.00000000000E+00 0. -1.
          5    1    1    2  502    0 -0.32313214911E+01  0.62695567851E+02 -0.61407116685E+02  0.87943730000E+02  0.47000000000E+01 0.  1.
         -5    1    1    2    0  502 -0.65896262097E+02 -0.45335022836E+02 -0.10421608469E+03  0.13145593924E+03  0.47000000000E+01 0.  1.
        -11    1    1    2    0    0  0.68072474302E+02  0.10738922693E+02  0.11299231334E+02  0.69834510430E+02  0.00000000000E+00 0.  1.
         11    1    1    2    0    0  0.10551092857E+01 -0.28099467709E+02 -0.39403884121E+02  0.48408257817E+02  0.00000000000E+00 0. -1.
<mgrwt>
<rscale>  0 0.13600856E+03</rscale>
<asrwt>0</asrwt>
<pdfrwt beam="2">  1        1 0.40874638E-01 0.14389291E+03</pdfrwt>
<pdfrwt beam="1">  1       -1 0.11070353E-01 0.14389291E+03</pdfrwt>
<totfact> 0.51080749E+03</totfact>
</mgrwt>
</event>
<event>
 6    1  0.9263730E-006  0.2276198E+03  0.7546771E-02  0.1158694E+00
         -2   -1    0    0    0  501 -0.00000000000E+00  0.00000000000E+00  0.10187946535E+03  0.10187946535E+03  0.00000000000E+00 0.  1.
          2   -1    0    0  501    0  0.00000000000E+00 -0.00000000000E+00 -0.14998184670E+04  0.14998184670E+04  0.00000000000E+00 0. -1.
          5    1    1    2  502    0 -0.10973289598E+03 -0.70226785368E+02 -0.12957199374E+04  0.13022616312E+04  0.47000000000E+01 0. -1.
         -5    1    1    2    0  502  0.56896085654E+02 -0.21975157349E+02 -0.16281723013E+03  0.17392990695E+03  0.47000000000E+01 0.  1.
        -11    1    1    2    0    0  0.16049203883E+02  0.80321256479E+01  0.11951628313E+02  0.21562314510E+02  0.00000000000E+00 0. -1.
         11    1    1    2    0    0  0.36787606446E+02  0.84169817069E+02  0.48646537568E+02  0.10394407973E+03  0.00000000000E+00 0.  1.
<mgrwt>
<rscale>  0 0.18974252E+03</rscale>
<asrwt>0</asrwt>
<pdfrwt beam="2">  1        2 0.23074128E+00 0.22761983E+03</pdfrwt>
<pdfrwt beam="1">  1       -2 0.15673766E-01 0.22761983E+03</pdfrwt>
<totfact> 0.43922859E+02</totfact>
</mgrwt>
</event>
<event>
 6    1  0.9263730E-006  0.1305498E+03  0.7546771E-02  0.1240307E+00
         -1   -1    0    0    0  501 -0.00000000000E+00  0.00000000000E+00  0.89112792571E+02  0.89112792571E+02  0.00000000000E+00 0.  1.
          1   -1    0    0  501    0  0.00000000000E+00 -0.00000000000E+00 -0.15596438854E+03  0.15596438854E+03  0.00000000000E+00 0. -1.
          5    1    1    2  502    0 -0.11034564971E+02  0.54743986611E+02 -0.27928641472E+02  0.62616010002E+02  0.47000000000E+01 0.  1.
         -5    1    1    2    0  502  0.48665083789E+02 -0.56217026963E+02 -0.38466007702E+02  0.83847291246E+02  0.47000000000E+01 0.  1.
        -11    1    1    2    0    0 -0.21173709832E+01 -0.36236888763E+02  0.21682090931E+02  0.42281301237E+02  0.00000000000E+00 0.  1.
         11    1    1    2    0    0 -0.35513147835E+02  0.37709929115E+02 -0.22139037722E+02  0.56332578623E+02  0.00000000000E+00 0. -1.
<mgrwt>
<rscale>  0 0.12170698E+03</rscale>
<asrwt>0</asrwt>
<pdfrwt beam="2">  1        1 0.23994521E-01 0.13054980E+03</pdfrwt>
<pdfrwt beam="1">  1       -1 0.13709660E-01 0.13054980E+03</pdfrwt>
<totfact> 0.70760136E+03</totfact>
</mgrwt>
</event>
<event>
 6    1  0.9263730E-006  0.1469495E+03  0.7546771E-02  0.1213538E+00
          1   -1    0    0  501    0  0.00000000000E+00  0.00000000000E+00  0.11019258086E+04  0.11019258086E+04  0.00000000000E+00 0. -1.
         -1   -1    0    0    0  501 -0.00000000000E+00 -0.00000000000E+00 -0.16879595757E+02  0.16879595757E+02  0.00000000000E+00 0.  1.
          5    1    1    2  502    0 -0.51705169119E+02 -0.62976867573E+02  0.59175947956E+03  0.59736160071E+03  0.47000000000E+01 0. -1.
         -5    1    1    2    0  502 -0.22437690157E+02  0.41267234002E+02  0.11141260256E+03  0.12100120888E+03  0.47000000000E+01 0. -1.
        -11    1    1    2    0    0 -0.20349219179E+02  0.35015733482E+01  0.36747684614E+02  0.42151441987E+02  0.00000000000E+00 0.  1.
         11    1    1    2    0    0  0.94492078455E+02  0.18208060223E+02  0.34512644606E+03  0.35829115272E+03  0.00000000000E+00 0. -1.
<mgrwt>
<rscale>  0 0.13984465E+03</rscale>
<asrwt>0</asrwt>
<pdfrwt beam="1">  1        1 0.16952699E+00 0.14694948E+03</pdfrwt>
<pdfrwt beam="2">  1       -1 0.25968617E-02 0.14694948E+03</pdfrwt>
<totfact> 0.61400376E+03</totfact>
</mgrwt>
</event>
<event>
 6    1  0.9263730E-006  0.3022949E+03  0.7546771E-02  0.1084099E+00
          1   -1    0    0  501    0  0.00000000000E+00  0.00000000000E+00  0.10553494024E+04  0.10553494024E+04  0.00000000000E+00 0. -1.
         -1   -1    0    0    0  501 -0.00000000000E+00 -0.00000000000E+00 -0.21647379320E+02  0.21647379320E+02  0.00000000000E+00 0.  1.
          5    1    1    2  502    0  0.67381916796E+02  0.66331435976E+02  0.19353709908E+03  0.21545041385E+03  0.47000000000E+01 0.  1.
         -5    1    1    2    0  502  0.18830006903E+02 -0.70032567031E+01  0.38680724004E+03  0.38735712942E+03  0.47000000000E+01 0.  1.
        -11    1    1    2    0    0 -0.82768930015E+02 -0.33065341202E+01  0.27595011553E+03  0.28811472577E+03  0.00000000000E+00 0.  1.
         11    1    1    2    0    0 -0.34429936841E+01 -0.56021645153E+02  0.17740756840E+03  0.18607451265E+03  0.00000000000E+00 0. -1.
<mgrwt>
<rscale>  0 0.30229488E+03</rscale>
<asrwt>0</asrwt>
<pdfrwt beam="1">  1        1 0.16236141E+00 0.30229488E+03</pdfrwt>
<pdfrwt beam="2">  1       -1 0.33303669E-02 0.30229488E+03</pdfrwt>
<totfact> 0.47064913E+03</totfact>
</mgrwt>
</event>
<event>
 6    1  0.9263730E-006  0.1222732E+03  0.7546771E-02  0.1251562E+00
         -2   -1    0    0    0  501 -0.00000000000E+00  0.00000000000E+00  0.81293219219E+01  0.81293219219E+01  0.00000000000E+00 0.  1.
          2   -1    0    0  501    0  0.00000000000E+00 -0.00000000000E+00 -0.20905163549E+04  0.20905163549E+04  0.00000000000E+00 0. -1.
          5    1    1    2  502    0 -0.59420505742E+01  0.47461989417E+02 -0.11153373885E+04  0.11163724865E+04  0.47000000000E+01 0. -1.
         -5    1    1    2    0  502  0.32027899267E+02 -0.53830102489E+02 -0.58723320317E+03  0.59058309421E+03  0.47000000000E+01 0.  1.
        -11    1    1    2    0    0 -0.44912228765E+02 -0.28372215829E+02 -0.16730867063E+03  0.17553997320E+03  0.00000000000E+00 0.  1.
         11    1    1    2    0    0  0.18826380072E+02  0.34740328901E+02 -0.21250777070E+03  0.21615012294E+03  0.00000000000E+00 0. -1.
<mgrwt>
<rscale>  0 0.11501089E+03</rscale>
<asrwt>0</asrwt>
<pdfrwt beam="2">  1        2 0.32161770E+00 0.12227320E+03</pdfrwt>
<pdfrwt beam="1">  1       -2 0.12506657E-02 0.12227320E+03</pdfrwt>
<totfact> 0.10047674E+04</totfact>
</mgrwt>
</event>
<event>
 6    1  0.9263730E-006  0.1690803E+03  0.7546771E-02  0.1184787E+00
          2   -1    0    0  501    0  0.00000000000E+00  0.00000000000E+00  0.70602880118E+03  0.70602880118E+03  0.00000000000E+00 0.  1.
         -2   -1    0    0    0  501 -0.00000000000E+00 -0.00000000000E+00 -0.44969075405E+02  0.44969075405E+02  0.00000000000E+00 0. -1.
          5    1    1    2  502    0  0.66490922662E+02  0.60932969838E+02  0.42631556344E+03  0.43577622611E+03  0.47000000000E+01 0. -1.
         -5    1    1    2    0  502 -0.34342280053E+02  0.48288390908E+02  0.93020671868E+02  0.11039065309E+03  0.47000000000E+01 0. -1.
        -11    1    1    2    0    0 -0.49468510538E+02 -0.71352884067E+02  0.13797693354E+03  0.16302147646E+03  0.00000000000E+00 0.  1.
         11    1    1    2    0    0  0.17319867930E+02 -0.37868476680E+02  0.37465569340E+01  0.41809520925E+02  0.00000000000E+00 0. -1.
<mgrwt>
<rscale>  0 0.16351261E+03</rscale>
<asrwt>0</asrwt>
<pdfrwt beam="1">  1        2 0.10861981E+00 0.16908026E+03</pdfrwt>
<pdfrwt beam="2">  1       -2 0.69183198E-02 0.16908026E+03</pdfrwt>
<totfact> 0.48241564E+03</totfact>
</mgrwt>
</event>
<event>
 6    1  0.9263730E-006  0.1387165E+03  0.7546771E-02  0.1232978E+00
          1   -1    0    0  501    0  0.00000000000E+00  0.00000000000E+00  0.17071078849E+03  0.17071078849E+03  0.00000000000E+00 0. -1.
         -1   -1    0    0    0  501 -0.00000000000E+00 -0.00000000000E+00 -0.12019733668E+03  0.12019733668E+03  0.00000000000E+00 0.  1.
          5    1    1    2  502    0 -0.39791829710E+02 -0.30123110946E+02  0.13296037875E+03  0.14209624852E+03  0.47000000000E+01 0. -1.
         -5    1    1    2    0  502  0.93532508107E+01  0.26271551296E+02 -0.21765463636E+02  0.35686175412E+02  0.47000000000E+01 0.  1.
        -11    1    1    2    0    0  0.25982445336E+02 -0.35362872781E+02 -0.59122582616E+02  0.73628119711E+02  0.00000000000E+00 0.  1.
         11    1    1    2    0    0  0.44561335632E+01  0.39214432431E+02 -0.15588806940E+01  0.39497581524E+02  0.00000000000E+00 0. -1.
<mgrwt>
<rscale>  0 0.12634757E+03</rscale>
<asrwt>0</asrwt>
<pdfrwt beam="1">  1        1 0.26263198E-01 0.13871655E+03</pdfrwt>
<pdfrwt beam="2">  1       -1 0.18491898E-01 0.13871655E+03</pdfrwt>
<totfact> 0.39594092E+03</totfact>
</mgrwt>
</event>
<event>
 6    1  0.9263730E-006  0.2599735E+03  0.7546771E-02  0.1107159E+00
          1   -1    0    0  501    0  0.00000000000E+00  0.00000000000E+00  0.62713850742E+03  0.62713850742E+03  0.00000000000E+00 0. -1.
         -1   -1    0    0    0  501 -0.00000000000E+00 -0.00000000000E+00 -0.26942309446E+02  0.26942309446E+02  0.00000000000E+00 0.  1.
          5    1    1    2  502    0 -0.13679378187E+02 -0.98276625162E+01  0.10741460083E+01  0.17520049308E+02  0.47000000000E+01 0.  1.
         -5    1    1    2    0  502  0.15451241821E+02  0.57781473777E+02  0.44554116535E+03  0.44956252025E+03  0.47000000000E+01 0.  1.
        -11    1    1    2    0    0 -0.42763376409E+02 -0.61761121102E+01  0.94121782186E+02  0.10356524805E+03  0.00000000000E+00 0. -1.
         11    1    1    2    0    0  0.40991512776E+02 -0.41777699150E+02  0.59459104430E+02  0.83432999260E+02  0.00000000000E+00 0.  1.
<mgrwt>
<rscale>  0 0.25997354E+03</rscale>
<asrwt>0</asrwt>
<pdfrwt beam="1">  1        1 0.96482836E-01 0.25997354E+03</pdfrwt>
<pdfrwt beam="2">  1       -1 0.41449712E-02 0.25997354E+03</pdfrwt>
<totfact> 0.76590676E+03</totfact>
</mgrwt>
</event>
<event>
 6    1  0.9263730E-006  0.1413167E+03  0.7546771E-02  0.1223634E+00
         -2   -1    0    0    0  501 -0.00000000000E+00  0.00000000000E+00  0.83822226410E+02  0.83822226410E+02  0.00000000000E+00 0.  1.
          2   -1    0    0  501    0  0.00000000000E+00 -0.00000000000E+00 -0.27740507191E+03  0.27740507191E+03  0.00000000000E+00 0. -1.
          5    1    1    2  502    0 -0.54699216653E+01 -0.24915509046E+02  0.41764485768E+01  0.26272330631E+02  0.47000000000E+01 0.  1.
         -5    1    1    2    0  502  0.71402366384E+02  0.24768597521E+02 -0.21138125276E+03  0.22453486448E+03  0.47000000000E+01 0.  1.
        -11    1    1    2    0    0 -0.11732698589E+02 -0.39701038471E+02  0.12103020338E+02  0.43131331688E+02  0.00000000000E+00 0. -1.
         11    1    1    2    0    0 -0.54199746130E+02  0.39847949996E+02  0.15189383429E+01  0.67288771523E+02  0.00000000000E+00 0.  1.
<mgrwt>
<rscale>  0 0.13260951E+03</rscale>
<asrwt>0</asrwt>
<pdfrwt beam="2">  1        2 0.42677703E-01 0.14131673E+03</pdfrwt>
<pdfrwt beam="1">  1       -2 0.12895727E-01 0.14131673E+03</pdfrwt>
<totfact> 0.50260539E+03</totfact>
</mgrwt>
</event>
<event>
 6    1  0.9263730E-006  0.3396881E+03  0.7546771E-02  0.1066929E+00
         -1   -1    0    0    0  501 -0.00000000000E+00  0.00000000000E+00  0.22203942313E+03  0.22203942313E+03  0.00000000000E+00 0.  1.
          1   -1    0    0  501    0  0.00000000000E+00 -0.00000000000E+00 -0.12991839083E+03  0.12991839083E+03  0.00000000000E+00 0. -1.
          5    1    1    2  502    0  0.69516909696E+02  0.67185747385E+02  0.51226365045E+02  0.10951144169E+03  0.47000000000E+01 0. -1.
         -5    1    1    2    0  502  0.17697136001E+02  0.12211458495E+02 -0.58500760654E+02  0.62503898585E+02  0.47000000000E+01 0. -1.
        -11    1    1    2    0    0 -0.21445057438E+02 -0.60217083470E+02  0.90587880948E+02  0.11086997702E+03  0.00000000000E+00 0.  1.
         11    1    1    2    0    0 -0.65768988258E+02 -0.19180122410E+02  0.88075469635E+01  0.69072496666E+02  0.00000000000E+00 0. -1.
<mgrwt>
<rscale>  0 0.33968812E+03</rscale>
<asrwt>0</asrwt>
<pdfrwt beam="2">  1        1 0.19987445E-01 0.33968812E+03</pdfrwt>
<pdfrwt beam="1">  1       -1 0.34159911E-01 0.33968812E+03</pdfrwt>
<totfact> 0.20916793E+03</totfact>
</mgrwt>
</event>
<event>
 6    1  0.9263730E-006  0.1323626E+03  0.7546771E-02  0.1237247E+00
         -1   -1    0    0    0  501 -0.00000000000E+00  0.00000000000E+00  0.75867643534E+02  0.75867643534E+02  0.00000000000E+00 0.  1.
          1   -1    0    0  501    0  0.00000000000E+00 -0.00000000000E+00 -0.18792533005E+03  0.18792533005E+03  0.00000000000E+00 0. -1.
          5    1    1    2  502    0  0.11532118661E+02  0.50790316019E+02 -0.41853867302E+01  0.52461923566E+02  0.47000000000E+01 0. -1.
         -5    1    1    2    0  502  0.31733705914E+02 -0.55613413071E+02 -0.87611042703E+02  0.10861705487E+03  0.47000000000E+01 0. -1.
        -11    1    1    2    0    0  0.11082888718E+02 -0.31793192430E+02 -0.15332345630E+02  0.36996193449E+02  0.00000000000E+00 0. -1.
         11    1    1    2    0    0 -0.54348713293E+02  0.36616289482E+02 -0.49289114491E+01  0.65717801699E+02  0.00000000000E+00 0.  1.
<mgrwt>
<rscale>  0 0.12361659E+03</rscale>
<asrwt>0</asrwt>
<pdfrwt beam="2">  1        1 0.28911589E-01 0.13236258E+03</pdfrwt>
<pdfrwt beam="1">  1       -1 0.11671945E-01 0.13236258E+03</pdfrwt>
<totfact> 0.71961206E+03</totfact>
</mgrwt>
</event>
<event>
 6    1  0.9263730E-006  0.1626952E+03  0.7546771E-02  0.1193131E+00
          2   -1    0    0  501    0  0.00000000000E+00  0.00000000000E+00  0.24082418879E+04  0.24082418879E+04  0.00000000000E+00 0. -1.
         -2   -1    0    0    0  501 -0.00000000000E+00 -0.00000000000E+00 -0.12192853822E+02  0.12192853822E+02  0.00000000000E+00 0.  1.
          5    1    1    2  502    0  0.19432001063E+02 -0.41521731908E+02  0.23051789838E+03  0.23507923847E+03  0.47000000000E+01 0.  1.
         -5    1    1    2    0  502 -0.80506434311E+02 -0.42836357963E+02  0.16223739722E+04  0.16249417329E+04  0.47000000000E+01 0.  1.
        -11    1    1    2    0    0 -0.18241160155E+02  0.40076331000E+02  0.12574987256E+03  0.13323619133E+03  0.00000000000E+00 0.  1.
         11    1    1    2    0    0  0.79315593403E+02  0.44281758872E+02  0.41740729093E+03  0.42717757905E+03  0.00000000000E+00 0. -1.
<mgrwt>
<rscale>  0 0.15613509E+03</rscale>
<asrwt>0</asrwt>
<pdfrwt beam="1">  1        2 0.37049837E+00 0.16269521E+03</pdfrwt>
<pdfrwt beam="2">  1       -2 0.18758256E-02 0.16269521E+03</pdfrwt>
<totfact> 0.38366395E+03</totfact>
</mgrwt>
</event>
<event>
 6    1  0.9263730E-006  0.1332610E+03  0.7546771E-02  0.1233195E+00
         -2   -1    0    0    0  501 -0.00000000000E+00  0.00000000000E+00  0.27282528840E+02  0.27282528840E+02  0.00000000000E+00 0.  1.
          2   -1    0    0  501    0  0.00000000000E+00 -0.00000000000E+00 -0.64166005146E+03  0.64166005146E+03  0.00000000000E+00 0. -1.
          5    1    1    2  502    0 -0.17040426161E+02 -0.18954168649E+02 -0.28994047509E+03  0.29109655739E+03  0.47000000000E+01 0. -1.
         -5    1    1    2    0  502  0.33392592967E+02  0.74099535958E+02 -0.18366048856E+03  0.20089567330E+03  0.47000000000E+01 0.  1.
        -11    1    1    2    0    0 -0.44911457682E+02 -0.50777427154E+02 -0.12904701971E+03  0.14576871899E+03  0.00000000000E+00 0.  1.
         11    1    1    2    0    0  0.28559290876E+02 -0.43679401556E+01 -0.11729539266E+02  0.31181630617E+02  0.00000000000E+00 0. -1.
<mgrwt>
<rscale>  0 0.12620693E+03</rscale>
<asrwt>0</asrwt>
<pdfrwt beam="2">  1        2 0.98716917E-01 0.13326096E+03</pdfrwt>
<pdfrwt beam="1">  1       -2 0.41973127E-02 0.13326096E+03</pdfrwt>
<totfact> 0.11346121E+04</totfact>
</mgrwt>
</event>
<event>
 6    1  0.9263730E-006  0.4164488E+03  0.7546771E-02  0.1038228E+00
         -2   -1    0    0    0  501 -0.00000000000E+00  0.00000000000E+00  0.44986756398E+03  0.44986756398E+03  0.00000000000E+00 0.  1.
          2   -1    0    0  501    0  0.00000000000E+00 -0.00000000000E+00 -0.96378149594E+02  0.96378149594E+02  0.00000000000E+00 0. -1.
          5    1    1    2  502    0  0.64386203600E+01 -0.20264632693E+02  0.47262233482E+02  0.52037677543E+02  0.47000000000E+01 0. -1.
         -5    1    1    2    0  502  0.13715465489E+03  0.68867491910E+02  0.15986647146E+02  0.15437549575E+03  0.47000000000E+01 0. -1.
        -11    1    1    2    0    0 -0.87645897579E+02 -0.31554085976E+02  0.25515764493E+03  0.27163005627E+03  0.00000000000E+00 0.  1.
         11    1    1    2    0    0 -0.55947377672E+02 -0.17048773241E+02  0.35082888834E+02  0.68202484019E+02  0.00000000000E+00 0. -1.
<mgrwt>
<rscale>  0 0.41644881E+03</rscale>
<asrwt>0</asrwt>
<pdfrwt beam="2">  1        2 0.14827408E-01 0.41644881E+03</pdfrwt>
<pdfrwt beam="1">  1       -2 0.69210393E-01 0.41644881E+03</pdfrwt>
<totfact> 0.77763758E+02</totfact>
</mgrwt>
</event>
<event>
 6    1  0.9263730E-006  0.3446972E+03  0.7546771E-02  0.1064813E+00
         -1   -1    0    0    0  501 -0.00000000000E+00  0.00000000000E+00  0.29354110026E+03  0.29354110026E+03  0.00000000000E+00 0.  1.
          1   -1    0    0  501    0  0.00000000000E+00 -0.00000000000E+00 -0.10119211852E+03  0.10119211852E+03  0.00000000000E+00 0. -1.
          5    1    1    2  502    0  0.93398297545E+02  0.10684754160E+03  0.11685589598E+03  0.18389407156E+03  0.47000000000E+01 0.  1.
         -5    1    1    2    0  502  0.20248065210E+01 -0.14130582559E+02 -0.18241870773E+02  0.23635334865E+02  0.47000000000E+01 0.  1.
        -11    1    1    2    0    0 -0.54334256521E+02 -0.82440151418E+01  0.72365673521E+02  0.90867848668E+02  0.00000000000E+00 0.  1.
         11    1    1    2    0    0 -0.41088847544E+02 -0.84472943899E+02  0.21369283004E+02  0.96335963687E+02  0.00000000000E+00 0. -1.
<mgrwt>
<rscale>  0 0.34469723E+03</rscale>
<asrwt>0</asrwt>
<pdfrwt beam="2">  1        1 0.15568018E-01 0.34469723E+03</pdfrwt>
<pdfrwt beam="1">  1       -1 0.45160169E-01 0.34469723E+03</pdfrwt>
<totfact> 0.17643257E+03</totfact>
</mgrwt>
</event>
<event>
 6    1  0.9263730E-006  0.1349957E+03  0.7546771E-02  0.1231836E+00
         -2   -1    0    0    0  501 -0.00000000000E+00  0.00000000000E+00  0.12024968417E+03  0.12024968417E+03  0.00000000000E+00 0.  1.
          2   -1    0    0  501    0  0.00000000000E+00 -0.00000000000E+00 -0.12498754176E+03  0.12498754176E+03  0.00000000000E+00 0. -1.
          5    1    1    2  502    0  0.29915568689E+02 -0.95499543598E+01 -0.44599249632E+02  0.54747839646E+02  0.47000000000E+01 0. -1.
         -5    1    1    2    0  502 -0.80019596530E+02  0.17560650209E+00  0.19656968927E+02  0.82532739528E+02  0.47000000000E+01 0. -1.
        -11    1    1    2    0    0  0.59388499065E+02 -0.16438377227E+02  0.40582129611E+02  0.73784302604E+02  0.00000000000E+00 0.  1.
         11    1    1    2    0    0 -0.92844712232E+01  0.25812725085E+02 -0.20377706497E+02  0.34172344144E+02  0.00000000000E+00 0. -1.
<mgrwt>
<rscale>  0 0.12709157E+03</rscale>
<asrwt>0</asrwt>
<pdfrwt beam="2">  1        2 0.19228853E-01 0.13499570E+03</pdfrwt>
<pdfrwt beam="1">  1       -2 0.18499951E-01 0.13499570E+03</pdfrwt>
<totfact> 0.66214336E+03</totfact>
</mgrwt>
</event>
<event>
 6    1  0.9263730E-006  0.2736979E+03  0.7546771E-02  0.1099182E+00
          2   -1    0    0  501    0  0.00000000000E+00  0.00000000000E+00  0.32065628541E+03  0.32065628541E+03  0.00000000000E+00 0. -1.
         -2   -1    0    0    0  501 -0.00000000000E+00 -0.00000000000E+00 -0.58404061101E+02  0.58404061101E+02  0.00000000000E+00 0.  1.
          5    1    1    2  502    0 -0.43473633762E+02 -0.33325848764E+02  0.13048846871E+03  0.14159766769E+03  0.47000000000E+01 0. -1.
         -5    1    1    2    0  502  0.58976967037E+02  0.25332098992E+02  0.68063053546E+02  0.93673193275E+02  0.47000000000E+01 0. -1.
        -11    1    1    2    0    0  0.44756618348E+02  0.39022725071E+02  0.18020670481E+02  0.62053787334E+02  0.00000000000E+00 0.  1.
         11    1    1    2    0    0 -0.60259951624E+02 -0.31028975299E+02  0.45680031567E+02  0.81735698210E+02  0.00000000000E+00 0. -1.
<mgrwt>
<rscale>  0 0.27369786E+03</rscale>
<asrwt>0</asrwt>
<pdfrwt beam="1">  1        2 0.49331735E-01 0.27369786E+03</pdfrwt>
<pdfrwt beam="2">  1       -2 0.89852403E-02 0.27369786E+03</pdfrwt>
<totfact> 0.79417679E+03</totfact>
</mgrwt>
</event>
<event>
 6    1  0.9263730E-006  0.1345843E+03  0.7546771E-02  0.1235416E+00
          4   -1    0    0  501    0  0.00000000000E+00  0.00000000000E+00  0.10651178987E+03  0.10651178987E+03  0.00000000000E+00 0.  1.
         -4   -1    0    0    0  501 -0.00000000000E+00 -0.00000000000E+00 -0.12914816821E+03  0.12914816821E+03  0.00000000000E+00 0. -1.
          5    1    1    2  502    0 -0.22633796377E+02  0.28427481134E+02  0.57953990843E+02  0.68565045589E+02  0.47000000000E+01 0.  1.
         -5    1    1    2    0  502 -0.19315049381E+02 -0.14387248652E+01 -0.63039697715E+02  0.66115312522E+02  0.47000000000E+01 0.  1.
        -11    1    1    2    0    0  0.48706025807E+02 -0.35807660100E+02 -0.42346551624E+02  0.73808508359E+02  0.00000000000E+00 0. -1.
         11    1    1    2    0    0 -0.67571800487E+01  0.88189038315E+01  0.24795880151E+02  0.27171091614E+02  0.00000000000E+00 0.  1.
<mgrwt>
<rscale>  0 0.12477830E+03</rscale>
<asrwt>0</asrwt>
<pdfrwt beam="1">  1        4 0.16386429E-01 0.13458430E+03</pdfrwt>
<pdfrwt beam="2">  1       -4 0.19868949E-01 0.13458430E+03</pdfrwt>
<totfact> 0.12115685E+03</totfact>
</mgrwt>
</event>
<event>
 6    1  0.9263730E-006  0.1702836E+03  0.7546771E-02  0.1184345E+00
         -2   -1    0    0    0  501 -0.00000000000E+00  0.00000000000E+00  0.40395671523E+02  0.40395671523E+02  0.00000000000E+00 0. -1.
          2   -1    0    0  501    0  0.00000000000E+00 -0.00000000000E+00 -0.67231890706E+03  0.67231890706E+03  0.00000000000E+00 0.  1.
          5    1    1    2  502    0 -0.59498894198E+02  0.93910800677E+01 -0.17854563730E+03  0.18849123426E+03  0.47000000000E+01 0. -1.
         -5    1    1    2    0  502  0.34180066132E+02  0.10344495739E+03 -0.25880367171E+03  0.28083904041E+03  0.47000000000E+01 0. -1.
        -11    1    1    2    0    0  0.75467428650E+01 -0.27365853215E+02  0.18367594970E+01  0.28446738574E+02  0.00000000000E+00 0. -1.
         11    1    1    2    0    0  0.17772085200E+02 -0.85470184240E+02 -0.19641068602E+03  0.21493756533E+03  0.00000000000E+00 0.  1.
<mgrwt>
<rscale>  0 0.16391649E+03</rscale>
<asrwt>0</asrwt>
<pdfrwt beam="2">  1        2 0.10343367E+00 0.17028355E+03</pdfrwt>
<pdfrwt beam="1">  1       -2 0.62147193E-02 0.17028355E+03</pdfrwt>
<totfact> 0.60294771E+03</totfact>
</mgrwt>
</event>
<event>
 6    1  0.9263730E-006  0.1265927E+03  0.7546771E-02  0.1247165E+00
          1   -1    0    0  501    0  0.00000000000E+00  0.00000000000E+00  0.60954092259E+03  0.60954092259E+03  0.00000000000E+00 0. -1.
         -1   -1    0    0    0  501 -0.00000000000E+00 -0.00000000000E+00 -0.21733027570E+02  0.21733027570E+02  0.00000000000E+00 0.  1.
          5    1    1    2  502    0 -0.52114106836E+02 -0.19345194801E+02  0.18538053119E+03  0.19359273756E+03  0.47000000000E+01 0.  1.
         -5    1    1    2    0  502  0.69911130156E+02  0.10182778819E+02  0.23673539192E+03  0.24709712845E+03  0.47000000000E+01 0.  1.
        -11    1    1    2    0    0 -0.23636509241E+02  0.34256591933E+02  0.27208472703E+02  0.49724236011E+02  0.00000000000E+00 0.  1.
         11    1    1    2    0    0  0.58394859208E+01 -0.25094175952E+02  0.13848349921E+03  0.14085984813E+03  0.00000000000E+00 0. -1.
<mgrwt>
<rscale>  0 0.11756755E+03</rscale>
<asrwt>0</asrwt>
<pdfrwt beam="1">  1        1 0.93775514E-01 0.12659268E+03</pdfrwt>
<pdfrwt beam="2">  1       -1 0.33435432E-02 0.12659268E+03</pdfrwt>
<totfact> 0.10497007E+04</totfact>
</mgrwt>
</event>
<event>
 6    1  0.9263730E-006  0.1344098E+03  0.7546771E-02  0.1231550E+00
          2   -1    0    0  501    0  0.00000000000E+00  0.00000000000E+00  0.44620852424E+02  0.44620852424E+02  0.00000000000E+00 0. -1.
         -2   -1    0    0    0  501 -0.00000000000E+00 -0.00000000000E+00 -0.33158551253E+03  0.33158551253E+03  0.00000000000E+00 0.  1.
          5    1    1    2  502    0  0.26589493621E+02  0.39505998293E+02 -0.42190389919E+02  0.63795329560E+02  0.47000000000E+01 0. -1.
         -5    1    1    2    0  502 -0.86174721468E+01 -0.85309823217E+02 -0.10174631549E+03  0.13314063797E+03  0.47000000000E+01 0. -1.
        -11    1    1    2    0    0 -0.46777149249E+02  0.59269097535E+02 -0.90416786370E+02  0.11779695612E+03  0.00000000000E+00 0.  1.
         11    1    1    2    0    0  0.28805127774E+02 -0.13465272612E+02 -0.52611168327E+02  0.61473441300E+02  0.00000000000E+00 0. -1.
<mgrwt>
<rscale>  0 0.12727928E+03</rscale>
<asrwt>0</asrwt>
<pdfrwt beam="1">  1        2 0.68647465E-02 0.13440982E+03</pdfrwt>
<pdfrwt beam="2">  1       -2 0.51013156E-01 0.13440982E+03</pdfrwt>
<totfact> 0.36459230E+03</totfact>
</mgrwt>
</event>
<event>
 6    1  0.9263730E-006  0.1320490E+03  0.7546771E-02  0.1237687E+00
         -2   -1    0    0    0  501 -0.00000000000E+00  0.00000000000E+00  0.33065787988E+02  0.33065787988E+02  0.00000000000E+00 0.  1.
          2   -1    0    0  501    0  0.00000000000E+00 -0.00000000000E+00 -0.42234265042E+03  0.42234265042E+03  0.00000000000E+00 0. -1.
          5    1    1    2  502    0  0.27276422484E+02  0.35423061675E+02 -0.11292319329E+03  0.12154231405E+03  0.47000000000E+01 0. -1.
         -5    1    1    2    0  502 -0.36924688330E+02 -0.76878545522E+02 -0.14752606959E+03  0.17046927752E+03  0.47000000000E+01 0. -1.
        -11    1    1    2    0    0 -0.32910345843E+02  0.18950305453E+02 -0.16923998151E+02  0.41576756170E+02  0.00000000000E+00 0.  1.
         11    1    1    2    0    0  0.42558611689E+02  0.22505178394E+02 -0.11190360140E+03  0.12182009067E+03  0.00000000000E+00 0. -1.
<mgrwt>
<rscale>  0 0.12333952E+03</rscale>
<asrwt>0</asrwt>
<pdfrwt beam="2">  1        2 0.64975793E-01 0.13204905E+03</pdfrwt>
<pdfrwt beam="1">  1       -2 0.50870443E-02 0.13204905E+03</pdfrwt>
<totfact> 0.13519279E+04</totfact>
</mgrwt>
</event>
<event>
 6    1  0.9263730E-006  0.1437821E+03  0.7546771E-02  0.1220786E+00
         -3   -1    0    0    0  501 -0.00000000000E+00  0.00000000000E+00  0.14081488150E+02  0.14081488150E+02  0.00000000000E+00 0.  1.
          3   -1    0    0  501    0  0.00000000000E+00 -0.00000000000E+00 -0.12402381840E+04  0.12402381840E+04  0.00000000000E+00 0. -1.
          5    1    1    2  502    0  0.10359914335E+03 -0.27811716145E+01 -0.54694367187E+03  0.55669559691E+03  0.47000000000E+01 0. -1.
         -5    1    1    2    0  502 -0.34402719325E+02 -0.13267294672E+02 -0.31090698551E+03  0.31312108176E+03  0.47000000000E+01 0. -1.
        -11    1    1    2    0    0 -0.11617651547E+02  0.34725957909E+02 -0.59847888872E+02  0.70161469359E+02  0.00000000000E+00 0.  1.
         11    1    1    2    0    0 -0.57578772481E+02 -0.18677491622E+02 -0.30845814960E+03  0.31434152413E+03  0.00000000000E+00 0. -1.
<mgrwt>
<rscale>  0 0.13459951E+03</rscale>
<asrwt>0</asrwt>
<pdfrwt beam="2">  1        3 0.19080585E+00 0.14378214E+03</pdfrwt>
<pdfrwt beam="1">  1       -3 0.21663831E-02 0.14378214E+03</pdfrwt>
<totfact> 0.36414276E+02</totfact>
</mgrwt>
</event>
<event>
 6    1  0.9263730E-006  0.1798844E+03  0.7546771E-02  0.1173266E+00
          2   -1    0    0  501    0  0.00000000000E+00  0.00000000000E+00  0.16491906779E+04  0.16491906779E+04  0.00000000000E+00 0.  1.
         -2   -1    0    0    0  501 -0.00000000000E+00 -0.00000000000E+00 -0.32759491776E+02  0.32759491776E+02  0.00000000000E+00 0. -1.
          5    1    1    2  502    0 -0.16047847139E+02  0.72013244247E+02  0.36563217323E+03  0.37303138855E+03  0.47000000000E+01 0. -1.
         -5    1    1    2    0  502 -0.91741130019E+02 -0.49060172484E+00  0.10435899325E+04  0.10476252731E+04  0.47000000000E+01 0. -1.
        -11    1    1    2    0    0  0.13539850190E+02 -0.18237601241E+02 -0.48208680253E+01  0.23220215561E+02  0.00000000000E+00 0. -1.
         11    1    1    2    0    0  0.94249126968E+02 -0.53285041281E+02  0.21202994847E+03  0.23807329251E+03  0.00000000000E+00 0.  1.
<mgrwt>
<rscale>  0 0.17446897E+03</rscale>
<asrwt>0</asrwt>
<pdfrwt beam="1">  1        2 0.25372158E+00 0.17988443E+03</pdfrwt>
<pdfrwt beam="2">  1       -2 0.50399231E-02 0.17988443E+03</pdfrwt>
<totfact> 0.22031031E+03</totfact>
</mgrwt>
</event>
<event>
 6    1  0.9263730E-006  0.1370352E+03  0.7546771E-02  0.1229532E+00
         -2   -1    0    0    0  501 -0.00000000000E+00  0.00000000000E+00  0.21725564440E+02  0.21725564440E+02  0.00000000000E+00 0. -1.
          2   -1    0    0  501    0  0.00000000000E+00 -0.00000000000E+00 -0.68172216831E+03  0.68172216831E+03  0.00000000000E+00 0.  1.
          5    1    1    2  502    0 -0.39947481906E+02 -0.35119645919E+02 -0.24035688847E+03  0.24621680421E+03  0.47000000000E+01 0.  1.
         -5    1    1    2    0  502  0.70199785154E+02 -0.12231842810E+02 -0.12451774187E+03  0.14354227898E+03  0.47000000000E+01 0.  1.
        -11    1    1    2    0    0 -0.47729715484E+02  0.48824443123E+02 -0.28576637987E+03  0.29381010168E+03  0.00000000000E+00 0. -1.
         11    1    1    2    0    0  0.17477412236E+02 -0.14729543946E+01 -0.93555936617E+01  0.19878547881E+02  0.00000000000E+00 0.  1.
<mgrwt>
<rscale>  0 0.12861042E+03</rscale>
<asrwt>0</asrwt>
<pdfrwt beam="2">  1        2 0.10488035E+00 0.13703520E+03</pdfrwt>
<pdfrwt beam="1">  1       -2 0.33423939E-02 0.13703520E+03</pdfrwt>
<totfact> 0.14844762E+04</totfact>
</mgrwt>
</event>
<event>
 6    1  0.9263730E-006  0.2862949E+03  0.7546771E-02  0.1092300E+00
         -1   -1    0    0    0  501 -0.00000000000E+00  0.00000000000E+00  0.56105225497E+03  0.56105225497E+03  0.00000000000E+00 0.  1.
          1   -1    0    0  501    0  0.00000000000E+00 -0.00000000000E+00 -0.36522795840E+02  0.36522795840E+02  0.00000000000E+00 0. -1.
          5    1    1    2  502    0  0.26447767434E+01  0.12138298755E+03  0.26532422324E+03  0.29182162009E+03  0.47000000000E+01 0.  1.
         -5    1    1    2    0  502  0.46874492291E+01 -0.31202163442E+02  0.51411039938E+02  0.60503985086E+02  0.47000000000E+01 0.  1.
        -11    1    1    2    0    0  0.11496855763E+02 -0.54880384542E+02  0.19551915556E+03  0.20340052726E+03  0.00000000000E+00 0.  1.
         11    1    1    2    0    0 -0.18829081736E+02 -0.35300439567E+02  0.12275040391E+02  0.41848918376E+02  0.00000000000E+00 0. -1.
<mgrwt>
<rscale>  0 0.28629493E+03</rscale>
<asrwt>0</asrwt>
<pdfrwt beam="2">  1        1 0.56188921E-02 0.28629493E+03</pdfrwt>
<pdfrwt beam="1">  1       -1 0.86315726E-01 0.28629493E+03</pdfrwt>
<totfact> 0.19663789E+03</totfact>
</mgrwt>
</event>
<event>
 6    1  0.9263730E-006  0.1262587E+03  0.7546771E-02  0.1248440E+00
         -1   -1    0    0    0  501 -0.00000000000E+00  0.00000000000E+00  0.10426813006E+03  0.10426813006E+03  0.00000000000E+00 0.  1.
          1   -1    0    0  501    0  0.00000000000E+00 -0.00000000000E+00 -0.12604526751E+03  0.12604526751E+03  0.00000000000E+00 0. -1.
          5    1    1    2  502    0 -0.19620585396E+02 -0.60160688894E+02 -0.35312526385E+02  0.72617769032E+02  0.47000000000E+01 0. -1.
         -5    1    1    2    0  502  0.34298657512E+02  0.50115997702E+02 -0.11175214887E+02  0.61927268312E+02  0.47000000000E+01 0. -1.
        -11    1    1    2    0    0 -0.44203096686E+00  0.34523605360E+02 -0.22146786302E+02  0.41018957348E+02  0.00000000000E+00 0. -1.
         11    1    1    2    0    0 -0.14236041149E+02 -0.24478914168E+02  0.46857390125E+02  0.54749402880E+02  0.00000000000E+00 0.  1.
<mgrwt>
<rscale>  0 0.11681841E+03</rscale>
<asrwt>0</asrwt>
<pdfrwt beam="2">  1        1 0.19391580E-01 0.12625869E+03</pdfrwt>
<pdfrwt beam="1">  1       -1 0.16041251E-01 0.12625869E+03</pdfrwt>
<totfact> 0.72263217E+03</totfact>
</mgrwt>
</event>
<event>
 6    1  0.9263730E-006  0.1251488E+03  0.7546771E-02  0.1251169E+00
          2   -1    0    0  501    0  0.00000000000E+00  0.00000000000E+00  0.21008124708E+04  0.21008124708E+04  0.00000000000E+00 0. -1.
         -2   -1    0    0    0  501 -0.00000000000E+00 -0.00000000000E+00 -0.94022293546E+01  0.94022293546E+01  0.00000000000E+00 0.  1.
          5    1    1    2  502    0  0.31376457821E+02  0.35788755372E+02  0.30811015380E+03  0.31180005451E+03  0.47000000000E+01 0.  1.
         -5    1    1    2    0  502 -0.25352653591E+02 -0.34283360105E+02  0.15115732810E+04  0.15121818607E+04  0.47000000000E+01 0.  1.
        -11    1    1    2    0    0 -0.16826925477E+02 -0.43441433685E+02  0.14659760424E+03  0.15382184874E+03  0.00000000000E+00 0.  1.
         11    1    1    2    0    0  0.10803121246E+02  0.41936038418E+02  0.12512920239E+03  0.13241093625E+03  0.00000000000E+00 0. -1.
<mgrwt>
<rscale>  0 0.11523615E+03</rscale>
<asrwt>0</asrwt>
<pdfrwt beam="1">  1        2 0.32320154E+00 0.12514881E+03</pdfrwt>
<pdfrwt beam="2">  1       -2 0.14464985E-02 0.12514881E+03</pdfrwt>
<totfact> 0.80614288E+03</totfact>
</mgrwt>
</event>
<event>
 6    1  0.9263730E-006  0.1259579E+03  0.7546771E-02  0.1247085E+00
         -2   -1    0    0    0  501 -0.00000000000E+00  0.00000000000E+00  0.10426878353E+02  0.10426878353E+02  0.00000000000E+00 0.  1.
          2   -1    0    0  501    0  0.00000000000E+00 -0.00000000000E+00 -0.11788188156E+04  0.11788188156E+04  0.00000000000E+00 0. -1.
          5    1    1    2  502    0  0.60055825227E+02  0.24193831983E+02 -0.23508219865E+03  0.24388065477E+03  0.47000000000E+01 0.  1.
         -5    1    1    2    0  502 -0.50182787123E+02 -0.12236526108E+02 -0.42102427055E+03  0.42420699085E+03  0.47000000000E+01 0.  1.
        -11    1    1    2    0    0 -0.40925759617E+02 -0.37434945338E+02 -0.28385619757E+03  0.28922419302E+03  0.00000000000E+00 0. -1.
         11    1    1    2    0    0  0.31052721512E+02  0.25477639464E+02 -0.22842927052E+03  0.23193385535E+03  0.00000000000E+00 0.  1.
<mgrwt>
<rscale>  0 0.11761460E+03</rscale>
<asrwt>0</asrwt>
<pdfrwt beam="2">  1        2 0.18135663E+00 0.12595794E+03</pdfrwt>
<pdfrwt beam="1">  1       -2 0.16041361E-02 0.12595794E+03</pdfrwt>
<totfact> 0.20918868E+04</totfact>
</mgrwt>
</event>
<event>
 6    1  0.9263730E-006  0.3719300E+03  0.7546771E-02  0.1053957E+00
          2   -1    0    0  501    0  0.00000000000E+00  0.00000000000E+00  0.57783891502E+03  0.57783891502E+03  0.00000000000E+00 0. -1.
         -2   -1    0    0    0  501 -0.00000000000E+00 -0.00000000000E+00 -0.59848811722E+02  0.59848811722E+02  0.00000000000E+00 0.  1.
          5    1    1    2  502    0  0.10954756130E+03 -0.82664524178E+02  0.20798803402E+03  0.24922921988E+03  0.47000000000E+01 0. -1.
         -5    1    1    2    0  502  0.18160901032E+02  0.26476933504E+02  0.16495734042E+03  0.16811859056E+03  0.47000000000E+01 0. -1.
        -11    1    1    2    0    0 -0.89204527506E+02  0.67253370578E+01  0.39952463597E+02  0.97973859950E+02  0.00000000000E+00 0.  1.
         11    1    1    2    0    0 -0.38503934826E+02  0.49462253616E+02  0.10509226526E+03  0.12236605635E+03  0.00000000000E+00 0. -1.
<mgrwt>
<rscale>  0 0.37192995E+03</rscale>
<asrwt>0</asrwt>
<pdfrwt beam="1">  1        2 0.88898291E-01 0.37192995E+03</pdfrwt>
<pdfrwt beam="2">  1       -2 0.92075099E-02 0.37192995E+03</pdfrwt>
<totfact> 0.40117367E+03</totfact>
</mgrwt>
</event>
<event>
 6    1  0.9263730E-006  0.1396762E+03  0.7546771E-02  0.1224298E+00
          1   -1    0    0  501    0  0.00000000000E+00  0.00000000000E+00  0.27512528394E+03  0.27512528394E+03  0.00000000000E+00 0. -1.
         -1   -1    0    0    0  501 -0.00000000000E+00 -0.00000000000E+00 -0.98944529182E+02  0.98944529182E+02  0.00000000000E+00 0.  1.
          5    1    1    2  502    0 -0.18742527848E+02  0.37391349844E+02  0.16183005416E+03  0.16721379077E+03  0.47000000000E+01 0. -1.
         -5    1    1    2    0  502 -0.45302059053E+02 -0.54967271369E+02  0.52498626620E+02  0.88610796595E+02  0.47000000000E+01 0.  1.
        -11    1    1    2    0    0  0.41460157105E+01  0.44469953533E+02 -0.25333147455E+02  0.51347196354E+02  0.00000000000E+00 0.  1.
         11    1    1    2    0    0  0.59898571191E+02 -0.26894032008E+02 -0.12814778570E+02  0.66898029404E+02  0.00000000000E+00 0. -1.
<mgrwt>
<rscale>  0 0.13215123E+03</rscale>
<asrwt>0</asrwt>
<pdfrwt beam="1">  1        1 0.42326967E-01 0.13967618E+03</pdfrwt>
<pdfrwt beam="2">  1       -1 0.15222235E-01 0.13967618E+03</pdfrwt>
<totfact> 0.29788204E+03</totfact>
</mgrwt>
</event>
<event>
 6    1  0.9263730E-006  0.2654546E+03  0.7546771E-02  0.1106807E+00
          2   -1    0    0  501    0  0.00000000000E+00  0.00000000000E+00  0.10934130297E+03  0.10934130297E+03  0.00000000000E+00 0. -1.
         -2   -1    0    0    0  501 -0.00000000000E+00 -0.00000000000E+00 -0.63649257172E+03  0.63649257172E+03  0.00000000000E+00 0.  1.
          5    1    1    2  502    0 -0.18822208209E+03  0.44617845182E+02 -0.11497815561E+03  0.22507858753E+03  0.47000000000E+01 0. -1.
         -5    1    1    2    0  502 -0.45829500459E+02 -0.52349521262E+02 -0.67452708465E+02  0.97019448400E+02  0.47000000000E+01 0. -1.
        -11    1    1    2    0    0  0.13986668070E+03  0.34408309899E+02 -0.24358770488E+03  0.28298690805E+03  0.00000000000E+00 0. -1.
         11    1    1    2    0    0  0.94184901853E+02 -0.26676633818E+02 -0.10113269980E+03  0.14074893072E+03  0.00000000000E+00 0.  1.
<mgrwt>
<rscale>  0 0.26056077E+03</rscale>
<asrwt>0</asrwt>
<pdfrwt beam="1">  1        2 0.16821738E-01 0.26545456E+03</pdfrwt>
<pdfrwt beam="2">  1       -2 0.97921937E-01 0.26545456E+03</pdfrwt>
<totfact> 0.30699215E+02</totfact>
</mgrwt>
</event>
<event>
 6    1  0.9263730E-006  0.1271169E+03  0.7546771E-02  0.1238674E+00
         -1   -1    0    0    0  501 -0.00000000000E+00  0.00000000000E+00  0.10018998619E+02  0.10018998619E+02  0.00000000000E+00 0.  1.
          1   -1    0    0  501    0  0.00000000000E+00 -0.00000000000E+00 -0.14240155988E+04  0.14240155988E+04  0.00000000000E+00 0. -1.
          5    1    1    2  502    0 -0.62797157433E+01  0.28589788869E+02 -0.77600871438E+02  0.83071030482E+02  0.47000000000E+01 0. -1.
         -5    1    1    2    0  502  0.66112472552E+02 -0.44028071502E+02 -0.75437440796E+03  0.75855927092E+03  0.47000000000E+01 0.  1.
        -11    1    1    2    0    0 -0.77386295015E+02 -0.11419999616E+02 -0.42482978902E+03  0.43197153226E+03  0.00000000000E+00 0.  1.
         11    1    1    2    0    0  0.17553538206E+02  0.26858282248E+02 -0.15719153173E+03  0.16043276372E+03  0.00000000000E+00 0. -1.
<mgrwt>
<rscale>  0 0.12272154E+03</rscale>
<asrwt>0</asrwt>
<pdfrwt beam="2">  1        1 0.21907928E+00 0.12711687E+03</pdfrwt>
<pdfrwt beam="1">  1       -1 0.15413847E-02 0.12711687E+03</pdfrwt>
<totfact> 0.78477233E+03</totfact>
</mgrwt>
</event>
<event>
 6    1  0.9263730E-006  0.1386622E+03  0.7546771E-02  0.1226560E+00
          2   -1    0    0  501    0  0.00000000000E+00  0.00000000000E+00  0.85362768019E+03  0.85362768019E+03  0.00000000000E+00 0.  1.
         -2   -1    0    0    0  501 -0.00000000000E+00 -0.00000000000E+00 -0.18869373930E+02  0.18869373930E+02  0.00000000000E+00 0. -1.
          5    1    1    2  502    0  0.15696825112E+02  0.16465248792E+02  0.14692758247E+02  0.27485666834E+02  0.47000000000E+01 0.  1.
         -5    1    1    2    0  502 -0.64728120426E+02  0.18143784021E+02  0.54397422958E+03  0.54813226407E+03  0.47000000000E+01 0.  1.
        -11    1    1    2    0    0  0.19203153513E+02  0.29667925716E+02  0.12665891354E+03  0.13149687182E+03  0.00000000000E+00 0.  1.
         11    1    1    2    0    0  0.29828141801E+02 -0.64276958529E+02  0.14943240490E+03  0.16538225139E+03  0.00000000000E+00 0. -1.
<mgrwt>
<rscale>  0 0.13060539E+03</rscale>
<asrwt>0</asrwt>
<pdfrwt beam="1">  1        2 0.13132731E+00 0.13866218E+03</pdfrwt>
<pdfrwt beam="2">  1       -2 0.29029813E-02 0.13866218E+03</pdfrwt>
<totfact> 0.13882814E+04</totfact>
</mgrwt>
</event>
<event>
 6    1  0.9263730E-006  0.1253426E+03  0.7546771E-02  0.1250772E+00
          3   -1    0    0  501    0  0.00000000000E+00  0.00000000000E+00  0.20194142519E+02  0.20194142519E+02  0.00000000000E+00 0. -1.
         -3   -1    0    0    0  501 -0.00000000000E+00 -0.00000000000E+00 -0.57548396709E+03  0.57548396709E+03  0.00000000000E+00 0.  1.
          5    1    1    2  502    0  0.39605562419E+02  0.43436929004E+02 -0.88756383226E+02  0.10656055996E+03  0.47000000000E+01 0. -1.
         -5    1    1    2    0  502 -0.30615534276E+02 -0.41285090157E+02 -0.23525430048E+03  0.24084942495E+03  0.47000000000E+01 0. -1.
        -11    1    1    2    0    0 -0.45741840158E+02  0.99718886405E+00 -0.76356468069E+02  0.89014720932E+02  0.00000000000E+00 0. -1.
         11    1    1    2    0    0  0.36751812014E+02 -0.31490277109E+01 -0.15492267280E+03  0.15925340376E+03  0.00000000000E+00 0.  1.
<mgrwt>
<rscale>  0 0.11546463E+03</rscale>
<asrwt>0</asrwt>
<pdfrwt beam="1">  1        3 0.31067911E-02 0.12534263E+03</pdfrwt>
<pdfrwt beam="2">  1       -3 0.88535997E-01 0.12534263E+03</pdfrwt>
<totfact> 0.13066920E+03</totfact>
</mgrwt>
</event>
<event>
 6    1  0.9263730E-006  0.1606867E+03  0.7546771E-02  0.1197262E+00
         -1   -1    0    0    0  501 -0.00000000000E+00  0.00000000000E+00  0.41866828284E+02  0.41866828284E+02  0.00000000000E+00 0.  1.
          1   -1    0    0  501    0  0.00000000000E+00 -0.00000000000E+00 -0.62529517740E+03  0.62529517740E+03  0.00000000000E+00 0. -1.
          5    1    1    2  502    0 -0.21709857149E+02 -0.28308890336E+02 -0.43534211386E+02  0.56480339327E+02  0.47000000000E+01 0. -1.
         -5    1    1    2    0  502  0.10697956334E+03 -0.25627215422E+02 -0.41657036605E+03  0.43087624791E+03  0.47000000000E+01 0. -1.
        -11    1    1    2    0    0  0.76485840904E+01  0.12913948108E+02 -0.55932234761E+02  0.57911016048E+02  0.00000000000E+00 0. -1.
         11    1    1    2    0    0 -0.92918290283E+02  0.41022157650E+02 -0.67391536915E+02  0.12189440240E+03  0.00000000000E+00 0.  1.
<mgrwt>
<rscale>  0 0.15264299E+03</rscale>
<asrwt>0</asrwt>
<pdfrwt beam="2">  1        1 0.96199255E-01 0.16068672E+03</pdfrwt>
<pdfrwt beam="1">  1       -1 0.64410507E-02 0.16068672E+03</pdfrwt>
<totfact> 0.38962637E+03</totfact>
</mgrwt>
</event>
<event>
 6    1  0.9263730E-006  0.1342726E+03  0.7546771E-02  0.1233316E+00
          1   -1    0    0  501    0  0.00000000000E+00  0.00000000000E+00  0.22742895621E+03  0.22742895621E+03  0.00000000000E+00 0. -1.
         -1   -1    0    0    0  501 -0.00000000000E+00 -0.00000000000E+00 -0.64318805206E+02  0.64318805206E+02  0.00000000000E+00 0.  1.
          5    1    1    2  502    0 -0.32484644032E+02  0.42345836662E+02  0.48968628359E+02  0.72584010249E+02  0.47000000000E+01 0. -1.
         -5    1    1    2    0  502  0.73803136720E+02 -0.15971945613E+02  0.19463150302E+02  0.78121125542E+02  0.47000000000E+01 0. -1.
        -11    1    1    2    0    0 -0.23158269840E+02 -0.27982875578E+02 -0.76358717937E+01  0.37116752628E+02  0.00000000000E+00 0.  1.
         11    1    1    2    0    0 -0.18160222847E+02  0.16089845289E+01  0.10231424413E+03  0.10392587300E+03  0.00000000000E+00 0. -1.
<mgrwt>
<rscale>  0 0.12612850E+03</rscale>
<asrwt>0</asrwt>
<pdfrwt beam="1">  1        1 0.34989070E-01 0.13427259E+03</pdfrwt>
<pdfrwt beam="2">  1       -1 0.98952009E-02 0.13427259E+03</pdfrwt>
<totfact> 0.73210309E+03</totfact>
</mgrwt>
</event>
<event>
 6    1  0.9263730E-006  0.2718090E+03  0.7546771E-02  0.1102261E+00
          1   -1    0    0  501    0  0.00000000000E+00  0.00000000000E+00  0.14947547228E+04  0.14947547228E+04  0.00000000000E+00 0. -1.
         -1   -1    0    0    0  501 -0.00000000000E+00 -0.00000000000E+00 -0.48395992949E+02  0.48395992949E+02  0.00000000000E+00 0.  1.
          5    1    1    2  502    0  0.20420629302E+03  0.22861795557E+02  0.46857333917E+03  0.51166975285E+03  0.47000000000E+01 0. -1.
         -5    1    1    2    0  502  0.21616878292E+02  0.62338985435E+02  0.13951241048E+03  0.15439961532E+03  0.47000000000E+01 0. -1.
        -11    1    1    2    0    0 -0.15257623760E+03 -0.37345214472E+02  0.66079354654E+03  0.67920709984E+03  0.00000000000E+00 0. -1.
         11    1    1    2    0    0 -0.73246933713E+02 -0.47855566520E+02  0.17747943367E+03  0.19787424774E+03  0.00000000000E+00 0.  1.
<mgrwt>
<rscale>  0 0.26829202E+03</rscale>
<asrwt>0</asrwt>
<pdfrwt beam="1">  1        1 0.22996223E+00 0.27180898E+03</pdfrwt>
<pdfrwt beam="2">  1       -1 0.74455385E-02 0.27180898E+03</pdfrwt>
<totfact> 0.69430427E+02</totfact>
</mgrwt>
</event>
<event>
 6    1  0.9263730E-006  0.3910816E+03  0.7546771E-02  0.1046912E+00
          1   -1    0    0  501    0  0.00000000000E+00  0.00000000000E+00  0.20595866504E+04  0.20595866504E+04  0.00000000000E+00 0. -1.
         -1   -1    0    0    0  501 -0.00000000000E+00 -0.00000000000E+00 -0.18564992265E+02  0.18564992265E+02  0.00000000000E+00 0.  1.
          5    1    1    2  502    0  0.69403883922E+01  0.16596541339E+02  0.14309951579E+04  0.14311159443E+04  0.47000000000E+01 0. -1.
         -5    1    1    2    0  502 -0.59614093577E+02  0.17773239007E+01  0.43761314961E+03  0.44168354933E+03  0.47000000000E+01 0.  1.
        -11    1    1    2    0    0  0.27687514713E+02 -0.49076567528E+02  0.14914638933E+03  0.15943573439E+03  0.00000000000E+00 0. -1.
         11    1    1    2    0    0  0.24986190472E+02  0.30702702288E+02  0.23266961265E+02  0.45916414588E+02  0.00000000000E+00 0.  1.
<mgrwt>
<rscale>  0 0.39108163E+03</rscale>
<asrwt>0</asrwt>
<pdfrwt beam="1">  1        1 0.31685930E+00 0.39108163E+03</pdfrwt>
<pdfrwt beam="2">  1       -1 0.28561543E-02 0.39108163E+03</pdfrwt>
<totfact> 0.12408843E+03</totfact>
</mgrwt>
</event>
<event>
 6    1  0.9263730E-006  0.1203969E+03  0.7546771E-02  0.1283041E+00
          2   -1    0    0  501    0  0.00000000000E+00  0.00000000000E+00  0.10284213752E+04  0.10284213752E+04  0.00000000000E+00 0. -1.
         -2   -1    0    0    0  501 -0.00000000000E+00 -0.00000000000E+00 -0.18544279478E+02  0.18544279478E+02  0.00000000000E+00 0.  1.
          5    1    1    2  502    0 -0.15598682473E+02  0.30516858481E+02  0.93120983750E+03  0.93185216049E+03  0.47000000000E+01 0. -1.
         -5    1    1    2    0  502  0.24759654617E+02  0.11979411582E+01  0.43673618474E+02  0.50437590251E+02  0.47000000000E+01 0.  1.
        -11    1    1    2    0    0 -0.16689358045E+02  0.98931558163E+00  0.24219187609E+02  0.29429279055E+02  0.00000000000E+00 0. -1.
         11    1    1    2    0    0  0.75283859012E+01 -0.32704115220E+02  0.10774452135E+02  0.35246624880E+02  0.00000000000E+00 0.  1.
<mgrwt>
<rscale>  0 0.98706052E+02</rscale>
<asrwt>0</asrwt>
<pdfrwt beam="1">  1        2 0.15821863E+00 0.12039685E+03</pdfrwt>
<pdfrwt beam="2">  1       -2 0.28529669E-02 0.12039685E+03</pdfrwt>
<totfact> 0.11016405E+04</totfact>
</mgrwt>
</event>
<event>
 6    1  0.9263730E-006  0.5355114E+03  0.7546771E-02  0.1005426E+00
         -2   -1    0    0    0  501 -0.00000000000E+00  0.00000000000E+00  0.27494709590E+03  0.27494709590E+03  0.00000000000E+00 0.  1.
          2   -1    0    0  501    0  0.00000000000E+00 -0.00000000000E+00 -0.12045214666E+04  0.12045214666E+04  0.00000000000E+00 0. -1.
          5    1    1    2  502    0  0.41553848917E+02 -0.41909234193E+03 -0.68183738931E+03  0.80142961567E+03  0.47000000000E+01 0. -1.
         -5    1    1    2    0  502  0.89401069172E+01 -0.99171497240E+02 -0.70761186433E+02  0.12224625508E+03  0.47000000000E+01 0. -1.
        -11    1    1    2    0    0 -0.48431170637E+02  0.46283274856E+03 -0.13019215027E+03  0.48322844228E+03  0.00000000000E+00 0.  1.
         11    1    1    2    0    0 -0.20627851973E+01  0.55431090603E+02 -0.46783644655E+02  0.72564249430E+02  0.00000000000E+00 0. -1.
<mgrwt>
<rscale>  0 0.53333622E+03</rscale>
<asrwt>0</asrwt>
<pdfrwt beam="2">  1        2 0.18531100E+00 0.53551144E+03</pdfrwt>
<pdfrwt beam="1">  1       -2 0.42299553E-01 0.53551144E+03</pdfrwt>
<totfact> 0.10329340E+02</totfact>
</mgrwt>
</event>
<event>
 6    1  0.9263730E-006  0.2797515E+03  0.7546771E-02  0.1095825E+00
          1   -1    0    0  501    0  0.00000000000E+00  0.00000000000E+00  0.72002160188E+02  0.72002160188E+02  0.00000000000E+00 0. -1.
         -1   -1    0    0    0  501 -0.00000000000E+00 -0.00000000000E+00 -0.27173101561E+03  0.27173101561E+03  0.00000000000E+00 0.  1.
          5    1    1    2  502    0  0.75972058280E+02 -0.45826874553E+02 -0.79016986257E+02  0.11890176697E+03  0.47000000000E+01 0.  1.
         -5    1    1    2    0  502 -0.12820353034E+02  0.11836958537E+02  0.28550362951E+02  0.33788877814E+02  0.47000000000E+01 0.  1.
        -11    1    1    2    0    0 -0.59330456034E+02 -0.16774158023E+02 -0.11236622638E+03  0.12817037185E+03  0.00000000000E+00 0.  1.
         11    1    1    2    0    0 -0.38212492115E+01  0.50764074039E+02 -0.36896005739E+02  0.62872159165E+02  0.00000000000E+00 0. -1.
<mgrwt>
<rscale>  0 0.27975146E+03</rscale>
<asrwt>0</asrwt>
<pdfrwt beam="1">  1        1 0.11077256E-01 0.27975146E+03</pdfrwt>
<pdfrwt beam="2">  1       -1 0.41804771E-01 0.27975146E+03</pdfrwt>
<totfact> 0.31753359E+03</totfact>
</mgrwt>
</event>
<event>
 6    1  0.9263730E-006  0.1618219E+03  0.7546771E-02  0.1200316E+00
          1   -1    0    0  501    0  0.00000000000E+00  0.00000000000E+00  0.49874071257E+03  0.49874071257E+03  0.00000000000E+00 0. -1.
         -1   -1    0    0    0  501 -0.00000000000E+00 -0.00000000000E+00 -0.44868489834E+02  0.44868489834E+02  0.00000000000E+00 0.  1.
          5    1    1    2  502    0 -0.21840768636E+02  0.95106297577E+02  0.22375315151E+03  0.24415116183E+03  0.47000000000E+01 0. -1.
         -5    1    1    2    0  502 -0.41340310688E+02 -0.48237371959E+02  0.12379536250E+03  0.13922373044E+03  0.47000000000E+01 0.  1.
        -11    1    1    2    0    0  0.48927826513E+02 -0.73884593741E+02  0.86403620321E+02  0.12376773006E+03  0.00000000000E+00 0.  1.
         11    1    1    2    0    0  0.14253252811E+02  0.27015668123E+02  0.19920088396E+02  0.36466580063E+02  0.00000000000E+00 0. -1.
<mgrwt>
<rscale>  0 0.15012786E+03</rscale>
<asrwt>0</asrwt>
<pdfrwt beam="1">  1        1 0.76729337E-01 0.16182193E+03</pdfrwt>
<pdfrwt beam="2">  1       -1 0.69028449E-02 0.16182193E+03</pdfrwt>
<totfact> 0.47617924E+03</totfact>
</mgrwt>
</event>
<event>
 6    1  0.9263730E-006  0.1481972E+03  0.7546771E-02  0.1212463E+00
          1   -1    0    0  501    0  0.00000000000E+00  0.00000000000E+00  0.40031934906E+03  0.40031934906E+03  0.00000000000E+00 0. -1.
         -1   -1    0    0    0  501 -0.00000000000E+00 -0.00000000000E+00 -0.50977704755E+02  0.50977704755E+02  0.00000000000E+00 0.  1.
          5    1    1    2  502    0 -0.32716067549E+01 -0.46197851480E+02  0.66803995395E+02  0.81423637188E+02  0.47000000000E+01 0. -1.
         -5    1    1    2    0  502 -0.73136452861E+02  0.68534555914E+02  0.20086874989E+03  0.22453567818E+03  0.47000000000E+01 0. -1.
        -11    1    1    2    0    0  0.54347463467E+02 -0.52830904105E+02  0.30231106942E+02  0.81600680394E+02  0.00000000000E+00 0.  1.
         11    1    1    2    0    0  0.22060596149E+02  0.30494199671E+02  0.51437792074E+02  0.63737058055E+02  0.00000000000E+00 0. -1.
<mgrwt>
<rscale>  0 0.14064543E+03</rscale>
<asrwt>0</asrwt>
<pdfrwt beam="1">  1        1 0.61587590E-01 0.14819718E+03</pdfrwt>
<pdfrwt beam="2">  1       -1 0.78427241E-02 0.14819718E+03</pdfrwt>
<totfact> 0.51880267E+03</totfact>
</mgrwt>
</event>
<event>
 6    1  0.9263730E-006  0.1258836E+03  0.7546771E-02  0.1249161E+00
         -4   -1    0    0    0  501 -0.00000000000E+00  0.00000000000E+00  0.32554519209E+02  0.32554519209E+02  0.00000000000E+00 0.  1.
          4   -1    0    0  501    0  0.00000000000E+00 -0.00000000000E+00 -0.36539037503E+03  0.36539037503E+03  0.00000000000E+00 0. -1.
          5    1    1    2  502    0 -0.88831465385E+01 -0.10189596143E+02 -0.20894078649E+03  0.20943037129E+03  0.47000000000E+01 0.  1.
         -5    1    1    2    0  502  0.80229067293E+01  0.25164005716E+02  0.77262959871E+01  0.27917375696E+02  0.47000000000E+01 0.  1.
        -11    1    1    2    0    0  0.20410433673E+02 -0.19807740855E+02 -0.13686329594E+03  0.13978731765E+03  0.00000000000E+00 0. -1.
         11    1    1    2    0    0 -0.19550193864E+02  0.48333312812E+01  0.52419306186E+01  0.20809829601E+02  0.00000000000E+00 0.  1.
<mgrwt>
<rscale>  0 0.11639779E+03</rscale>
<asrwt>0</asrwt>
<pdfrwt beam="2">  1        4 0.56213905E-01 0.12588360E+03</pdfrwt>
<pdfrwt beam="1">  1       -4 0.50083875E-02 0.12588360E+03</pdfrwt>
<totfact> 0.11770607E+03</totfact>
</mgrwt>
</event>
<event>
 6    1  0.9263730E-006  0.1475127E+03  0.7546771E-02  0.1213329E+00
         -2   -1    0    0    0  501 -0.00000000000E+00  0.00000000000E+00  0.14389150401E+03  0.14389150401E+03  0.00000000000E+00 0.  1.
          2   -1    0    0  501    0  0.00000000000E+00 -0.00000000000E+00 -0.26472192240E+03  0.26472192240E+03  0.00000000000E+00 0. -1.
          5    1    1    2  502    0 -0.35379128626E+02 -0.91693113956E+02 -0.14656078683E+03  0.17652610041E+03  0.47000000000E+01 0. -1.
         -5    1    1    2    0  502  0.46653732693E+02  0.14179141771E+02 -0.65362892902E+02  0.81682413065E+02  0.47000000000E+01 0. -1.
        -11    1    1    2    0    0 -0.17293478753E+02  0.87621923908E+02  0.39798242870E+02  0.97778147314E+02  0.00000000000E+00 0. -1.
         11    1    1    2    0    0  0.60188746860E+01 -0.10107951722E+02  0.51295018466E+02  0.52626765623E+02  0.00000000000E+00 0.  1.
<mgrwt>
<rscale>  0 0.14000023E+03</rscale>
<asrwt>0</asrwt>
<pdfrwt beam="2">  1        2 0.40726450E-01 0.14751268E+03</pdfrwt>
<pdfrwt beam="1">  1       -2 0.22137154E-01 0.14751268E+03</pdfrwt>
<totfact> 0.21577857E+03</totfact>
</mgrwt>
</event>
<event>
 6    1  0.9263730E-006  0.3201797E+03  0.7546771E-02  0.1075567E+00
          4   -1    0    0  501    0  0.00000000000E+00  0.00000000000E+00  0.48586027838E+02  0.48586027838E+02  0.00000000000E+00 0. -1.
         -4   -1    0    0    0  501 -0.00000000000E+00 -0.00000000000E+00 -0.52749231076E+03  0.52749231076E+03  0.00000000000E+00 0.  1.
          5    1    1    2  502    0 -0.87214419970E+02  0.96548184549E+02 -0.14012041124E+03  0.19126872885E+03  0.47000000000E+01 0.  1.
         -5    1    1    2    0  502  0.24124737449E+02  0.10375347600E+01 -0.10200164328E+03  0.10492618676E+03  0.47000000000E+01 0.  1.
        -11    1    1    2    0    0 -0.18083550109E+02 -0.47205649571E+02 -0.56235793143E+02  0.75616483430E+02  0.00000000000E+00 0.  1.
         11    1    1    2    0    0  0.81173232631E+02 -0.50380069738E+02 -0.18054843526E+03  0.20426693956E+03  0.00000000000E+00 0. -1.
<mgrwt>
<rscale>  0 0.32017968E+03</rscale>
<asrwt>0</asrwt>
<pdfrwt beam="1">  1        4 0.74747734E-02 0.32017968E+03</pdfrwt>
<pdfrwt beam="2">  1       -4 0.81152665E-01 0.32017968E+03</pdfrwt>
<totfact> 0.32383616E+02</totfact>
</mgrwt>
</event>
<event>
 6    1  0.9263730E-006  0.2129491E+03  0.7546771E-02  0.1143241E+00
         -2   -1    0    0    0  501 -0.00000000000E+00  0.00000000000E+00  0.35078185655E+02  0.35078185655E+02  0.00000000000E+00 0. -1.
          2   -1    0    0  501    0  0.00000000000E+00 -0.00000000000E+00 -0.12057366153E+04  0.12057366153E+04  0.00000000000E+00 0.  1.
          5    1    1    2  502    0 -0.34061597637E+02  0.12669489991E+01 -0.86892448700E+02  0.93456862961E+02  0.47000000000E+01 0.  1.
         -5    1    1    2    0  502  0.47262982873E+02  0.17065352385E+03 -0.62133414275E+03  0.64609180594E+03  0.47000000000E+01 0.  1.
        -11    1    1    2    0    0 -0.44573600460E+02 -0.85807770080E+02 -0.29429502447E+03  0.30977304707E+03  0.00000000000E+00 0. -1.
         11    1    1    2    0    0  0.31372215224E+02 -0.86112702766E+02 -0.16813681368E+03  0.19149308494E+03  0.00000000000E+00 0.  1.
<mgrwt>
<rscale>  0 0.20789854E+03</rscale>
<asrwt>0</asrwt>
<pdfrwt beam="2">  1        2 0.18549792E+00 0.21294912E+03</pdfrwt>
<pdfrwt beam="1">  1       -2 0.53966445E-02 0.21294912E+03</pdfrwt>
<totfact> 0.34396934E+03</totfact>
</mgrwt>
</event>
<event>
 6    1  0.9263730E-006  0.2594408E+03  0.7546771E-02  0.1107480E+00
         -1   -1    0    0    0  501 -0.00000000000E+00  0.00000000000E+00  0.69512602514E+02  0.69512602514E+02  0.00000000000E+00 0.  1.
          1   -1    0    0  501    0  0.00000000000E+00 -0.00000000000E+00 -0.24207679783E+03  0.24207679783E+03  0.00000000000E+00 0. -1.
          5    1    1    2  502    0 -0.42343239808E+02  0.35520411043E+02 -0.72687036944E+02  0.91433827973E+02  0.47000000000E+01 0. -1.
         -5    1    1    2    0  502  0.45943802270E+02 -0.31097783872E+02 -0.19973199196E+02  0.59151701707E+02  0.47000000000E+01 0.  1.
        -11    1    1    2    0    0  0.67972865541E+01 -0.21272172006E+02  0.36575216387E+02  0.42853878005E+02  0.00000000000E+00 0.  1.
         11    1    1    2    0    0 -0.10397849016E+02  0.16849544835E+02 -0.11647917556E+03  0.11814999266E+03  0.00000000000E+00 0. -1.
<mgrwt>
<rscale>  0 0.25944085E+03</rscale>
<asrwt>0</asrwt>
<pdfrwt beam="2">  1        1 0.37242584E-01 0.25944085E+03</pdfrwt>
<pdfrwt beam="1">  1       -1 0.10694247E-01 0.25944085E+03</pdfrwt>
<totfact> 0.62486934E+03</totfact>
</mgrwt>
</event>
<event>
 6    1  0.9263730E-006  0.1479056E+03  0.7546771E-02  0.1212919E+00
          1   -1    0    0  501    0  0.00000000000E+00  0.00000000000E+00  0.46531275782E+03  0.46531275782E+03  0.00000000000E+00 0. -1.
         -1   -1    0    0    0  501 -0.00000000000E+00 -0.00000000000E+00 -0.30038770901E+03  0.30038770901E+03  0.00000000000E+00 0.  1.
          5    1    1    2  502    0 -0.43352381997E+02  0.60747538869E+01  0.33303163828E+03  0.33592929874E+03  0.47000000000E+01 0. -1.
         -5    1    1    2    0  502 -0.23902503193E+01 -0.70746579715E+02  0.10776670521E+03  0.12902148887E+03  0.47000000000E+01 0. -1.
        -11    1    1    2    0    0  0.32248755503E+02  0.46339407882E+02 -0.27182922524E+03  0.27763006078E+03  0.00000000000E+00 0.  1.
         11    1    1    2    0    0  0.13493876814E+02  0.18332417947E+02 -0.40440694398E+01  0.23119618441E+02  0.00000000000E+00 0. -1.
<mgrwt>
<rscale>  0 0.14030504E+03</rscale>
<asrwt>0</asrwt>
<pdfrwt beam="1">  1        1 0.71586578E-01 0.14790556E+03</pdfrwt>
<pdfrwt beam="2">  1       -1 0.46213494E-01 0.14790556E+03</pdfrwt>
<totfact> 0.24223839E+02</totfact>
</mgrwt>
</event>
<event>
 6    1  0.9263730E-006  0.1839652E+03  0.7546771E-02  0.1176730E+00
          1   -1    0    0  501    0  0.00000000000E+00  0.00000000000E+00  0.26631870482E+03  0.26631870482E+03  0.00000000000E+00 0. -1.
         -1   -1    0    0    0  501 -0.00000000000E+00 -0.00000000000E+00 -0.97126437155E+02  0.97126437155E+02  0.00000000000E+00 0.  1.
          5    1    1    2  502    0 -0.12164694156E+03  0.44511771896E+02  0.31668721310E+02  0.13343265769E+03  0.47000000000E+01 0. -1.
         -5    1    1    2    0  502  0.18988469583E+02 -0.34644314788E+02  0.60294926332E+02  0.72238207796E+02  0.47000000000E+01 0.  1.
        -11    1    1    2    0    0  0.11490529409E+03  0.21477187105E+01  0.80492526777E+02  0.14030996462E+03  0.00000000000E+00 0.  1.
         11    1    1    2    0    0 -0.12246822112E+02 -0.12015175818E+02 -0.32639067538E+01  0.17464311869E+02  0.00000000000E+00 0. -1.
<mgrwt>
<rscale>  0 0.17107682E+03</rscale>
<asrwt>0</asrwt>
<pdfrwt beam="1">  1        1 0.40972108E-01 0.18396519E+03</pdfrwt>
<pdfrwt beam="2">  1       -1 0.14942529E-01 0.18396519E+03</pdfrwt>
<totfact> 0.32312594E+03</totfact>
</mgrwt>
</event>
<event>
 6    1  0.9263730E-006  0.2017336E+03  0.7546771E-02  0.1152399E+00
          2   -1    0    0  501    0  0.00000000000E+00  0.00000000000E+00  0.14539465214E+04  0.14539465214E+04  0.00000000000E+00 0.  1.
         -2   -1    0    0    0  501 -0.00000000000E+00 -0.00000000000E+00 -0.25625568907E+02  0.25625568907E+02  0.00000000000E+00 0. -1.
          5    1    1    2  502    0 -0.54323332034E+02  0.88942616053E+02  0.23051270848E+03  0.25302176215E+03  0.47000000000E+01 0. -1.
         -5    1    1    2    0  502  0.35597459918E+02  0.68291900249E+02  0.45735351374E+03  0.46381600805E+03  0.47000000000E+01 0. -1.
        -11    1    1    2    0    0  0.24340780120E+02 -0.24918026164E+02  0.58880935924E+02  0.68413055918E+02  0.00000000000E+00 0.  1.
         11    1    1    2    0    0 -0.56149080035E+01 -0.13231649014E+03  0.68157379437E+03  0.69432126420E+03  0.00000000000E+00 0. -1.
<mgrwt>
<rscale>  0 0.19687873E+03</rscale>
<asrwt>0</asrwt>
<pdfrwt beam="1">  1        2 0.22368402E+00 0.20173361E+03</pdfrwt>
<pdfrwt beam="2">  1       -2 0.39423964E-02 0.20173361E+03</pdfrwt>
<totfact> 0.40421238E+03</totfact>
</mgrwt>
</event>
<event>
 6    1  0.9263730E-006  0.1347566E+03  0.7546771E-02  0.1241511E+00
         -2   -1    0    0    0  501 -0.00000000000E+00  0.00000000000E+00  0.45982415464E+02  0.45982415464E+02  0.00000000000E+00 0.  1.
          2   -1    0    0  501    0  0.00000000000E+00 -0.00000000000E+00 -0.33424288426E+03  0.33424288426E+03  0.00000000000E+00 0. -1.
          5    1    1    2  502    0 -0.42492725163E+02 -0.13474639266E+02 -0.24805813739E+03  0.25207563769E+03  0.47000000000E+01 0. -1.
         -5    1    1    2    0  502 -0.41385060256E+01  0.32457365778E+02 -0.34202187323E+01  0.33232449828E+02  0.47000000000E+01 0. -1.
        -11    1    1    2    0    0  0.56489299255E+02 -0.24741884242E+02 -0.48575054375E+02  0.78503106141E+02  0.00000000000E+00 0. -1.
         11    1    1    2    0    0 -0.98580680669E+01  0.57591577299E+01  0.11792941701E+02  0.16414106059E+02  0.00000000000E+00 0.  1.
<mgrwt>
<rscale>  0 0.12096655E+03</rscale>
<asrwt>0</asrwt>
<pdfrwt beam="2">  1        2 0.51421981E-01 0.13475660E+03</pdfrwt>
<pdfrwt beam="1">  1       -2 0.70742180E-02 0.13475660E+03</pdfrwt>
<totfact> 0.10538029E+04</totfact>
</mgrwt>
</event>
<event>
 6    1  0.9263730E-006  0.1545831E+03  0.7546771E-02  0.1203380E+00
          4   -1    0    0  501    0  0.00000000000E+00  0.00000000000E+00  0.72804976197E+03  0.72804976197E+03  0.00000000000E+00 0. -1.
         -4   -1    0    0    0  501 -0.00000000000E+00 -0.00000000000E+00 -0.32557033294E+02  0.32557033294E+02  0.00000000000E+00 0.  1.
          5    1    1    2  502    0  0.45596219803E+02 -0.87245343110E+02  0.50359121505E+03  0.51314419711E+03  0.47000000000E+01 0. -1.
         -5    1    1    2    0  502 -0.25338865583E+02 -0.14102749552E+01  0.19606584486E+02  0.32412268351E+02  0.47000000000E+01 0. -1.
        -11    1    1    2    0    0 -0.12240678684E+02  0.72684868707E+01 -0.85270796154E+01  0.16594463016E+02  0.00000000000E+00 0.  1.
         11    1    1    2    0    0 -0.80166755359E+01  0.81387131194E+02  0.18082200876E+03  0.19845586678E+03  0.00000000000E+00 0. -1.
<mgrwt>
<rscale>  0 0.14765820E+03</rscale>
<asrwt>0</asrwt>
<pdfrwt beam="1">  1        4 0.11200764E+00 0.15458305E+03</pdfrwt>
<pdfrwt beam="2">  1       -4 0.50087749E-02 0.15458305E+03</pdfrwt>
<totfact> 0.26621441E+02</totfact>
</mgrwt>
</event>
<event>
 6    1  0.9263730E-006  0.1551106E+03  0.7546771E-02  0.1219484E+00
         -2   -1    0    0    0  501 -0.00000000000E+00  0.00000000000E+00  0.22228053312E+02  0.22228053312E+02  0.00000000000E+00 0.  1.
          2   -1    0    0  501    0  0.00000000000E+00 -0.00000000000E+00 -0.73165547192E+03  0.73165547192E+03  0.00000000000E+00 0. -1.
          5    1    1    2  502    0  0.52824748122E+02  0.31206826983E+02 -0.40104364987E+03  0.40573688416E+03  0.47000000000E+01 0. -1.
         -5    1    1    2    0  502 -0.65865292659E+02 -0.26498226164E+02 -0.13916062152E+03  0.15629510980E+03  0.47000000000E+01 0.  1.
        -11    1    1    2    0    0  0.23102437537E+02  0.29348616952E+02 -0.14275533661E+03  0.14756066572E+03  0.00000000000E+00 0.  1.
         11    1    1    2    0    0 -0.10061892999E+02 -0.34057217772E+02 -0.26467810618E+02  0.44290865559E+02  0.00000000000E+00 0. -1.
<mgrwt>
<rscale>  0 0.13552284E+03</rscale>
<asrwt>0</asrwt>
<pdfrwt beam="2">  1        2 0.11256236E+00 0.15511063E+03</pdfrwt>
<pdfrwt beam="1">  1       -2 0.34197011E-02 0.15511063E+03</pdfrwt>
<totfact> 0.13304174E+04</totfact>
</mgrwt>
</event>
<event>
 6    1  0.9263730E-006  0.1493539E+03  0.7546771E-02  0.1210779E+00
          2   -1    0    0  501    0  0.00000000000E+00  0.00000000000E+00  0.55503283331E+03  0.55503283331E+03  0.00000000000E+00 0. -1.
         -2   -1    0    0    0  501 -0.00000000000E+00 -0.00000000000E+00 -0.50786413799E+02  0.50786413799E+02  0.00000000000E+00 0.  1.
          5    1    1    2  502    0 -0.24702915117E+02  0.10535361884E+03  0.38357043665E+03  0.39856992973E+03  0.47000000000E+01 0. -1.
         -5    1    1    2    0  502  0.26166607808E+02 -0.23629673461E+02  0.63433009521E+02  0.72724751831E+02  0.47000000000E+01 0. -1.
        -11    1    1    2    0    0 -0.30705854248E+02 -0.75507242700E+02  0.15169712316E+02  0.82911479042E+02  0.00000000000E+00 0.  1.
         11    1    1    2    0    0  0.29242161557E+02 -0.62167026800E+01  0.42073261025E+02  0.51613086499E+02  0.00000000000E+00 0. -1.
<mgrwt>
<rscale>  0 0.14191192E+03</rscale>
<asrwt>0</asrwt>
<pdfrwt beam="1">  1        2 0.85389663E-01 0.14935393E+03</pdfrwt>
<pdfrwt beam="2">  1       -2 0.78132948E-02 0.14935393E+03</pdfrwt>
<totfact> 0.52560969E+03</totfact>
</mgrwt>
</event>
<event>
 6    1  0.9263730E-006  0.4457804E+03  0.7546771E-02  0.1028988E+00
         -2   -1    0    0    0  501 -0.00000000000E+00  0.00000000000E+00  0.74518396364E+02  0.74518396364E+02  0.00000000000E+00 0.  1.
          2   -1    0    0  501    0  0.00000000000E+00 -0.00000000000E+00 -0.66668160627E+03  0.66668160627E+03  0.00000000000E+00 0. -1.
          5    1    1    2  502    0  0.13549604875E+03  0.59917433433E+02 -0.45499686023E+03  0.47853266437E+03  0.47000000000E+01 0.  1.
         -5    1    1    2    0  502 -0.82375696121E+01  0.37789547293E+02 -0.36508433265E+02  0.53393474669E+02  0.47000000000E+01 0.  1.
        -11    1    1    2    0    0 -0.92602112575E+02 -0.30903717931E+02 -0.90892159590E+02  0.13338506554E+03  0.00000000000E+00 0. -1.
         11    1    1    2    0    0 -0.34656366559E+02 -0.66803262794E+02 -0.97657568250E+01  0.75888798049E+02  0.00000000000E+00 0.  1.
<mgrwt>
<rscale>  0 0.44578041E+03</rscale>
<asrwt>0</asrwt>
<pdfrwt beam="2">  1        2 0.10256641E+00 0.44578041E+03</pdfrwt>
<pdfrwt beam="1">  1       -2 0.11464368E-01 0.44578041E+03</pdfrwt>
<totfact> 0.23820129E+03</totfact>
</mgrwt>
</event>
<event>
 6    1  0.9713366E-006  0.1673809E+03  0.7546771E-02  0.1187200E+00
         -1   -1    0    0    0  501 -0.00000000000E+00  0.00000000000E+00  0.12453775629E+02  0.12453775629E+02  0.00000000000E+00 0. -1.
          1   -1    0    0  501    0  0.00000000000E+00 -0.00000000000E+00 -0.22409462553E+04  0.22409462553E+04  0.00000000000E+00 0.  1.
          5    1    1    2  502    0 -0.29367563789E+02 -0.10423154524E+02 -0.16583345034E+03  0.16880141944E+03  0.47000000000E+01 0. -1.
         -5    1    1    2    0  502  0.45145615814E+02  0.12061959571E+03 -0.14231779005E+04  0.14290012736E+04  0.47000000000E+01 0. -1.
        -11    1    1    2    0    0 -0.36729468978E+02 -0.94238091822E+02 -0.59777727125E+03  0.60627348438E+03  0.00000000000E+00 0.  1.
         11    1    1    2    0    0  0.20951416954E+02 -0.15958349360E+02 -0.41703857557E+02  0.49323853477E+02  0.00000000000E+00 0. -1.
<mgrwt>
<rscale>  0 0.16133342E+03</rscale>
<asrwt>0</asrwt>
<pdfrwt beam="2">  1        1 0.34476071E+00 0.16738092E+03</pdfrwt>
<pdfrwt beam="1">  1       -1 0.19159669E-02 0.16738092E+03</pdfrwt>
<totfact> 0.17252952E+03</totfact>
</mgrwt>
</event>
<event>
 6    1  0.9263730E-006  0.1596407E+03  0.7546771E-02  0.1196457E+00
         -2   -1    0    0    0  501 -0.00000000000E+00  0.00000000000E+00  0.21329942290E+02  0.21329942290E+02  0.00000000000E+00 0.  1.
          2   -1    0    0  501    0  0.00000000000E+00 -0.00000000000E+00 -0.13097343704E+04  0.13097343704E+04  0.00000000000E+00 0. -1.
          5    1    1    2  502    0  0.15978546189E+02 -0.55152906611E+02 -0.64208990766E+03  0.64466944752E+03  0.47000000000E+01 0. -1.
         -5    1    1    2    0  502  0.79886221044E+02  0.29397760596E+02 -0.35328327062E+03  0.36342426438E+03  0.47000000000E+01 0. -1.
        -11    1    1    2    0    0 -0.73700776559E+02  0.26635435333E+02 -0.29021701653E+03  0.30061132308E+03  0.00000000000E+00 0. -1.
         11    1    1    2    0    0 -0.22163990674E+02 -0.88028931806E+00 -0.28142333316E+01  0.22359277742E+02  0.00000000000E+00 0.  1.
<mgrwt>
<rscale>  0 0.15331543E+03</rscale>
<asrwt>0</asrwt>
<pdfrwt beam="2">  1        2 0.20149759E+00 0.15964075E+03</pdfrwt>
<pdfrwt beam="1">  1       -2 0.32815296E-02 0.15964075E+03</pdfrwt>
<totfact> 0.63159220E+03</totfact>
</mgrwt>
</event>
<event>
 6    1  0.9263730E-006  0.2257591E+03  0.7546771E-02  0.1132851E+00
          1   -1    0    0  501    0  0.00000000000E+00  0.00000000000E+00  0.58600678916E+03  0.58600678916E+03  0.00000000000E+00 0. -1.
         -1   -1    0    0    0  501 -0.00000000000E+00 -0.00000000000E+00 -0.95681207229E+02  0.95681207229E+02  0.00000000000E+00 0.  1.
          5    1    1    2  502    0  0.48727102713E+01  0.41183949794E+02  0.79028923958E+02  0.89372936887E+02  0.47000000000E+01 0. -1.
         -5    1    1    2    0  502 -0.18272331243E+03  0.19722885653E+02  0.30962883078E+03  0.36009568725E+03  0.47000000000E+01 0. -1.
        -11    1    1    2    0    0  0.47779912710E+02 -0.61498292851E+02  0.28155273938E+02  0.82811107544E+02  0.00000000000E+00 0.  1.
         11    1    1    2    0    0  0.13007068945E+03  0.59145740420E+00  0.73512553255E+02  0.14940826471E+03  0.00000000000E+00 0. -1.
<mgrwt>
<rscale>  0 0.22138936E+03</rscale>
<asrwt>0</asrwt>
<pdfrwt beam="1">  1        1 0.90154888E-01 0.22575915E+03</pdfrwt>
<pdfrwt beam="2">  1       -1 0.14720186E-01 0.22575915E+03</pdfrwt>
<totfact> 0.12038814E+03</totfact>
</mgrwt>
</event>
<event>
 6    1  0.9263730E-006  0.1261777E+03  0.7546771E-02  0.1245555E+00
          2   -1    0    0  501    0  0.00000000000E+00  0.00000000000E+00  0.11051933625E+03  0.11051933625E+03  0.00000000000E+00 0. -1.
         -2   -1    0    0    0  501 -0.00000000000E+00 -0.00000000000E+00 -0.12881740997E+03  0.12881740997E+03  0.00000000000E+00 0.  1.
          5    1    1    2  502    0  0.53938644575E+02  0.94915566507E+01  0.12695759503E+02  0.56415772047E+02  0.47000000000E+01 0.  1.
         -5    1    1    2    0  502 -0.68597520486E+02 -0.18506383150E+02  0.17568811943E+02  0.73340706209E+02  0.47000000000E+01 0.  1.
        -11    1    1    2    0    0  0.31146884396E+02 -0.24953834591E+02 -0.58238649886E+02  0.70601434893E+02  0.00000000000E+00 0.  1.
         11    1    1    2    0    0 -0.16488008485E+02  0.33968661090E+02  0.96760047182E+01  0.38978833069E+02  0.00000000000E+00 0. -1.
<mgrwt>
<rscale>  0 0.11852227E+03</rscale>
<asrwt>0</asrwt>
<pdfrwt beam="1">  1        2 0.17002975E-01 0.12617765E+03</pdfrwt>
<pdfrwt beam="2">  1       -2 0.19818063E-01 0.12617765E+03</pdfrwt>
<totfact> 0.67552251E+03</totfact>
</mgrwt>
</event>
<event>
 6    1  0.9263730E-006  0.3155372E+03  0.7546771E-02  0.1077722E+00
          4   -1    0    0  501    0  0.00000000000E+00  0.00000000000E+00  0.87229298271E+02  0.87229298271E+02  0.00000000000E+00 0. -1.
         -4   -1    0    0    0  501 -0.00000000000E+00 -0.00000000000E+00 -0.28535051012E+03  0.28535051012E+03  0.00000000000E+00 0.  1.
          5    1    1    2  502    0 -0.47098508266E+02  0.81518274177E+02 -0.87241050484E+02  0.12843904934E+03  0.47000000000E+01 0. -1.
         -5    1    1    2    0  502  0.26619732582E+02  0.22793131696E+02  0.28942941417E+02  0.45693772805E+02  0.47000000000E+01 0. -1.
        -11    1    1    2    0    0  0.91296769790E+01 -0.56983787543E+02 -0.13818307941E+03  0.14975001329E+03  0.00000000000E+00 0.  1.
         11    1    1    2    0    0  0.11349098705E+02 -0.47327618330E+02 -0.16400233660E+01  0.48696972954E+02  0.00000000000E+00 0. -1.
<mgrwt>
<rscale>  0 0.31553716E+03</rscale>
<asrwt>0</asrwt>
<pdfrwt beam="1">  1        4 0.13419892E-01 0.31553716E+03</pdfrwt>
<pdfrwt beam="2">  1       -4 0.43900079E-01 0.31553716E+03</pdfrwt>
<totfact> 0.44057626E+02</totfact>
</mgrwt>
</event>
<event>
 6    1  0.9263730E-006  0.1439317E+03  0.7546771E-02  0.1226525E+00
          2   -1    0    0  501    0  0.00000000000E+00  0.00000000000E+00  0.19298484279E+04  0.19298484279E+04  0.00000000000E+00 0. -1.
         -2   -1    0    0    0  501 -0.00000000000E+00 -0.00000000000E+00 -0.10804499794E+02  0.10804499794E+02  0.00000000000E+00 0.  1.
          5    1    1    2  502    0 -0.15072134328E+02 -0.75978204447E+02  0.10687612440E+04  0.10715747961E+04  0.47000000000E+01 0. -1.
         -5    1    1    2    0  502  0.39007141222E+02  0.48812194027E+02  0.54418357467E+03  0.54777918936E+03  0.47000000000E+01 0.  1.
        -11    1    1    2    0    0  0.22165358052E+02  0.35960115634E+02  0.21174305352E+03  0.21591561714E+03  0.00000000000E+00 0. -1.
         11    1    1    2    0    0 -0.46100364947E+02 -0.87941052147E+01  0.94356055856E+02  0.10538332511E+03  0.00000000000E+00 0.  1.
<mgrwt>
<rscale>  0 0.13062916E+03</rscale>
<asrwt>0</asrwt>
<pdfrwt beam="1">  1        2 0.29689948E+00 0.14393173E+03</pdfrwt>
<pdfrwt beam="2">  1       -2 0.16622323E-02 0.14393173E+03</pdfrwt>
<totfact> 0.80989922E+03</totfact>
</mgrwt>
</event>
<event>
 6    1  0.9263730E-006  0.3369756E+03  0.7546771E-02  0.1068091E+00
          2   -1    0    0  501    0  0.00000000000E+00  0.00000000000E+00  0.14374769257E+04  0.14374769257E+04  0.00000000000E+00 0.  1.
         -2   -1    0    0    0  501 -0.00000000000E+00 -0.00000000000E+00 -0.19748587903E+02  0.19748587903E+02  0.00000000000E+00 0. -1.
          5    1    1    2  502    0  0.88639187198E+02 -0.73194062735E+02  0.75961159556E+03  0.76827478316E+03  0.47000000000E+01 0.  1.
         -5    1    1    2    0  502 -0.34077754710E+02  0.31050603287E+01  0.38869382922E+03  0.39022547026E+03  0.47000000000E+01 0.  1.
        -11    1    1    2    0    0 -0.47145275841E+02  0.34030266892E+02  0.51368640659E+02  0.77585264979E+02  0.00000000000E+00 0. -1.
         11    1    1    2    0    0 -0.74161566476E+01  0.36058735515E+02  0.21805427238E+03  0.22113999522E+03  0.00000000000E+00 0.  1.
<mgrwt>
<rscale>  0 0.33697560E+03</rscale>
<asrwt>0</asrwt>
<pdfrwt beam="1">  1        2 0.22115021E+00 0.33697560E+03</pdfrwt>
<pdfrwt beam="2">  1       -2 0.30382454E-02 0.33697560E+03</pdfrwt>
<totfact> 0.61466848E+03</totfact>
</mgrwt>
</event>
<event>
 6    1  0.9263730E-006  0.1295117E+03  0.7546771E-02  0.1243213E+00
         -1   -1    0    0    0  501 -0.00000000000E+00  0.00000000000E+00  0.26174191039E+02  0.26174191039E+02  0.00000000000E+00 0.  1.
          1   -1    0    0  501    0  0.00000000000E+00 -0.00000000000E+00 -0.56356702985E+03  0.56356702985E+03  0.00000000000E+00 0. -1.
          5    1    1    2  502    0 -0.13094786048E+02 -0.41785971697E+02 -0.23371287277E+03  0.23782627641E+03  0.47000000000E+01 0. -1.
         -5    1    1    2    0  502  0.12444532640E+02  0.75674423346E+02 -0.18082760022E+03  0.19647441498E+03  0.47000000000E+01 0. -1.
        -11    1    1    2    0    0 -0.22537609810E+02 -0.17131603788E+02  0.99959729485E+00  0.28327281886E+02  0.00000000000E+00 0.  1.
         11    1    1    2    0    0  0.23187863218E+02 -0.16756847862E+02 -0.12385196312E+03  0.12711324762E+03  0.00000000000E+00 0. -1.
<mgrwt>
<rscale>  0 0.11992979E+03</rscale>
<asrwt>0</asrwt>
<pdfrwt beam="2">  1        1 0.86702616E-01 0.12951172E+03</pdfrwt>
<pdfrwt beam="1">  1       -1 0.40267988E-02 0.12951172E+03</pdfrwt>
<totfact> 0.89052888E+03</totfact>
</mgrwt>
</event>
<event>
 6    1  0.9263730E-006  0.1462543E+03  0.7546771E-02  0.1215162E+00
         -1   -1    0    0    0  501 -0.00000000000E+00  0.00000000000E+00  0.13693251476E+02  0.13693251476E+02  0.00000000000E+00 0.  1.
          1   -1    0    0  501    0  0.00000000000E+00 -0.00000000000E+00 -0.12861571595E+04  0.12861571595E+04  0.00000000000E+00 0. -1.
          5    1    1    2  502    0 -0.68551952040E+02 -0.59986767737E+02 -0.49635576904E+03  0.50466713969E+03  0.47000000000E+01 0. -1.
         -5    1    1    2    0  502  0.52694862931E+02 -0.14299884128E+02 -0.26444280067E+03  0.27006169683E+03  0.47000000000E+01 0. -1.
        -11    1    1    2    0    0  0.51565218451E+02  0.61278290105E+02 -0.34200327658E+03  0.35125523738E+03  0.00000000000E+00 0. -1.
         11    1    1    2    0    0 -0.35708129341E+02  0.13008361760E+02 -0.16966206172E+03  0.17386633706E+03  0.00000000000E+00 0.  1.
<mgrwt>
<rscale>  0 0.13864621E+03</rscale>
<asrwt>0</asrwt>
<pdfrwt beam="2">  1        1 0.19787033E+00 0.14625425E+03</pdfrwt>
<pdfrwt beam="1">  1       -1 0.21066541E-02 0.14625425E+03</pdfrwt>
<totfact> 0.62108378E+03</totfact>
</mgrwt>
</event>
<event>
 6    1  0.9263730E-006  0.3817999E+03  0.7546771E-02  0.1050270E+00
          2   -1    0    0  501    0  0.00000000000E+00  0.00000000000E+00  0.81295189113E+03  0.81295189113E+03  0.00000000000E+00 0. -1.
         -2   -1    0    0    0  501 -0.00000000000E+00 -0.00000000000E+00 -0.44827738278E+02  0.44827738278E+02  0.00000000000E+00 0.  1.
          5    1    1    2  502    0 -0.28018252892E+02 -0.11830918425E+03  0.64732848965E+03  0.65866406391E+03  0.47000000000E+01 0. -1.
         -5    1    1    2    0  502 -0.31778377358E+01  0.18747438686E+02  0.19072921350E+02  0.27339192358E+02  0.47000000000E+01 0. -1.
        -11    1    1    2    0    0  0.80250253530E+01  0.31738747398E+02 -0.14041057243E+02  0.35621628357E+02  0.00000000000E+00 0.  1.
         11    1    1    2    0    0  0.23171065275E+02  0.67822998166E+02  0.11576379910E+03  0.13615474478E+03  0.00000000000E+00 0. -1.
<mgrwt>
<rscale>  0 0.38179992E+03</rscale>
<asrwt>0</asrwt>
<pdfrwt beam="1">  1        2 0.12506951E+00 0.38179992E+03</pdfrwt>
<pdfrwt beam="2">  1       -2 0.68965758E-02 0.38179992E+03</pdfrwt>
<totfact> 0.41650854E+03</totfact>
</mgrwt>
</event>
<event>
 6    1  0.9263730E-006  0.1365828E+03  0.7546771E-02  0.1228286E+00
          2   -1    0    0  501    0  0.00000000000E+00  0.00000000000E+00  0.11097172601E+04  0.11097172601E+04  0.00000000000E+00 0. -1.
         -2   -1    0    0    0  501 -0.00000000000E+00 -0.00000000000E+00 -0.13725199642E+02  0.13725199642E+02  0.00000000000E+00 0.  1.
          5    1    1    2  502    0 -0.28468980485E+02  0.30039015470E+02  0.22800600101E+03  0.23177931702E+03  0.47000000000E+01 0. -1.
         -5    1    1    2    0  502  0.43848059982E+02 -0.82897777097E+02  0.39114861669E+03  0.40226113925E+03  0.47000000000E+01 0. -1.
        -11    1    1    2    0    0 -0.25611422205E+02 -0.22377684487E+02  0.16296395839E+03  0.16647509557E+03  0.00000000000E+00 0.  1.
         11    1    1    2    0    0  0.10232342707E+02  0.75236446114E+02  0.31387348438E+03  0.32292690792E+03  0.00000000000E+00 0. -1.
<mgrwt>
<rscale>  0 0.12944224E+03</rscale>
<asrwt>0</asrwt>
<pdfrwt beam="1">  1        2 0.17072566E+00 0.13658279E+03</pdfrwt>
<pdfrwt beam="2">  1       -2 0.21115700E-02 0.13658279E+03</pdfrwt>
<totfact> 0.15452431E+04</totfact>
</mgrwt>
</event>
<event>
 6    1  0.9263730E-006  0.1539828E+03  0.7546771E-02  0.1205116E+00
          2   -1    0    0  501    0  0.00000000000E+00  0.00000000000E+00  0.42581828132E+03  0.42581828132E+03  0.00000000000E+00 0. -1.
         -2   -1    0    0    0  501 -0.00000000000E+00 -0.00000000000E+00 -0.46105883553E+02  0.46105883553E+02  0.00000000000E+00 0.  1.
          5    1    1    2  502    0 -0.38141634711E+02 -0.79352810114E+02  0.19345175972E+03  0.21259662771E+03  0.47000000000E+01 0. -1.
         -5    1    1    2    0  502 -0.27186068581E+02  0.17577479565E+02 -0.23797152230E+01  0.32799438369E+02  0.47000000000E+01 0. -1.
        -11    1    1    2    0    0  0.30373182477E+02  0.22521936511E+02  0.83378382836E+01  0.38720632552E+02  0.00000000000E+00 0. -1.
         11    1    1    2    0    0  0.34954520816E+02  0.39253394038E+02  0.18030251498E+03  0.18780746625E+03  0.00000000000E+00 0.  1.
<mgrwt>
<rscale>  0 0.14628323E+03</rscale>
<asrwt>0</asrwt>
<pdfrwt beam="1">  1        2 0.65510502E-01 0.15398280E+03</pdfrwt>
<pdfrwt beam="2">  1       -2 0.70932131E-02 0.15398280E+03</pdfrwt>
<totfact> 0.81771796E+03</totfact>
</mgrwt>
</event>
<event>
 6    1  0.9263730E-006  0.1253667E+03  0.7546771E-02  0.1250567E+00
         -2   -1    0    0    0  501 -0.00000000000E+00  0.00000000000E+00  0.12944340103E+02  0.12944340103E+02  0.00000000000E+00 0.  1.
          2   -1    0    0  501    0  0.00000000000E+00 -0.00000000000E+00 -0.22573963252E+04  0.22573963252E+04  0.00000000000E+00 0. -1.
          5    1    1    2  502    0 -0.42799697775E+02  0.14014243453E+02 -0.18469246791E+04  0.18474796544E+04  0.47000000000E+01 0. -1.
         -5    1    1    2    0  502  0.37357139389E+02 -0.60431243627E+01 -0.22291562236E+03  0.22615379702E+03  0.47000000000E+01 0. -1.
        -11    1    1    2    0    0 -0.37215068084E+01  0.27698262506E+02 -0.14960230736E+03  0.15219032074E+03  0.00000000000E+00 0. -1.
         11    1    1    2    0    0  0.91640651947E+01 -0.35669381597E+02 -0.25009376300E+02  0.44516893168E+02  0.00000000000E+00 0.  1.
<mgrwt>
<rscale>  0 0.11558279E+03</rscale>
<asrwt>0</asrwt>
<pdfrwt beam="2">  1        2 0.34729124E+00 0.12536673E+03</pdfrwt>
<pdfrwt beam="1">  1       -2 0.19914398E-02 0.12536673E+03</pdfrwt>
<totfact> 0.42206408E+03</totfact>
</mgrwt>
</event>
<event>
 6    1  0.1191968E-005  0.1540068E+03  0.7546771E-02  0.1204030E+00
         -1   -1    0    0    0  501 -0.00000000000E+00  0.00000000000E+00  0.35462239031E+02  0.35462239031E+02  0.00000000000E+00 0.  1.
          1   -1    0    0  501    0  0.00000000000E+00 -0.00000000000E+00 -0.59477592235E+03  0.59477592235E+03  0.00000000000E+00 0. -1.
          5    1    1    2  502    0 -0.24261991323E+02  0.40966280682E+02 -0.30753816020E+02  0.56875017148E+02  0.47000000000E+01 0.  1.
         -5    1    1    2    0  502 -0.52952210678E+02  0.52048144190E+01 -0.34666607202E+03  0.35075701304E+03  0.47000000000E+01 0.  1.
        -11    1    1    2    0    0  0.12330569106E+02 -0.36157663953E+02 -0.11335423060E+02  0.39848606161E+02  0.00000000000E+00 0.  1.
         11    1    1    2    0    0  0.64883632894E+02 -0.10013431149E+02 -0.17055837222E+03  0.18275752503E+03  0.00000000000E+00 0. -1.
<mgrwt>
<rscale>  0 0.14714162E+03</rscale>
<asrwt>0</asrwt>
<pdfrwt beam="2">  1        1 0.91503987E-01 0.15400682E+03</pdfrwt>
<pdfrwt beam="1">  1       -1 0.54557292E-02 0.15400682E+03</pdfrwt>
<totfact> 0.53391103E+03</totfact>
</mgrwt>
</event>
<event>
 6    1  0.9263730E-006  0.1945379E+03  0.7546771E-02  0.1159197E+00
          1   -1    0    0  501    0  0.00000000000E+00  0.00000000000E+00  0.44608829572E+03  0.44608829572E+03  0.00000000000E+00 0. -1.
         -1   -1    0    0    0  501 -0.00000000000E+00 -0.00000000000E+00 -0.76771987738E+02  0.76771987738E+02  0.00000000000E+00 0.  1.
          5    1    1    2  502    0 -0.19004216672E+02  0.60399220972E+02  0.23492072226E+02  0.67699288053E+02  0.47000000000E+01 0. -1.
         -5    1    1    2    0  502 -0.12135085141E+03 -0.10190817797E+02  0.14725043916E+03  0.19114042936E+03  0.47000000000E+01 0. -1.
        -11    1    1    2    0    0  0.72213021142E+02  0.11988932671E+02  0.12954167145E+03  0.14879347960E+03  0.00000000000E+00 0. -1.
         11    1    1    2    0    0  0.68142046940E+02 -0.62197335847E+02  0.69032125148E+02  0.11522708644E+03  0.00000000000E+00 0.  1.
<mgrwt>
<rscale>  0 0.18918610E+03</rscale>
<asrwt>0</asrwt>
<pdfrwt beam="1">  1        1 0.68628967E-01 0.19453790E+03</pdfrwt>
<pdfrwt beam="2">  1       -1 0.11811075E-01 0.19453790E+03</pdfrwt>
<totfact> 0.24396447E+03</totfact>
</mgrwt>
</event>
<event>
 6    1  0.9263730E-006  0.2190894E+03  0.7546771E-02  0.1137996E+00
         -1   -1    0    0    0  501 -0.00000000000E+00  0.00000000000E+00  0.12322427181E+03  0.12322427181E+03  0.00000000000E+00 0.  1.
          1   -1    0    0  501    0  0.00000000000E+00 -0.00000000000E+00 -0.45720252527E+03  0.45720252527E+03  0.00000000000E+00 0. -1.
          5    1    1    2  502    0  0.58985367594E+02  0.22769900275E+02 -0.11023385524E+03  0.12716656318E+03  0.47000000000E+01 0. -1.
         -5    1    1    2    0  502 -0.19833856928E+02  0.15284642909E+03 -0.19662091403E+03  0.24987454172E+03  0.47000000000E+01 0. -1.
        -11    1    1    2    0    0  0.15011428359E+02 -0.12619878657E+03 -0.66534539280E+01  0.12726250494E+03  0.00000000000E+00 0.  1.
         11    1    1    2    0    0 -0.54162939025E+02 -0.49417542791E+02 -0.20470030264E+02  0.76123187258E+02  0.00000000000E+00 0. -1.
<mgrwt>
<rscale>  0 0.21457142E+03</rscale>
<asrwt>0</asrwt>
<pdfrwt beam="2">  1        1 0.70338850E-01 0.21908935E+03</pdfrwt>
<pdfrwt beam="1">  1       -1 0.18957580E-01 0.21908935E+03</pdfrwt>
<totfact> 0.11191894E+03</totfact>
</mgrwt>
</event>
<event>
 6    1  0.9263730E-006  0.1646256E+03  0.7546771E-02  0.1190657E+00
         -2   -1    0    0    0  501 -0.00000000000E+00  0.00000000000E+00  0.17394533658E+02  0.17394533658E+02  0.00000000000E+00 0. -1.
          2   -1    0    0  501    0  0.00000000000E+00 -0.00000000000E+00 -0.13697477131E+04  0.13697477131E+04  0.00000000000E+00 0.  1.
          5    1    1    2  502    0 -0.26450253531E+02 -0.26537034566E+02 -0.65081210240E+02  0.75242833823E+02  0.47000000000E+01 0.  1.
         -5    1    1    2    0  502 -0.75707713799E+02  0.58800691016E+02 -0.76576557962E+03  0.77175656273E+03  0.47000000000E+01 0.  1.
        -11    1    1    2    0    0  0.12948247236E+02 -0.13561169992E+02 -0.11371476818E+02  0.21928814903E+02  0.00000000000E+00 0. -1.
         11    1    1    2    0    0  0.89209720094E+02 -0.18702486458E+02 -0.51013491280E+03  0.51821403533E+03  0.00000000000E+00 0.  1.
<mgrwt>
<rscale>  0 0.15827638E+03</rscale>
<asrwt>0</asrwt>
<pdfrwt beam="2">  1        2 0.21073050E+00 0.16462560E+03</pdfrwt>
<pdfrwt beam="1">  1       -2 0.26760811E-02 0.16462560E+03</pdfrwt>
<totfact> 0.79298343E+03</totfact>
</mgrwt>
</event>
<event>
 6    1  0.9263730E-006  0.1472688E+03  0.7546771E-02  0.1213496E+00
          1   -1    0    0  501    0  0.00000000000E+00  0.00000000000E+00  0.12830280082E+04  0.12830280082E+04  0.00000000000E+00 0. -1.
         -1   -1    0    0    0  501 -0.00000000000E+00 -0.00000000000E+00 -0.24036711663E+02  0.24036711663E+02  0.00000000000E+00 0.  1.
          5    1    1    2  502    0 -0.49890941721E+02 -0.69302904887E+02  0.71277951211E+03  0.71789185925E+03  0.47000000000E+01 0.  1.
         -5    1    1    2    0  502  0.59599234036E+02 -0.79584161500E+01  0.37713366432E+03  0.38192577269E+03  0.47000000000E+01 0.  1.
        -11    1    1    2    0    0 -0.46746671252E+02  0.62199100490E+02  0.92614952483E+02  0.12096077380E+03  0.00000000000E+00 0.  1.
         11    1    1    2    0    0  0.37038378938E+02  0.15062220547E+02  0.76463167671E+02  0.86286314167E+02  0.00000000000E+00 0. -1.
<mgrwt>
<rscale>  0 0.13987568E+03</rscale>
<asrwt>0</asrwt>
<pdfrwt beam="1">  1        1 0.19738887E+00 0.14726877E+03</pdfrwt>
<pdfrwt beam="2">  1       -1 0.36979566E-02 0.14726877E+03</pdfrwt>
<totfact> 0.27502093E+03</totfact>
</mgrwt>
</event>
<event>
 6    1  0.9263730E-006  0.2433675E+03  0.7546771E-02  0.1120373E+00
         -2   -1    0    0    0  501 -0.00000000000E+00  0.00000000000E+00  0.14263459878E+03  0.14263459878E+03  0.00000000000E+00 0.  1.
          2   -1    0    0  501    0  0.00000000000E+00 -0.00000000000E+00 -0.43198329380E+03  0.43198329380E+03  0.00000000000E+00 0. -1.
          5    1    1    2  502    0 -0.87686595106E+02  0.12808910214E+02 -0.61792597143E+02  0.10813612812E+03  0.47000000000E+01 0.  1.
         -5    1    1    2    0  502 -0.53321586639E+02  0.14120339682E+03 -0.17952708673E+03  0.23459253130E+03  0.47000000000E+01 0.  1.
        -11    1    1    2    0    0  0.53459882227E+02 -0.12277062735E+03 -0.28266542005E+02  0.13685606799E+03  0.00000000000E+00 0.  1.
         11    1    1    2    0    0  0.87548299518E+02 -0.31241679679E+02 -0.19762469140E+02  0.95033165180E+02  0.00000000000E+00 0. -1.
<mgrwt>
<rscale>  0 0.23913152E+03</rscale>
<asrwt>0</asrwt>
<pdfrwt beam="2">  1        2 0.66458968E-01 0.24336751E+03</pdfrwt>
<pdfrwt beam="1">  1       -2 0.21943785E-01 0.24336751E+03</pdfrwt>
<totfact> 0.13103684E+03</totfact>
</mgrwt>
</event>
<event>
 6    1  0.9263730E-006  0.4653100E+03  0.7546771E-02  0.1023252E+00
         -2   -1    0    0    0  501 -0.00000000000E+00  0.00000000000E+00  0.62906493697E+02  0.62906493697E+02  0.00000000000E+00 0. -1.
          2   -1    0    0  501    0  0.00000000000E+00 -0.00000000000E+00 -0.86045718398E+03  0.86045718398E+03  0.00000000000E+00 0.  1.
          5    1    1    2  502    0  0.61983678273E+02 -0.11911944935E+03 -0.30880465281E+03  0.33676968864E+03  0.47000000000E+01 0. -1.
         -5    1    1    2    0  502  0.99263587543E+01 -0.17685603757E+02 -0.36883594194E+03  0.36942300314E+03  0.47000000000E+01 0. -1.
        -11    1    1    2    0    0 -0.85070019754E+02  0.77495923498E+02 -0.52688303033E+02  0.12656454360E+03  0.00000000000E+00 0.  1.
         11    1    1    2    0    0  0.13159982727E+02  0.59309129612E+02 -0.67221792499E+02  0.90606442307E+02  0.00000000000E+00 0. -1.
<mgrwt>
<rscale>  0 0.46530998E+03</rscale>
<asrwt>0</asrwt>
<pdfrwt beam="2">  1        2 0.13237802E+00 0.46530998E+03</pdfrwt>
<pdfrwt beam="1">  1       -2 0.96779226E-02 0.46530998E+03</pdfrwt>
<totfact> 0.22626370E+03</totfact>
</mgrwt>
</event>
<event>
 6    1  0.9263730E-006  0.1583766E+03  0.7546771E-02  0.1197887E+00
         -2   -1    0    0    0  501 -0.00000000000E+00  0.00000000000E+00  0.23285357429E+02  0.23285357429E+02  0.00000000000E+00 0.  1.
          2   -1    0    0  501    0  0.00000000000E+00 -0.00000000000E+00 -0.14304414322E+04  0.14304414322E+04  0.00000000000E+00 0. -1.
          5    1    1    2  502    0 -0.10030518726E+02  0.88667522472E+02 -0.40856421847E+03  0.41822165351E+03  0.47000000000E+01 0.  1.
         -5    1    1    2    0  502 -0.38442291908E+02 -0.43475501298E+01 -0.76357760319E+03  0.76457148593E+03  0.47000000000E+01 0.  1.
        -11    1    1    2    0    0  0.58066363366E+02 -0.41856252856E+02 -0.69423506446E+02  0.99715955117E+02  0.00000000000E+00 0.  1.
         11    1    1    2    0    0 -0.95935527328E+01 -0.42463719486E+02 -0.16559074661E+03  0.17121769503E+03  0.00000000000E+00 0. -1.
<mgrwt>
<rscale>  0 0.15212399E+03</rscale>
<asrwt>0</asrwt>
<pdfrwt beam="2">  1        2 0.22006801E+00 0.15837664E+03</pdfrwt>
<pdfrwt beam="1">  1       -2 0.35823610E-02 0.15837664E+03</pdfrwt>
<totfact> 0.47779332E+03</totfact>
</mgrwt>
</event>
<event>
 6    1  0.9263730E-006  0.1432928E+03  0.7546771E-02  0.1219517E+00
         -1   -1    0    0    0  501 -0.00000000000E+00  0.00000000000E+00  0.11220628233E+02  0.11220628233E+02  0.00000000000E+00 0.  1.
          1   -1    0    0  501    0  0.00000000000E+00 -0.00000000000E+00 -0.15713302709E+04  0.15713302709E+04  0.00000000000E+00 0. -1.
          5    1    1    2  502    0 -0.42887184289E+02  0.81075785115E+02 -0.89055968012E+03  0.89528276391E+03  0.47000000000E+01 0.  1.
         -5    1    1    2    0  502 -0.12396108300E+02 -0.38042013724E+02 -0.15950769599E+03  0.16451642285E+03  0.47000000000E+01 0.  1.
        -11    1    1    2    0    0 -0.80738646434E+01 -0.47448534100E+02 -0.27984791537E+03  0.28395669813E+03  0.00000000000E+00 0. -1.
         11    1    1    2    0    0  0.63357157232E+02  0.44147627091E+01 -0.23019435122E+03  0.23879501426E+03  0.00000000000E+00 0.  1.
<mgrwt>
<rscale>  0 0.13549890E+03</rscale>
<asrwt>0</asrwt>
<pdfrwt beam="2">  1        1 0.24174298E+00 0.14329278E+03</pdfrwt>
<pdfrwt beam="1">  1       -1 0.17262515E-02 0.14329278E+03</pdfrwt>
<totfact> 0.53761549E+03</totfact>
</mgrwt>
</event>
<event>
 6    1  0.9263730E-006  0.3082868E+03  0.7546771E-02  0.1082491E+00
         -1   -1    0    0    0  501 -0.00000000000E+00  0.00000000000E+00  0.14599893415E+03  0.14599893415E+03  0.00000000000E+00 0.  1.
          1   -1    0    0  501    0  0.00000000000E+00 -0.00000000000E+00 -0.68142876124E+03  0.68142876124E+03  0.00000000000E+00 0. -1.
          5    1    1    2  502    0 -0.11061337029E+02 -0.25410995742E+02 -0.81414081570E+01  0.29265071472E+02  0.47000000000E+01 0. -1.
         -5    1    1    2    0  502 -0.27025904246E+03  0.99642849481E+01 -0.37924296167E+03  0.46581815227E+03  0.47000000000E+01 0. -1.
        -11    1    1    2    0    0  0.15123304660E+03 -0.22223225752E+02 -0.37159730538E+02  0.15730909611E+03  0.00000000000E+00 0.  1.
         11    1    1    2    0    0  0.13008733289E+03  0.37669936546E+02 -0.11088572672E+03  0.17503537554E+03  0.00000000000E+00 0. -1.
<mgrwt>
<rscale>  0 0.30556655E+03</rscale>
<asrwt>0</asrwt>
<pdfrwt beam="2">  1        1 0.10483519E+00 0.30828680E+03</pdfrwt>
<pdfrwt beam="1">  1       -1 0.22461375E-01 0.30828680E+03</pdfrwt>
<totfact> 0.48973463E+02</totfact>
</mgrwt>
</event>
<event>
 6    1  0.9263730E-006  0.1332529E+03  0.7546771E-02  0.1232752E+00
          1   -1    0    0  501    0  0.00000000000E+00  0.00000000000E+00  0.71404372849E+03  0.71404372849E+03  0.00000000000E+00 0. -1.
         -1   -1    0    0    0  501 -0.00000000000E+00 -0.00000000000E+00 -0.20869075003E+02  0.20869075003E+02  0.00000000000E+00 0.  1.
          5    1    1    2  502    0  0.25109535271E+02 -0.50637733091E+01  0.36026611302E+03  0.36120616378E+03  0.47000000000E+01 0.  1.
         -5    1    1    2    0  502 -0.24130334636E+02  0.51207255755E+02  0.75521094833E+02  0.94498581240E+02  0.47000000000E+01 0.  1.
        -11    1    1    2    0    0 -0.35222287963E+02  0.95331007495E+01  0.50944840966E+02  0.62664714156E+02  0.00000000000E+00 0.  1.
         11    1    1    2    0    0  0.34243087327E+02 -0.55676583195E+02  0.20644260466E+03  0.21654334431E+03  0.00000000000E+00 0. -1.
<mgrwt>
<rscale>  0 0.12649450E+03</rscale>
<asrwt>0</asrwt>
<pdfrwt beam="1">  1        1 0.10985286E+00 0.13325286E+03</pdfrwt>
<pdfrwt beam="2">  1       -1 0.32106275E-02 0.13325286E+03</pdfrwt>
<totfact> 0.89551842E+03</totfact>
</mgrwt>
</event>
<event>
 6    1  0.9263730E-006  0.1236033E+03  0.7546771E-02  0.1241026E+00
         -2   -1    0    0    0  501 -0.00000000000E+00  0.00000000000E+00  0.10819834884E+03  0.10819834884E+03  0.00000000000E+00 0.  1.
          2   -1    0    0  501    0  0.00000000000E+00 -0.00000000000E+00 -0.11000451964E+04  0.11000451964E+04  0.00000000000E+00 0. -1.
          5    1    1    2  502    0 -0.21462847524E+02 -0.68962333186E+02 -0.93056273439E+03  0.93337321039E+03  0.47000000000E+01 0. -1.
         -5    1    1    2    0  502 -0.14750098523E+02  0.30766072638E+02 -0.13457717459E+03  0.13891444328E+03  0.47000000000E+01 0.  1.
        -11    1    1    2    0    0  0.42855201422E+02  0.17282501369E+02  0.94654874981E+02  0.10533184941E+03  0.00000000000E+00 0.  1.
         11    1    1    2    0    0 -0.66422553749E+01  0.20913759180E+02 -0.21361813516E+02  0.30624042127E+02  0.00000000000E+00 0. -1.
<mgrwt>
<rscale>  0 0.12126398E+03</rscale>
<asrwt>0</asrwt>
<pdfrwt beam="2">  1        2 0.16923772E+00 0.12360334E+03</pdfrwt>
<pdfrwt beam="1">  1       -2 0.16645900E-01 0.12360334E+03</pdfrwt>
<totfact> 0.66831258E+02</totfact>
</mgrwt>
</event>
<event>
 6    1  0.9263730E-006  0.2159972E+03  0.7546771E-02  0.1165505E+00
         -2   -1    0    0    0  501 -0.00000000000E+00  0.00000000000E+00  0.56103379647E+02  0.56103379647E+02  0.00000000000E+00 0.  1.
          2   -1    0    0  501    0  0.00000000000E+00 -0.00000000000E+00 -0.74871272941E+03  0.74871272941E+03  0.00000000000E+00 0. -1.
          5    1    1    2  502    0  0.64098053597E+02  0.19643301162E+02 -0.60252826139E+03  0.60626464150E+03  0.47000000000E+01 0. -1.
         -5    1    1    2    0  502 -0.52096742938E+02  0.37249085529E+02 -0.50910815140E+02  0.81948557618E+02  0.47000000000E+01 0.  1.
        -11    1    1    2    0    0 -0.37692291384E+02 -0.54750778680E+02 -0.55065296884E+02  0.86316530959E+02  0.00000000000E+00 0.  1.
         11    1    1    2    0    0  0.25690980725E+02 -0.21416080111E+01  0.15895023646E+02  0.30286378988E+02  0.00000000000E+00 0. -1.
<mgrwt>
<rscale>  0 0.18239509E+03</rscale>
<asrwt>0</asrwt>
<pdfrwt beam="2">  1        2 0.11518658E+00 0.21599718E+03</pdfrwt>
<pdfrwt beam="1">  1       -2 0.86312884E-02 0.21599718E+03</pdfrwt>
<totfact> 0.32105814E+03</totfact>
</mgrwt>
</event>
<event>
 6    1  0.9263730E-006  0.1332518E+03  0.7546771E-02  0.1235949E+00
          1   -1    0    0  501    0  0.00000000000E+00  0.00000000000E+00  0.91917209935E+03  0.91917209935E+03  0.00000000000E+00 0. -1.
         -1   -1    0    0    0  501 -0.00000000000E+00 -0.00000000000E+00 -0.15449592499E+02  0.15449592499E+02  0.00000000000E+00 0.  1.
          5    1    1    2  502    0  0.53975364576E+02  0.75148747541E+01  0.10853079008E+03  0.12153532704E+03  0.47000000000E+01 0. -1.
         -5    1    1    2    0  502 -0.27814154027E+02  0.30536520305E+02  0.48457304272E+03  0.48635298906E+03  0.47000000000E+01 0. -1.
        -11    1    1    2    0    0 -0.51611936045E+02 -0.48094634479E+02  0.25740981883E+03  0.26690204315E+03  0.00000000000E+00 0. -1.
         11    1    1    2    0    0  0.25450725496E+02  0.10043239420E+02  0.53208855221E+02  0.59831332596E+02  0.00000000000E+00 0.  1.
<mgrwt>
<rscale>  0 0.12443859E+03</rscale>
<asrwt>0</asrwt>
<pdfrwt beam="1">  1        1 0.14141105E+00 0.13325182E+03</pdfrwt>
<pdfrwt beam="2">  1       -1 0.23768611E-02 0.13325182E+03</pdfrwt>
<totfact> 0.94486216E+03</totfact>
</mgrwt>
</event>
<event>
 6    1  0.9263730E-006  0.1266172E+03  0.7546771E-02  0.1245901E+00
          2   -1    0    0  501    0  0.00000000000E+00  0.00000000000E+00  0.27293949115E+03  0.27293949115E+03  0.00000000000E+00 0. -1.
         -2   -1    0    0    0  501 -0.00000000000E+00 -0.00000000000E+00 -0.45728665389E+02  0.45728665389E+02  0.00000000000E+00 0.  1.
          5    1    1    2  502    0 -0.73131582531E+01  0.41845563201E+02  0.11253385960E+03  0.12037646364E+03  0.47000000000E+01 0.  1.
         -5    1    1    2    0  502  0.19099936061E+02 -0.58183417157E+02  0.24297656769E+02  0.66049857790E+02  0.47000000000E+01 0.  1.
        -11    1    1    2    0    0 -0.31010535844E+01 -0.33893140150E+02  0.73605001364E+01  0.34821522724E+02  0.00000000000E+00 0.  1.
         11    1    1    2    0    0 -0.86857242232E+01  0.50230994106E+02  0.83018809255E+02  0.97420312380E+02  0.00000000000E+00 0. -1.
<mgrwt>
<rscale>  0 0.11831599E+03</rscale>
<asrwt>0</asrwt>
<pdfrwt beam="1">  1        2 0.41990690E-01 0.12661718E+03</pdfrwt>
<pdfrwt beam="2">  1       -2 0.70351795E-02 0.12661718E+03</pdfrwt>
<totfact> 0.13104048E+04</totfact>
</mgrwt>
</event>
<event>
 6    1  0.9263730E-006  0.3357014E+03  0.7546771E-02  0.1068642E+00
         -4   -1    0    0    0  501 -0.00000000000E+00  0.00000000000E+00  0.21671245698E+03  0.21671245698E+03  0.00000000000E+00 0.  1.
          4   -1    0    0  501    0  0.00000000000E+00 -0.00000000000E+00 -0.13000573175E+03  0.13000573175E+03  0.00000000000E+00 0. -1.
          5    1    1    2  502    0 -0.11583397653E+03 -0.27482666401E+02 -0.26420018866E+02  0.12203652924E+03  0.47000000000E+01 0. -1.
         -5    1    1    2    0  502  0.55604957024E+01 -0.32310619144E+02  0.45216426959E+02  0.56049179198E+02  0.47000000000E+01 0. -1.
        -11    1    1    2    0    0  0.74411969573E+02  0.16114550503E+02  0.80426631909E+02  0.11074864818E+03  0.00000000000E+00 0.  1.
         11    1    1    2    0    0  0.35861511257E+02  0.43678735041E+02 -0.12516314773E+02  0.57883832112E+02  0.00000000000E+00 0. -1.
<mgrwt>
<rscale>  0 0.33570142E+03</rscale>
<asrwt>0</asrwt>
<pdfrwt beam="2">  1        4 0.20000882E-01 0.33570142E+03</pdfrwt>
<pdfrwt beam="1">  1       -4 0.33340378E-01 0.33570142E+03</pdfrwt>
<totfact> 0.37563665E+02</totfact>
</mgrwt>
</event>
<event>
 6    1  0.9263730E-006  0.1255656E+03  0.7546771E-02  0.1249357E+00
         -1   -1    0    0    0  501 -0.00000000000E+00  0.00000000000E+00  0.23513017564E+02  0.23513017564E+02  0.00000000000E+00 0.  1.
          1   -1    0    0  501    0  0.00000000000E+00 -0.00000000000E+00 -0.57481347423E+03  0.57481347423E+03  0.00000000000E+00 0. -1.
          5    1    1    2  502    0  0.48696552228E+02 -0.19331642674E+02 -0.11168198104E+03  0.12345048196E+03  0.47000000000E+01 0.  1.
         -5    1    1    2    0  502 -0.59788870192E+02  0.23906121102E+02 -0.30410954646E+03  0.31088730735E+03  0.47000000000E+01 0.  1.
        -11    1    1    2    0    0  0.61397289849E+01 -0.42559534691E+02 -0.31945948833E+02  0.53568217368E+02  0.00000000000E+00 0.  1.
         11    1    1    2    0    0  0.49525889792E+01  0.37985056263E+02 -0.10356298034E+03  0.11042048512E+03  0.00000000000E+00 0. -1.
<mgrwt>
<rscale>  0 0.11628381E+03</rscale>
<asrwt>0</asrwt>
<pdfrwt beam="2">  1        1 0.88432839E-01 0.12556560E+03</pdfrwt>
<pdfrwt beam="1">  1       -1 0.36173875E-02 0.12556560E+03</pdfrwt>
<totfact> 0.10124668E+04</totfact>
</mgrwt>
</event>
<event>
 6    1  0.9263730E-006  0.1919140E+03  0.7546771E-02  0.1161377E+00
         -1   -1    0    0    0  501 -0.00000000000E+00  0.00000000000E+00  0.57520986982E+02  0.57520986982E+02  0.00000000000E+00 0.  1.
          1   -1    0    0  501    0  0.00000000000E+00 -0.00000000000E+00 -0.57670936821E+03  0.57670936821E+03  0.00000000000E+00 0. -1.
          5    1    1    2  502    0 -0.12137723487E+03 -0.35414129085E+02 -0.20625671421E+03  0.24197213856E+03  0.47000000000E+01 0. -1.
         -5    1    1    2    0  502 -0.22212897195E+02  0.59626579780E+02 -0.74168139329E+02  0.97835293783E+02  0.47000000000E+01 0. -1.
        -11    1    1    2    0    0  0.37392928167E+02 -0.42288260613E+02 -0.42941355450E+02  0.70925933695E+02  0.00000000000E+00 0.  1.
         11    1    1    2    0    0  0.10619720390E+03  0.18075809918E+02 -0.19582217224E+03  0.22349698915E+03  0.00000000000E+00 0. -1.
<mgrwt>
<rscale>  0 0.18680231E+03</rscale>
<asrwt>0</asrwt>
<pdfrwt beam="2">  1        1 0.88724521E-01 0.19191402E+03</pdfrwt>
<pdfrwt beam="1">  1       -1 0.88493824E-02 0.19191402E+03</pdfrwt>
<totfact> 0.27076907E+03</totfact>
</mgrwt>
</event>
<event>
 6    1  0.9263730E-006  0.1767207E+03  0.7546771E-02  0.1175770E+00
         -1   -1    0    0    0  501 -0.00000000000E+00  0.00000000000E+00  0.50580831022E+03  0.50580831022E+03  0.00000000000E+00 0.  1.
          1   -1    0    0  501    0  0.00000000000E+00 -0.00000000000E+00 -0.59189039008E+02  0.59189039008E+02  0.00000000000E+00 0. -1.
          5    1    1    2  502    0 -0.10070982327E+03  0.12543666237E+02  0.18159434558E+03  0.20808269609E+03  0.47000000000E+01 0. -1.
         -5    1    1    2    0  502 -0.19557802486E+02  0.21237343123E+02 -0.16647169774E+02  0.33656361100E+02  0.47000000000E+01 0. -1.
        -11    1    1    2    0    0  0.33835131590E+02 -0.12644905656E+02  0.19749566479E+03  0.20077162992E+03  0.00000000000E+00 0.  1.
         11    1    1    2    0    0  0.86432494161E+02 -0.21136103704E+02  0.84176430612E+02  0.12248666212E+03  0.00000000000E+00 0. -1.
<mgrwt>
<rscale>  0 0.17200749E+03</rscale>
<asrwt>0</asrwt>
<pdfrwt beam="2">  1        1 0.91060063E-02 0.17672069E+03</pdfrwt>
<pdfrwt beam="1">  1       -1 0.77816660E-01 0.17672069E+03</pdfrwt>
<totfact> 0.12446381E+03</totfact>
</mgrwt>
</event>
<event>
 6    1  0.9263730E-006  0.4063678E+03  0.7546771E-02  0.1041597E+00
         -1   -1    0    0    0  501 -0.00000000000E+00  0.00000000000E+00  0.58920858002E+02  0.58920858002E+02  0.00000000000E+00 0.  1.
          1   -1    0    0  501    0  0.00000000000E+00 -0.00000000000E+00 -0.70066349248E+03  0.70066349248E+03  0.00000000000E+00 0. -1.
          5    1    1    2  502    0  0.19211279823E+01 -0.11144159201E+02 -0.13491734046E+03  0.13547199627E+03  0.47000000000E+01 0. -1.
         -5    1    1    2    0  502 -0.12639359235E+03 -0.10668727974E+03 -0.18289091514E+03  0.24663473536E+03  0.47000000000E+01 0. -1.
        -11    1    1    2    0    0  0.57642987909E+02  0.13880817832E+02 -0.52332464894E+02  0.79082729092E+02  0.00000000000E+00 0.  1.
         11    1    1    2    0    0  0.66829476458E+02  0.10395062111E+03 -0.27160191398E+03  0.29839488975E+03  0.00000000000E+00 0. -1.
<mgrwt>
<rscale>  0 0.40636778E+03</rscale>
<asrwt>0</asrwt>
<pdfrwt beam="2">  1        1 0.10779438E+00 0.40636778E+03</pdfrwt>
<pdfrwt beam="1">  1       -1 0.90647475E-02 0.40636778E+03</pdfrwt>
<totfact> 0.20046392E+03</totfact>
</mgrwt>
</event>
<event>
 6    1  0.9263730E-006  0.1280963E+03  0.7546771E-02  0.1244843E+00
         -2   -1    0    0    0  501 -0.00000000000E+00  0.00000000000E+00  0.17094255005E+02  0.17094255005E+02  0.00000000000E+00 0.  1.
          2   -1    0    0  501    0  0.00000000000E+00 -0.00000000000E+00 -0.12544794172E+04  0.12544794172E+04  0.00000000000E+00 0. -1.
          5    1    1    2  502    0  0.78720587686E+01 -0.56539807084E+02 -0.54080907323E+03  0.54383385587E+03  0.47000000000E+01 0. -1.
         -5    1    1    2    0  502  0.17786230830E+02  0.67707266636E+02 -0.53951871640E+03  0.54406172381E+03  0.47000000000E+01 0. -1.
        -11    1    1    2    0    0  0.22723684860E+02  0.24034763115E+02 -0.76385022065E+02  0.83238856836E+02  0.00000000000E+00 0. -1.
         11    1    1    2    0    0 -0.48381974458E+02 -0.35202222667E+02 -0.80672350497E+02  0.10043923570E+03  0.00000000000E+00 0.  1.
<mgrwt>
<rscale>  0 0.11894797E+03</rscale>
<asrwt>0</asrwt>
<pdfrwt beam="2">  1        2 0.19299690E+00 0.12809629E+03</pdfrwt>
<pdfrwt beam="1">  1       -2 0.26298844E-02 0.12809629E+03</pdfrwt>
<totfact> 0.92892378E+03</totfact>
</mgrwt>
</event>
<event>
 6    1  0.9263730E-006  0.3662972E+03  0.7546771E-02  0.1057048E+00
          1   -1    0    0  501    0  0.00000000000E+00  0.00000000000E+00  0.12434352951E+03  0.12434352951E+03  0.00000000000E+00 0. -1.
         -1   -1    0    0    0  501 -0.00000000000E+00 -0.00000000000E+00 -0.10670115703E+04  0.10670115703E+04  0.00000000000E+00 0.  1.
          5    1    1    2  502    0  0.49063042557E+02 -0.16024417176E+03 -0.28995485398E+03  0.33493474599E+03  0.47000000000E+01 0. -1.
         -5    1    1    2    0  502  0.37409089887E+02 -0.17303071281E+03 -0.11523852309E+03  0.21128434581E+03  0.47000000000E+01 0. -1.
        -11    1    1    2    0    0 -0.71563655166E+02  0.17478174548E+03 -0.36134019962E+03  0.40772141856E+03  0.00000000000E+00 0.  1.
         11    1    1    2    0    0 -0.14908477278E+02  0.15849313909E+03 -0.17613446409E+03  0.23741458943E+03  0.00000000000E+00 0. -1.
<mgrwt>
<rscale>  0 0.36390488E+03</rscale>
<asrwt>0</asrwt>
<pdfrwt beam="1">  1        1 0.19129774E-01 0.36629718E+03</pdfrwt>
<pdfrwt beam="2">  1       -1 0.16415563E+00 0.36629718E+03</pdfrwt>
<totfact> 0.79631486E+01</totfact>
</mgrwt>
</event>
<event>
 6    1  0.9263730E-006  0.1721112E+03  0.7546771E-02  0.1181507E+00
         -1   -1    0    0    0  501 -0.00000000000E+00  0.00000000000E+00  0.31732507959E+02  0.31732507959E+02  0.00000000000E+00 0.  1.
          1   -1    0    0  501    0  0.00000000000E+00 -0.00000000000E+00 -0.11444387365E+04  0.11444387365E+04  0.00000000000E+00 0. -1.
          5    1    1    2  502    0 -0.73736525376E+02 -0.35099037656E+02 -0.79850831325E+03  0.80268713329E+03  0.47000000000E+01 0. -1.
         -5    1    1    2    0  502 -0.43978803077E+02  0.23189061701E+02 -0.95831588901E+02  0.10806318121E+03  0.47000000000E+01 0. -1.
        -11    1    1    2    0    0  0.12162330954E+03  0.35178016665E+02 -0.19256603149E+03  0.23045910432E+03  0.00000000000E+00 0. -1.
         11    1    1    2    0    0 -0.39079810829E+01 -0.23268040710E+02 -0.25800294875E+02  0.34961825614E+02  0.00000000000E+00 0.  1.
<mgrwt>
<rscale>  0 0.16653824E+03</rscale>
<asrwt>0</asrwt>
<pdfrwt beam="2">  1        1 0.17606751E+00 0.17211123E+03</pdfrwt>
<pdfrwt beam="1">  1       -1 0.48819241E-02 0.17211123E+03</pdfrwt>
<totfact> 0.22764086E+03</totfact>
</mgrwt>
</event>
<event>
 6    1  0.9263730E-006  0.2132052E+03  0.7546771E-02  0.1142821E+00
         -1   -1    0    0    0  501 -0.00000000000E+00  0.00000000000E+00  0.14646964395E+03  0.14646964395E+03  0.00000000000E+00 0.  1.
          1   -1    0    0  501    0  0.00000000000E+00 -0.00000000000E+00 -0.29883527231E+03  0.29883527231E+03  0.00000000000E+00 0. -1.
          5    1    1    2  502    0  0.13229768287E+03  0.39604127524E+02 -0.56172485043E+02  0.14915965234E+03  0.47000000000E+01 0.  1.
         -5    1    1    2    0  502  0.25129837821E+01  0.68366768411E+02 -0.72840151448E+02  0.10004053065E+03  0.47000000000E+01 0.  1.
        -11    1    1    2    0    0 -0.45880942180E+02 -0.31305404285E+02 -0.51080917994E+02  0.75460912901E+02  0.00000000000E+00 0. -1.
         11    1    1    2    0    0 -0.88929724472E+02 -0.76665491650E+02  0.27727926121E+02  0.12064382036E+03  0.00000000000E+00 0.  1.
<mgrwt>
<rscale>  0 0.20842272E+03</rscale>
<asrwt>0</asrwt>
<pdfrwt beam="2">  1        1 0.45974657E-01 0.21320523E+03</pdfrwt>
<pdfrwt beam="1">  1       -1 0.22533792E-01 0.21320523E+03</pdfrwt>
<totfact> 0.14511079E+03</totfact>
</mgrwt>
</event>
<event>
 6    1  0.9263730E-006  0.1413891E+03  0.7546771E-02  0.1222198E+00
          2   -1    0    0  501    0  0.00000000000E+00  0.00000000000E+00  0.57240714033E+03  0.57240714033E+03  0.00000000000E+00 0.  1.
         -2   -1    0    0    0  501 -0.00000000000E+00 -0.00000000000E+00 -0.31678577108E+02  0.31678577108E+02  0.00000000000E+00 0. -1.
          5    1    1    2  502    0  0.95260063245E+01  0.97881418386E+02  0.22723886524E+03  0.24765118360E+03  0.47000000000E+01 0. -1.
         -5    1    1    2    0  502 -0.17705237794E+02 -0.32312685797E+02  0.16969283760E+03  0.17371048973E+03  0.47000000000E+01 0. -1.
        -11    1    1    2    0    0  0.37890519740E+01 -0.50674633855E+02  0.15529821475E+03  0.16340076785E+03  0.00000000000E+00 0.  1.
         11    1    1    2    0    0  0.43901794957E+01 -0.14894098734E+02 -0.11501354366E+02  0.19323276258E+02  0.00000000000E+00 0. -1.
<mgrwt>
<rscale>  0 0.13360801E+03</rscale>
<asrwt>0</asrwt>
<pdfrwt beam="1">  1        2 0.88062629E-01 0.14138912E+03</pdfrwt>
<pdfrwt beam="2">  1       -2 0.48736277E-02 0.14138912E+03</pdfrwt>
<totfact> 0.10380051E+04</totfact>
</mgrwt>
</event>
<event>
 6    1  0.9263730E-006  0.1538324E+03  0.7546771E-02  0.1204303E+00
          1   -1    0    0  501    0  0.00000000000E+00  0.00000000000E+00  0.53772678541E+03  0.53772678541E+03  0.00000000000E+00 0. -1.
         -1   -1    0    0    0  501 -0.00000000000E+00 -0.00000000000E+00 -0.36976714897E+02  0.36976714897E+02  0.00000000000E+00 0.  1.
          5    1    1    2  502    0  0.28381652363E+00  0.33571967697E+02  0.15275318148E+03  0.15646974794E+03  0.47000000000E+01 0. -1.
         -5    1    1    2    0  502  0.87120079276E+02 -0.53587070267E+02  0.13063544401E+03  0.16597949134E+03  0.47000000000E+01 0. -1.
        -11    1    1    2    0    0 -0.87953481984E+02  0.40936416468E+02  0.20762477687E+03  0.22917166744E+03  0.00000000000E+00 0.  1.
         11    1    1    2    0    0  0.54958618454E+00 -0.20921313898E+02  0.97366681438E+01  0.23082593588E+02  0.00000000000E+00 0. -1.
<mgrwt>
<rscale>  0 0.14692498E+03</rscale>
<asrwt>0</asrwt>
<pdfrwt beam="1">  1        1 0.82727192E-01 0.15383237E+03</pdfrwt>
<pdfrwt beam="2">  1       -1 0.56887257E-02 0.15383237E+03</pdfrwt>
<totfact> 0.57459080E+03</totfact>
</mgrwt>
</event>
<event>
 6    1  0.9263730E-006  0.1594172E+03  0.7546771E-02  0.1197525E+00
         -1   -1    0    0    0  501 -0.00000000000E+00  0.00000000000E+00  0.77699716116E+02  0.77699716116E+02  0.00000000000E+00 0.  1.
          1   -1    0    0  501    0  0.00000000000E+00 -0.00000000000E+00 -0.66256367493E+03  0.66256367493E+03  0.00000000000E+00 0. -1.
          5    1    1    2  502    0  0.67515798256E+02  0.55663983499E+02 -0.17257436693E+03  0.19354809272E+03  0.47000000000E+01 0.  1.
         -5    1    1    2    0  502  0.15757954038E+02 -0.22502409909E+01 -0.41314626792E+03  0.41347951025E+03  0.47000000000E+01 0.  1.
        -11    1    1    2    0    0 -0.92966562667E+02 -0.50726466959E+02  0.23480163634E+02  0.10847706812E+03  0.00000000000E+00 0.  1.
         11    1    1    2    0    0  0.96928103731E+01 -0.26872755485E+01 -0.22623487596E+02  0.24758719955E+02  0.00000000000E+00 0. -1.
<mgrwt>
<rscale>  0 0.15242436E+03</rscale>
<asrwt>0</asrwt>
<pdfrwt beam="2">  1        1 0.10193287E+00 0.15941722E+03</pdfrwt>
<pdfrwt beam="1">  1       -1 0.11953802E-01 0.15941722E+03</pdfrwt>
<totfact> 0.14010788E+03</totfact>
</mgrwt>
</event>
<event>
 6    1  0.9263730E-006  0.2835911E+03  0.7546771E-02  0.1093744E+00
          2   -1    0    0  501    0  0.00000000000E+00  0.00000000000E+00  0.80873992885E+03  0.80873992885E+03  0.00000000000E+00 0. -1.
         -2   -1    0    0    0  501 -0.00000000000E+00 -0.00000000000E+00 -0.24860865325E+02  0.24860865325E+02  0.00000000000E+00 0.  1.
          5    1    1    2  502    0  0.97804348782E+01 -0.29118417103E+02  0.20102606875E+03  0.20341364123E+03  0.47000000000E+01 0.  1.
         -5    1    1    2    0  502 -0.37280738011E+02  0.10560091149E+03  0.35661539959E+03  0.37381551487E+03  0.47000000000E+01 0.  1.
        -11    1    1    2    0    0 -0.20526070513E+02 -0.30022680927E+02  0.15286433912E+03  0.15713111441E+03  0.00000000000E+00 0. -1.
         11    1    1    2    0    0  0.48026373646E+02 -0.46459813456E+02  0.73373256066E+02  0.99240523666E+02  0.00000000000E+00 0.  1.
<mgrwt>
<rscale>  0 0.28359107E+03</rscale>
<asrwt>0</asrwt>
<pdfrwt beam="1">  1        2 0.12442151E+00 0.28359107E+03</pdfrwt>
<pdfrwt beam="2">  1       -2 0.38247491E-02 0.28359107E+03</pdfrwt>
<totfact> 0.10267999E+04</totfact>
</mgrwt>
</event>
<event>
 6    1  0.9263730E-006  0.1918367E+03  0.7546771E-02  0.1185985E+00
         -1   -1    0    0    0  501 -0.00000000000E+00  0.00000000000E+00  0.23000236994E+02  0.23000236994E+02  0.00000000000E+00 0.  1.
          1   -1    0    0  501    0  0.00000000000E+00 -0.00000000000E+00 -0.11148588555E+04  0.11148588555E+04  0.00000000000E+00 0. -1.
          5    1    1    2  502    0  0.60645571552E+01  0.78464033595E+02 -0.28296741494E+03  0.29374484053E+03  0.47000000000E+01 0. -1.
         -5    1    1    2    0  502 -0.38860611648E+02 -0.10016828541E+03 -0.63651090879E+03  0.64553238458E+03  0.47000000000E+01 0.  1.
        -11    1    1    2    0    0 -0.14646638675E+02 -0.12926269543E+02 -0.11437300054E+03  0.11602928820E+03  0.00000000000E+00 0.  1.
         11    1    1    2    0    0  0.47442693167E+02  0.34630521358E+02 -0.58007294256E+02  0.82552579192E+02  0.00000000000E+00 0. -1.
<mgrwt>
<rscale>  0 0.16242613E+03</rscale>
<asrwt>0</asrwt>
<pdfrwt beam="2">  1        1 0.17151673E+00 0.19183670E+03</pdfrwt>
<pdfrwt beam="1">  1       -1 0.35384983E-02 0.19183670E+03</pdfrwt>
<totfact> 0.38547987E+03</totfact>
</mgrwt>
</event>
<event>
 6    1  0.9263730E-006  0.1339894E+03  0.7546771E-02  0.1234720E+00
          2   -1    0    0  501    0  0.00000000000E+00  0.00000000000E+00  0.72305824941E+02  0.72305824941E+02  0.00000000000E+00 0.  1.
         -2   -1    0    0    0  501 -0.00000000000E+00 -0.00000000000E+00 -0.22523644262E+03  0.22523644262E+03  0.00000000000E+00 0. -1.
          5    1    1    2  502    0 -0.21047823747E+02  0.66248191360E+02 -0.11441316557E+02  0.70603310599E+02  0.47000000000E+01 0.  1.
         -5    1    1    2    0  502  0.55206711297E+02 -0.32249232548E+02 -0.17912178004E+02  0.66563729560E+02  0.47000000000E+01 0.  1.
        -11    1    1    2    0    0 -0.55635391062E+02 -0.76420696674E+01 -0.11049377907E+03  0.12394584777E+03  0.00000000000E+00 0. -1.
         11    1    1    2    0    0  0.21476503512E+02 -0.26356889145E+02 -0.13083344046E+02  0.36429379626E+02  0.00000000000E+00 0.  1.
<mgrwt>
<rscale>  0 0.12522377E+03</rscale>
<asrwt>0</asrwt>
<pdfrwt beam="1">  1        2 0.11123973E-01 0.13398944E+03</pdfrwt>
<pdfrwt beam="2">  1       -2 0.34651761E-01 0.13398944E+03</pdfrwt>
<totfact> 0.41887943E+03</totfact>
</mgrwt>
</event>
<event>
 6    1  0.9263730E-006  0.1303062E+03  0.7546771E-02  0.1237956E+00
          2   -1    0    0  501    0  0.00000000000E+00  0.00000000000E+00  0.99944382343E+02  0.99944382343E+02  0.00000000000E+00 0. -1.
         -2   -1    0    0    0  501 -0.00000000000E+00 -0.00000000000E+00 -0.24915590763E+03  0.24915590763E+03  0.00000000000E+00 0.  1.
          5    1    1    2  502    0 -0.11916441881E+02  0.21962915958E+02  0.74281831943E+02  0.78512749419E+02  0.47000000000E+01 0. -1.
         -5    1    1    2    0  502  0.36138555063E+02  0.23588739185E+02 -0.36980810596E+02  0.57027135039E+02  0.47000000000E+01 0.  1.
        -11    1    1    2    0    0 -0.22538344438E+02  0.14452336416E+02 -0.12621042355E+02  0.29599623444E+02  0.00000000000E+00 0. -1.
         11    1    1    2    0    0 -0.16837687448E+01 -0.60003991559E+02 -0.17389150428E+03  0.18396078207E+03  0.00000000000E+00 0.  1.
<mgrwt>
<rscale>  0 0.12317078E+03</rscale>
<asrwt>0</asrwt>
<pdfrwt beam="1">  1        2 0.15376059E-01 0.13030616E+03</pdfrwt>
<pdfrwt beam="2">  1       -2 0.38331678E-01 0.13030616E+03</pdfrwt>
<totfact> 0.23590646E+03</totfact>
</mgrwt>
</event>
<event>
 6    1  0.9263730E-006  0.1339709E+03  0.7546771E-02  0.1228146E+00
         -2   -1    0    0    0  501 -0.00000000000E+00  0.00000000000E+00  0.95058317121E+02  0.95058317121E+02  0.00000000000E+00 0.  1.
          2   -1    0    0  501    0  0.00000000000E+00 -0.00000000000E+00 -0.22352779554E+03  0.22352779554E+03  0.00000000000E+00 0. -1.
          5    1    1    2  502    0 -0.40505558832E+02  0.47577530347E+02 -0.14358372663E+03  0.15666109359E+03  0.47000000000E+01 0. -1.
         -5    1    1    2    0  502  0.20332435338E+02 -0.37498797482E+02 -0.46868226814E+01  0.43169712140E+02  0.47000000000E+01 0.  1.
        -11    1    1    2    0    0 -0.13949560244E+02  0.47755335396E+02  0.11790926250E+02  0.51129132905E+02  0.00000000000E+00 0.  1.
         11    1    1    2    0    0  0.34122683739E+02 -0.57834068260E+02  0.80101446420E+01  0.67626174032E+02  0.00000000000E+00 0. -1.
<mgrwt>
<rscale>  0 0.12953598E+03</rscale>
<asrwt>0</asrwt>
<pdfrwt beam="2">  1        2 0.34388891E-01 0.13397087E+03</pdfrwt>
<pdfrwt beam="1">  1       -2 0.14624357E-01 0.13397087E+03</pdfrwt>
<totfact> 0.51452579E+03</totfact>
</mgrwt>
</event>
<event>
 6    1  0.9263730E-006  0.1198714E+03  0.7546771E-02  0.1256804E+00
         -1   -1    0    0    0  501 -0.00000000000E+00  0.00000000000E+00  0.35905435080E+02  0.35905435080E+02  0.00000000000E+00 0.  1.
          1   -1    0    0  501    0  0.00000000000E+00 -0.00000000000E+00 -0.39016765628E+03  0.39016765628E+03  0.00000000000E+00 0. -1.
          5    1    1    2  502    0  0.47037343013E+02 -0.30655225288E+02 -0.19167383109E+03  0.19978288715E+03  0.47000000000E+01 0. -1.
         -5    1    1    2    0  502 -0.53914373938E+02  0.20479348628E+02 -0.99532221248E+02  0.11512999828E+03  0.47000000000E+01 0.  1.
        -11    1    1    2    0    0  0.25305910231E+02 -0.20503441795E+01 -0.79593830624E+02  0.83545023055E+02  0.00000000000E+00 0. -1.
         11    1    1    2    0    0 -0.18428879305E+02  0.12226220839E+02  0.16537661761E+02  0.27615182871E+02  0.00000000000E+00 0.  1.
<mgrwt>
<rscale>  0 0.11205870E+03</rscale>
<asrwt>0</asrwt>
<pdfrwt beam="2">  1        1 0.60025790E-01 0.11987143E+03</pdfrwt>
<pdfrwt beam="1">  1       -1 0.55239134E-02 0.11987143E+03</pdfrwt>
<totfact> 0.89276319E+03</totfact>
</mgrwt>
</event>
<event>
 6    1  0.9263730E-006  0.3063293E+03  0.7546771E-02  0.1083616E+00
         -2   -1    0    0    0  501 -0.00000000000E+00  0.00000000000E+00  0.65462291908E+02  0.65462291908E+02  0.00000000000E+00 0.  1.
          2   -1    0    0  501    0  0.00000000000E+00 -0.00000000000E+00 -0.14067147327E+04  0.14067147327E+04  0.00000000000E+00 0. -1.
          5    1    1    2  502    0  0.12420738444E+03 -0.18539358490E+03 -0.47868071266E+03  0.52816244692E+03  0.47000000000E+01 0.  1.
         -5    1    1    2    0  502  0.67869852046E+02 -0.17874535605E+02 -0.31091300977E+03  0.31877077263E+03  0.47000000000E+01 0.  1.
        -11    1    1    2    0    0 -0.28823604967E+02  0.34196567791E+02 -0.18028358541E+03  0.18574815375E+03  0.00000000000E+00 0.  1.
         11    1    1    2    0    0 -0.16325363152E+03  0.16907155271E+03 -0.37137513296E+03  0.43949565131E+03  0.00000000000E+00 0. -1.
<mgrwt>
<rscale>  0 0.30327225E+03</rscale>
<asrwt>0</asrwt>
<pdfrwt beam="2">  1        2 0.21641767E+00 0.30632929E+03</pdfrwt>
<pdfrwt beam="1">  1       -2 0.10071121E-01 0.30632929E+03</pdfrwt>
<totfact> 0.10047987E+03</totfact>
</mgrwt>
</event>
<event>
 6    1  0.9263730E-006  0.1363257E+03  0.7546771E-02  0.1236380E+00
          2   -1    0    0  501    0  0.00000000000E+00  0.00000000000E+00  0.52408747238E+03  0.52408747238E+03  0.00000000000E+00 0. -1.
         -2   -1    0    0    0  501 -0.00000000000E+00 -0.00000000000E+00 -0.27562185104E+02  0.27562185104E+02  0.00000000000E+00 0.  1.
          5    1    1    2  502    0  0.23456651689E+02 -0.26017003435E+02  0.43174991525E+02  0.55796674358E+02  0.47000000000E+01 0.  1.
         -5    1    1    2    0  502 -0.44248043327E+02  0.76320011909E+02  0.32549875076E+03  0.33727460667E+03  0.47000000000E+01 0.  1.
        -11    1    1    2    0    0  0.43257622839E+02 -0.54979943064E+01  0.56095276760E+02  0.71050193173E+02  0.00000000000E+00 0.  1.
         11    1    1    2    0    0 -0.22466231201E+02 -0.44805014167E+02  0.71756268232E+02  0.87528183286E+02  0.00000000000E+00 0. -1.
<mgrwt>
<rscale>  0 0.12416534E+03</rscale>
<asrwt>0</asrwt>
<pdfrwt beam="1">  1        2 0.80628835E-01 0.13632573E+03</pdfrwt>
<pdfrwt beam="2">  1       -2 0.42403366E-02 0.13632573E+03</pdfrwt>
<totfact> 0.14068795E+04</totfact>
</mgrwt>
</event>
<event>
 6    1  0.9263730E-006  0.1330996E+03  0.7546771E-02  0.1234810E+00
         -1   -1    0    0    0  501 -0.00000000000E+00  0.00000000000E+00  0.76787903265E+02  0.76787903265E+02  0.00000000000E+00 0.  1.
          1   -1    0    0  501    0  0.00000000000E+00 -0.00000000000E+00 -0.19855781094E+03  0.19855781094E+03  0.00000000000E+00 0. -1.
          5    1    1    2  502    0  0.82710165385E+01 -0.46231145782E+02 -0.88114483852E+02  0.99959896056E+02  0.47000000000E+01 0. -1.
         -5    1    1    2    0  502  0.36138693448E+02  0.57180445166E+02 -0.17706505440E+02  0.70080088530E+02  0.47000000000E+01 0. -1.
        -11    1    1    2    0    0 -0.33325044175E+02  0.39728818667E+02 -0.35988692495E+01  0.51979702402E+02  0.00000000000E+00 0.  1.
         11    1    1    2    0    0 -0.11084665811E+02 -0.50678118051E+02 -0.12350049135E+02  0.53326027219E+02  0.00000000000E+00 0. -1.
<mgrwt>
<rscale>  0 0.12516587E+03</rscale>
<asrwt>0</asrwt>
<pdfrwt beam="2">  1        1 0.30547355E-01 0.13309964E+03</pdfrwt>
<pdfrwt beam="1">  1       -1 0.11813524E-01 0.13309964E+03</pdfrwt>
<totfact> 0.65990502E+03</totfact>
</mgrwt>
</event>
<event>
 6    1  0.9263730E-006  0.1450178E+03  0.7546771E-02  0.1216342E+00
         -1   -1    0    0    0  501 -0.00000000000E+00  0.00000000000E+00  0.30742240932E+03  0.30742240932E+03  0.00000000000E+00 0.  1.
          1   -1    0    0  501    0  0.00000000000E+00 -0.00000000000E+00 -0.56463107879E+02  0.56463107879E+02  0.00000000000E+00 0. -1.
          5    1    1    2  502    0  0.41419576097E+02  0.10078816795E+03  0.93223211725E+02  0.14347994037E+03  0.47000000000E+01 0. -1.
         -5    1    1    2    0  502 -0.12877968096E+02 -0.33030496522E+02  0.36334113138E+02  0.50981501942E+02  0.47000000000E+01 0. -1.
        -11    1    1    2    0    0 -0.57188727508E+02 -0.48325829175E+02  0.49882236439E+02  0.89967626575E+02  0.00000000000E+00 0. -1.
         11    1    1    2    0    0  0.28647119506E+02 -0.19431842255E+02  0.71519740143E+02  0.79456448320E+02  0.00000000000E+00 0.  1.
<mgrwt>
<rscale>  0 0.13778445E+03</rscale>
<asrwt>0</asrwt>
<pdfrwt beam="2">  1        1 0.86866322E-02 0.14501776E+03</pdfrwt>
<pdfrwt beam="1">  1       -1 0.47295754E-01 0.14501776E+03</pdfrwt>
<totfact> 0.34150413E+03</totfact>
</mgrwt>
</event>
<event>
 6    1  0.9263730E-006  0.1842693E+03  0.7546771E-02  0.1168903E+00
         -1   -1    0    0    0  501 -0.00000000000E+00  0.00000000000E+00  0.39978228980E+02  0.39978228980E+02  0.00000000000E+00 0.  1.
          1   -1    0    0  501    0  0.00000000000E+00 -0.00000000000E+00 -0.84190735380E+03  0.84190735380E+03  0.00000000000E+00 0. -1.
          5    1    1    2  502    0 -0.23977375771E+02 -0.12491491787E+03 -0.29471245164E+03  0.32102362904E+03  0.47000000000E+01 0. -1.
         -5    1    1    2    0  502  0.39484470531E+02 -0.95791111882E+01 -0.26770073646E+03  0.27080723234E+03  0.47000000000E+01 0. -1.
        -11    1    1    2    0    0 -0.26599912111E+02  0.70761855567E+01 -0.14208435901E+02  0.30975916081E+02  0.00000000000E+00 0.  1.
         11    1    1    2    0    0  0.11092817351E+02  0.12741784350E+03 -0.22530750083E+03  0.25907880532E+03  0.00000000000E+00 0. -1.
<mgrwt>
<rscale>  0 0.17886828E+03</rscale>
<asrwt>0</asrwt>
<pdfrwt beam="2">  1        1 0.12952420E+00 0.18426930E+03</pdfrwt>
<pdfrwt beam="1">  1       -1 0.61504974E-02 0.18426930E+03</pdfrwt>
<totfact> 0.27121599E+03</totfact>
</mgrwt>
</event>
<event>
 6    1  0.9263730E-006  0.1267003E+03  0.7546771E-02  0.1249715E+00
         -2   -1    0    0    0  501 -0.00000000000E+00  0.00000000000E+00  0.24371556520E+02  0.24371556520E+02  0.00000000000E+00 0.  1.
          2   -1    0    0  501    0  0.00000000000E+00 -0.00000000000E+00 -0.75295852502E+03  0.75295852502E+03  0.00000000000E+00 0. -1.
          5    1    1    2  502    0 -0.10061418048E+01 -0.27844244967E+02 -0.54177105251E+03  0.54250739869E+03  0.47000000000E+01 0. -1.
         -5    1    1    2    0  502  0.41485730069E+01  0.48295352468E+02 -0.95101712152E+02  0.10684604523E+03  0.47000000000E+01 0. -1.
        -11    1    1    2    0    0 -0.80741546311E-02 -0.41023485767E+02 -0.97998586012E+02  0.10623864321E+03  0.00000000000E+00 0. -1.
         11    1    1    2    0    0 -0.31343570475E+01  0.20572378266E+02  0.62843821727E+01  0.21737994409E+02  0.00000000000E+00 0.  1.
<mgrwt>
<rscale>  0 0.11607587E+03</rscale>
<asrwt>0</asrwt>
<pdfrwt beam="2">  1        2 0.11583978E+00 0.12670034E+03</pdfrwt>
<pdfrwt beam="1">  1       -2 0.37494700E-02 0.12670034E+03</pdfrwt>
<totfact> 0.11062978E+04</totfact>
</mgrwt>
</event>
<event>
 6    1  0.9263730E-006  0.1250869E+03  0.7546771E-02  0.1250217E+00
         -1   -1    0    0    0  501 -0.00000000000E+00  0.00000000000E+00  0.14914295732E+02  0.14914295732E+02  0.00000000000E+00 0.  1.
          1   -1    0    0  501    0  0.00000000000E+00 -0.00000000000E+00 -0.80525638394E+03  0.80525638394E+03  0.00000000000E+00 0. -1.
          5    1    1    2  502    0  0.26414163332E+02  0.58351399630E+02 -0.23044477447E+03  0.23922683366E+03  0.47000000000E+01 0. -1.
         -5    1    1    2    0  502 -0.23651463976E+02 -0.54679059860E+02 -0.28218942690E+03  0.28844783582E+03  0.47000000000E+01 0. -1.
        -11    1    1    2    0    0  0.32362673414E+02 -0.25354025935E+02 -0.74049292836E+02  0.84696322418E+02  0.00000000000E+00 0.  1.
         11    1    1    2    0    0 -0.35125372769E+02  0.21681686164E+02 -0.20365859401E+03  0.20779968778E+03  0.00000000000E+00 0. -1.
<mgrwt>
<rscale>  0 0.11578486E+03</rscale>
<asrwt>0</asrwt>
<pdfrwt beam="2">  1        1 0.12388559E+00 0.12508690E+03</pdfrwt>
<pdfrwt beam="1">  1       -1 0.22945072E-02 0.12508690E+03</pdfrwt>
<totfact> 0.12164908E+04</totfact>
</mgrwt>
</event>
<event>
 6    1  0.9263730E-006  0.2624797E+03  0.7546771E-02  0.1105662E+00
          2   -1    0    0  501    0  0.00000000000E+00  0.00000000000E+00  0.76515368686E+03  0.76515368686E+03  0.00000000000E+00 0. -1.
         -2   -1    0    0    0  501 -0.00000000000E+00 -0.00000000000E+00 -0.22510374735E+02  0.22510374735E+02  0.00000000000E+00 0.  1.
          5    1    1    2  502    0 -0.61799666931E+02  0.72603119215E+02  0.46305478616E+03  0.47279195925E+03  0.47000000000E+01 0. -1.
         -5    1    1    2    0  502  0.18969713826E+02 -0.16210420543E+02  0.23740006269E+02  0.34760691513E+02  0.47000000000E+01 0. -1.
        -11    1    1    2    0    0  0.58099470274E+02 -0.36499316685E+01  0.14927445483E+03  0.16022400978E+03  0.00000000000E+00 0.  1.
         11    1    1    2    0    0 -0.15269517169E+02 -0.52742767004E+02  0.10657406488E+03  0.11988740105E+03  0.00000000000E+00 0. -1.
<mgrwt>
<rscale>  0 0.26247968E+03</rscale>
<asrwt>0</asrwt>
<pdfrwt beam="1">  1        2 0.11771593E+00 0.26247968E+03</pdfrwt>
<pdfrwt beam="2">  1       -2 0.34631352E-02 0.26247968E+03</pdfrwt>
<totfact> 0.12744870E+04</totfact>
</mgrwt>
</event>
<event>
 6    1  0.9263730E-006  0.1603310E+03  0.7546771E-02  0.1194949E+00
          1   -1    0    0  501    0  0.00000000000E+00  0.00000000000E+00  0.19578732968E+03  0.19578732968E+03  0.00000000000E+00 0. -1.
         -1   -1    0    0    0  501 -0.00000000000E+00 -0.00000000000E+00 -0.13378516178E+03  0.13378516178E+03  0.00000000000E+00 0.  1.
          5    1    1    2  502    0 -0.24384678960E+02 -0.37831337221E+02 -0.26078189971E+02  0.52230112350E+02  0.47000000000E+01 0.  1.
         -5    1    1    2    0  502 -0.43569261374E+02 -0.36068269337E+02  0.12212268026E+03  0.13466714382E+03  0.47000000000E+01 0.  1.
        -11    1    1    2    0    0  0.50925430182E+01  0.11392546662E+02 -0.50925903763E+02  0.52432545121E+02  0.00000000000E+00 0.  1.
         11    1    1    2    0    0  0.62861397316E+02  0.62507059896E+02  0.16883581376E+02  0.90242690171E+02  0.00000000000E+00 0. -1.
<mgrwt>
<rscale>  0 0.15458535E+03</rscale>
<asrwt>0</asrwt>
<pdfrwt beam="1">  1        1 0.30121128E-01 0.16033103E+03</pdfrwt>
<pdfrwt beam="2">  1       -1 0.20582333E-01 0.16033103E+03</pdfrwt>
<totfact> 0.28284950E+03</totfact>
</mgrwt>
</event>
<event>
 6    1  0.9263730E-006  0.1796629E+03  0.7546771E-02  0.1173987E+00
          1   -1    0    0  501    0  0.00000000000E+00  0.00000000000E+00  0.19728493683E+03  0.19728493683E+03  0.00000000000E+00 0. -1.
         -1   -1    0    0    0  501 -0.00000000000E+00 -0.00000000000E+00 -0.15107545310E+03  0.15107545310E+03  0.00000000000E+00 0.  1.
          5    1    1    2  502    0  0.10752879835E+03 -0.75354599129E+02  0.10387679535E+02  0.13179814858E+03  0.47000000000E+01 0. -1.
         -5    1    1    2    0  502 -0.18341871914E+02 -0.17910639139E+02  0.52393014940E+02  0.58517803053E+02  0.47000000000E+01 0. -1.
        -11    1    1    2    0    0 -0.13633103375E+02  0.10505843853E+02 -0.40013758326E+02  0.43558410417E+02  0.00000000000E+00 0.  1.
         11    1    1    2    0    0 -0.75553823059E+02  0.82759394415E+02  0.23442547577E+02  0.11448602788E+03  0.00000000000E+00 0. -1.
<mgrwt>
<rscale>  0 0.17375544E+03</rscale>
<asrwt>0</asrwt>
<pdfrwt beam="1">  1        1 0.30351529E-01 0.17966287E+03</pdfrwt>
<pdfrwt beam="2">  1       -1 0.23242377E-01 0.17966287E+03</pdfrwt>
<totfact> 0.23085014E+03</totfact>
</mgrwt>
</event>
<event>
 6    1  0.9263730E-006  0.1898253E+03  0.7546771E-02  0.1163367E+00
         -2   -1    0    0    0  501 -0.00000000000E+00  0.00000000000E+00  0.36031016542E+02  0.36031016542E+02  0.00000000000E+00 0.  1.
          2   -1    0    0  501    0  0.00000000000E+00 -0.00000000000E+00 -0.96880849997E+03  0.96880849997E+03  0.00000000000E+00 0. -1.
          5    1    1    2  502    0  0.63155829383E+01 -0.73994608089E+02 -0.46190420430E+03  0.46785967188E+03  0.47000000000E+01 0. -1.
         -5    1    1    2    0  502 -0.69230875716E+02 -0.54294945155E+02 -0.16363837748E+03  0.18585064919E+03  0.47000000000E+01 0. -1.
        -11    1    1    2    0    0  0.62667470002E+02  0.89019367217E+02 -0.28699529886E+03  0.30694944389E+03  0.00000000000E+00 0. -1.
         11    1    1    2    0    0  0.24782277602E+00  0.39270186027E+02 -0.20239602791E+02  0.44179751560E+02  0.00000000000E+00 0.  1.
<mgrwt>
<rscale>  0 0.18466089E+03</rscale>
<asrwt>0</asrwt>
<pdfrwt beam="2">  1        2 0.14904745E+00 0.18982535E+03</pdfrwt>
<pdfrwt beam="1">  1       -2 0.55432338E-02 0.18982535E+03</pdfrwt>
<totfact> 0.45357539E+03</totfact>
</mgrwt>
</event>
<event>
 6    1  0.9263730E-006  0.1358546E+03  0.7546771E-02  0.1231911E+00
          2   -1    0    0  501    0  0.00000000000E+00  0.00000000000E+00  0.76560502650E+02  0.76560502650E+02  0.00000000000E+00 0. -1.
         -2   -1    0    0    0  501 -0.00000000000E+00 -0.00000000000E+00 -0.18830923628E+03  0.18830923628E+03  0.00000000000E+00 0.  1.
          5    1    1    2  502    0  0.27052735718E+02  0.78466836068E+02 -0.45042136041E+02  0.94550403973E+02  0.47000000000E+01 0.  1.
         -5    1    1    2    0  502 -0.42833130261E+02 -0.27636247325E+02 -0.10711994967E+02  0.52299866638E+02  0.47000000000E+01 0.  1.
        -11    1    1    2    0    0  0.15778147917E+02 -0.27424085874E+02 -0.79061328046E+02  0.85157055081E+02  0.00000000000E+00 0.  1.
         11    1    1    2    0    0  0.22466267419E-02 -0.23406502870E+02  0.23066725428E+02  0.32862413235E+02  0.00000000000E+00 0. -1.
<mgrwt>
<rscale>  0 0.12704266E+03</rscale>
<asrwt>0</asrwt>
<pdfrwt beam="1">  1        2 0.11778539E-01 0.13585462E+03</pdfrwt>
<pdfrwt beam="2">  1       -2 0.28970651E-01 0.13585462E+03</pdfrwt>
<totfact> 0.54151390E+03</totfact>
</mgrwt>
</event>
<event>
 6    1  0.9263730E-006  0.1301296E+03  0.7546771E-02  0.1235237E+00
         -1   -1    0    0    0  501 -0.00000000000E+00  0.00000000000E+00  0.25166625308E+02  0.25166625308E+02  0.00000000000E+00 0.  1.
          1   -1    0    0  501    0  0.00000000000E+00 -0.00000000000E+00 -0.70517478446E+03  0.70517478446E+03  0.00000000000E+00 0. -1.
          5    1    1    2  502    0 -0.27006591154E+01  0.45969460318E+02 -0.44967386676E+03  0.45204995442E+03  0.47000000000E+01 0. -1.
         -5    1    1    2    0  502  0.34809187741E+02 -0.29305652446E+02 -0.69646983168E+02  0.83326424865E+02  0.47000000000E+01 0. -1.
        -11    1    1    2    0    0 -0.66561237038E+02  0.35524805091E+01 -0.12374396721E+03  0.14055457237E+03  0.00000000000E+00 0.  1.
         11    1    1    2    0    0  0.34452708412E+02 -0.20216288381E+02 -0.36943342014E+02  0.54410458112E+02  0.00000000000E+00 0. -1.
<mgrwt>
<rscale>  0 0.12489265E+03</rscale>
<asrwt>0</asrwt>
<pdfrwt beam="2">  1        1 0.10848842E+00 0.13012964E+03</pdfrwt>
<pdfrwt beam="1">  1       -1 0.38717888E-02 0.13012964E+03</pdfrwt>
<totfact> 0.69245523E+03</totfact>
</mgrwt>
</event>
<event>
 6    1  0.9263730E-006  0.1879110E+03  0.7546771E-02  0.1165405E+00
         -1   -1    0    0    0  501 -0.00000000000E+00  0.00000000000E+00  0.39413405086E+02  0.39413405086E+02  0.00000000000E+00 0.  1.
          1   -1    0    0  501    0  0.00000000000E+00 -0.00000000000E+00 -0.80567448524E+03  0.80567448524E+03  0.00000000000E+00 0. -1.
          5    1    1    2  502    0 -0.40799552040E+02  0.47565141178E+02 -0.19816715803E+03  0.20789266131E+03  0.47000000000E+01 0. -1.
         -5    1    1    2    0  502 -0.97277399107E+02 -0.72450233362E+02 -0.24313413163E+03  0.27175029836E+03  0.47000000000E+01 0. -1.
        -11    1    1    2    0    0 -0.11721860608E+00 -0.20874954721E+02 -0.30408705745E+02  0.36884507044E+02  0.00000000000E+00 0. -1.
         11    1    1    2    0    0  0.13819416975E+03  0.45760046905E+02 -0.29455108474E+03  0.32856042362E+03  0.00000000000E+00 0.  1.
<mgrwt>
<rscale>  0 0.18250050E+03</rscale>
<asrwt>0</asrwt>
<pdfrwt beam="2">  1        1 0.12394990E+00 0.18791099E+03</pdfrwt>
<pdfrwt beam="1">  1       -1 0.60636016E-02 0.18791099E+03</pdfrwt>
<totfact> 0.29669834E+03</totfact>
</mgrwt>
</event>
<event>
 6    1  0.9263730E-006  0.2119640E+03  0.7546771E-02  0.1143747E+00
          1   -1    0    0  501    0  0.00000000000E+00  0.00000000000E+00  0.17771506121E+04  0.17771506121E+04  0.00000000000E+00 0. -1.
         -1   -1    0    0    0  501 -0.00000000000E+00 -0.00000000000E+00 -0.45898311268E+02  0.45898311268E+02  0.00000000000E+00 0.  1.
          5    1    1    2  502    0  0.58570354026E+01  0.20627685377E+02  0.27678834580E+03  0.27765749519E+03  0.47000000000E+01 0. -1.
         -5    1    1    2    0  502  0.86861709506E+02 -0.16448899689E+03  0.12496296898E+04  0.12634073129E+04  0.47000000000E+01 0. -1.
        -11    1    1    2    0    0 -0.10989633835E+03  0.11598647447E+03  0.18130466565E+03  0.24166391793E+03  0.00000000000E+00 0. -1.
         11    1    1    2    0    0  0.17177593444E+02  0.27874837042E+02  0.23529599584E+02  0.40320197336E+02  0.00000000000E+00 0.  1.
<mgrwt>
<rscale>  0 0.20726897E+03</rscale>
<asrwt>0</asrwt>
<pdfrwt beam="1">  1        1 0.27340773E+00 0.21196397E+03</pdfrwt>
<pdfrwt beam="2">  1       -1 0.70612800E-02 0.21196397E+03</pdfrwt>
<totfact> 0.49585737E+02</totfact>
</mgrwt>
</event>
<event>
 6    1  0.9263730E-006  0.3757909E+03  0.7546771E-02  0.1052501E+00
         -2   -1    0    0    0  501 -0.00000000000E+00  0.00000000000E+00  0.11449074167E+03  0.11449074167E+03  0.00000000000E+00 0.  1.
          2   -1    0    0  501    0  0.00000000000E+00 -0.00000000000E+00 -0.30836296619E+03  0.30836296619E+03  0.00000000000E+00 0. -1.
          5    1    1    2  502    0  0.56355650885E+01  0.43000008759E+02 -0.21174066540E+02  0.48489085792E+02  0.47000000000E+01 0. -1.
         -5    1    1    2    0  502  0.11692527065E+03 -0.41062422554E+02 -0.17438118209E+03  0.21398254164E+03  0.47000000000E+01 0. -1.
        -11    1    1    2    0    0 -0.61842933583E+02  0.37186739444E+02  0.35735892759E+02  0.80526120333E+02  0.00000000000E+00 0.  1.
         11    1    1    2    0    0 -0.60717902152E+02 -0.39124325648E+02 -0.34052868657E+02  0.79855960096E+02  0.00000000000E+00 0. -1.
<mgrwt>
<rscale>  0 0.37579092E+03</rscale>
<asrwt>0</asrwt>
<pdfrwt beam="2">  1        2 0.47440457E-01 0.37579092E+03</pdfrwt>
<pdfrwt beam="1">  1       -2 0.17613960E-01 0.37579092E+03</pdfrwt>
<totfact> 0.27869917E+03</totfact>
</mgrwt>
</event>
<event>
 6    1  0.9263730E-006  0.1320133E+03  0.7546771E-02  0.1240395E+00
         -2   -1    0    0    0  501 -0.00000000000E+00  0.00000000000E+00  0.68796742602E+02  0.68796742602E+02  0.00000000000E+00 0. -1.
          2   -1    0    0  501    0  0.00000000000E+00 -0.00000000000E+00 -0.21198789163E+03  0.21198789163E+03  0.00000000000E+00 0.  1.
          5    1    1    2  502    0 -0.34875126046E+02 -0.14261536910E+02 -0.89937137653E+02  0.97623995928E+02  0.47000000000E+01 0. -1.
         -5    1    1    2    0  502  0.76999893948E+02  0.89645825764E+01 -0.38984560525E+02  0.86897832931E+02  0.47000000000E+01 0. -1.
        -11    1    1    2    0    0 -0.59213248470E+02 -0.82495030542E+01 -0.32313422852E+02  0.67958961083E+02  0.00000000000E+00 0.  1.
         11    1    1    2    0    0  0.17088480568E+02  0.13546457388E+02  0.18043972004E+02  0.28303844290E+02  0.00000000000E+00 0. -1.
<mgrwt>
<rscale>  0 0.12165267E+03</rscale>
<asrwt>0</asrwt>
<pdfrwt beam="2">  1        2 0.32613520E-01 0.13201326E+03</pdfrwt>
<pdfrwt beam="1">  1       -2 0.10584115E-01 0.13201326E+03</pdfrwt>
<totfact> 0.91340061E+03</totfact>
</mgrwt>
</event>
<event>
 6    1  0.9263730E-006  0.2257530E+03  0.7546771E-02  0.1132638E+00
          1   -1    0    0  501    0  0.00000000000E+00  0.00000000000E+00  0.23403643010E+03  0.23403643010E+03  0.00000000000E+00 0. -1.
         -1   -1    0    0    0  501 -0.00000000000E+00 -0.00000000000E+00 -0.22398493741E+03  0.22398493741E+03  0.00000000000E+00 0.  1.
          5    1    1    2  502    0  0.71128164486E+02  0.53906103015E+02  0.10219846463E+03  0.13576339675E+03  0.47000000000E+01 0. -1.
         -5    1    1    2    0  502  0.78532218628E+02  0.59854482756E+02 -0.26499003433E+02  0.10234332246E+03  0.47000000000E+01 0. -1.
        -11    1    1    2    0    0 -0.11242771803E+03 -0.10803743111E+03 -0.84976239625E+02  0.17757544764E+03  0.00000000000E+00 0.  1.
         11    1    1    2    0    0 -0.37232665087E+02 -0.57231546585E+01  0.19328271117E+02  0.42339200666E+02  0.00000000000E+00 0. -1.
<mgrwt>
<rscale>  0 0.22167759E+03</rscale>
<asrwt>0</asrwt>
<pdfrwt beam="1">  1        1 0.36005604E-01 0.22575297E+03</pdfrwt>
<pdfrwt beam="2">  1       -1 0.34459221E-01 0.22575297E+03</pdfrwt>
<totfact> 0.96470363E+02</totfact>
</mgrwt>
</event>
<event>
 6    1  0.9263730E-006  0.2100535E+03  0.7546771E-02  0.1170114E+00
         -1   -1    0    0    0  501 -0.00000000000E+00  0.00000000000E+00  0.36026098801E+03  0.36026098801E+03  0.00000000000E+00 0.  1.
          1   -1    0    0  501    0  0.00000000000E+00 -0.00000000000E+00 -0.71013161191E+02  0.71013161191E+02  0.00000000000E+00 0. -1.
          5    1    1    2  502    0  0.45811589357E+02 -0.57317481124E+02  0.14173627082E+02  0.74879750711E+02  0.47000000000E+01 0. -1.
         -5    1    1    2    0  502 -0.10123405395E+03  0.62401664920E+02  0.15143737852E+03  0.19260755716E+03  0.47000000000E+01 0.  1.
        -11    1    1    2    0    0  0.65054703150E+02  0.14171356380E+02  0.40552073765E+02  0.77957760551E+02  0.00000000000E+00 0. -1.
         11    1    1    2    0    0 -0.96322385554E+01 -0.19255540176E+02  0.83084747460E+02  0.85829080780E+02  0.00000000000E+00 0.  1.
<mgrwt>
<rscale>  0 0.17763290E+03</rscale>
<asrwt>0</asrwt>
<pdfrwt beam="2">  1        1 0.10925102E-01 0.21005346E+03</pdfrwt>
<pdfrwt beam="1">  1       -1 0.55424766E-01 0.21005346E+03</pdfrwt>
<totfact> 0.19062803E+03</totfact>
</mgrwt>
</event>
<event>
 6    1  0.9263730E-006  0.1286859E+03  0.7546771E-02  0.1243667E+00
          1   -1    0    0  501    0  0.00000000000E+00  0.00000000000E+00  0.43549190540E+03  0.43549190540E+03  0.00000000000E+00 0. -1.
         -1   -1    0    0    0  501 -0.00000000000E+00 -0.00000000000E+00 -0.29057428425E+02  0.29057428425E+02  0.00000000000E+00 0.  1.
          5    1    1    2  502    0 -0.25433148544E+01  0.52311790643E+02  0.29487372003E+02  0.60287536012E+02  0.47000000000E+01 0. -1.
         -5    1    1    2    0  502 -0.83219595366E+01 -0.23885626898E+02  0.21012745618E+03  0.21169651869E+03  0.47000000000E+01 0. -1.
        -11    1    1    2    0    0 -0.15643917153E+02  0.28299400254E+02  0.72123892171E+02  0.79040774417E+02  0.00000000000E+00 0. -1.
         11    1    1    2    0    0  0.26509191544E+02 -0.56725564000E+02  0.94695756620E+02  0.11352450471E+03  0.00000000000E+00 0.  1.
<mgrwt>
<rscale>  0 0.11965508E+03</rscale>
<asrwt>0</asrwt>
<pdfrwt beam="1">  1        1 0.66998750E-01 0.12868590E+03</pdfrwt>
<pdfrwt beam="2">  1       -1 0.44703739E-02 0.12868590E+03</pdfrwt>
<totfact> 0.10676849E+04</totfact>
</mgrwt>
</event>
<event>
 6    1  0.9263730E-006  0.1308852E+03  0.7546771E-02  0.1239119E+00
         -3   -1    0    0    0  501 -0.00000000000E+00  0.00000000000E+00  0.42917638629E+02  0.42917638629E+02  0.00000000000E+00 0.  1.
          3   -1    0    0  501    0  0.00000000000E+00 -0.00000000000E+00 -0.33865227353E+03  0.33865227353E+03  0.00000000000E+00 0. -1.
          5    1    1    2  502    0  0.29544205332E+02  0.10353123767E+01 -0.45253612651E+01  0.30273764797E+02  0.47000000000E+01 0.  1.
         -5    1    1    2    0  502 -0.65006302158E+02 -0.16753150212E+02 -0.21524140230E+03  0.22551593874E+03  0.47000000000E+01 0.  1.
        -11    1    1    2    0    0  0.55230058731E+02 -0.19081204222E+02 -0.33197760417E+02  0.67205230739E+02  0.00000000000E+00 0.  1.
         11    1    1    2    0    0 -0.19767961905E+02  0.34799042057E+02 -0.42770110927E+02  0.58574977889E+02  0.00000000000E+00 0. -1.
<mgrwt>
<rscale>  0 0.12244365E+03</rscale>
<asrwt>0</asrwt>
<pdfrwt beam="2">  1        3 0.52100351E-01 0.13088522E+03</pdfrwt>
<pdfrwt beam="1">  1       -3 0.66027134E-02 0.13088522E+03</pdfrwt>
<totfact> 0.12281486E+03</totfact>
</mgrwt>
</event>
<event>
 6    1  0.9263730E-006  0.1316314E+03  0.7546771E-02  0.1238333E+00
         -1   -1    0    0    0  501 -0.00000000000E+00  0.00000000000E+00  0.25830357521E+02  0.25830357521E+02  0.00000000000E+00 0.  1.
          1   -1    0    0  501    0  0.00000000000E+00 -0.00000000000E+00 -0.10342125726E+04  0.10342125726E+04  0.00000000000E+00 0. -1.
          5    1    1    2  502    0 -0.36936059545E+02  0.66480929440E+02 -0.63451056622E+03  0.63906942903E+03  0.47000000000E+01 0. -1.
         -5    1    1    2    0  502  0.45088390219E+02 -0.26041494887E+02 -0.27613948078E+03  0.28104488117E+03  0.47000000000E+01 0. -1.
        -11    1    1    2    0    0 -0.34278789046E+02  0.14492687893E+02 -0.23744639030E+02  0.44146135317E+02  0.00000000000E+00 0.  1.
         11    1    1    2    0    0  0.26126458372E+02 -0.54932122447E+02 -0.73987529094E+02  0.95782484647E+02  0.00000000000E+00 0. -1.
<mgrwt>
<rscale>  0 0.12293454E+03</rscale>
<asrwt>0</asrwt>
<pdfrwt beam="2">  1        1 0.15910963E+00 0.13163144E+03</pdfrwt>
<pdfrwt beam="1">  1       -1 0.39739011E-02 0.13163144E+03</pdfrwt>
<totfact> 0.36727478E+03</totfact>
</mgrwt>
</event>
<event>
 6    1  0.9263730E-006  0.1302977E+03  0.7546771E-02  0.1240874E+00
         -1   -1    0    0    0  501 -0.00000000000E+00  0.00000000000E+00  0.33010419752E+02  0.33010419752E+02  0.00000000000E+00 0.  1.
          1   -1    0    0  501    0  0.00000000000E+00 -0.00000000000E+00 -0.48445182177E+03  0.48445182177E+03  0.00000000000E+00 0. -1.
          5    1    1    2  502    0  0.16399808647E+02 -0.38151850753E+02 -0.25090982921E+03  0.25436656587E+03  0.47000000000E+01 0. -1.
         -5    1    1    2    0  502  0.52281180878E+01  0.67870867849E+02 -0.11112540075E+03  0.13040219558E+03  0.47000000000E+01 0. -1.
        -11    1    1    2    0    0 -0.39486041901E+02 -0.32959639430E+02 -0.11504174149E+02  0.52705135985E+02  0.00000000000E+00 0.  1.
         11    1    1    2    0    0  0.17858115166E+02  0.32406223336E+01 -0.77901997908E+02  0.79988344079E+02  0.00000000000E+00 0. -1.
<mgrwt>
<rscale>  0 0.12135736E+03</rscale>
<asrwt>0</asrwt>
<pdfrwt beam="2">  1        1 0.74531045E-01 0.13029771E+03</pdfrwt>
<pdfrwt beam="1">  1       -1 0.50785264E-02 0.13029771E+03</pdfrwt>
<totfact> 0.77227397E+03</totfact>
</mgrwt>
</event>
<event>
 6    1  0.9263730E-006  0.1414295E+03  0.7546771E-02  0.1221920E+00
          2   -1    0    0  501    0  0.00000000000E+00  0.00000000000E+00  0.18159403196E+03  0.18159403196E+03  0.00000000000E+00 0. -1.
         -2   -1    0    0    0  501 -0.00000000000E+00 -0.00000000000E+00 -0.89570311714E+02  0.89570311714E+02  0.00000000000E+00 0.  1.
          5    1    1    2  502    0  0.25336894812E+02  0.40686940622E+02  0.22278843637E+00  0.48161447347E+02  0.47000000000E+01 0. -1.
         -5    1    1    2    0  502 -0.88419957134E+02 -0.15204010705E+02  0.43887030679E+02  0.99987060278E+02  0.47000000000E+01 0.  1.
        -11    1    1    2    0    0  0.21984841994E+02 -0.14826046203E+02 -0.26406698971E+02  0.37422702656E+02  0.00000000000E+00 0.  1.
         11    1    1    2    0    0  0.41098220328E+02 -0.10656883713E+02  0.74320600107E+02  0.85593133398E+02  0.00000000000E+00 0. -1.
<mgrwt>
<rscale>  0 0.13380231E+03</rscale>
<asrwt>0</asrwt>
<pdfrwt beam="1">  1        2 0.27937543E-01 0.14142950E+03</pdfrwt>
<pdfrwt beam="2">  1       -2 0.13780048E-01 0.14142950E+03</pdfrwt>
<totfact> 0.71188205E+03</totfact>
</mgrwt>
</event>
<event>
 6    1  0.9263730E-006  0.2898976E+03  0.7546771E-02  0.1092053E+00
         -3   -1    0    0    0  501 -0.00000000000E+00  0.00000000000E+00  0.14899098917E+03  0.14899098917E+03  0.00000000000E+00 0.  1.
          3   -1    0    0  501    0  0.00000000000E+00 -0.00000000000E+00 -0.14018604138E+04  0.14018604138E+04  0.00000000000E+00 0. -1.
          5    1    1    2  502    0  0.16907071683E+02  0.25428024861E+02 -0.27087324053E+03  0.27262948475E+03  0.47000000000E+01 0. -1.
         -5    1    1    2    0  502  0.24224596117E+03 -0.60809523512E+02 -0.96865579369E+03  0.10003484595E+04  0.47000000000E+01 0. -1.
        -11    1    1    2    0    0 -0.97689006120E+02  0.51768140935E+02 -0.30466084044E+02  0.11467896324E+03  0.00000000000E+00 0. -1.
         11    1    1    2    0    0 -0.16146402673E+03 -0.16386642284E+02  0.17125693600E+02  0.16319449548E+03  0.00000000000E+00 0.  1.
<mgrwt>
<rscale>  0 0.28676092E+03</rscale>
<asrwt>0</asrwt>
<pdfrwt beam="2">  1        3 0.21567083E+00 0.28989760E+03</pdfrwt>
<pdfrwt beam="1">  1       -3 0.22921691E-01 0.28989760E+03</pdfrwt>
<totfact> 0.56137008E+00</totfact>
</mgrwt>
</event>
<event>
 6    1  0.9263730E-006  0.1588721E+03  0.7546771E-02  0.1197614E+00
          2   -1    0    0  501    0  0.00000000000E+00  0.00000000000E+00  0.25445820007E+03  0.25445820007E+03  0.00000000000E+00 0.  1.
         -2   -1    0    0    0  501 -0.00000000000E+00 -0.00000000000E+00 -0.12456018506E+03  0.12456018506E+03  0.00000000000E+00 0. -1.
          5    1    1    2  502    0  0.94673131569E+02  0.89721793534E+01  0.72871475313E+02  0.11989930674E+03  0.47000000000E+01 0. -1.
         -5    1    1    2    0  502 -0.80534476966E+01 -0.54928426356E+02  0.10301699081E+03  0.11711780581E+03  0.47000000000E+01 0. -1.
        -11    1    1    2    0    0 -0.47222964412E+02  0.49037620086E+02 -0.68455846906E+02  0.96544805801E+02  0.00000000000E+00 0. -1.
         11    1    1    2    0    0 -0.39396719461E+02 -0.30813730836E+01  0.22465395790E+02  0.45456466783E+02  0.00000000000E+00 0.  1.
<mgrwt>
<rscale>  0 0.15235026E+03</rscale>
<asrwt>0</asrwt>
<pdfrwt beam="1">  1        2 0.39147415E-01 0.15887215E+03</pdfrwt>
<pdfrwt beam="2">  1       -2 0.19163105E-01 0.15887215E+03</pdfrwt>
<totfact> 0.28866754E+03</totfact>
</mgrwt>
</event>
<event>
 6    1  0.9263730E-006  0.2123149E+03  0.7546771E-02  0.1142662E+00
          1   -1    0    0  501    0  0.00000000000E+00  0.00000000000E+00  0.43084166964E+03  0.43084166964E+03  0.00000000000E+00 0. -1.
         -1   -1    0    0    0  501 -0.00000000000E+00 -0.00000000000E+00 -0.12554196031E+03  0.12554196031E+03  0.00000000000E+00 0.  1.
          5    1    1    2  502    0 -0.24166515387E+02 -0.12771976537E+01  0.55778698446E+02  0.60983644530E+02  0.47000000000E+01 0. -1.
         -5    1    1    2    0  502  0.11686384926E+03 -0.14315312301E+03  0.23208786683E+03  0.29671003324E+03  0.47000000000E+01 0. -1.
        -11    1    1    2    0    0 -0.67098164071E+02  0.15262724747E+03  0.13445082586E+00  0.16672509819E+03  0.00000000000E+00 0.  1.
         11    1    1    2    0    0 -0.25599169806E+02 -0.81969267970E+01  0.17298693224E+02  0.31964853995E+02  0.00000000000E+00 0. -1.
<mgrwt>
<rscale>  0 0.20862183E+03</rscale>
<asrwt>0</asrwt>
<pdfrwt beam="1">  1        1 0.66283333E-01 0.21231488E+03</pdfrwt>
<pdfrwt beam="2">  1       -1 0.19314148E-01 0.21231488E+03</pdfrwt>
<totfact> 0.11726159E+03</totfact>
</mgrwt>
</event>
<event>
 6    1  0.9263730E-006  0.1572701E+03  0.7546771E-02  0.1198123E+00
          1   -1    0    0  501    0  0.00000000000E+00  0.00000000000E+00  0.34642867224E+03  0.34642867224E+03  0.00000000000E+00 0. -1.
         -1   -1    0    0    0  501 -0.00000000000E+00 -0.00000000000E+00 -0.80900191946E+02  0.80900191946E+02  0.00000000000E+00 0.  1.
          5    1    1    2  502    0 -0.85095950925E+02 -0.33653045210E+02  0.19674890165E+03  0.21703932505E+03  0.47000000000E+01 0. -1.
         -5    1    1    2    0  502 -0.13442003526E+02  0.53487722714E+02  0.44862026544E+02  0.71248265702E+02  0.47000000000E+01 0.  1.
        -11    1    1    2    0    0  0.56326327013E+02  0.31124457028E+02 -0.92631385042E+01  0.65016864543E+02  0.00000000000E+00 0.  1.
         11    1    1    2    0    0  0.42211627437E+02 -0.50959134532E+02  0.33180690604E+02  0.74024408894E+02  0.00000000000E+00 0. -1.
<mgrwt>
<rscale>  0 0.15192877E+03</rscale>
<asrwt>0</asrwt>
<pdfrwt beam="1">  1        1 0.53296718E-01 0.15727013E+03</pdfrwt>
<pdfrwt beam="2">  1       -1 0.12446184E-01 0.15727013E+03</pdfrwt>
<totfact> 0.30782708E+03</totfact>
</mgrwt>
</event>
<event>
 6    1  0.9263730E-006  0.3340738E+03  0.7546771E-02  0.1080534E+00
          1   -1    0    0  501    0  0.00000000000E+00  0.00000000000E+00  0.99526169976E+03  0.99526169976E+03  0.00000000000E+00 0. -1.
         -1   -1    0    0    0  501 -0.00000000000E+00 -0.00000000000E+00 -0.11105837876E+03  0.11105837876E+03  0.00000000000E+00 0.  1.
          5    1    1    2  502    0 -0.26271361335E+02 -0.72232207270E+02  0.15857210471E+03  0.17628068126E+03  0.47000000000E+01 0. -1.
         -5    1    1    2    0  502 -0.16855515148E+03  0.19349157896E+03  0.60178067677E+03  0.65422618654E+03  0.47000000000E+01 0.  1.
        -11    1    1    2    0    0  0.12728385928E+03 -0.12278441687E+03  0.10499097324E+03  0.20567036325E+03  0.00000000000E+00 0. -1.
         11    1    1    2    0    0  0.67542653538E+02  0.15250451835E+01  0.18859566288E+02  0.70142847464E+02  0.00000000000E+00 0.  1.
<mgrwt>
<rscale>  0 0.30960700E+03</rscale>
<asrwt>0</asrwt>
<pdfrwt beam="1">  1        1 0.15311718E+00 0.33407380E+03</pdfrwt>
<pdfrwt beam="2">  1       -1 0.17085905E-01 0.33407380E+03</pdfrwt>
<totfact> 0.41998248E+02</totfact>
</mgrwt>
</event>
<event>
 6    1  0.9263730E-006  0.1252543E+03  0.7546771E-02  0.1251358E+00
          1   -1    0    0  501    0  0.00000000000E+00  0.00000000000E+00  0.61549125679E+03  0.61549125679E+03  0.00000000000E+00 0. -1.
         -1   -1    0    0    0  501 -0.00000000000E+00 -0.00000000000E+00 -0.26470075750E+02  0.26470075750E+02  0.00000000000E+00 0.  1.
          5    1    1    2  502    0 -0.47175269442E+02  0.17616945032E+02  0.40725689396E+03  0.41038534389E+03  0.47000000000E+01 0.  1.
         -5    1    1    2    0  502  0.48417305466E+02 -0.97334338380E+01  0.94043752739E+02  0.10632634966E+03  0.47000000000E+01 0.  1.
        -11    1    1    2    0    0  0.31203583689E+02 -0.33515840043E+02  0.59958700323E+02  0.75445483054E+02  0.00000000000E+00 0.  1.
         11    1    1    2    0    0 -0.32445619713E+02  0.25632328850E+02  0.27761834020E+02  0.49804155941E+02  0.00000000000E+00 0. -1.
<mgrwt>
<rscale>  0 0.11512783E+03</rscale>
<asrwt>0</asrwt>
<pdfrwt beam="1">  1        1 0.94690952E-01 0.12525428E+03</pdfrwt>
<pdfrwt beam="2">  1       -1 0.40723198E-02 0.12525428E+03</pdfrwt>
<totfact> 0.77592497E+03</totfact>
</mgrwt>
</event>
<event>
 6    1  0.9263730E-006  0.1221241E+03  0.7546771E-02  0.1250292E+00
          2   -1    0    0  501    0  0.00000000000E+00  0.00000000000E+00  0.39664717354E+03  0.39664717354E+03  0.00000000000E+00 0. -1.
         -2   -1    0    0    0  501 -0.00000000000E+00 -0.00000000000E+00 -0.44209832153E+02  0.44209832153E+02  0.00000000000E+00 0.  1.
          5    1    1    2  502    0  0.93807774808E+01 -0.38968715252E+02  0.19744983780E+03  0.20153185406E+03  0.47000000000E+01 0. -1.
         -5    1    1    2    0  502 -0.44806645771E+02  0.51483491607E+02  0.11327917257E+03  0.13233459998E+03  0.47000000000E+01 0.  1.
        -11    1    1    2    0    0 -0.10692293610E+02  0.24726125051E+02 -0.95936912215E+01  0.28596246501E+02  0.00000000000E+00 0. -1.
         11    1    1    2    0    0  0.46118161900E+02 -0.37240901406E+02  0.51302022237E+02  0.78394305151E+02  0.00000000000E+00 0.  1.
<mgrwt>
<rscale>  0 0.11574142E+03</rscale>
<asrwt>0</asrwt>
<pdfrwt beam="1">  1        2 0.61022640E-01 0.12212408E+03</pdfrwt>
<pdfrwt beam="2">  1       -2 0.68015129E-02 0.12212408E+03</pdfrwt>
<totfact> 0.92623164E+03</totfact>
</mgrwt>
</event>
<event>
 6    1  0.9263730E-006  0.1322615E+03  0.7546771E-02  0.1236538E+00
         -2   -1    0    0    0  501 -0.00000000000E+00  0.00000000000E+00  0.11885252304E+03  0.11885252304E+03  0.00000000000E+00 0.  1.
          2   -1    0    0  501    0  0.00000000000E+00 -0.00000000000E+00 -0.13042930203E+03  0.13042930203E+03  0.00000000000E+00 0. -1.
          5    1    1    2  502    0 -0.17069245899E+02  0.26172930526E+02  0.29954531794E+02  0.43540158738E+02  0.47000000000E+01 0.  1.
         -5    1    1    2    0  502  0.57115653289E+02 -0.96527217494E+01 -0.77799290086E+02  0.97109177866E+02  0.47000000000E+01 0.  1.
        -11    1    1    2    0    0  0.22536001028E+02  0.19078522795E+02  0.42355223843E+01  0.29829532753E+02  0.00000000000E+00 0.  1.
         11    1    1    2    0    0 -0.62582408418E+02 -0.35598731573E+02  0.32032456916E+02  0.78802955712E+02  0.00000000000E+00 0. -1.
<mgrwt>
<rscale>  0 0.12406509E+03</rscale>
<asrwt>0</asrwt>
<pdfrwt beam="2">  1        2 0.20066046E-01 0.13226154E+03</pdfrwt>
<pdfrwt beam="1">  1       -2 0.18285004E-01 0.13226154E+03</pdfrwt>
<totfact> 0.64248854E+03</totfact>
</mgrwt>
</event>
<event>
 6    1  0.9263730E-006  0.2458259E+03  0.7546771E-02  0.1118410E+00
          2   -1    0    0  501    0  0.00000000000E+00  0.00000000000E+00  0.11179066670E+03  0.11179066670E+03  0.00000000000E+00 0. -1.
         -2   -1    0    0    0  501 -0.00000000000E+00 -0.00000000000E+00 -0.50895279095E+03  0.50895279095E+03  0.00000000000E+00 0.  1.
          5    1    1    2  502    0 -0.16076133003E+02  0.61284382623E+02 -0.63662065885E+02  0.89939792298E+02  0.47000000000E+01 0. -1.
         -5    1    1    2    0  502  0.14931099820E+03  0.10312454434E+03 -0.13813225275E+03  0.22810316762E+03  0.47000000000E+01 0. -1.
        -11    1    1    2    0    0  0.78045829370E+01 -0.12127531096E+02 -0.42614735782E+02  0.44988934540E+02  0.00000000000E+00 0.  1.
         11    1    1    2    0    0 -0.14103944814E+03 -0.15228139586E+03 -0.15275306984E+03  0.25771156319E+03  0.00000000000E+00 0. -1.
<mgrwt>
<rscale>  0 0.24208805E+03</rscale>
<asrwt>0</asrwt>
<pdfrwt beam="1">  1        2 0.17198564E-01 0.24582591E+03</pdfrwt>
<pdfrwt beam="2">  1       -2 0.78300429E-01 0.24582591E+03</pdfrwt>
<totfact> 0.49513524E+02</totfact>
</mgrwt>
</event>
<event>
 6    1  0.9263730E-006  0.2202580E+03  0.7546771E-02  0.1137127E+00
          2   -1    0    0  501    0  0.00000000000E+00  0.00000000000E+00  0.37512068873E+03  0.37512068873E+03  0.00000000000E+00 0. -1.
         -2   -1    0    0    0  501 -0.00000000000E+00 -0.00000000000E+00 -0.13240924445E+03  0.13240924445E+03  0.00000000000E+00 0.  1.
          5    1    1    2  502    0  0.12666460094E+03 -0.14141702449E+03  0.14293625257E+03  0.23768794299E+03  0.47000000000E+01 0.  1.
         -5    1    1    2    0  502 -0.38381060111E+01  0.79980286738E+01  0.63171141729E+02  0.63963916920E+02  0.47000000000E+01 0.  1.
        -11    1    1    2    0    0 -0.55921817315E+02  0.65190554788E+02  0.63259865810E+02  0.10667178028E+03  0.00000000000E+00 0. -1.
         11    1    1    2    0    0 -0.66904677615E+02  0.68228441025E+02 -0.26655815829E+02  0.99206292991E+02  0.00000000000E+00 0.  1.
<mgrwt>
<rscale>  0 0.21570366E+03</rscale>
<asrwt>0</asrwt>
<pdfrwt beam="1">  1        2 0.57710875E-01 0.22025800E+03</pdfrwt>
<pdfrwt beam="2">  1       -2 0.20370653E-01 0.22025800E+03</pdfrwt>
<totfact> 0.17342308E+03</totfact>
</mgrwt>
</event>
<event>
 6    1  0.9263730E-006  0.2228615E+03  0.7546771E-02  0.1134761E+00
          2   -1    0    0  501    0  0.00000000000E+00  0.00000000000E+00  0.22975849681E+04  0.22975849681E+04  0.00000000000E+00 0.  1.
         -2   -1    0    0    0  501 -0.00000000000E+00 -0.00000000000E+00 -0.31957440015E+02  0.31957440015E+02  0.00000000000E+00 0. -1.
          5    1    1    2  502    0  0.67612646366E+01 -0.15629538716E+03  0.15320745023E+04  0.15400481595E+04  0.47000000000E+01 0.  1.
         -5    1    1    2    0  502 -0.55479554360E+02 -0.21624484694E+02  0.33536897702E+03  0.34064650305E+03  0.47000000000E+01 0.  1.
        -11    1    1    2    0    0  0.59432714436E+02  0.17605759588E+03  0.39644790115E+03  0.43783497227E+03  0.00000000000E+00 0.  1.
         11    1    1    2    0    0 -0.10714424712E+02  0.18622759724E+01  0.17361475982E+01  0.11012773365E+02  0.00000000000E+00 0. -1.
<mgrwt>
<rscale>  0 0.21882700E+03</rscale>
<asrwt>0</asrwt>
<pdfrwt beam="1">  1        2 0.35347448E+00 0.22286154E+03</pdfrwt>
<pdfrwt beam="2">  1       -2 0.49165310E-02 0.22286154E+03</pdfrwt>
<totfact> 0.10448246E+03</totfact>
</mgrwt>
</event>
<event>
 6    1  0.9263730E-006  0.1974681E+03  0.7546771E-02  0.1156449E+00
          2   -1    0    0  501    0  0.00000000000E+00  0.00000000000E+00  0.12808817486E+04  0.12808817486E+04  0.00000000000E+00 0. -1.
         -2   -1    0    0    0  501 -0.00000000000E+00 -0.00000000000E+00 -0.36950580030E+02  0.36950580030E+02  0.00000000000E+00 0.  1.
          5    1    1    2  502    0  0.59875661391E+02 -0.36411071761E+02  0.66284701436E+03  0.66655766098E+03  0.47000000000E+01 0. -1.
         -5    1    1    2    0  502  0.55422985194E+01 -0.10177594193E+03  0.31797618213E+03  0.33394610618E+03  0.47000000000E+01 0. -1.
        -11    1    1    2    0    0 -0.45004643313E+02  0.44378952706E+02  0.40941883204E+02  0.75307019349E+02  0.00000000000E+00 0.  1.
         11    1    1    2    0    0 -0.20413316598E+02  0.93808060986E+02  0.22216608883E+03  0.24202154207E+03  0.00000000000E+00 0. -1.
<mgrwt>
<rscale>  0 0.19224832E+03</rscale>
<asrwt>0</asrwt>
<pdfrwt beam="1">  1        2 0.19705870E+00 0.19746809E+03</pdfrwt>
<pdfrwt beam="2">  1       -2 0.56847056E-02 0.19746809E+03</pdfrwt>
<totfact> 0.28828909E+03</totfact>
</mgrwt>
</event>
<event>
 6    1  0.9263730E-006  0.1401321E+03  0.7546771E-02  0.1224378E+00
         -1   -1    0    0    0  501 -0.00000000000E+00  0.00000000000E+00  0.31622714206E+03  0.31622714206E+03  0.00000000000E+00 0.  1.
          1   -1    0    0  501    0  0.00000000000E+00 -0.00000000000E+00 -0.49720213004E+02  0.49720213004E+02  0.00000000000E+00 0. -1.
          5    1    1    2  502    0  0.59970954574E+02  0.32288612923E+02  0.13200806342E+03  0.14861792868E+03  0.47000000000E+01 0. -1.
         -5    1    1    2    0  502 -0.44117440490E+02  0.29038654180E+02  0.16420528943E+02  0.55509600636E+02  0.47000000000E+01 0. -1.
        -11    1    1    2    0    0  0.29601940385E+02 -0.29026661991E+02  0.14025603808E+02  0.43766877237E+02  0.00000000000E+00 0. -1.
         11    1    1    2    0    0 -0.45455454470E+02 -0.32300605112E+02  0.10405273289E+03  0.11805294852E+03  0.00000000000E+00 0.  1.
<mgrwt>
<rscale>  0 0.13209607E+03</rscale>
<asrwt>0</asrwt>
<pdfrwt beam="2">  1        1 0.76492637E-02 0.14013208E+03</pdfrwt>
<pdfrwt beam="1">  1       -1 0.48650328E-01 0.14013208E+03</pdfrwt>
<totfact> 0.38407479E+03</totfact>
</mgrwt>
</event>
<event>
 6    1  0.9263730E-006  0.1443185E+03  0.7546771E-02  0.1217371E+00
          1   -1    0    0  501    0  0.00000000000E+00  0.00000000000E+00  0.45001523442E+03  0.45001523442E+03  0.00000000000E+00 0. -1.
         -1   -1    0    0    0  501 -0.00000000000E+00 -0.00000000000E+00 -0.39539972310E+02  0.39539972310E+02  0.00000000000E+00 0.  1.
          5    1    1    2  502    0 -0.91740581714E+00 -0.71714911510E+02  0.65566460345E+02  0.97287824976E+02  0.47000000000E+01 0. -1.
         -5    1    1    2    0  502 -0.39244842661E+02  0.11791255014E+02  0.20760560052E+03  0.21166333347E+03  0.47000000000E+01 0. -1.
        -11    1    1    2    0    0  0.54196061596E+02  0.77117911201E+02  0.11919337134E+03  0.15195869535E+03  0.00000000000E+00 0.  1.
         11    1    1    2    0    0 -0.14033813118E+02 -0.17194254706E+02  0.18109829914E+02  0.28645352939E+02  0.00000000000E+00 0. -1.
<mgrwt>
<rscale>  0 0.13703806E+03</rscale>
<asrwt>0</asrwt>
<pdfrwt beam="1">  1        1 0.69233109E-01 0.14431855E+03</pdfrwt>
<pdfrwt beam="2">  1       -1 0.60830730E-02 0.14431855E+03</pdfrwt>
<totfact> 0.65360554E+03</totfact>
</mgrwt>
</event>
<event>
 6    1  0.9263730E-006  0.1306342E+03  0.7546771E-02  0.1248733E+00
         -4   -1    0    0    0  501 -0.00000000000E+00  0.00000000000E+00  0.21185221689E+02  0.21185221689E+02  0.00000000000E+00 0.  1.
          4   -1    0    0  501    0  0.00000000000E+00 -0.00000000000E+00 -0.62455130780E+03  0.62455130780E+03  0.00000000000E+00 0. -1.
          5    1    1    2  502    0  0.35601318531E+02 -0.38009600178E+02 -0.14391664092E+03  0.15312175913E+03  0.47000000000E+01 0. -1.
         -5    1    1    2    0  502 -0.70950109112E+02  0.24190617157E+02 -0.33276356823E+03  0.34113455744E+03  0.47000000000E+01 0. -1.
        -11    1    1    2    0    0  0.78988319893E+01  0.28650207194E+02 -0.11046471229E+02  0.31705684753E+02  0.00000000000E+00 0.  1.
         11    1    1    2    0    0  0.27449958591E+02 -0.14831224173E+02 -0.11563940574E+03  0.11977452816E+03  0.00000000000E+00 0. -1.
<mgrwt>
<rscale>  0 0.11664729E+03</rscale>
<asrwt>0</asrwt>
<pdfrwt beam="2">  1        4 0.96084796E-01 0.13063416E+03</pdfrwt>
<pdfrwt beam="1">  1       -4 0.32592656E-02 0.13063416E+03</pdfrwt>
<totfact> 0.73099996E+02</totfact>
</mgrwt>
</event>
<event>
 6    1  0.9263730E-006  0.1421321E+03  0.7546771E-02  0.1230288E+00
         -2   -1    0    0    0  501 -0.00000000000E+00  0.00000000000E+00  0.32733322759E+02  0.32733322759E+02  0.00000000000E+00 0.  1.
          2   -1    0    0  501    0  0.00000000000E+00 -0.00000000000E+00 -0.57570047534E+03  0.57570047534E+03  0.00000000000E+00 0. -1.
          5    1    1    2  502    0  0.11593279414E+02  0.18629317718E+02 -0.43079252596E+03  0.43137657102E+03  0.47000000000E+01 0. -1.
         -5    1    1    2    0  502  0.17986312034E+02 -0.38969263390E+02 -0.34884106724E+02  0.55507673449E+02  0.47000000000E+01 0.  1.
        -11    1    1    2    0    0  0.11007612907E+02  0.21375157913E+02 -0.77296182381E+02  0.80949149028E+02  0.00000000000E+00 0.  1.
         11    1    1    2    0    0 -0.40587204355E+02 -0.10352122400E+01  0.56624806226E-02  0.40600404602E+02  0.00000000000E+00 0. -1.
<mgrwt>
<rscale>  0 0.12810982E+03</rscale>
<asrwt>0</asrwt>
<pdfrwt beam="2">  1        2 0.88569298E-01 0.14213213E+03</pdfrwt>
<pdfrwt beam="1">  1       -2 0.50358961E-02 0.14213213E+03</pdfrwt>
<totfact> 0.98212331E+03</totfact>
</mgrwt>
</event>
<event>
 6    1  0.9263730E-006  0.1399276E+03  0.7546771E-02  0.1224882E+00
         -1   -1    0    0    0  501 -0.00000000000E+00  0.00000000000E+00  0.79547082166E+02  0.79547082166E+02  0.00000000000E+00 0.  1.
          1   -1    0    0  501    0  0.00000000000E+00 -0.00000000000E+00 -0.19627160778E+03  0.19627160778E+03  0.00000000000E+00 0. -1.
          5    1    1    2  502    0  0.73624955338E+02 -0.48532398669E+02 -0.99664554000E+01  0.88867586905E+02  0.47000000000E+01 0. -1.
         -5    1    1    2    0  502 -0.12922942247E+02  0.32094311911E+02 -0.55612705066E+02  0.65665137311E+02  0.47000000000E+01 0. -1.
        -11    1    1    2    0    0 -0.12701670029E+02 -0.37599766474E+01  0.25434207386E+02  0.28676972491E+02  0.00000000000E+00 0.  1.
         11    1    1    2    0    0 -0.48000343062E+02  0.20198063406E+02 -0.76579572535E+02  0.92608993241E+02  0.00000000000E+00 0. -1.
<mgrwt>
<rscale>  0 0.13175005E+03</rscale>
<asrwt>0</asrwt>
<pdfrwt beam="2">  1        1 0.30195631E-01 0.13992761E+03</pdfrwt>
<pdfrwt beam="1">  1       -1 0.12238013E-01 0.13992761E+03</pdfrwt>
<totfact> 0.63606040E+03</totfact>
</mgrwt>
</event>
<event>
 6    1  0.9263730E-006  0.1454214E+03  0.7546771E-02  0.1215572E+00
          1   -1    0    0  501    0  0.00000000000E+00  0.00000000000E+00  0.24058490228E+03  0.24058490228E+03  0.00000000000E+00 0.  1.
         -1   -1    0    0    0  501 -0.00000000000E+00 -0.00000000000E+00 -0.79414404100E+02  0.79414404100E+02  0.00000000000E+00 0. -1.
          5    1    1    2  502    0 -0.93314247106E+02 -0.10052879107E+02  0.89162586260E+02  0.12954020951E+03  0.47000000000E+01 0. -1.
         -5    1    1    2    0  502  0.35696873116E+02 -0.36683681520E+02  0.45003213080E+02  0.68317921716E+02  0.47000000000E+01 0. -1.
        -11    1    1    2    0    0  0.21739759418E+02  0.53751435515E+02  0.51977704386E+02  0.77868579752E+02  0.00000000000E+00 0.  1.
         11    1    1    2    0    0  0.35877614572E+02 -0.70148748884E+01 -0.24973005549E+02  0.44272595397E+02  0.00000000000E+00 0. -1.
<mgrwt>
<rscale>  0 0.13834580E+03</rscale>
<asrwt>0</asrwt>
<pdfrwt beam="1">  1        1 0.37013062E-01 0.14542138E+03</pdfrwt>
<pdfrwt beam="2">  1       -1 0.12217601E-01 0.14542138E+03</pdfrwt>
<totfact> 0.49643207E+03</totfact>
</mgrwt>
</event>
<event>
 6    1  0.9263730E-006  0.2563946E+03  0.7546771E-02  0.1109329E+00
          1   -1    0    0  501    0  0.00000000000E+00  0.00000000000E+00  0.69609465297E+02  0.69609465297E+02  0.00000000000E+00 0. -1.
         -1   -1    0    0    0  501 -0.00000000000E+00 -0.00000000000E+00 -0.23609637894E+03  0.23609637894E+03  0.00000000000E+00 0.  1.
          5    1    1    2  502    0 -0.27535242952E+00 -0.22883388227E+02 -0.69716647201E+02  0.73527043818E+02  0.47000000000E+01 0.  1.
         -5    1    1    2    0  502 -0.40393543577E+02  0.75100556918E+02 -0.28687246814E+01  0.85452042651E+02  0.47000000000E+01 0.  1.
        -11    1    1    2    0    0  0.63629006852E+02 -0.19112455683E+02 -0.34253728412E+02  0.74747939004E+02  0.00000000000E+00 0. -1.
         11    1    1    2    0    0 -0.22960110845E+02 -0.33104713008E+02 -0.59647813347E+02  0.71978818763E+02  0.00000000000E+00 0.  1.
<mgrwt>
<rscale>  0 0.25639456E+03</rscale>
<asrwt>0</asrwt>
<pdfrwt beam="1">  1        1 0.10709149E-01 0.25639456E+03</pdfrwt>
<pdfrwt beam="2">  1       -1 0.36322519E-01 0.25639456E+03</pdfrwt>
<totfact> 0.42474955E+03</totfact>
</mgrwt>
</event>
<event>
 6    1  0.9263730E-006  0.1711491E+03  0.7546771E-02  0.1182752E+00
         -2   -1    0    0    0  501 -0.00000000000E+00  0.00000000000E+00  0.24241472257E+02  0.24241472257E+02  0.00000000000E+00 0.  1.
          2   -1    0    0  501    0  0.00000000000E+00 -0.00000000000E+00 -0.12629695717E+04  0.12629695717E+04  0.00000000000E+00 0. -1.
          5    1    1    2  502    0  0.36949650226E+02  0.36579376740E+02 -0.50657160014E+03  0.50925455670E+03  0.47000000000E+01 0.  1.
         -5    1    1    2    0  502 -0.73043246584E+02  0.74618741156E+02 -0.40680031615E+03  0.42001411836E+03  0.47000000000E+01 0.  1.
        -11    1    1    2    0    0 -0.94118243539E+00 -0.80280172355E+02 -0.10396933887E+03  0.13135986953E+03  0.00000000000E+00 0.  1.
         11    1    1    2    0    0  0.37034778793E+02 -0.30917945540E+02 -0.22138684429E+03  0.22658249937E+03  0.00000000000E+00 0. -1.
<mgrwt>
<rscale>  0 0.16538132E+03</rscale>
<asrwt>0</asrwt>
<pdfrwt beam="2">  1        2 0.19430300E+00 0.17114910E+03</pdfrwt>
<pdfrwt beam="1">  1       -2 0.37294575E-02 0.17114910E+03</pdfrwt>
<totfact> 0.55505372E+03</totfact>
</mgrwt>
</event>
<event>
 6    1  0.9263730E-006  0.1545771E+03  0.7546771E-02  0.1203223E+00
         -2   -1    0    0    0  501 -0.00000000000E+00  0.00000000000E+00  0.35996663746E+02  0.35996663746E+02  0.00000000000E+00 0.  1.
          2   -1    0    0  501    0  0.00000000000E+00 -0.00000000000E+00 -0.56256676541E+03  0.56256676541E+03  0.00000000000E+00 0. -1.
          5    1    1    2  502    0 -0.40436621416E+02 -0.94872693279E+02 -0.25568295745E+03  0.27573866797E+03  0.47000000000E+01 0. -1.
         -5    1    1    2    0  502  0.27714250568E+02  0.48265756848E+01 -0.75155708840E+01  0.29494903341E+02  0.47000000000E+01 0. -1.
        -11    1    1    2    0    0  0.27531936353E+02  0.10407774186E+03 -0.23389183258E+03  0.25747926755E+03  0.00000000000E+00 0.  1.
         11    1    1    2    0    0 -0.14809565505E+02 -0.14031624269E+02 -0.29479740751E+02  0.35850590299E+02  0.00000000000E+00 0. -1.
<mgrwt>
<rscale>  0 0.14778358E+03</rscale>
<asrwt>0</asrwt>
<pdfrwt beam="2">  1        2 0.86548732E-01 0.15457706E+03</pdfrwt>
<pdfrwt beam="1">  1       -2 0.55379483E-02 0.15457706E+03</pdfrwt>
<totfact> 0.87800077E+03</totfact>
</mgrwt>
</event>
<event>
 6    1  0.9263730E-006  0.1273413E+03  0.7546771E-02  0.1246839E+00
          2   -1    0    0  501    0  0.00000000000E+00  0.00000000000E+00  0.10749462176E+03  0.10749462176E+03  0.00000000000E+00 0. -1.
         -2   -1    0    0    0  501 -0.00000000000E+00 -0.00000000000E+00 -0.14342790766E+03  0.14342790766E+03  0.00000000000E+00 0.  1.
          5    1    1    2  502    0  0.33434607099E+02 -0.66980807262E+02  0.19518910880E+02  0.77507285949E+02  0.47000000000E+01 0.  1.
         -5    1    1    2    0  502 -0.16909802653E+02  0.49217023874E+02  0.17511139208E+02  0.55108863726E+02  0.47000000000E+01 0.  1.
        -11    1    1    2    0    0  0.24436795828E+02  0.34869494505E+02 -0.56968501299E+02  0.71122772568E+02  0.00000000000E+00 0.  1.
         11    1    1    2    0    0 -0.40961600274E+02 -0.17105711118E+02 -0.15994834693E+02  0.47183607182E+02  0.00000000000E+00 0. -1.
<mgrwt>
<rscale>  0 0.11775970E+03</rscale>
<asrwt>0</asrwt>
<pdfrwt beam="1">  1        2 0.16537634E-01 0.12734135E+03</pdfrwt>
<pdfrwt beam="2">  1       -2 0.22065832E-01 0.12734135E+03</pdfrwt>
<totfact> 0.58145468E+03</totfact>
</mgrwt>
</event>
<event>
 6    1  0.9263730E-006  0.2116391E+03  0.7546771E-02  0.1144008E+00
         -2   -1    0    0    0  501 -0.00000000000E+00  0.00000000000E+00  0.65262544105E+02  0.65262544105E+02  0.00000000000E+00 0.  1.
          2   -1    0    0  501    0  0.00000000000E+00 -0.00000000000E+00 -0.86066681120E+03  0.86066681120E+03  0.00000000000E+00 0. -1.
          5    1    1    2  502    0 -0.12926884260E+02  0.52184434264E+02 -0.37791742198E+03  0.38175121133E+03  0.47000000000E+01 0.  1.
         -5    1    1    2    0  502 -0.11648818491E+03  0.59254341668E+02 -0.27298122035E+03  0.30269028874E+03  0.47000000000E+01 0.  1.
        -11    1    1    2    0    0  0.12713947279E+03 -0.62440039207E+02 -0.12425292091E+03  0.18841972400E+03  0.00000000000E+00 0.  1.
         11    1    1    2    0    0  0.22755963832E+01 -0.48998736725E+02 -0.20252703852E+02  0.53068131236E+02  0.00000000000E+00 0. -1.
<mgrwt>
<rscale>  0 0.20694551E+03</rscale>
<asrwt>0</asrwt>
<pdfrwt beam="2">  1        2 0.13241027E+00 0.21163914E+03</pdfrwt>
<pdfrwt beam="1">  1       -2 0.10040392E-01 0.21163914E+03</pdfrwt>
<totfact> 0.21177502E+03</totfact>
</mgrwt>
</event>
<event>
 6    1  0.9263730E-006  0.1494133E+03  0.7546771E-02  0.1218022E+00
         -1   -1    0    0    0  501 -0.00000000000E+00  0.00000000000E+00  0.81367821621E+02  0.81367821621E+02  0.00000000000E+00 0.  1.
          1   -1    0    0  501    0  0.00000000000E+00 -0.00000000000E+00 -0.26016222246E+03  0.26016222246E+03  0.00000000000E+00 0. -1.
          5    1    1    2  502    0  0.35569888046E+02  0.59716439326E+02 -0.19261820312E+03  0.20482951993E+03  0.47000000000E+01 0. -1.
         -5    1    1    2    0  502  0.29210924195E+02 -0.96900064588E+01  0.85131251107E+01  0.32275960352E+02  0.47000000000E+01 0. -1.
        -11    1    1    2    0    0 -0.53979833697E+02 -0.17789591102E+02 -0.21868614414E+02  0.60897687098E+02  0.00000000000E+00 0.  1.
         11    1    1    2    0    0 -0.10800978545E+02 -0.32236841766E+02  0.27179291583E+02  0.43526876703E+02  0.00000000000E+00 0. -1.
<mgrwt>
<rscale>  0 0.13656895E+03</rscale>
<asrwt>0</asrwt>
<pdfrwt beam="2">  1        1 0.40024958E-01 0.14941328E+03</pdfrwt>
<pdfrwt beam="1">  1       -1 0.12518126E-01 0.14941328E+03</pdfrwt>
<totfact> 0.43454973E+03</totfact>
</mgrwt>
</event>
<event>
 6    1  0.9263730E-006  0.2461557E+03  0.7546771E-02  0.1115759E+00
         -1   -1    0    0    0  501 -0.00000000000E+00  0.00000000000E+00  0.14259317477E+03  0.14259317477E+03  0.00000000000E+00 0.  1.
          1   -1    0    0  501    0  0.00000000000E+00 -0.00000000000E+00 -0.10623335786E+03  0.10623335786E+03  0.00000000000E+00 0. -1.
          5    1    1    2  502    0 -0.31621535454E+02 -0.22906243731E+02  0.23903907419E+02  0.46022867101E+02  0.47000000000E+01 0. -1.
         -5    1    1    2    0  502  0.79144089952E+02  0.20143899480E+02 -0.32485737663E+02  0.88016912080E+02  0.47000000000E+01 0. -1.
        -11    1    1    2    0    0 -0.16047881409E+02  0.40587376077E+02  0.48749206356E+02  0.65432061826E+02  0.00000000000E+00 0.  1.
         11    1    1    2    0    0 -0.31474673090E+02 -0.37825031826E+02 -0.38075592023E+01  0.49354691629E+02  0.00000000000E+00 0. -1.
<mgrwt>
<rscale>  0 0.24615566E+03</rscale>
<asrwt>0</asrwt>
<pdfrwt beam="2">  1        1 0.16343594E-01 0.24615566E+03</pdfrwt>
<pdfrwt beam="1">  1       -1 0.21937411E-01 0.24615566E+03</pdfrwt>
<totfact> 0.56834143E+03</totfact>
</mgrwt>
</event>
<event>
 6    1  0.9263730E-006  0.2816517E+03  0.7546771E-02  0.1094790E+00
         -1   -1    0    0    0  501 -0.00000000000E+00  0.00000000000E+00  0.80229054874E+02  0.80229054874E+02  0.00000000000E+00 0.  1.
          1   -1    0    0  501    0  0.00000000000E+00 -0.00000000000E+00 -0.24719118524E+03  0.24719118524E+03  0.00000000000E+00 0. -1.
          5    1    1    2  502    0  0.32512088356E+02  0.85588509755E+02 -0.13567822378E+03  0.16374705890E+03  0.47000000000E+01 0. -1.
         -5    1    1    2    0  502  0.41986865555E+01 -0.38867370518E+02 -0.36908691759E+02  0.53968907597E+02  0.47000000000E+01 0.  1.
        -11    1    1    2    0    0 -0.50099660438E+02  0.48757755667E+00  0.26147823810E+02  0.56514798044E+02  0.00000000000E+00 0.  1.
         11    1    1    2    0    0  0.13388885527E+02 -0.47208716794E+02 -0.20523038645E+02  0.53189475577E+02  0.00000000000E+00 0. -1.
<mgrwt>
<rscale>  0 0.28165167E+03</rscale>
<asrwt>0</asrwt>
<pdfrwt beam="2">  1        1 0.38029412E-01 0.28165167E+03</pdfrwt>
<pdfrwt beam="1">  1       -1 0.12342932E-01 0.28165167E+03</pdfrwt>
<totfact> 0.48822543E+03</totfact>
</mgrwt>
</event>
<event>
 6    1  0.9263730E-006  0.1511081E+03  0.7546771E-02  0.1207479E+00
         -1   -1    0    0    0  501 -0.00000000000E+00  0.00000000000E+00  0.11186296309E+03  0.11186296309E+03  0.00000000000E+00 0.  1.
          1   -1    0    0  501    0  0.00000000000E+00 -0.00000000000E+00 -0.18895438170E+03  0.18895438170E+03  0.00000000000E+00 0. -1.
          5    1    1    2  502    0 -0.31066310434E+02 -0.14166765296E+02 -0.14661408622E+02  0.37454769866E+02  0.47000000000E+01 0. -1.
         -5    1    1    2    0  502  0.82625079801E+02  0.81628573415E+02 -0.72205351701E+02  0.13684235684E+03  0.47000000000E+01 0. -1.
        -11    1    1    2    0    0 -0.47950728100E+02 -0.47211338475E+02  0.48311305096E+02  0.82838185675E+02  0.00000000000E+00 0.  1.
         11    1    1    2    0    0 -0.36080412671E+01 -0.20250469644E+02 -0.38535963377E+02  0.43682032416E+02  0.00000000000E+00 0. -1.
<mgrwt>
<rscale>  0 0.14443775E+03</rscale>
<asrwt>0</asrwt>
<pdfrwt beam="2">  1        1 0.29069905E-01 0.15110809E+03</pdfrwt>
<pdfrwt beam="1">  1       -1 0.17209687E-01 0.15110809E+03</pdfrwt>
<totfact> 0.39275288E+03</totfact>
</mgrwt>
</event>
<event>
 6    1  0.9263730E-006  0.1276744E+03  0.7546771E-02  0.1245455E+00
          1   -1    0    0  501    0  0.00000000000E+00  0.00000000000E+00  0.82631448520E+03  0.82631448520E+03  0.00000000000E+00 0. -1.
         -1   -1    0    0    0  501 -0.00000000000E+00 -0.00000000000E+00 -0.17680870621E+02  0.17680870621E+02  0.00000000000E+00 0.  1.
          5    1    1    2  502    0  0.19566976135E+02 -0.40572798744E+02  0.60614991974E+03  0.60783948025E+03  0.47000000000E+01 0. -1.
         -5    1    1    2    0  502 -0.84284679387E+01  0.17078109821E+02  0.11228757154E+02  0.22602563882E+02  0.47000000000E+01 0. -1.
        -11    1    1    2    0    0  0.34093429648E+02 -0.14349151244E+01  0.34565614504E+02  0.48571623739E+02  0.00000000000E+00 0. -1.
         11    1    1    2    0    0 -0.45231937844E+02  0.24929604047E+02  0.15668932319E+03  0.16498168795E+03  0.00000000000E+00 0.  1.
<mgrwt>
<rscale>  0 0.11858181E+03</rscale>
<asrwt>0</asrwt>
<pdfrwt beam="1">  1        1 0.12712528E+00 0.12767435E+03</pdfrwt>
<pdfrwt beam="2">  1       -1 0.27201346E-02 0.12767435E+03</pdfrwt>
<totfact> 0.91575734E+03</totfact>
</mgrwt>
</event>
<event>
 6    1  0.9263730E-006  0.1346858E+03  0.7546771E-02  0.1235389E+00
         -2   -1    0    0    0  501 -0.00000000000E+00  0.00000000000E+00  0.40027005225E+02  0.40027005225E+02  0.00000000000E+00 0.  1.
          2   -1    0    0  501    0  0.00000000000E+00 -0.00000000000E+00 -0.44492898108E+03  0.44492898108E+03  0.00000000000E+00 0. -1.
          5    1    1    2  502    0  0.42330535969E+02 -0.70927573963E+02 -0.30251647034E+03  0.31362541327E+03  0.47000000000E+01 0.  1.
         -5    1    1    2    0  502 -0.28320932850E+02  0.22785377176E+02 -0.39146650906E+02  0.53626475995E+02  0.47000000000E+01 0.  1.
        -11    1    1    2    0    0 -0.48973210175E+02  0.17576846977E+02 -0.40833975677E+02  0.66141775257E+02  0.00000000000E+00 0. -1.
         11    1    1    2    0    0  0.34963607057E+02  0.30565349811E+02 -0.22404878935E+02  0.51562321782E+02  0.00000000000E+00 0.  1.
<mgrwt>
<rscale>  0 0.12479551E+03</rscale>
<asrwt>0</asrwt>
<pdfrwt beam="2">  1        2 0.68450609E-01 0.13468579E+03</pdfrwt>
<pdfrwt beam="1">  1       -2 0.61580011E-02 0.13468579E+03</pdfrwt>
<totfact> 0.95932727E+03</totfact>
</mgrwt>
</event>
<event>
 6    1  0.9263730E-006  0.1274393E+03  0.7546771E-02  0.1245776E+00
          1   -1    0    0  501    0  0.00000000000E+00  0.00000000000E+00  0.31390077279E+03  0.31390077279E+03  0.00000000000E+00 0. -1.
         -1   -1    0    0    0  501 -0.00000000000E+00 -0.00000000000E+00 -0.40967239208E+02  0.40967239208E+02  0.00000000000E+00 0.  1.
          5    1    1    2  502    0  0.42135015080E+02 -0.44807204323E+02  0.55319455200E+02  0.82857571643E+02  0.47000000000E+01 0.  1.
         -5    1    1    2    0  502 -0.18624907934E+02  0.52720698901E+02  0.13491599350E+03  0.14611904253E+03  0.47000000000E+01 0.  1.
        -11    1    1    2    0    0 -0.32724735854E+02 -0.45514899663E+02  0.45448381644E+02  0.72166957966E+02  0.00000000000E+00 0.  1.
         11    1    1    2    0    0  0.92146287090E+01  0.37601405086E+02  0.37249703241E+02  0.53724439859E+02  0.00000000000E+00 0. -1.
<mgrwt>
<rscale>  0 0.11839028E+03</rscale>
<asrwt>0</asrwt>
<pdfrwt beam="1">  1        1 0.48292425E-01 0.12743926E+03</pdfrwt>
<pdfrwt beam="2">  1       -1 0.63026524E-02 0.12743926E+03</pdfrwt>
<totfact> 0.96641774E+03</totfact>
</mgrwt>
</event>
<event>
 6    1  0.9263730E-006  0.1320133E+03  0.7546771E-02  0.1236230E+00
          2   -1    0    0  501    0  0.00000000000E+00  0.00000000000E+00  0.16661501081E+03  0.16661501081E+03  0.00000000000E+00 0.  1.
         -2   -1    0    0    0  501 -0.00000000000E+00 -0.00000000000E+00 -0.97890399446E+02  0.97890399446E+02  0.00000000000E+00 0. -1.
          5    1    1    2  502    0 -0.60532630095E+02 -0.37517845644E+02  0.80742436470E+02  0.10776464678E+03  0.47000000000E+01 0.  1.
         -5    1    1    2    0  502  0.50265722602E+02 -0.36730197018E+01  0.78586042903E+01  0.51224814336E+02  0.47000000000E+01 0.  1.
        -11    1    1    2    0    0  0.42654117609E+02  0.52088535819E+02 -0.23136999410E+02  0.71189255189E+02  0.00000000000E+00 0.  1.
         11    1    1    2    0    0 -0.32387210116E+02 -0.10897670473E+02  0.32605700127E+01  0.34326693951E+02  0.00000000000E+00 0. -1.
<mgrwt>
<rscale>  0 0.12426001E+03</rscale>
<asrwt>0</asrwt>
<pdfrwt beam="1">  1        2 0.25633079E-01 0.13201327E+03</pdfrwt>
<pdfrwt beam="2">  1       -2 0.15060061E-01 0.13201327E+03</pdfrwt>
<totfact> 0.67382767E+03</totfact>
</mgrwt>
</event>
<event>
 6    1  0.9263730E-006  0.1324642E+03  0.7546771E-02  0.1236232E+00
          2   -1    0    0  501    0  0.00000000000E+00  0.00000000000E+00  0.99743577088E+02  0.99743577088E+02  0.00000000000E+00 0. -1.
         -2   -1    0    0    0  501 -0.00000000000E+00 -0.00000000000E+00 -0.17010781533E+03  0.17010781533E+03  0.00000000000E+00 0.  1.
          5    1    1    2  502    0 -0.65490925762E+02 -0.61345661811E+01 -0.85263564083E+01  0.66494232931E+02  0.47000000000E+01 0. -1.
         -5    1    1    2    0  502  0.42905884787E+02  0.43730474922E+02  0.27517776615E+02  0.67324493433E+02  0.47000000000E+01 0. -1.
        -11    1    1    2    0    0 -0.28826643091E+02  0.11212847596E+02 -0.19846408996E+02  0.36750282355E+02  0.00000000000E+00 0.  1.
         11    1    1    2    0    0  0.51411684066E+02 -0.48808756336E+02 -0.69509249450E+02  0.99282383698E+02  0.00000000000E+00 0. -1.
<mgrwt>
<rscale>  0 0.12425913E+03</rscale>
<asrwt>0</asrwt>
<pdfrwt beam="1">  1        2 0.15345166E-01 0.13246425E+03</pdfrwt>
<pdfrwt beam="2">  1       -2 0.26170433E-01 0.13246425E+03</pdfrwt>
<totfact> 0.47307299E+03</totfact>
</mgrwt>
</event>
<event>
 6    1  0.9263730E-006  0.1324258E+03  0.7546771E-02  0.1241222E+00
         -1   -1    0    0    0  501 -0.00000000000E+00  0.00000000000E+00  0.61594873691E+02  0.61594873691E+02  0.00000000000E+00 0.  1.
          1   -1    0    0  501    0  0.00000000000E+00 -0.00000000000E+00 -0.29433352508E+03  0.29433352508E+03  0.00000000000E+00 0. -1.
          5    1    1    2  502    0  0.56934870318E+02 -0.52612765092E+02 -0.14131925270E+03  0.16125415868E+03  0.47000000000E+01 0. -1.
         -5    1    1    2    0  502 -0.53558782013E+02  0.90242808712E+01 -0.85934339977E+02  0.10176827385E+03  0.47000000000E+01 0. -1.
        -11    1    1    2    0    0 -0.37759042229E+02  0.69762255771E+01  0.11171393091E+02  0.39990161502E+02  0.00000000000E+00 0.  1.
         11    1    1    2    0    0  0.34382953924E+02  0.36612258643E+02 -0.16656451799E+02  0.52915804728E+02  0.00000000000E+00 0. -1.
<mgrwt>
<rscale>  0 0.12114372E+03</rscale>
<asrwt>0</asrwt>
<pdfrwt beam="2">  1        1 0.45282081E-01 0.13242585E+03</pdfrwt>
<pdfrwt beam="1">  1       -1 0.94761343E-02 0.13242585E+03</pdfrwt>
<totfact> 0.56807337E+03</totfact>
</mgrwt>
</event>
<event>
 6    1  0.9263730E-006  0.1524773E+03  0.7546771E-02  0.1207449E+00
          2   -1    0    0  501    0  0.00000000000E+00  0.00000000000E+00  0.10490085807E+04  0.10490085807E+04  0.00000000000E+00 0. -1.
         -2   -1    0    0    0  501 -0.00000000000E+00 -0.00000000000E+00 -0.21448590686E+02  0.21448590686E+02  0.00000000000E+00 0.  1.
          5    1    1    2  502    0  0.90467732354E+02 -0.70932313603E+02  0.53242800808E+03  0.54471779620E+03  0.47000000000E+01 0.  1.
         -5    1    1    2    0  502 -0.35086438932E+02  0.34121489674E+01  0.23941258024E+03  0.24203961356E+03  0.47000000000E+01 0.  1.
        -11    1    1    2    0    0 -0.66810349752E+02  0.57984295797E+02  0.25369705815E+03  0.26867824383E+03  0.00000000000E+00 0. -1.
         11    1    1    2    0    0  0.11429056330E+02  0.95358688378E+01  0.20223435340E+01  0.15021517782E+02  0.00000000000E+00 0.  1.
<mgrwt>
<rscale>  0 0.14446125E+03</rscale>
<asrwt>0</asrwt>
<pdfrwt beam="1">  1        2 0.16138590E+00 0.15247730E+03</pdfrwt>
<pdfrwt beam="2">  1       -2 0.32997840E-02 0.15247730E+03</pdfrwt>
<totfact> 0.87606623E+03</totfact>
</mgrwt>
</event>
<event>
 6    1  0.9263730E-006  0.1693172E+03  0.7546771E-02  0.1183274E+00
         -2   -1    0    0    0  501 -0.00000000000E+00  0.00000000000E+00  0.56722152483E+02  0.56722152483E+02  0.00000000000E+00 0.  1.
          2   -1    0    0  501    0  0.00000000000E+00 -0.00000000000E+00 -0.14978351649E+04  0.14978351649E+04  0.00000000000E+00 0. -1.
          5    1    1    2  502    0  0.11780046604E+03 -0.11206467784E+02 -0.11277628942E+04  0.11339637429E+04  0.47000000000E+01 0. -1.
         -5    1    1    2    0  502 -0.12404029774E+01  0.45677410908E+02 -0.25236737360E+03  0.25651383145E+03  0.47000000000E+01 0.  1.
        -11    1    1    2    0    0 -0.29142047023E+02  0.31421198036E+02 -0.16866907625E+02  0.46054784372E+02  0.00000000000E+00 0.  1.
         11    1    1    2    0    0 -0.87418016043E+02 -0.65892141160E+02 -0.44115837037E+02  0.11802495869E+03  0.00000000000E+00 0. -1.
<mgrwt>
<rscale>  0 0.16489957E+03</rscale>
<asrwt>0</asrwt>
<pdfrwt beam="2">  1        2 0.23043615E+00 0.16931724E+03</pdfrwt>
<pdfrwt beam="1">  1       -2 0.87264860E-02 0.16931724E+03</pdfrwt>
<totfact> 0.11383246E+03</totfact>
</mgrwt>
</event>
<event>
 6    1  0.9263730E-006  0.1281599E+03  0.7546771E-02  0.1244491E+00
          2   -1    0    0  501    0  0.00000000000E+00  0.00000000000E+00  0.13469456354E+03  0.13469456354E+03  0.00000000000E+00 0. -1.
         -2   -1    0    0    0  501 -0.00000000000E+00 -0.00000000000E+00 -0.10068133392E+03  0.10068133392E+03  0.00000000000E+00 0.  1.
          5    1    1    2  502    0 -0.38881449360E+02  0.28710768201E+02 -0.29228537100E+01  0.48648827209E+02  0.47000000000E+01 0.  1.
         -5    1    1    2    0  502  0.66783236483E+02 -0.23854460238E+02  0.54236600886E+02  0.89402096307E+02  0.47000000000E+01 0.  1.
        -11    1    1    2    0    0 -0.41737788844E+02 -0.16788217710E+02 -0.45331299640E+02  0.63865593229E+02  0.00000000000E+00 0.  1.
         11    1    1    2    0    0  0.13836001720E+02  0.11931909747E+02  0.28030782080E+02  0.33459380715E+02  0.00000000000E+00 0. -1.
<mgrwt>
<rscale>  0 0.11915906E+03</rscale>
<asrwt>0</asrwt>
<pdfrwt beam="1">  1        2 0.20722240E-01 0.12815989E+03</pdfrwt>
<pdfrwt beam="2">  1       -2 0.15489436E-01 0.12815989E+03</pdfrwt>
<totfact> 0.81333157E+03</totfact>
</mgrwt>
</event>
<event>
 6    1  0.9263730E-006  0.1260411E+03  0.7546771E-02  0.1247785E+00
          2   -1    0    0  501    0  0.00000000000E+00  0.00000000000E+00  0.21173185883E+03  0.21173185883E+03  0.00000000000E+00 0. -1.
         -2   -1    0    0    0  501 -0.00000000000E+00 -0.00000000000E+00 -0.93668715477E+02  0.93668715477E+02  0.00000000000E+00 0.  1.
          5    1    1    2  502    0  0.43330803525E+02 -0.47955376557E+02  0.12073501221E+03  0.13702667568E+03  0.47000000000E+01 0.  1.
         -5    1    1    2    0  502 -0.42833993184E+02  0.31819713308E+02  0.38062896985E+02  0.65712398023E+02  0.47000000000E+01 0.  1.
        -11    1    1    2    0    0 -0.43571802693E+02  0.24053886620E+02 -0.27733486687E+02  0.56975764455E+02  0.00000000000E+00 0. -1.
         11    1    1    2    0    0  0.43074992352E+02 -0.79182233701E+01 -0.13001279156E+02  0.45685736146E+02  0.00000000000E+00 0.  1.
<mgrwt>
<rscale>  0 0.11720229E+03</rscale>
<asrwt>0</asrwt>
<pdfrwt beam="1">  1        2 0.32574132E-01 0.12604109E+03</pdfrwt>
<pdfrwt beam="2">  1       -2 0.14410572E-01 0.12604109E+03</pdfrwt>
<totfact> 0.55638380E+03</totfact>
</mgrwt>
</event>
<event>
 6    1  0.9263730E-006  0.2941740E+03  0.7546771E-02  0.1089741E+00
         -2   -1    0    0    0  501 -0.00000000000E+00  0.00000000000E+00  0.65662525512E+03  0.65662525512E+03  0.00000000000E+00 0.  1.
          2   -1    0    0  501    0  0.00000000000E+00 -0.00000000000E+00 -0.14005235034E+03  0.14005235034E+03  0.00000000000E+00 0. -1.
          5    1    1    2  502    0 -0.16931621925E+03  0.59982752844E+02  0.13666818244E+03  0.22575693751E+03  0.47000000000E+01 0.  1.
         -5    1    1    2    0  502 -0.55519565471E+02  0.82713881667E+02  0.27145080006E+01  0.99767063324E+02  0.47000000000E+01 0.  1.
        -11    1    1    2    0    0  0.92820423327E+02 -0.26906420137E+02  0.77801687349E+02  0.12406727605E+03  0.00000000000E+00 0.  1.
         11    1    1    2    0    0  0.13201536140E+03 -0.11579021437E+03  0.29938852699E+03  0.34708632858E+03  0.00000000000E+00 0. -1.
<mgrwt>
<rscale>  0 0.29116860E+03</rscale>
<asrwt>0</asrwt>
<pdfrwt beam="2">  1        2 0.21546516E-01 0.29417400E+03</pdfrwt>
<pdfrwt beam="1">  1       -2 0.10101927E+00 0.29417400E+03</pdfrwt>
<totfact> 0.21418408E+02</totfact>
</mgrwt>
</event>
<event>
 6    1  0.9263730E-006  0.1317792E+03  0.7546771E-02  0.1237195E+00
         -2   -1    0    0    0  501 -0.00000000000E+00  0.00000000000E+00  0.32421066714E+02  0.32421066714E+02  0.00000000000E+00 0.  1.
          2   -1    0    0  501    0  0.00000000000E+00 -0.00000000000E+00 -0.43826281595E+03  0.43826281595E+03  0.00000000000E+00 0. -1.
          5    1    1    2  502    0 -0.58729629872E+02  0.19811318562E+02 -0.24371939240E+03  0.25152115219E+03  0.47000000000E+01 0. -1.
         -5    1    1    2    0  502  0.38652347110E+02  0.16764583383E+02 -0.28985805890E+02  0.51354864776E+02  0.47000000000E+01 0. -1.
        -11    1    1    2    0    0 -0.27116017056E+02  0.12510212665E+02 -0.64737146305E+02  0.71292930320E+02  0.00000000000E+00 0. -1.
         11    1    1    2    0    0  0.47193299819E+02 -0.49086114610E+02 -0.68399404637E+02  0.96514935373E+02  0.00000000000E+00 0.  1.
<mgrwt>
<rscale>  0 0.12364946E+03</rscale>
<asrwt>0</asrwt>
<pdfrwt beam="2">  1        2 0.67425042E-01 0.13177920E+03</pdfrwt>
<pdfrwt beam="1">  1       -2 0.49878569E-02 0.13177920E+03</pdfrwt>
<totfact> 0.13379553E+04</totfact>
</mgrwt>
</event>
<event>
 6    1  0.9263730E-006  0.3551548E+03  0.7546771E-02  0.1094693E+00
          2   -1    0    0  501    0  0.00000000000E+00  0.00000000000E+00  0.17280594400E+04  0.17280594400E+04  0.00000000000E+00 0. -1.
         -2   -1    0    0    0  501 -0.00000000000E+00 -0.00000000000E+00 -0.35995729010E+02  0.35995729010E+02  0.00000000000E+00 0.  1.
          5    1    1    2  502    0  0.90656513686E+02  0.67458048479E+02  0.70098295534E+03  0.71004815714E+03  0.47000000000E+01 0. -1.
         -5    1    1    2    0  502 -0.11932006325E+03 -0.16262744732E+03  0.42187895533E+03  0.46764185770E+03  0.47000000000E+01 0.  1.
        -11    1    1    2    0    0 -0.32611341342E+02  0.47194108299E+02  0.32621357473E+03  0.33121908124E+03  0.00000000000E+00 0.  1.
         11    1    1    2    0    0  0.61274890908E+02  0.47975290542E+02  0.24298822560E+03  0.25514607294E+03  0.00000000000E+00 0. -1.
<mgrwt>
<rscale>  0 0.28183043E+03</rscale>
<asrwt>0</asrwt>
<pdfrwt beam="1">  1        2 0.26585523E+00 0.35515476E+03</pdfrwt>
<pdfrwt beam="2">  1       -2 0.55378058E-02 0.35515476E+03</pdfrwt>
<totfact> 0.17213781E+03</totfact>
</mgrwt>
</event>
<event>
 6    1  0.9263730E-006  0.4082042E+03  0.7546771E-02  0.1040975E+00
         -1   -1    0    0    0  501 -0.00000000000E+00  0.00000000000E+00  0.30132562340E+03  0.30132562340E+03  0.00000000000E+00 0.  1.
          1   -1    0    0  501    0  0.00000000000E+00 -0.00000000000E+00 -0.13824799001E+03  0.13824799001E+03  0.00000000000E+00 0. -1.
          5    1    1    2  502    0 -0.17592701029E+02  0.14397093331E+02 -0.27473259300E+02  0.35967337995E+02  0.47000000000E+01 0. -1.
         -5    1    1    2    0  502  0.15090211149E+03  0.20391978397E+02 -0.18268706604E+01  0.15235717079E+03  0.47000000000E+01 0. -1.
        -11    1    1    2    0    0 -0.31234702701E+02 -0.31217891814E+02  0.11476808878E+03  0.12297104384E+03  0.00000000000E+00 0.  1.
         11    1    1    2    0    0 -0.10207470776E+03 -0.35711799142E+01  0.77609674574E+02  0.12827806078E+03  0.00000000000E+00 0. -1.
<mgrwt>
<rscale>  0 0.40820417E+03</rscale>
<asrwt>0</asrwt>
<pdfrwt beam="2">  1        1 0.21268922E-01 0.40820417E+03</pdfrwt>
<pdfrwt beam="1">  1       -1 0.46357788E-01 0.40820417E+03</pdfrwt>
<totfact> 0.11189912E+03</totfact>
</mgrwt>
</event>
<event>
 6    1  0.9263730E-006  0.1290780E+03  0.7546771E-02  0.1243070E+00
          2   -1    0    0  501    0  0.00000000000E+00  0.00000000000E+00  0.68899507254E+02  0.68899507254E+02  0.00000000000E+00 0. -1.
         -2   -1    0    0    0  501 -0.00000000000E+00 -0.00000000000E+00 -0.19353139331E+03  0.19353139331E+03  0.00000000000E+00 0.  1.
          5    1    1    2  502    0 -0.91975040891E+01  0.70874730704E+02 -0.24577931074E+02  0.75723089145E+02  0.47000000000E+01 0. -1.
         -5    1    1    2    0  502 -0.18405944331E+02 -0.54215488815E+02 -0.18413444516E+02  0.60326138224E+02  0.47000000000E+01 0. -1.
        -11    1    1    2    0    0  0.14861221966E+02 -0.10817451249E+02 -0.10090027204E+03  0.10256089931E+03  0.00000000000E+00 0.  1.
         11    1    1    2    0    0  0.12742226454E+02 -0.58417906401E+01  0.19259761569E+02  0.23820773887E+02  0.00000000000E+00 0. -1.
<mgrwt>
<rscale>  0 0.12001660E+03</rscale>
<asrwt>0</asrwt>
<pdfrwt beam="1">  1        2 0.10599924E-01 0.12907801E+03</pdfrwt>
<pdfrwt beam="2">  1       -2 0.29774061E-01 0.12907801E+03</pdfrwt>
<totfact> 0.58367996E+03</totfact>
</mgrwt>
</event>
<event>
 6    1  0.9263730E-006  0.1420627E+03  0.7546771E-02  0.1227787E+00
          2   -1    0    0  501    0  0.00000000000E+00  0.00000000000E+00  0.36705610195E+03  0.36705610195E+03  0.00000000000E+00 0. -1.
         -2   -1    0    0    0  501 -0.00000000000E+00 -0.00000000000E+00 -0.43400912510E+02  0.43400912510E+02  0.00000000000E+00 0.  1.
          5    1    1    2  502    0 -0.46682361235E+02  0.48593491594E+02  0.20473124352E+03  0.21558650781E+03  0.47000000000E+01 0. -1.
         -5    1    1    2    0  502  0.54152011835E+02 -0.10871027389E+02  0.43664052922E+02  0.70563865681E+02  0.47000000000E+01 0.  1.
        -11    1    1    2    0    0  0.33167466281E+02  0.31934974379E+01  0.52769383280E+02  0.62409030253E+02  0.00000000000E+00 0.  1.
         11    1    1    2    0    0 -0.40637116881E+02 -0.40915961644E+02  0.22490509725E+02  0.61897610723E+02  0.00000000000E+00 0. -1.
<mgrwt>
<rscale>  0 0.12977687E+03</rscale>
<asrwt>0</asrwt>
<pdfrwt beam="1">  1        2 0.56470167E-01 0.14206271E+03</pdfrwt>
<pdfrwt beam="2">  1       -2 0.66770637E-02 0.14206271E+03</pdfrwt>
<totfact> 0.10460807E+04</totfact>
</mgrwt>
</event>
<event>
 6    1  0.9263730E-006  0.1306669E+03  0.7546771E-02  0.1239523E+00
          1   -1    0    0  501    0  0.00000000000E+00  0.00000000000E+00  0.30446433364E+02  0.30446433364E+02  0.00000000000E+00 0. -1.
         -1   -1    0    0    0  501 -0.00000000000E+00 -0.00000000000E+00 -0.45509547141E+03  0.45509547141E+03  0.00000000000E+00 0.  1.
          5    1    1    2  502    0  0.37586932436E+02  0.35052034207E+01 -0.57378569603E+01  0.38471768135E+02  0.47000000000E+01 0. -1.
         -5    1    1    2    0  502 -0.34208214111E+02 -0.41420242731E+02 -0.18523740805E+03  0.19292699594E+03  0.47000000000E+01 0. -1.
        -11    1    1    2    0    0  0.43090141902E+02  0.23093229051E+02 -0.90076508430E+02  0.10248821848E+03  0.00000000000E+00 0. -1.
         11    1    1    2    0    0 -0.46468860227E+02  0.14821810260E+02 -0.14359726461E+03  0.15165492222E+03  0.00000000000E+00 0.  1.
<mgrwt>
<rscale>  0 0.12219244E+03</rscale>
<asrwt>0</asrwt>
<pdfrwt beam="1">  1        1 0.46840669E-02 0.13066689E+03</pdfrwt>
<pdfrwt beam="2">  1       -1 0.70014685E-01 0.13066689E+03</pdfrwt>
<totfact> 0.37410454E+03</totfact>
</mgrwt>
</event>
<event>
 6    1  0.9263730E-006  0.1628653E+03  0.7546771E-02  0.1192181E+00
          1   -1    0    0  501    0  0.00000000000E+00  0.00000000000E+00  0.12519891586E+03  0.12519891586E+03  0.00000000000E+00 0. -1.
         -1   -1    0    0    0  501 -0.00000000000E+00 -0.00000000000E+00 -0.24706576948E+03  0.24706576948E+03  0.00000000000E+00 0.  1.
          5    1    1    2  502    0 -0.72061408233E+02 -0.42124035963E+01  0.28608735436E+02  0.77789077921E+02  0.47000000000E+01 0. -1.
         -5    1    1    2    0  502  0.83422576385E+01  0.87242876629E+02  0.11595008385E+01  0.87774411005E+02  0.47000000000E+01 0. -1.
        -11    1    1    2    0    0  0.55873346859E+02 -0.12435604191E+01 -0.43109496511E+02  0.70581910014E+02  0.00000000000E+00 0. -1.
         11    1    1    2    0    0  0.78458037351E+01 -0.81786912614E+02 -0.10852559338E+03  0.13611928640E+03  0.00000000000E+00 0.  1.
<mgrwt>
<rscale>  0 0.15695256E+03</rscale>
<asrwt>0</asrwt>
<pdfrwt beam="1">  1        1 0.19261372E-01 0.16286535E+03</pdfrwt>
<pdfrwt beam="2">  1       -1 0.38010118E-01 0.16286535E+03</pdfrwt>
<totfact> 0.17826690E+03</totfact>
</mgrwt>
</event>
<event>
 6    1  0.9263730E-006  0.1619244E+03  0.7546771E-02  0.1194081E+00
         -1   -1    0    0    0  501 -0.00000000000E+00  0.00000000000E+00  0.56495329811E+02  0.56495329811E+02  0.00000000000E+00 0.  1.
          1   -1    0    0  501    0  0.00000000000E+00 -0.00000000000E+00 -0.43606188723E+03  0.43606188723E+03  0.00000000000E+00 0. -1.
          5    1    1    2  502    0 -0.73854249643E+02  0.58468227600E+02 -0.27565223556E+03  0.29134040022E+03  0.47000000000E+01 0. -1.
         -5    1    1    2    0  502  0.15524305611E+02  0.26335258600E+02 -0.31721761140E+01  0.31091841559E+02  0.47000000000E+01 0. -1.
        -11    1    1    2    0    0 -0.15240733038E+02  0.59376103216E+01 -0.77996959429E+00  0.16375088166E+02  0.00000000000E+00 0.  1.
         11    1    1    2    0    0  0.73570677070E+02 -0.90741096521E+02 -0.99962176149E+02  0.15374988710E+03  0.00000000000E+00 0. -1.
<mgrwt>
<rscale>  0 0.15532279E+03</rscale>
<asrwt>0</asrwt>
<pdfrwt beam="2">  1        1 0.67086446E-01 0.16192436E+03</pdfrwt>
<pdfrwt beam="1">  1       -1 0.86915889E-02 0.16192436E+03</pdfrwt>
<totfact> 0.39991289E+03</totfact>
</mgrwt>
</event>
<event>
 6    1  0.9263730E-006  0.1654131E+03  0.7546771E-02  0.1189862E+00
          4   -1    0    0  501    0  0.00000000000E+00  0.00000000000E+00  0.85199079779E+02  0.85199079779E+02  0.00000000000E+00 0. -1.
         -4   -1    0    0    0  501 -0.00000000000E+00 -0.00000000000E+00 -0.28210087167E+03  0.28210087167E+03  0.00000000000E+00 0.  1.
          5    1    1    2  502    0 -0.80070785639E+01  0.17469825412E+02  0.20043538860E+02  0.28162768989E+02  0.47000000000E+01 0.  1.
         -5    1    1    2    0  502  0.11560636869E+03 -0.30086869593E+02 -0.98559110930E+02  0.15493882842E+03  0.47000000000E+01 0.  1.
        -11    1    1    2    0    0 -0.88878382500E+01 -0.31591856307E+02 -0.31073649596E+02  0.45195251442E+02  0.00000000000E+00 0.  1.
         11    1    1    2    0    0 -0.98711451875E+02  0.44208900487E+02 -0.87312570220E+02  0.13900310260E+03  0.00000000000E+00 0. -1.
<mgrwt>
<rscale>  0 0.15897234E+03</rscale>
<asrwt>0</asrwt>
<pdfrwt beam="1">  1        4 0.13107551E-01 0.16541312E+03</pdfrwt>
<pdfrwt beam="2">  1       -4 0.43400134E-01 0.16541312E+03</pdfrwt>
<totfact> 0.42482308E+02</totfact>
</mgrwt>
</event>
<event>
 6    1  0.9263730E-006  0.1339506E+03  0.7546771E-02  0.1234015E+00
          2   -1    0    0  501    0  0.00000000000E+00  0.00000000000E+00  0.15201183659E+04  0.15201183659E+04  0.00000000000E+00 0. -1.
         -2   -1    0    0    0  501 -0.00000000000E+00 -0.00000000000E+00 -0.11147189377E+02  0.11147189377E+02  0.00000000000E+00 0.  1.
          5    1    1    2  502    0 -0.92660931428E+01  0.61004548564E+02  0.34140416555E+03  0.34696730348E+03  0.47000000000E+01 0. -1.
         -5    1    1    2    0  502  0.49301406356E+02 -0.34153865061E+02  0.80278440670E+03  0.80503540842E+03  0.47000000000E+01 0. -1.
        -11    1    1    2    0    0 -0.68131449451E+02 -0.31600984084E+02  0.27463145457E+03  0.28471556410E+03  0.00000000000E+00 0.  1.
         11    1    1    2    0    0  0.28096136238E+02  0.47503005806E+01  0.90151149681E+02  0.94547279262E+02  0.00000000000E+00 0. -1.
<mgrwt>
<rscale>  0 0.12567687E+03</rscale>
<asrwt>0</asrwt>
<pdfrwt beam="1">  1        2 0.23386420E+00 0.13395059E+03</pdfrwt>
<pdfrwt beam="2">  1       -2 0.17149534E-02 0.13395059E+03</pdfrwt>
<totfact> 0.12531781E+04</totfact>
</mgrwt>
</event>
<event>
 6    1  0.9263730E-006  0.1274992E+03  0.7546771E-02  0.1245845E+00
          2   -1    0    0  501    0  0.00000000000E+00  0.00000000000E+00  0.99802059124E+02  0.99802059124E+02  0.00000000000E+00 0. -1.
         -2   -1    0    0    0  501 -0.00000000000E+00 -0.00000000000E+00 -0.13960153527E+03  0.13960153527E+03  0.00000000000E+00 0.  1.
          5    1    1    2  502    0 -0.10388250907E+02 -0.69531857748E+02  0.15962049346E+02  0.72245913504E+02  0.47000000000E+01 0.  1.
         -5    1    1    2    0  502  0.26026669766E+02  0.49857539422E+02  0.16328121471E+01  0.56461649390E+02  0.47000000000E+01 0.  1.
        -11    1    1    2    0    0  0.30594084202E+02 -0.54220659375E+01  0.22691215112E+01  0.31153582452E+02  0.00000000000E+00 0. -1.
         11    1    1    2    0    0 -0.46232503061E+02  0.25096384263E+02 -0.59663459149E+02  0.79542449044E+02  0.00000000000E+00 0.  1.
<mgrwt>
<rscale>  0 0.11834944E+03</rscale>
<asrwt>0</asrwt>
<pdfrwt beam="1">  1        2 0.15354163E-01 0.12749925E+03</pdfrwt>
<pdfrwt beam="2">  1       -2 0.21477159E-01 0.12749925E+03</pdfrwt>
<totfact> 0.66380021E+03</totfact>
</mgrwt>
</event>
<event>
 6    1  0.9263730E-006  0.1534837E+03  0.7546771E-02  0.1201266E+00
         -3   -1    0    0    0  501 -0.00000000000E+00  0.00000000000E+00  0.16607086073E+02  0.16607086073E+02  0.00000000000E+00 0.  1.
          3   -1    0    0  501    0  0.00000000000E+00 -0.00000000000E+00 -0.13992509984E+04  0.13992509984E+04  0.00000000000E+00 0. -1.
          5    1    1    2  502    0  0.41364542528E+01 -0.61947834840E+02 -0.20797046276E+03  0.21709087469E+03  0.47000000000E+01 0. -1.
         -5    1    1    2    0  502  0.69013027116E+02 -0.12333071962E+02 -0.72771686002E+03  0.73110110172E+03  0.47000000000E+01 0.  1.
        -11    1    1    2    0    0 -0.67292876923E+01  0.57279127567E+02 -0.11439774435E+03  0.12811333139E+03  0.00000000000E+00 0.  1.
         11    1    1    2    0    0 -0.66420193676E+02  0.17001779234E+02 -0.33255884524E+03  0.33955277672E+03  0.00000000000E+00 0. -1.
<mgrwt>
<rscale>  0 0.14935621E+03</rscale>
<asrwt>0</asrwt>
<pdfrwt beam="2">  1        3 0.21526934E+00 0.15348374E+03</pdfrwt>
<pdfrwt beam="1">  1       -3 0.25549369E-02 0.15348374E+03</pdfrwt>
<totfact> 0.20384314E+02</totfact>
</mgrwt>
</event>
<event>
 6    1  0.9263730E-006  0.1303875E+03  0.7546771E-02  0.1243345E+00
          2   -1    0    0  501    0  0.00000000000E+00  0.00000000000E+00  0.57698580057E+03  0.57698580057E+03  0.00000000000E+00 0. -1.
         -2   -1    0    0    0  501 -0.00000000000E+00 -0.00000000000E+00 -0.21673778935E+02  0.21673778935E+02  0.00000000000E+00 0.  1.
          5    1    1    2  502    0  0.59213943414E+02  0.88258856754E+01  0.16361124930E+03  0.17428401605E+03  0.47000000000E+01 0. -1.
         -5    1    1    2    0  502 -0.53282533729E+02 -0.45441920063E+02  0.17252004360E+03  0.18625050858E+03  0.47000000000E+01 0. -1.
        -11    1    1    2    0    0 -0.29079193572E+02 -0.13897384834E+02  0.45395423417E+02  0.55672985112E+02  0.00000000000E+00 0.  1.
         11    1    1    2    0    0  0.23147783886E+02  0.50513419222E+02  0.17378530531E+03  0.18245206977E+03  0.00000000000E+00 0. -1.
<mgrwt>
<rscale>  0 0.11984990E+03</rscale>
<asrwt>0</asrwt>
<pdfrwt beam="1">  1        2 0.88767035E-01 0.13038749E+03</pdfrwt>
<pdfrwt beam="2">  1       -2 0.33344280E-02 0.13038749E+03</pdfrwt>
<totfact> 0.17979164E+04</totfact>
</mgrwt>
</event>
<event>
 6    1  0.1009841E-005  0.1565243E+03  0.7546771E-02  0.1200573E+00
          1   -1    0    0  501    0  0.00000000000E+00  0.00000000000E+00  0.39330128065E+03  0.39330128065E+03  0.00000000000E+00 0. -1.
         -1   -1    0    0    0  501 -0.00000000000E+00 -0.00000000000E+00 -0.54540508930E+02  0.54540508930E+02  0.00000000000E+00 0.  1.
          5    1    1    2  502    0  0.40267961128E+02 -0.42513971749E+02  0.20484639394E+03  0.21310345281E+03  0.47000000000E+01 0. -1.
         -5    1    1    2    0  502  0.51765687105E+02  0.22383360931E+02  0.18324027289E+02  0.59485806577E+02  0.47000000000E+01 0. -1.
        -11    1    1    2    0    0 -0.38349157186E+02  0.35679871886E+02  0.66360970887E+01  0.52799137297E+02  0.00000000000E+00 0.  1.
         11    1    1    2    0    0 -0.53684491046E+02 -0.15549261068E+02  0.10895425340E+03  0.12245339290E+03  0.00000000000E+00 0. -1.
<mgrwt>
<rscale>  0 0.14991880E+03</rscale>
<asrwt>0</asrwt>
<pdfrwt beam="1">  1        1 0.60507887E-01 0.15652433E+03</pdfrwt>
<pdfrwt beam="2">  1       -1 0.83908478E-02 0.15652433E+03</pdfrwt>
<totfact> 0.48034578E+03</totfact>
</mgrwt>
</event>
<event>
 6    1  0.9263730E-006  0.1274915E+03  0.7546771E-02  0.1245463E+00
         -2   -1    0    0    0  501 -0.00000000000E+00  0.00000000000E+00  0.13787952189E+03  0.13787952189E+03  0.00000000000E+00 0.  1.
          2   -1    0    0  501    0  0.00000000000E+00 -0.00000000000E+00 -0.95990699857E+02  0.95990699857E+02  0.00000000000E+00 0. -1.
          5    1    1    2  502    0 -0.65683775831E+02  0.21065539253E+02 -0.24780918210E+02  0.73445893410E+02  0.47000000000E+01 0. -1.
         -5    1    1    2    0  502  0.50143172074E+02 -0.13347697891E+01  0.19827444063E+02  0.54141821674E+02  0.47000000000E+01 0. -1.
        -11    1    1    2    0    0 -0.24718467196E+02  0.22494726205E+02  0.35035444825E+01  0.33604912610E+02  0.00000000000E+00 0. -1.
         11    1    1    2    0    0  0.40259070953E+02 -0.42225495669E+02  0.43338751694E+02  0.72677594050E+02  0.00000000000E+00 0.  1.
<mgrwt>
<rscale>  0 0.11857734E+03</rscale>
<asrwt>0</asrwt>
<pdfrwt beam="2">  1        2 0.14767800E-01 0.12749152E+03</pdfrwt>
<pdfrwt beam="1">  1       -2 0.21212234E-01 0.12749152E+03</pdfrwt>
<totfact> 0.70953620E+03</totfact>
</mgrwt>
</event>
<event>
 6    1  0.9263730E-006  0.1325625E+03  0.7546771E-02  0.1236583E+00
         -2   -1    0    0    0  501 -0.00000000000E+00  0.00000000000E+00  0.19556780785E+03  0.19556780785E+03  0.00000000000E+00 0.  1.
          2   -1    0    0  501    0  0.00000000000E+00 -0.00000000000E+00 -0.77092537501E+02  0.77092537501E+02  0.00000000000E+00 0. -1.
          5    1    1    2  502    0  0.47648156864E+02 -0.48252604604E+02 -0.29589192593E+02  0.74136839843E+02  0.47000000000E+01 0.  1.
         -5    1    1    2    0  502 -0.12069744740E+02  0.22138362567E+02  0.55212500106E+02  0.60879356133E+02  0.47000000000E+01 0.  1.
        -11    1    1    2    0    0 -0.30430625443E+02  0.60030586261E+02  0.61162302628E+02  0.90942407679E+02  0.00000000000E+00 0.  1.
         11    1    1    2    0    0 -0.51477866804E+01 -0.33916344223E+02  0.31689660205E+02  0.46701741692E+02  0.00000000000E+00 0. -1.
<mgrwt>
<rscale>  0 0.12403629E+03</rscale>
<asrwt>0</asrwt>
<pdfrwt beam="2">  1        2 0.11860390E-01 0.13256251E+03</pdfrwt>
<pdfrwt beam="1">  1       -2 0.30087355E-01 0.13256251E+03</pdfrwt>
<totfact> 0.50097020E+03</totfact>
</mgrwt>
</event>
<event>
 6    1  0.9263730E-006  0.1278686E+03  0.7546771E-02  0.1247283E+00
          1   -1    0    0  501    0  0.00000000000E+00  0.00000000000E+00  0.11323652598E+03  0.11323652598E+03  0.00000000000E+00 0. -1.
         -1   -1    0    0    0  501 -0.00000000000E+00 -0.00000000000E+00 -0.11613761872E+03  0.11613761872E+03  0.00000000000E+00 0.  1.
          5    1    1    2  502    0 -0.26106758736E+02 -0.29406187608E+02 -0.30626628374E+02  0.50063630381E+02  0.47000000000E+01 0. -1.
         -5    1    1    2    0  502  0.10505943183E+02  0.51341331584E+02  0.62536466805E+02  0.81726414650E+02  0.47000000000E+01 0. -1.
        -11    1    1    2    0    0  0.42872334152E+00 -0.35282759638E+02 -0.57335636330E+02  0.67323340119E+02  0.00000000000E+00 0.  1.
         11    1    1    2    0    0  0.15172092211E+02  0.13347615662E+02  0.22524705164E+02  0.30260759551E+02  0.00000000000E+00 0. -1.
<mgrwt>
<rscale>  0 0.11749750E+03</rscale>
<asrwt>0</asrwt>
<pdfrwt beam="1">  1        1 0.17421004E-01 0.12786860E+03</pdfrwt>
<pdfrwt beam="2">  1       -1 0.17867326E-01 0.12786860E+03</pdfrwt>
<totfact> 0.69943079E+03</totfact>
</mgrwt>
</event>
<event>
 6    1  0.9263730E-006  0.1549834E+03  0.7546771E-02  0.1203149E+00
         -1   -1    0    0    0  501 -0.00000000000E+00  0.00000000000E+00  0.17307315842E+03  0.17307315842E+03  0.00000000000E+00 0.  1.
          1   -1    0    0  501    0  0.00000000000E+00 -0.00000000000E+00 -0.15316928977E+03  0.15316928977E+03  0.00000000000E+00 0. -1.
          5    1    1    2  502    0 -0.73346983447E+02 -0.23951827549E+02  0.19357664036E+02  0.79688638968E+02  0.47000000000E+01 0.  1.
         -5    1    1    2    0  502 -0.14435254171E+02 -0.23087408152E+01 -0.88839923984E+02  0.90157245636E+02  0.47000000000E+01 0.  1.
        -11    1    1    2    0    0  0.99974269308E+02  0.22919668764E+02  0.48227740753E+02  0.11334055196E+03  0.00000000000E+00 0. -1.
         11    1    1    2    0    0 -0.12192031691E+02  0.33408995993E+01  0.41158387848E+02  0.43056011626E+02  0.00000000000E+00 0.  1.
<mgrwt>
<rscale>  0 0.14784291E+03</rscale>
<asrwt>0</asrwt>
<pdfrwt beam="2">  1        1 0.23564506E-01 0.15498335E+03</pdfrwt>
<pdfrwt beam="1">  1       -1 0.26626640E-01 0.15498335E+03</pdfrwt>
<totfact> 0.25221201E+03</totfact>
</mgrwt>
</event>
<event>
 6    1  0.9263730E-006  0.1299965E+03  0.7546771E-02  0.1240519E+00
          2   -1    0    0  501    0  0.00000000000E+00  0.00000000000E+00  0.68688049903E+03  0.68688049903E+03  0.00000000000E+00 0. -1.
         -2   -1    0    0    0  501 -0.00000000000E+00 -0.00000000000E+00 -0.22740248918E+02  0.22740248918E+02  0.00000000000E+00 0.  1.
          5    1    1    2  502    0 -0.75028496309E+01 -0.33259226752E+02  0.50467223057E+03  0.50584446150E+03  0.47000000000E+01 0.  1.
         -5    1    1    2    0  502 -0.16937074485E+02  0.72923024461E+01  0.43573263852E+01  0.19522255513E+02  0.47000000000E+01 0.  1.
        -11    1    1    2    0    0 -0.48995889714E+01  0.54580388367E+02  0.63385679649E+02  0.83790030140E+02  0.00000000000E+00 0.  1.
         11    1    1    2    0    0  0.29339513088E+02 -0.28613464061E+02  0.91725013506E+02  0.10046400080E+03  0.00000000000E+00 0. -1.
<mgrwt>
<rscale>  0 0.12157648E+03</rscale>
<asrwt>0</asrwt>
<pdfrwt beam="1">  1        2 0.10567391E+00 0.12999653E+03</pdfrwt>
<pdfrwt beam="2">  1       -2 0.34985004E-02 0.12999653E+03</pdfrwt>
<totfact> 0.13702004E+04</totfact>
</mgrwt>
</event>
<event>
 6    1  0.9263730E-006  0.1838334E+03  0.7546771E-02  0.1193856E+00
          2   -1    0    0  501    0  0.00000000000E+00  0.00000000000E+00  0.10888643826E+03  0.10888643826E+03  0.00000000000E+00 0. -1.
         -2   -1    0    0    0  501 -0.00000000000E+00 -0.00000000000E+00 -0.23838730208E+03  0.23838730208E+03  0.00000000000E+00 0.  1.
          5    1    1    2  502    0 -0.47651593368E+02  0.37922891005E+02  0.73815766258E+02  0.95810632818E+02  0.47000000000E+01 0. -1.
         -5    1    1    2    0  502  0.30032474592E+02 -0.44315592362E+02 -0.69770543168E+02  0.88067246752E+02  0.47000000000E+01 0.  1.
        -11    1    1    2    0    0  0.48566306896E+02  0.79880044240E+01 -0.35817322643E+02  0.60871791345E+02  0.00000000000E+00 0.  1.
         11    1    1    2    0    0 -0.30947188119E+02 -0.15953030672E+01 -0.97728764267E+02  0.10252406942E+03  0.00000000000E+00 0. -1.
<mgrwt>
<rscale>  0 0.15551413E+03</rscale>
<asrwt>0</asrwt>
<pdfrwt beam="1">  1        2 0.16751760E-01 0.18383338E+03</pdfrwt>
<pdfrwt beam="2">  1       -2 0.36674969E-01 0.18383338E+03</pdfrwt>
<totfact> 0.23570798E+03</totfact>
</mgrwt>
</event>
<event>
 6    1  0.9263730E-006  0.1264555E+03  0.7546771E-02  0.1246865E+00
          1   -1    0    0  501    0  0.00000000000E+00  0.00000000000E+00  0.35272085284E+02  0.35272085284E+02  0.00000000000E+00 0. -1.
         -1   -1    0    0    0  501 -0.00000000000E+00 -0.00000000000E+00 -0.43602756539E+03  0.43602756539E+03  0.00000000000E+00 0.  1.
          5    1    1    2  502    0 -0.36921719177E+02 -0.49507271405E+02 -0.10511517881E+03  0.12200604118E+03  0.47000000000E+01 0. -1.
         -5    1    1    2    0  502  0.16686639571E+02  0.46083598032E+02 -0.12747705953E+02  0.50859964164E+02  0.47000000000E+01 0. -1.
        -11    1    1    2    0    0 -0.26744539365E+02  0.16441452994E+02 -0.40794258083E+02  0.51475851182E+02  0.00000000000E+00 0. -1.
         11    1    1    2    0    0  0.46979618971E+02 -0.13017779621E+02 -0.24209833727E+03  0.24695779415E+03  0.00000000000E+00 0.  1.
<mgrwt>
<rscale>  0 0.11774456E+03</rscale>
<asrwt>0</asrwt>
<pdfrwt beam="1">  1        1 0.54264746E-02 0.12645551E+03</pdfrwt>
<pdfrwt beam="2">  1       -1 0.67081164E-01 0.12645551E+03</pdfrwt>
<totfact> 0.33216656E+03</totfact>
</mgrwt>
</event>
<event>
 6    1  0.9263730E-006  0.2016264E+03  0.7546771E-02  0.1152535E+00
         -2   -1    0    0    0  501 -0.00000000000E+00  0.00000000000E+00  0.18821612969E+02  0.18821612969E+02  0.00000000000E+00 0. -1.
          2   -1    0    0  501    0  0.00000000000E+00 -0.00000000000E+00 -0.23381008268E+04  0.23381008268E+04  0.00000000000E+00 0.  1.
          5    1    1    2  502    0 -0.10848990730E+03 -0.76174539046E+01 -0.11707727848E+04  0.11758227287E+04  0.47000000000E+01 0. -1.
         -5    1    1    2    0  502 -0.33280348013E+02  0.77798060655E+02 -0.50890728280E+03  0.51591552825E+03  0.47000000000E+01 0. -1.
        -11    1    1    2    0    0  0.11526977911E+03 -0.96728359933E+01 -0.43926559699E+03  0.45424107083E+03  0.00000000000E+00 0.  1.
         11    1    1    2    0    0  0.26500476201E+02 -0.60507770757E+02 -0.20033354920E+03  0.21094311199E+03  0.00000000000E+00 0. -1.
<mgrwt>
<rscale>  0 0.19672116E+03</rscale>
<asrwt>0</asrwt>
<pdfrwt beam="2">  1        2 0.35970788E+00 0.20162639E+03</pdfrwt>
<pdfrwt beam="1">  1       -2 0.28956323E-02 0.20162639E+03</pdfrwt>
<totfact> 0.22046206E+03</totfact>
</mgrwt>
</event>
<event>
 6    1  0.9263730E-006  0.1288938E+03  0.7546771E-02  0.1243438E+00
         -2   -1    0    0    0  501 -0.00000000000E+00  0.00000000000E+00  0.15673601705E+02  0.15673601705E+02  0.00000000000E+00 0.  1.
          2   -1    0    0  501    0  0.00000000000E+00 -0.00000000000E+00 -0.81324834780E+03  0.81324834780E+03  0.00000000000E+00 0. -1.
          5    1    1    2  502    0 -0.36845425771E+02  0.34699851047E+02 -0.20367596607E+03  0.20992297211E+03  0.47000000000E+01 0.  1.
         -5    1    1    2    0  502  0.68270719087E+02 -0.34192439138E+02 -0.21960077611E+03  0.23254376974E+03  0.47000000000E+01 0.  1.
        -11    1    1    2    0    0  0.22017829871E+02 -0.25825234846E+02 -0.18662259207E+03  0.18968320816E+03  0.00000000000E+00 0. -1.
         11    1    1    2    0    0 -0.53443123187E+02  0.25317822937E+02 -0.18767541186E+03  0.19677199951E+03  0.00000000000E+00 0.  1.
<mgrwt>
<rscale>  0 0.11979364E+03</rscale>
<asrwt>0</asrwt>
<pdfrwt beam="2">  1        2 0.12511512E+00 0.12889382E+03</pdfrwt>
<pdfrwt beam="1">  1       -2 0.24113236E-02 0.12889382E+03</pdfrwt>
<totfact> 0.19260392E+04</totfact>
</mgrwt>
</event>
<event>
 6    1  0.9263730E-006  0.1292314E+03  0.7546771E-02  0.1244256E+00
          3   -1    0    0  501    0  0.00000000000E+00  0.00000000000E+00  0.11084953523E+04  0.11084953523E+04  0.00000000000E+00 0. -1.
         -3   -1    0    0    0  501 -0.00000000000E+00 -0.00000000000E+00 -0.15871682508E+02  0.15871682508E+02  0.00000000000E+00 0.  1.
          5    1    1    2  502    0 -0.27302660481E+02  0.27786274550E+01  0.89205173628E+03  0.89248616026E+03  0.47000000000E+01 0.  1.
         -5    1    1    2    0  502 -0.13823381815E+01 -0.18656899736E+02  0.17018417163E+02  0.25723671770E+02  0.47000000000E+01 0.  1.
        -11    1    1    2    0    0  0.72109161097E+01 -0.12667502357E+02 -0.40938566073E+01  0.15140098712E+02  0.00000000000E+00 0.  1.
         11    1    1    2    0    0  0.21474082553E+02  0.28545774637E+02  0.18764737294E+03  0.19101710405E+03  0.00000000000E+00 0. -1.
<mgrwt>
<rscale>  0 0.11930021E+03</rscale>
<asrwt>0</asrwt>
<pdfrwt beam="1">  1        3 0.17053769E+00 0.12923139E+03</pdfrwt>
<pdfrwt beam="2">  1       -3 0.24417982E-02 0.12923139E+03</pdfrwt>
<totfact> 0.40217107E+02</totfact>
</mgrwt>
</event>
<event>
 6    1  0.9263730E-006  0.1387376E+03  0.7546771E-02  0.1224759E+00
          1   -1    0    0  501    0  0.00000000000E+00  0.00000000000E+00  0.88245397581E+03  0.88245397581E+03  0.00000000000E+00 0. -1.
         -1   -1    0    0    0  501 -0.00000000000E+00 -0.00000000000E+00 -0.18782149138E+03  0.18782149138E+03  0.00000000000E+00 0.  1.
          5    1    1    2  502    0 -0.32630839044E+02  0.73477715192E+02  0.78645019861E+03  0.79056293309E+03  0.47000000000E+01 0. -1.
         -5    1    1    2    0  502 -0.16996124443E+02 -0.27582929046E+02  0.72888781743E+02  0.79903383688E+02  0.47000000000E+01 0.  1.
        -11    1    1    2    0    0 -0.20003952757E+02 -0.13068755637E+02 -0.79702252723E+01  0.25188787003E+02  0.00000000000E+00 0. -1.
         11    1    1    2    0    0  0.69630916244E+02 -0.32826030509E+02 -0.15673627066E+03  0.17462036341E+03  0.00000000000E+00 0.  1.
<mgrwt>
<rscale>  0 0.13183408E+03</rscale>
<asrwt>0</asrwt>
<pdfrwt beam="1">  1        1 0.13576215E+00 0.13873761E+03</pdfrwt>
<pdfrwt beam="2">  1       -1 0.28895615E-01 0.13873761E+03</pdfrwt>
<totfact> 0.22275171E+02</totfact>
</mgrwt>
</event>
<event>
 6    1  0.9263730E-006  0.1278355E+03  0.7546771E-02  0.1246948E+00
          4   -1    0    0  501    0  0.00000000000E+00  0.00000000000E+00  0.87978254586E+02  0.87978254586E+02  0.00000000000E+00 0. -1.
         -4   -1    0    0    0  501 -0.00000000000E+00 -0.00000000000E+00 -0.15419065176E+03  0.15419065176E+03  0.00000000000E+00 0.  1.
          5    1    1    2  502    0  0.27370764496E+02  0.33837770685E+02  0.35933962429E+02  0.56634734305E+02  0.47000000000E+01 0. -1.
         -5    1    1    2    0  502 -0.19312684841E+02 -0.59284335333E+02 -0.34084480705E+02  0.71214142111E+02  0.47000000000E+01 0. -1.
        -11    1    1    2    0    0 -0.20175553237E+02  0.54883642495E+02 -0.53720884510E+02  0.79405293240E+02  0.00000000000E+00 0. -1.
         11    1    1    2    0    0  0.12117473583E+02 -0.29437077846E+02 -0.14340994390E+02  0.34914736692E+02  0.00000000000E+00 0.  1.
<mgrwt>
<rscale>  0 0.11769550E+03</rscale>
<asrwt>0</asrwt>
<pdfrwt beam="1">  1        4 0.13535116E-01 0.12783550E+03</pdfrwt>
<pdfrwt beam="2">  1       -4 0.23721638E-01 0.12783550E+03</pdfrwt>
<totfact> 0.12122202E+03</totfact>
</mgrwt>
</event>
<event>
 6    1  0.9263730E-006  0.1297163E+03  0.7546771E-02  0.1237540E+00
          1   -1    0    0  501    0  0.00000000000E+00  0.00000000000E+00  0.64642028377E+02  0.64642028377E+02  0.00000000000E+00 0. -1.
         -1   -1    0    0    0  501 -0.00000000000E+00 -0.00000000000E+00 -0.21558981067E+03  0.21558981067E+03  0.00000000000E+00 0.  1.
          5    1    1    2  502    0  0.57469967962E+02  0.11518177916E+02 -0.91669774815E+02  0.10890777408E+03  0.47000000000E+01 0.  1.
         -5    1    1    2    0  502 -0.38226537748E+02  0.17310449419E+02  0.11270614624E+02  0.43703965510E+02  0.47000000000E+01 0.  1.
        -11    1    1    2    0    0 -0.37959974064E+02 -0.58549972406E+02 -0.36701088916E+02  0.78841796195E+02  0.00000000000E+00 0. -1.
         11    1    1    2    0    0  0.18716543851E+02  0.29721345071E+02 -0.33847533187E+02  0.48778303265E+02  0.00000000000E+00 0.  1.
<mgrwt>
<rscale>  0 0.12343198E+03</rscale>
<asrwt>0</asrwt>
<pdfrwt beam="1">  1        1 0.99449273E-02 0.12971630E+03</pdfrwt>
<pdfrwt beam="2">  1       -1 0.33167664E-01 0.12971630E+03</pdfrwt>
<totfact> 0.52743547E+03</totfact>
</mgrwt>
</event>
<event>
 6    1  0.9263730E-006  0.2441189E+03  0.7546771E-02  0.1119265E+00
         -2   -1    0    0    0  501 -0.00000000000E+00  0.00000000000E+00  0.45530793101E+02  0.45530793101E+02  0.00000000000E+00 0.  1.
          2   -1    0    0  501    0  0.00000000000E+00 -0.00000000000E+00 -0.12606743546E+04  0.12606743546E+04  0.00000000000E+00 0. -1.
          5    1    1    2  502    0 -0.14494190793E+03  0.37323717025E+02 -0.42253738167E+03  0.44828690081E+03  0.47000000000E+01 0. -1.
         -5    1    1    2    0  502 -0.62057822655E+02 -0.70778872337E+02 -0.28512776267E+03  0.30030110417E+03  0.47000000000E+01 0. -1.
        -11    1    1    2    0    0  0.11233534269E+03 -0.30074634767E+02 -0.23317313686E+03  0.26056366713E+03  0.00000000000E+00 0.  1.
         11    1    1    2    0    0  0.94664387896E+02  0.63529790079E+02 -0.27430528032E+03  0.29705347561E+03  0.00000000000E+00 0. -1.
<mgrwt>
<rscale>  0 0.24079436E+03</rscale>
<asrwt>0</asrwt>
<pdfrwt beam="2">  1        2 0.19394992E+00 0.24411892E+03</pdfrwt>
<pdfrwt beam="1">  1       -2 0.70047369E-02 0.24411892E+03</pdfrwt>
<totfact> 0.21481581E+03</totfact>
</mgrwt>
</event>
<event>
 6    1  0.9263730E-006  0.1314800E+03  0.7546771E-02  0.1238643E+00
         -1   -1    0    0    0  501 -0.00000000000E+00  0.00000000000E+00  0.20208802499E+02  0.20208802499E+02  0.00000000000E+00 0.  1.
          1   -1    0    0  501    0  0.00000000000E+00 -0.00000000000E+00 -0.91968517917E+03  0.91968517917E+03  0.00000000000E+00 0. -1.
          5    1    1    2  502    0  0.76570895584E+01 -0.41225961930E+02 -0.88474889046E+02  0.98020951583E+02  0.47000000000E+01 0. -1.
         -5    1    1    2    0  502 -0.44929623137E+02  0.24686815031E+02 -0.65257452545E+03  0.65460194862E+03  0.47000000000E+01 0. -1.
        -11    1    1    2    0    0  0.55307011261E+02  0.40511632727E+02 -0.12329929357E+03  0.14107719048E+03  0.00000000000E+00 0. -1.
         11    1    1    2    0    0 -0.18034477683E+02 -0.23972485828E+02 -0.35127668608E+02  0.46193890981E+02  0.00000000000E+00 0.  1.
<mgrwt>
<rscale>  0 0.12274084E+03</rscale>
<asrwt>0</asrwt>
<pdfrwt beam="2">  1        1 0.14149004E+00 0.13148002E+03</pdfrwt>
<pdfrwt beam="1">  1       -1 0.31090464E-02 0.13148002E+03</pdfrwt>
<totfact> 0.63882042E+03</totfact>
</mgrwt>
</event>
<event>
 6    1  0.9263730E-006  0.1479455E+03  0.7546771E-02  0.1212634E+00
          1   -1    0    0  501    0  0.00000000000E+00  0.00000000000E+00  0.72026452062E+03  0.72026452062E+03  0.00000000000E+00 0. -1.
         -1   -1    0    0    0  501 -0.00000000000E+00 -0.00000000000E+00 -0.28055782087E+02  0.28055782087E+02  0.00000000000E+00 0.  1.
          5    1    1    2  502    0  0.39822201507E+02  0.70284329331E+02  0.24016170927E+03  0.25342736885E+03  0.47000000000E+01 0. -1.
         -5    1    1    2    0  502 -0.65272238024E+02  0.46591382665E+01  0.26062389923E+03  0.26875468270E+03  0.47000000000E+01 0. -1.
        -11    1    1    2    0    0  0.20954315085E+02 -0.22706603645E+02  0.16416218187E+03  0.16704459023E+03  0.00000000000E+00 0. -1.
         11    1    1    2    0    0  0.44957214327E+01 -0.52236863952E+02  0.27260948173E+02  0.59093660930E+02  0.00000000000E+00 0.  1.
<mgrwt>
<rscale>  0 0.14051775E+03</rscale>
<asrwt>0</asrwt>
<pdfrwt beam="1">  1        1 0.11080991E+00 0.14794549E+03</pdfrwt>
<pdfrwt beam="2">  1       -1 0.43162747E-02 0.14794549E+03</pdfrwt>
<totfact> 0.57631630E+03</totfact>
</mgrwt>
</event>
<event>
 6    1  0.9263730E-006  0.1364616E+03  0.7546771E-02  0.1230178E+00
         -4   -1    0    0    0  501 -0.00000000000E+00  0.00000000000E+00  0.82539384747E+03  0.82539384747E+03  0.00000000000E+00 0.  1.
          4   -1    0    0  501    0  0.00000000000E+00 -0.00000000000E+00 -0.19992238968E+02  0.19992238968E+02  0.00000000000E+00 0. -1.
          5    1    1    2  502    0  0.16140779462E+02 -0.16106786952E+02 -0.21151955105E+01  0.23377711599E+02  0.47000000000E+01 0.  1.
         -5    1    1    2    0  502  0.37873903497E+02  0.23896950677E+02  0.31186974879E+03  0.31510367663E+03  0.47000000000E+01 0.  1.
        -11    1    1    2    0    0 -0.40158181053E+02 -0.46885527649E+02  0.35268776389E+03  0.35804970466E+03  0.00000000000E+00 0.  1.
         11    1    1    2    0    0 -0.13856501906E+02  0.39095363924E+02  0.14295929133E+03  0.14885499355E+03  0.00000000000E+00 0. -1.
<mgrwt>
<rscale>  0 0.12818202E+03</rscale>
<asrwt>0</asrwt>
<pdfrwt beam="2">  1        4 0.30757297E-02 0.13646159E+03</pdfrwt>
<pdfrwt beam="1">  1       -4 0.12698364E+00 0.13646159E+03</pdfrwt>
<totfact> 0.41808830E+02</totfact>
</mgrwt>
</event>
<event>
 6    1  0.9263730E-006  0.1385078E+03  0.7546771E-02  0.1226922E+00
         -3   -1    0    0    0  501 -0.00000000000E+00  0.00000000000E+00  0.20627054813E+02  0.20627054813E+02  0.00000000000E+00 0.  1.
          3   -1    0    0  501    0  0.00000000000E+00 -0.00000000000E+00 -0.94963753524E+03  0.94963753524E+03  0.00000000000E+00 0. -1.
          5    1    1    2  502    0 -0.40212120816E+02 -0.40423132136E+01 -0.95774032191E+02  0.10405820582E+03  0.47000000000E+01 0.  1.
         -5    1    1    2    0  502  0.55483635164E+02 -0.53620729707E+02 -0.63876782478E+03  0.64342834908E+03  0.47000000000E+01 0.  1.
        -11    1    1    2    0    0  0.58439685067E+01  0.14218124411E+02  0.60524360142E+01  0.16520865939E+02  0.00000000000E+00 0.  1.
         11    1    1    2    0    0 -0.21115482854E+02  0.43444918510E+02 -0.20052105948E+03  0.20625716922E+03  0.00000000000E+00 0. -1.
<mgrwt>
<rscale>  0 0.13036053E+03</rscale>
<asrwt>0</asrwt>
<pdfrwt beam="2">  1        3 0.14609809E+00 0.13850780E+03</pdfrwt>
<pdfrwt beam="1">  1       -3 0.31733929E-02 0.13850780E+03</pdfrwt>
<totfact> 0.40046610E+02</totfact>
</mgrwt>
</event>
<event>
 6    1  0.9263730E-006  0.1331410E+03  0.7546771E-02  0.1235829E+00
         -2   -1    0    0    0  501 -0.00000000000E+00  0.00000000000E+00  0.89478479797E+02  0.89478479797E+02  0.00000000000E+00 0.  1.
          2   -1    0    0  501    0  0.00000000000E+00 -0.00000000000E+00 -0.21726782864E+03  0.21726782864E+03  0.00000000000E+00 0. -1.
          5    1    1    2  502    0  0.42251987732E+02 -0.28510384504E+02 -0.29858439461E+01  0.51274533210E+02  0.47000000000E+01 0.  1.
         -5    1    1    2    0  502 -0.19557395523E+02 -0.11340542918E+02 -0.14900780169E+03  0.15078632099E+03  0.47000000000E+01 0.  1.
        -11    1    1    2    0    0  0.33151172838E+02  0.17337344686E+02 -0.50354420742E+01  0.37748370271E+02  0.00000000000E+00 0.  1.
         11    1    1    2    0    0 -0.55845765047E+02  0.22513582736E+02  0.29239738864E+02  0.66937083968E+02  0.00000000000E+00 0. -1.
<mgrwt>
<rscale>  0 0.12451535E+03</rscale>
<asrwt>0</asrwt>
<pdfrwt beam="2">  1        2 0.33425820E-01 0.13314098E+03</pdfrwt>
<pdfrwt beam="1">  1       -2 0.13765920E-01 0.13314098E+03</pdfrwt>
<totfact> 0.58496405E+03</totfact>
</mgrwt>
</event>
<event>
 6    1  0.9263730E-006  0.1304471E+03  0.7546771E-02  0.1241091E+00
          2   -1    0    0  501    0  0.00000000000E+00  0.00000000000E+00  0.30595571343E+02  0.30595571343E+02  0.00000000000E+00 0. -1.
         -2   -1    0    0    0  501 -0.00000000000E+00 -0.00000000000E+00 -0.45368354320E+03  0.45368354320E+03  0.00000000000E+00 0.  1.
          5    1    1    2  502    0  0.41526037162E+02  0.21546409095E+02 -0.10732282788E+02  0.48227911017E+02  0.47000000000E+01 0. -1.
         -5    1    1    2    0  502 -0.38124570592E+02  0.15585777067E+02 -0.16803639127E+03  0.17307431387E+03  0.47000000000E+01 0. -1.
        -11    1    1    2    0    0 -0.32291715456E+01  0.26398076188E+02 -0.12500615337E+03  0.12780385110E+03  0.00000000000E+00 0. -1.
         11    1    1    2    0    0 -0.17229502447E+00 -0.63530262349E+02 -0.11931314443E+03  0.13517303856E+03  0.00000000000E+00 0.  1.
<mgrwt>
<rscale>  0 0.12122449E+03</rscale>
<asrwt>0</asrwt>
<pdfrwt beam="1">  1        2 0.47070109E-02 0.13044706E+03</pdfrwt>
<pdfrwt beam="2">  1       -2 0.69797470E-01 0.13044706E+03</pdfrwt>
<totfact> 0.31136783E+03</totfact>
</mgrwt>
</event>
<event>
 6    1  0.9263730E-006  0.2411751E+03  0.7546771E-02  0.1121294E+00
         -2   -1    0    0    0  501 -0.00000000000E+00  0.00000000000E+00  0.32204429774E+03  0.32204429774E+03  0.00000000000E+00 0.  1.
          2   -1    0    0  501    0  0.00000000000E+00 -0.00000000000E+00 -0.17161452378E+03  0.17161452378E+03  0.00000000000E+00 0. -1.
          5    1    1    2  502    0 -0.32185600437E+02 -0.26582163792E+02  0.25050179303E+02  0.48909363014E+02  0.47000000000E+01 0.  1.
         -5    1    1    2    0  502 -0.14432532109E+03  0.13328705815E+03  0.34640833471E+02  0.19954276615E+03  0.47000000000E+01 0.  1.
        -11    1    1    2    0    0  0.11877221729E+03 -0.11211354191E+03  0.91495370942E+02  0.18721027959E+03  0.00000000000E+00 0.  1.
         11    1    1    2    0    0  0.57738704236E+02  0.54086475529E+01 -0.75660975646E+00  0.57996412765E+02  0.00000000000E+00 0. -1.
<mgrwt>
<rscale>  0 0.23775945E+03</rscale>
<asrwt>0</asrwt>
<pdfrwt beam="2">  1        2 0.26402234E-01 0.24117513E+03</pdfrwt>
<pdfrwt beam="1">  1       -2 0.49545277E-01 0.24117513E+03</pdfrwt>
<totfact> 0.79121514E+02</totfact>
</mgrwt>
</event>
<event>
 6    1  0.9263730E-006  0.1400791E+03  0.7546771E-02  0.1224426E+00
          1   -1    0    0  501    0  0.00000000000E+00  0.00000000000E+00  0.29779700907E+03  0.29779700907E+03  0.00000000000E+00 0. -1.
         -1   -1    0    0    0  501 -0.00000000000E+00 -0.00000000000E+00 -0.53914376092E+02  0.53914376092E+02  0.00000000000E+00 0.  1.
          5    1    1    2  502    0  0.74308874734E+01  0.82686408857E+02  0.45893188277E+02  0.94976497243E+02  0.47000000000E+01 0. -1.
         -5    1    1    2    0  502 -0.18179847106E+02 -0.20250674560E+02  0.11537561237E+03  0.11863481189E+03  0.47000000000E+01 0. -1.
        -11    1    1    2    0    0  0.43392432577E+02 -0.48434764607E+02  0.79111777574E+02  0.10240851028E+03  0.00000000000E+00 0. -1.
         11    1    1    2    0    0 -0.32643472945E+02 -0.14000969690E+02  0.35020547531E+01  0.35691565750E+02  0.00000000000E+00 0.  1.
<mgrwt>
<rscale>  0 0.13206325E+03</rscale>
<asrwt>0</asrwt>
<pdfrwt beam="1">  1        1 0.45814924E-01 0.14007914E+03</pdfrwt>
<pdfrwt beam="2">  1       -1 0.82945196E-02 0.14007914E+03</pdfrwt>
<totfact> 0.68761075E+03</totfact>
</mgrwt>
</event>
<event>
 6    1  0.9263730E-006  0.2353846E+03  0.7546771E-02  0.1130370E+00
          1   -1    0    0  501    0  0.00000000000E+00  0.00000000000E+00  0.70717353722E+03  0.70717353722E+03  0.00000000000E+00 0. -1.
         -1   -1    0    0    0  501 -0.00000000000E+00 -0.00000000000E+00 -0.10854823900E+03  0.10854823900E+03  0.00000000000E+00 0.  1.
          5    1    1    2  502    0 -0.17815555150E+03 -0.84984156729E+02  0.42340515802E+03  0.46717847260E+03  0.47000000000E+01 0. -1.
         -5    1    1    2    0  502  0.27145793751E+02  0.88502603431E+01  0.14813714143E+03  0.15093682088E+03  0.47000000000E+01 0.  1.
        -11    1    1    2    0    0  0.16556991378E+03  0.68113346254E+02  0.26403289709E+02  0.18096949465E+03  0.00000000000E+00 0.  1.
         11    1    1    2    0    0 -0.14560156034E+02  0.80205501319E+01  0.67970906877E+00  0.16636988086E+02  0.00000000000E+00 0. -1.
<mgrwt>
<rscale>  0 0.22477832E+03</rscale>
<asrwt>0</asrwt>
<pdfrwt beam="1">  1        1 0.10879593E+00 0.23538461E+03</pdfrwt>
<pdfrwt beam="2">  1       -1 0.16699730E-01 0.23538461E+03</pdfrwt>
<totfact> 0.75433363E+02</totfact>
</mgrwt>
</event>
<event>
 6    1  0.9263730E-006  0.1254656E+03  0.7546771E-02  0.1249620E+00
          2   -1    0    0  501    0  0.00000000000E+00  0.00000000000E+00  0.37715102708E+03  0.37715102708E+03  0.00000000000E+00 0. -1.
         -2   -1    0    0    0  501 -0.00000000000E+00 -0.00000000000E+00 -0.41215132259E+02  0.41215132259E+02  0.00000000000E+00 0.  1.
          5    1    1    2  502    0  0.34990707962E+02 -0.52531095513E+02  0.18236351536E+03  0.19303473100E+03  0.47000000000E+01 0. -1.
         -5    1    1    2    0  502 -0.40390845440E+02  0.43173574432E+02  0.10651516425E+03  0.12191369135E+03  0.47000000000E+01 0. -1.
        -11    1    1    2    0    0  0.18604481185E+02  0.99311479401E+01  0.72089277949E+02  0.75110707723E+02  0.00000000000E+00 0. -1.
         11    1    1    2    0    0 -0.13204343707E+02 -0.57362685909E+00 -0.25032062736E+02  0.28307029257E+02  0.00000000000E+00 0.  1.
<mgrwt>
<rscale>  0 0.11613106E+03</rscale>
<asrwt>0</asrwt>
<pdfrwt beam="1">  1        2 0.58023232E-01 0.12546560E+03</pdfrwt>
<pdfrwt beam="2">  1       -2 0.63407898E-02 0.12546560E+03</pdfrwt>
<totfact> 0.10894058E+04</totfact>
</mgrwt>
</event>
<event>
 6    1  0.9263730E-006  0.1552586E+03  0.7546771E-02  0.1202612E+00
          2   -1    0    0  501    0  0.00000000000E+00  0.00000000000E+00  0.74299988844E+03  0.74299988844E+03  0.00000000000E+00 0. -1.
         -2   -1    0    0    0  501 -0.00000000000E+00 -0.00000000000E+00 -0.33192613340E+02  0.33192613340E+02  0.00000000000E+00 0.  1.
          5    1    1    2  502    0  0.28047840264E+02 -0.84064940163E+02  0.45653039546E+03  0.46507600184E+03  0.47000000000E+01 0. -1.
         -5    1    1    2    0  502 -0.49588080968E+02 -0.54533406066E+01  0.89205660015E+02  0.10231547525E+03  0.47000000000E+01 0. -1.
        -11    1    1    2    0    0 -0.32410783693E+02  0.39355937186E+02  0.41252223113E+02  0.65582730983E+02  0.00000000000E+00 0.  1.
         11    1    1    2    0    0  0.53951024397E+02  0.50162343583E+02  0.12281899651E+03  0.14321829370E+03  0.00000000000E+00 0. -1.
<mgrwt>
<rscale>  0 0.14827279E+03</rscale>
<asrwt>0</asrwt>
<pdfrwt beam="1">  1        2 0.11430766E+00 0.15525864E+03</pdfrwt>
<pdfrwt beam="2">  1       -2 0.51065565E-02 0.15525864E+03</pdfrwt>
<totfact> 0.71729343E+03</totfact>
</mgrwt>
</event>
<event>
 6    1  0.9263730E-006  0.1440304E+03  0.7546771E-02  0.1218890E+00
         -3   -1    0    0    0  501 -0.00000000000E+00  0.00000000000E+00  0.68217963133E+02  0.68217963133E+02  0.00000000000E+00 0.  1.
          3   -1    0    0  501    0  0.00000000000E+00 -0.00000000000E+00 -0.25978528610E+03  0.25978528610E+03  0.00000000000E+00 0. -1.
          5    1    1    2  502    0  0.74460088590E+02 -0.38311000133E+02 -0.35520081964E+02  0.91081302948E+02  0.47000000000E+01 0. -1.
         -5    1    1    2    0  502 -0.24868404741E+02 -0.13275890230E+02 -0.11004862994E+03  0.11369906669E+03  0.47000000000E+01 0. -1.
        -11    1    1    2    0    0  0.86122458537E+01  0.89225576146E+01  0.21234946086E+02  0.24590765508E+02  0.00000000000E+00 0.  1.
         11    1    1    2    0    0 -0.58203929702E+02  0.42664332749E+02 -0.67233557156E+02  0.98632114089E+02  0.00000000000E+00 0. -1.
<mgrwt>
<rscale>  0 0.13594610E+03</rscale>
<asrwt>0</asrwt>
<pdfrwt beam="2">  1        3 0.39966968E-01 0.14403038E+03</pdfrwt>
<pdfrwt beam="1">  1       -3 0.10495071E-01 0.14403038E+03</pdfrwt>
<totfact> 0.98579302E+02</totfact>
</mgrwt>
</event>
<event>
 6    1  0.9263730E-006  0.1361691E+03  0.7546771E-02  0.1230688E+00
          2   -1    0    0  501    0  0.00000000000E+00  0.00000000000E+00  0.24871299676E+03  0.24871299676E+03  0.00000000000E+00 0. -1.
         -2   -1    0    0    0  501 -0.00000000000E+00 -0.00000000000E+00 -0.59882818662E+02  0.59882818662E+02  0.00000000000E+00 0.  1.
          5    1    1    2  502    0 -0.30516243653E+01 -0.74423109196E+02  0.59980054389E+02  0.95748673715E+02  0.47000000000E+01 0.  1.
         -5    1    1    2    0  502 -0.41625222572E+02  0.44095781317E+02  0.66142165575E+02  0.89855290056E+02  0.47000000000E+01 0.  1.
        -11    1    1    2    0    0  0.65236113938E+01  0.78331631173E+01 -0.23752336569E+02  0.25847426227E+02  0.00000000000E+00 0.  1.
         11    1    1    2    0    0  0.38153235544E+02  0.22494164761E+02  0.86460294701E+02  0.97144425421E+02  0.00000000000E+00 0. -1.
<mgrwt>
<rscale>  0 0.12784550E+03</rscale>
<asrwt>0</asrwt>
<pdfrwt beam="1">  1        2 0.38263537E-01 0.13616908E+03</pdfrwt>
<pdfrwt beam="2">  1       -2 0.92127415E-02 0.13616908E+03</pdfrwt>
<totfact> 0.95932273E+03</totfact>
</mgrwt>
</event>
<event>
 6    1  0.9263730E-006  0.1855779E+03  0.7546771E-02  0.1167412E+00
         -2   -1    0    0    0  501 -0.00000000000E+00  0.00000000000E+00  0.29361999500E+03  0.29361999500E+03  0.00000000000E+00 0.  1.
          2   -1    0    0  501    0  0.00000000000E+00 -0.00000000000E+00 -0.12123775396E+03  0.12123775396E+03  0.00000000000E+00 0. -1.
          5    1    1    2  502    0  0.12798030387E+03  0.15503863764E+02  0.14619439671E+02  0.12982736994E+03  0.47000000000E+01 0.  1.
         -5    1    1    2    0  502 -0.10414320896E+02  0.55168705996E+02  0.18054878929E+00  0.56339744398E+02  0.47000000000E+01 0.  1.
        -11    1    1    2    0    0 -0.10146773727E+03 -0.93698722257E+01  0.88846808089E+02  0.13519338564E+03  0.00000000000E+00 0.  1.
         11    1    1    2    0    0 -0.16098245698E+02 -0.61302697534E+02  0.68735444486E+02  0.93497248988E+02  0.00000000000E+00 0. -1.
<mgrwt>
<rscale>  0 0.18040416E+03</rscale>
<asrwt>0</asrwt>
<pdfrwt beam="2">  1        2 0.18651962E-01 0.18557789E+03</pdfrwt>
<pdfrwt beam="1">  1       -2 0.45172307E-01 0.18557789E+03</pdfrwt>
<totfact> 0.13982785E+03</totfact>
</mgrwt>
</event>
<event>
 6    1  0.9263730E-006  0.1566146E+03  0.7546771E-02  0.1202415E+00
          1   -1    0    0  501    0  0.00000000000E+00  0.00000000000E+00  0.13341543852E+03  0.13341543852E+03  0.00000000000E+00 0. -1.
         -1   -1    0    0    0  501 -0.00000000000E+00 -0.00000000000E+00 -0.30451190833E+03  0.30451190833E+03  0.00000000000E+00 0.  1.
          5    1    1    2  502    0 -0.41239733620E+02  0.56574333874E+02  0.45661172361E+02  0.83716208369E+02  0.47000000000E+01 0. -1.
         -5    1    1    2    0  502 -0.43330806649E+02 -0.71477922282E+02  0.19795015255E+02  0.86026651728E+02  0.47000000000E+01 0.  1.
        -11    1    1    2    0    0  0.85893790295E+02  0.44484453939E+02 -0.18288499181E+03  0.20689014013E+03  0.00000000000E+00 0. -1.
         11    1    1    2    0    0 -0.13232500262E+01 -0.29580865531E+02 -0.53667665619E+02  0.61294346633E+02  0.00000000000E+00 0.  1.
<mgrwt>
<rscale>  0 0.14843039E+03</rscale>
<asrwt>0</asrwt>
<pdfrwt beam="1">  1        1 0.20525452E-01 0.15661458E+03</pdfrwt>
<pdfrwt beam="2">  1       -1 0.46847985E-01 0.15661458E+03</pdfrwt>
<totfact> 0.11324858E+03</totfact>
</mgrwt>
</event>
<event>
 6    1  0.9263730E-006  0.1699690E+03  0.7546771E-02  0.1184421E+00
         -2   -1    0    0    0  501 -0.00000000000E+00  0.00000000000E+00  0.62662969245E+02  0.62662969245E+02  0.00000000000E+00 0.  1.
          2   -1    0    0  501    0  0.00000000000E+00 -0.00000000000E+00 -0.41325100332E+03  0.41325100332E+03  0.00000000000E+00 0. -1.
          5    1    1    2  502    0 -0.36352602354E+02 -0.19815477320E+02 -0.10576095424E+03  0.11367336663E+03  0.47000000000E+01 0. -1.
         -5    1    1    2    0  502  0.37844817703E+02 -0.95341104133E+02 -0.39875994991E+02  0.11015598640E+03  0.47000000000E+01 0. -1.
        -11    1    1    2    0    0 -0.51813164279E+01  0.34038448561E+02 -0.15032725328E+03  0.15421979477E+03  0.00000000000E+00 0. -1.
         11    1    1    2    0    0  0.36891010789E+01  0.81118132892E+02 -0.54623831564E+02  0.97864824760E+02  0.00000000000E+00 0.  1.
<mgrwt>
<rscale>  0 0.16384655E+03</rscale>
<asrwt>0</asrwt>
<pdfrwt beam="2">  1        2 0.63577078E-01 0.16996899E+03</pdfrwt>
<pdfrwt beam="1">  1       -2 0.96404568E-02 0.16996899E+03</pdfrwt>
<totfact> 0.52706891E+03</totfact>
</mgrwt>
</event>
<event>
 6    1  0.9263730E-006  0.1526886E+03  0.7546771E-02  0.1206434E+00
          2   -1    0    0  501    0  0.00000000000E+00  0.00000000000E+00  0.35679599664E+03  0.35679599664E+03  0.00000000000E+00 0. -1.
         -2   -1    0    0    0  501 -0.00000000000E+00 -0.00000000000E+00 -0.18708042251E+03  0.18708042251E+03  0.00000000000E+00 0.  1.
          5    1    1    2  502    0 -0.33829445506E+02  0.98170506698E+01  0.55940266312E+02  0.66273744893E+02  0.47000000000E+01 0. -1.
         -5    1    1    2    0  502  0.11537595631E+03 -0.87645476985E+01  0.26034784066E+03  0.28494125136E+03  0.47000000000E+01 0.  1.
        -11    1    1    2    0    0 -0.10013658010E+03  0.80042495946E+01 -0.13697640175E+03  0.16986446751E+03  0.00000000000E+00 0.  1.
         11    1    1    2    0    0  0.18590069296E+02 -0.90567525659E+01 -0.95961310942E+01  0.22796955398E+02  0.00000000000E+00 0. -1.
<mgrwt>
<rscale>  0 0.14525025E+03</rscale>
<asrwt>0</asrwt>
<pdfrwt beam="1">  1        2 0.54891692E-01 0.15268859E+03</pdfrwt>
<pdfrwt beam="2">  1       -2 0.28781604E-01 0.15268859E+03</pdfrwt>
<totfact> 0.99227949E+02</totfact>
</mgrwt>
</event>
<event>
 6    1  0.9263730E-006  0.1268353E+03  0.7546771E-02  0.1247915E+00
         -1   -1    0    0    0  501 -0.00000000000E+00  0.00000000000E+00  0.12979637748E+02  0.12979637748E+02  0.00000000000E+00 0.  1.
          1   -1    0    0  501    0  0.00000000000E+00 -0.00000000000E+00 -0.94952275575E+03  0.94952275575E+03  0.00000000000E+00 0. -1.
          5    1    1    2  502    0  0.63112117819E+02 -0.24175209046E+02 -0.42540884956E+03  0.43076949687E+03  0.47000000000E+01 0. -1.
         -5    1    1    2    0  502 -0.53914164469E+02  0.47196749697E+01 -0.19226054177E+03  0.19978793353E+03  0.47000000000E+01 0. -1.
        -11    1    1    2    0    0 -0.46646927495E+02  0.11636054553E+02 -0.11724702864E+03  0.12672095065E+03  0.00000000000E+00 0.  1.
         11    1    1    2    0    0  0.37448974145E+02  0.78194795228E+01 -0.20162669803E+03  0.20522401244E+03  0.00000000000E+00 0. -1.
<mgrwt>
<rscale>  0 0.11712571E+03</rscale>
<asrwt>0</asrwt>
<pdfrwt beam="2">  1        1 0.14608047E+00 0.12683531E+03</pdfrwt>
<pdfrwt beam="1">  1       -1 0.19968667E-02 0.12683531E+03</pdfrwt>
<totfact> 0.11491826E+04</totfact>
</mgrwt>
</event>
<event>
 6    1  0.9263730E-006  0.3483846E+03  0.7546771E-02  0.1063280E+00
         -2   -1    0    0    0  501 -0.00000000000E+00  0.00000000000E+00  0.62467835334E+03  0.62467835334E+03  0.00000000000E+00 0.  1.
          2   -1    0    0  501    0  0.00000000000E+00 -0.00000000000E+00 -0.48573730332E+02  0.48573730332E+02  0.00000000000E+00 0. -1.
          5    1    1    2  502    0 -0.66080335538E+02  0.11790175588E+03  0.30321693726E+03  0.33200908997E+03  0.47000000000E+01 0. -1.
         -5    1    1    2    0  502  0.15215788322E+02  0.88937251100E+01 -0.50950944589E+01  0.18938546621E+02  0.47000000000E+01 0. -1.
        -11    1    1    2    0    0  0.59015297667E+02 -0.52290310241E+02  0.19578657647E+03  0.21106744285E+03  0.00000000000E+00 0.  1.
         11    1    1    2    0    0 -0.81507504512E+01 -0.74505170749E+02  0.82196203737E+02  0.11123700423E+03  0.00000000000E+00 0. -1.
<mgrwt>
<rscale>  0 0.34838460E+03</rscale>
<asrwt>0</asrwt>
<pdfrwt beam="2">  1        2 0.74728820E-02 0.34838460E+03</pdfrwt>
<pdfrwt beam="1">  1       -2 0.96104356E-01 0.34838460E+03</pdfrwt>
<totfact> 0.87773838E+02</totfact>
</mgrwt>
</event>
<event>
 6    1  0.9263730E-006  0.1682644E+03  0.7546771E-02  0.1205525E+00
         -2   -1    0    0    0  501 -0.00000000000E+00  0.00000000000E+00  0.15466516129E+03  0.15466516129E+03  0.00000000000E+00 0.  1.
          2   -1    0    0  501    0  0.00000000000E+00 -0.00000000000E+00 -0.14676050310E+03  0.14676050310E+03  0.00000000000E+00 0. -1.
          5    1    1    2  502    0  0.49168447354E+02 -0.19359554750E+02 -0.10920968482E+03  0.12141323583E+03  0.47000000000E+01 0. -1.
         -5    1    1    2    0  502 -0.40191893432E+02 -0.54160374914E+01  0.43104941387E+02  0.59370428091E+02  0.47000000000E+01 0.  1.
        -11    1    1    2    0    0 -0.48607175549E+02  0.36203151610E+01  0.27434529588E+02  0.55932259121E+02  0.00000000000E+00 0. -1.
         11    1    1    2    0    0  0.39630621627E+02  0.21155277081E+02  0.46574872047E+02  0.64709741347E+02  0.00000000000E+00 0.  1.
<mgrwt>
<rscale>  0 0.14596123E+03</rscale>
<asrwt>0</asrwt>
<pdfrwt beam="2">  1        2 0.22578539E-01 0.16826436E+03</pdfrwt>
<pdfrwt beam="1">  1       -2 0.23794640E-01 0.16826436E+03</pdfrwt>
<totfact> 0.36427176E+03</totfact>
</mgrwt>
</event>
<event>
 6    1  0.9263730E-006  0.3694343E+03  0.7546771E-02  0.1054909E+00
         -2   -1    0    0    0  501 -0.00000000000E+00  0.00000000000E+00  0.75702816511E+03  0.75702816511E+03  0.00000000000E+00 0.  1.
          2   -1    0    0  501    0  0.00000000000E+00 -0.00000000000E+00 -0.45071541188E+02  0.45071541188E+02  0.00000000000E+00 0. -1.
          5    1    1    2  502    0 -0.24162489445E+02  0.15531908305E+02  0.15177835428E+03  0.15454392547E+03  0.47000000000E+01 0. -1.
         -5    1    1    2    0  502 -0.85994260569E+02  0.30790259997E+02  0.29764507947E+02  0.96182477068E+02  0.47000000000E+01 0. -1.
        -11    1    1    2    0    0  0.82803956674E+02  0.14252203473E+02  0.28650056309E+03  0.29856689903E+03  0.00000000000E+00 0. -1.
         11    1    1    2    0    0  0.27352793340E+02 -0.60574371775E+02  0.24391319861E+03  0.25280640474E+03  0.00000000000E+00 0.  1.
<mgrwt>
<rscale>  0 0.36943430E+03</rscale>
<asrwt>0</asrwt>
<pdfrwt beam="2">  1        2 0.69340838E-02 0.36943430E+03</pdfrwt>
<pdfrwt beam="1">  1       -2 0.11646586E+00 0.36943430E+03</pdfrwt>
<totfact> 0.61396865E+02</totfact>
</mgrwt>
</event>
<event>
 6    1  0.9263730E-006  0.1570564E+03  0.7546771E-02  0.1200078E+00
          1   -1    0    0  501    0  0.00000000000E+00  0.00000000000E+00  0.10745713199E+04  0.10745713199E+04  0.00000000000E+00 0. -1.
         -1   -1    0    0    0  501 -0.00000000000E+00 -0.00000000000E+00 -0.20742755964E+02  0.20742755964E+02  0.00000000000E+00 0.  1.
          5    1    1    2  502    0  0.17081548139E+02 -0.39803015454E+02  0.78366878439E+02  0.89663353509E+02  0.47000000000E+01 0.  1.
         -5    1    1    2    0  502 -0.80599908937E+02 -0.30985621238E+02  0.62985940334E+03  0.63576836350E+03  0.47000000000E+01 0.  1.
        -11    1    1    2    0    0  0.20379939504E+02 -0.53615136249E+01  0.10509169144E+02  0.23548469136E+02  0.00000000000E+00 0.  1.
         11    1    1    2    0    0  0.43138421294E+02  0.76150150318E+02  0.33509311303E+03  0.34633388974E+03  0.00000000000E+00 0. -1.
<mgrwt>
<rscale>  0 0.15032216E+03</rscale>
<asrwt>0</asrwt>
<pdfrwt beam="1">  1        1 0.16531862E+00 0.15705639E+03</pdfrwt>
<pdfrwt beam="2">  1       -1 0.31911941E-02 0.15705639E+03</pdfrwt>
<totfact> 0.47656508E+03</totfact>
</mgrwt>
</event>
<event>
 6    1  0.9263730E-006  0.2697062E+03  0.7546771E-02  0.1103533E+00
         -2   -1    0    0    0  501 -0.00000000000E+00  0.00000000000E+00  0.26741552416E+03  0.26741552416E+03  0.00000000000E+00 0.  1.
          2   -1    0    0  501    0  0.00000000000E+00 -0.00000000000E+00 -0.27379389653E+03  0.27379389653E+03  0.00000000000E+00 0. -1.
          5    1    1    2  502    0 -0.51704162575E+02 -0.22868624310E+03 -0.35739988417E+02  0.23721331114E+03  0.47000000000E+01 0. -1.
         -5    1    1    2    0  502 -0.24331759850E+02  0.21141485412E+01 -0.32622061157E+02  0.41021860460E+02  0.47000000000E+01 0. -1.
        -11    1    1    2    0    0  0.68471556567E+02  0.18532207631E+03  0.85068135247E+02  0.21510279789E+03  0.00000000000E+00 0.  1.
         11    1    1    2    0    0  0.75643658578E+01  0.41250018254E+02 -0.23084458042E+02  0.47871451198E+02  0.00000000000E+00 0. -1.
<mgrwt>
<rscale>  0 0.26609920E+03</rscale>
<asrwt>0</asrwt>
<pdfrwt beam="2">  1        2 0.42122138E-01 0.26970621E+03</pdfrwt>
<pdfrwt beam="1">  1       -2 0.41140850E-01 0.26970621E+03</pdfrwt>
<totfact> 0.68348576E+02</totfact>
</mgrwt>
</event>
<event>
 6    1  0.9263730E-006  0.1645521E+03  0.7546771E-02  0.1190979E+00
          1   -1    0    0  501    0  0.00000000000E+00  0.00000000000E+00  0.12509909905E+04  0.12509909905E+04  0.00000000000E+00 0. -1.
         -1   -1    0    0    0  501 -0.00000000000E+00 -0.00000000000E+00 -0.20849245889E+02  0.20849245889E+02  0.00000000000E+00 0.  1.
          5    1    1    2  502    0 -0.12802598205E+02  0.97334657331E+02  0.32845089298E+03  0.34284110188E+03  0.47000000000E+01 0.  1.
         -5    1    1    2    0  502 -0.32788328840E+02 -0.48109176118E+00  0.54299862253E+03  0.54400818011E+03  0.47000000000E+01 0.  1.
        -11    1    1    2    0    0 -0.44793127940E+01 -0.86748838282E+02  0.19399756091E+03  0.21255700135E+03  0.00000000000E+00 0.  1.
         11    1    1    2    0    0  0.50070239839E+02 -0.10104727287E+02  0.16469466815E+03  0.17243395300E+03  0.00000000000E+00 0. -1.
<mgrwt>
<rscale>  0 0.15799483E+03</rscale>
<asrwt>0</asrwt>
<pdfrwt beam="1">  1        1 0.19246009E+00 0.16455209E+03</pdfrwt>
<pdfrwt beam="2">  1       -1 0.32075773E-02 0.16455209E+03</pdfrwt>
<totfact> 0.35695827E+03</totfact>
</mgrwt>
</event>
<event>
 6    1  0.9263730E-006  0.4333526E+03  0.7546771E-02  0.1032806E+00
          2   -1    0    0  501    0  0.00000000000E+00  0.00000000000E+00  0.24757177199E+03  0.24757177199E+03  0.00000000000E+00 0. -1.
         -2   -1    0    0    0  501 -0.00000000000E+00 -0.00000000000E+00 -0.18963643444E+03  0.18963643444E+03  0.00000000000E+00 0.  1.
          5    1    1    2  502    0  0.26564188561E+01  0.10247161258E+02 -0.21319274771E+02  0.24262364925E+02  0.47000000000E+01 0. -1.
         -5    1    1    2    0  502  0.16312257609E+03 -0.63391124119E+02  0.11616443657E+03  0.21010396419E+03  0.47000000000E+01 0. -1.
        -11    1    1    2    0    0 -0.15507656215E+03  0.10451819932E+02 -0.29756823614E+02  0.15825122186E+03  0.00000000000E+00 0.  1.
         11    1    1    2    0    0 -0.10702432795E+02  0.42692142928E+02 -0.71530006383E+01  0.44590655453E+02  0.00000000000E+00 0. -1.
<mgrwt>
<rscale>  0 0.43335264E+03</rscale>
<asrwt>0</asrwt>
<pdfrwt beam="1">  1        2 0.38087965E-01 0.43335264E+03</pdfrwt>
<pdfrwt beam="2">  1       -2 0.29174836E-01 0.43335264E+03</pdfrwt>
<totfact> 0.14613127E+03</totfact>
</mgrwt>
</event>
<event>
 6    1  0.9263730E-006  0.1350971E+03  0.7546771E-02  0.1236262E+00
         -2   -1    0    0    0  501 -0.00000000000E+00  0.00000000000E+00  0.19363658348E+02  0.19363658348E+02  0.00000000000E+00 0.  1.
          2   -1    0    0  501    0  0.00000000000E+00 -0.00000000000E+00 -0.69331057670E+03  0.69331057670E+03  0.00000000000E+00 0. -1.
          5    1    1    2  502    0  0.68720251274E+01  0.15925702762E+02 -0.36437803274E+03  0.36482090604E+03  0.47000000000E+01 0. -1.
         -5    1    1    2    0  502 -0.24095341095E+02  0.32274928322E+02 -0.25747940414E+02  0.48034392848E+02  0.47000000000E+01 0. -1.
        -11    1    1    2    0    0  0.47715253336E+02 -0.12491327327E+02 -0.13265186625E+03  0.14152489632E+03  0.00000000000E+00 0.  1.
         11    1    1    2    0    0 -0.30491937369E+02 -0.35709303757E+02 -0.15116907895E+03  0.15829403984E+03  0.00000000000E+00 0. -1.
<mgrwt>
<rscale>  0 0.12423981E+03</rscale>
<asrwt>0</asrwt>
<pdfrwt beam="2">  1        2 0.10666316E+00 0.13509709E+03</pdfrwt>
<pdfrwt beam="1">  1       -2 0.29790246E-02 0.13509709E+03</pdfrwt>
<totfact> 0.17221455E+04</totfact>
</mgrwt>
</event>
<event>
 6    1  0.9263730E-006  0.2678937E+03  0.7546771E-02  0.1104660E+00
         -1   -1    0    0    0  501 -0.00000000000E+00  0.00000000000E+00  0.13954847295E+03  0.13954847295E+03  0.00000000000E+00 0.  1.
          1   -1    0    0  501    0  0.00000000000E+00 -0.00000000000E+00 -0.59317809123E+03  0.59317809123E+03  0.00000000000E+00 0. -1.
          5    1    1    2  502    0 -0.59782673919E+02 -0.23817680097E+03 -0.38957459693E+03  0.46053513785E+03  0.47000000000E+01 0.  1.
         -5    1    1    2    0  502  0.39531365555E+01  0.79063911995E+01  0.23900778106E+01  0.10292753877E+02  0.47000000000E+01 0.  1.
        -11    1    1    2    0    0  0.50163582093E+02  0.14097598748E+03  0.13500503382E+01  0.14964102596E+03  0.00000000000E+00 0.  1.
         11    1    1    2    0    0  0.56659552705E+01  0.89294422284E+02 -0.67795149505E+02  0.11225764650E+03  0.00000000000E+00 0. -1.
<mgrwt>
<rscale>  0 0.26417606E+03</rscale>
<asrwt>0</asrwt>
<pdfrwt beam="2">  1        1 0.91258171E-01 0.26789373E+03</pdfrwt>
<pdfrwt beam="1">  1       -1 0.21468995E-01 0.26789373E+03</pdfrwt>
<totfact> 0.64401067E+02</totfact>
</mgrwt>
</event>
<event>
 6    1  0.9263731E-006  0.1330921E+03  0.7546771E-02  0.1235840E+00
         -1   -1    0    0    0  501 -0.00000000000E+00  0.00000000000E+00  0.15460959886E+03  0.15460959886E+03  0.00000000000E+00 0.  1.
          1   -1    0    0  501    0  0.00000000000E+00 -0.00000000000E+00 -0.90066688766E+02  0.90066688766E+02  0.00000000000E+00 0. -1.
          5    1    1    2  502    0  0.77815996083E+02  0.26005713724E+02  0.43000462741E+02  0.92751044137E+02  0.47000000000E+01 0.  1.
         -5    1    1    2    0  502 -0.32361812825E+02 -0.21242076360E+02 -0.17533937508E+02  0.42755604334E+02  0.47000000000E+01 0.  1.
        -11    1    1    2    0    0 -0.36332055088E+02  0.37120830106E+02  0.41129563141E+02  0.66254171332E+02  0.00000000000E+00 0.  1.
         11    1    1    2    0    0 -0.91221281696E+01 -0.41884467470E+02 -0.20531782793E+01  0.42915467825E+02  0.00000000000E+00 0. -1.
<mgrwt>
<rscale>  0 0.12450782E+03</rscale>
<asrwt>0</asrwt>
<pdfrwt beam="2">  1        1 0.13856414E-01 0.13309210E+03</pdfrwt>
<pdfrwt beam="1">  1       -1 0.23786092E-01 0.13309210E+03</pdfrwt>
<totfact> 0.59473745E+03</totfact>
</mgrwt>
</event>
<event>
 6    1  0.9263730E-006  0.1260403E+03  0.7546771E-02  0.1249464E+00
         -2   -1    0    0    0  501 -0.00000000000E+00  0.00000000000E+00  0.12003259256E+03  0.12003259256E+03  0.00000000000E+00 0.  1.
          2   -1    0    0  501    0  0.00000000000E+00 -0.00000000000E+00 -0.98284250726E+02  0.98284250726E+02  0.00000000000E+00 0. -1.
          5    1    1    2  502    0  0.42569324343E+02  0.20317066368E+02 -0.25874905647E+02  0.54004919249E+02  0.47000000000E+01 0. -1.
         -5    1    1    2    0  502 -0.54474523647E+02 -0.31252334351E+02  0.35759249548E+02  0.72422345013E+02  0.47000000000E+01 0. -1.
        -11    1    1    2    0    0 -0.25034187630E+02  0.34783485362E+02  0.19803072245E+02  0.47209777320E+02  0.00000000000E+00 0. -1.
         11    1    1    2    0    0  0.36939386934E+02 -0.23848217379E+02 -0.79390743135E+01  0.44679801702E+02  0.00000000000E+00 0.  1.
<mgrwt>
<rscale>  0 0.11622138E+03</rscale>
<asrwt>0</asrwt>
<pdfrwt beam="2">  1        2 0.15120654E-01 0.12604028E+03</pdfrwt>
<pdfrwt beam="1">  1       -2 0.18466553E-01 0.12604028E+03</pdfrwt>
<totfact> 0.87130356E+03</totfact>
</mgrwt>
</event>
<event>
 6    1  0.9263730E-006  0.2514997E+03  0.7546771E-02  0.1112361E+00
         -2   -1    0    0    0  501 -0.00000000000E+00  0.00000000000E+00  0.75540052541E+02  0.75540052541E+02  0.00000000000E+00 0.  1.
          2   -1    0    0  501    0  0.00000000000E+00 -0.00000000000E+00 -0.20933294377E+03  0.20933294377E+03  0.00000000000E+00 0. -1.
          5    1    1    2  502    0  0.38858959271E+01  0.18822418042E+02 -0.78792872868E+02  0.81239094178E+02  0.47000000000E+01 0. -1.
         -5    1    1    2    0  502 -0.52911557899E+02 -0.59837132938E+02 -0.47522162824E+00  0.80015194014E+02  0.47000000000E+01 0. -1.
        -11    1    1    2    0    0 -0.10691945400E+02  0.30724060563E+02 -0.53972542960E+02  0.63018417843E+02  0.00000000000E+00 0. -1.
         11    1    1    2    0    0  0.59717607372E+02  0.10290654333E+02 -0.55225377031E+00  0.60600290272E+02  0.00000000000E+00 0.  1.
<mgrwt>
<rscale>  0 0.25149967E+03</rscale>
<asrwt>0</asrwt>
<pdfrwt beam="2">  1        2 0.32205069E-01 0.25149967E+03</pdfrwt>
<pdfrwt beam="1">  1       -2 0.11621546E-01 0.25149967E+03</pdfrwt>
<totfact> 0.83267484E+03</totfact>
</mgrwt>
</event>
<event>
 6    1  0.9263730E-006  0.2484418E+03  0.7546771E-02  0.1116687E+00
         -1   -1    0    0    0  501 -0.00000000000E+00  0.00000000000E+00  0.16854182082E+03  0.16854182082E+03  0.00000000000E+00 0.  1.
          1   -1    0    0  501    0  0.00000000000E+00 -0.00000000000E+00 -0.37566774558E+03  0.37566774558E+03  0.00000000000E+00 0. -1.
          5    1    1    2  502    0 -0.80281246576E+02  0.17128711036E+02 -0.12215795445E+03  0.14725191724E+03  0.47000000000E+01 0.  1.
         -5    1    1    2    0  502 -0.78683637407E+02  0.12719653540E+03 -0.61880823386E+02  0.16193023101E+03  0.47000000000E+01 0.  1.
        -11    1    1    2    0    0  0.13580659944E+03 -0.93123045513E+02 -0.50860502240E+02  0.17234304379E+03  0.00000000000E+00 0. -1.
         11    1    1    2    0    0  0.23158284547E+02 -0.51202200920E+02  0.27773355327E+02  0.62684374355E+02  0.00000000000E+00 0.  1.
<mgrwt>
<rscale>  0 0.24472129E+03</rscale>
<asrwt>0</asrwt>
<pdfrwt beam="2">  1        1 0.57795037E-01 0.24844180E+03</pdfrwt>
<pdfrwt beam="1">  1       -1 0.25929511E-01 0.24844180E+03</pdfrwt>
<totfact> 0.86223249E+02</totfact>
</mgrwt>
</event>
<event>
 6    1  0.9263730E-006  0.1300034E+03  0.7546771E-02  0.1243336E+00
          1   -1    0    0  501    0  0.00000000000E+00  0.00000000000E+00  0.40733255844E+03  0.40733255844E+03  0.00000000000E+00 0. -1.
         -1   -1    0    0    0  501 -0.00000000000E+00 -0.00000000000E+00 -0.32059898740E+02  0.32059898740E+02  0.00000000000E+00 0.  1.
          5    1    1    2  502    0  0.45118354916E+02 -0.12301768652E+02  0.12535122264E+03  0.13387314323E+03  0.47000000000E+01 0. -1.
         -5    1    1    2    0  502 -0.80112280788E+02  0.47281317831E+01  0.13474466394E+03  0.15690298667E+03  0.47000000000E+01 0. -1.
        -11    1    1    2    0    0 -0.10575478137E+02 -0.25369221955E+02  0.73948969581E+02  0.78891623526E+02  0.00000000000E+00 0. -1.
         11    1    1    2    0    0  0.45569404009E+02  0.32942858824E+02  0.41227803533E+02  0.69724703752E+02  0.00000000000E+00 0.  1.
<mgrwt>
<rscale>  0 0.11985511E+03</rscale>
<asrwt>0</asrwt>
<pdfrwt beam="1">  1        1 0.62666544E-01 0.13000341E+03</pdfrwt>
<pdfrwt beam="2">  1       -1 0.49322924E-02 0.13000341E+03</pdfrwt>
<totfact> 0.10059701E+04</totfact>
</mgrwt>
</event>
<event>
 6    1  0.9263730E-006  0.1323194E+03  0.7546771E-02  0.1237164E+00
         -1   -1    0    0    0  501 -0.00000000000E+00  0.00000000000E+00  0.17582545526E+02  0.17582545526E+02  0.00000000000E+00 0.  1.
          1   -1    0    0  501    0  0.00000000000E+00 -0.00000000000E+00 -0.88842963936E+03  0.88842963936E+03  0.00000000000E+00 0. -1.
          5    1    1    2  502    0 -0.47472333749E+02 -0.63662048010E+02 -0.29601256401E+03  0.30651591620E+03  0.47000000000E+01 0. -1.
         -5    1    1    2    0  502  0.39591914507E+02  0.20960369390E+02 -0.35180959346E+03  0.35468145826E+03  0.47000000000E+01 0. -1.
        -11    1    1    2    0    0 -0.20737790857E+02  0.23892620934E+02 -0.16907245091E+02  0.35871551978E+02  0.00000000000E+00 0.  1.
         11    1    1    2    0    0  0.28618210099E+02  0.18809057687E+02 -0.20611769127E+03  0.20894325845E+03  0.00000000000E+00 0. -1.
<mgrwt>
<rscale>  0 0.12366921E+03</rscale>
<asrwt>0</asrwt>
<pdfrwt beam="2">  1        1 0.13668149E+00 0.13231939E+03</pdfrwt>
<pdfrwt beam="1">  1       -1 0.27050069E-02 0.13231939E+03</pdfrwt>
<totfact> 0.82672169E+03</totfact>
</mgrwt>
</event>
<event>
 6    1  0.9263730E-006  0.2522044E+03  0.7546771E-02  0.1111920E+00
         -2   -1    0    0    0  501 -0.00000000000E+00  0.00000000000E+00  0.21272817301E+02  0.21272817301E+02  0.00000000000E+00 0.  1.
          2   -1    0    0  501    0  0.00000000000E+00 -0.00000000000E+00 -0.74751594309E+03  0.74751594309E+03  0.00000000000E+00 0. -1.
          5    1    1    2  502    0 -0.14407662494E+02 -0.93678298015E+02 -0.21563587876E+03  0.23559313756E+03  0.47000000000E+01 0. -1.
         -5    1    1    2    0  502  0.47440082879E+01  0.30644952804E+02 -0.21601598979E+03  0.21828104955E+03  0.47000000000E+01 0. -1.
        -11    1    1    2    0    0 -0.21097985844E+02  0.24740444149E+02 -0.25348665110E+02  0.41228259801E+02  0.00000000000E+00 0.  1.
         11    1    1    2    0    0  0.30761640049E+02  0.38292901061E+02 -0.26924259212E+03  0.27368631347E+03  0.00000000000E+00 0. -1.
<mgrwt>
<rscale>  0 0.25220444E+03</rscale>
<asrwt>0</asrwt>
<pdfrwt beam="2">  1        2 0.11500246E+00 0.25220444E+03</pdfrwt>
<pdfrwt beam="1">  1       -2 0.32727410E-02 0.25220444E+03</pdfrwt>
<totfact> 0.14251218E+04</totfact>
</mgrwt>
</event>
<event>
 6    1  0.9263730E-006  0.4300436E+03  0.7546771E-02  0.1033846E+00
          2   -1    0    0  501    0  0.00000000000E+00  0.00000000000E+00  0.69539509262E+03  0.69539509262E+03  0.00000000000E+00 0. -1.
         -2   -1    0    0    0  501 -0.00000000000E+00 -0.00000000000E+00 -0.66486476750E+02  0.66486476750E+02  0.00000000000E+00 0.  1.
          5    1    1    2  502    0 -0.18570400396E+03 -0.51501812364E+02  0.38076606246E+03  0.42678249506E+03  0.47000000000E+01 0.  1.
         -5    1    1    2    0  502  0.19143802954E+02  0.16547498354E+01  0.61364904009E+02  0.64474528557E+02  0.47000000000E+01 0.  1.
        -11    1    1    2    0    0  0.50563926264E+02 -0.25602987384E+02  0.65576138566E+02  0.86674411168E+02  0.00000000000E+00 0.  1.
         11    1    1    2    0    0  0.11599627475E+03  0.75450049912E+02  0.12120151084E+03  0.18395013459E+03  0.00000000000E+00 0. -1.
<mgrwt>
<rscale>  0 0.43004358E+03</rscale>
<asrwt>0</asrwt>
<pdfrwt beam="1">  1        2 0.10698386E+00 0.43004358E+03</pdfrwt>
<pdfrwt beam="2">  1       -2 0.10228689E-01 0.43004358E+03</pdfrwt>
<totfact> 0.27202705E+03</totfact>
</mgrwt>
</event>
<event>
 6    1  0.9263730E-006  0.1325385E+03  0.7546771E-02  0.1235336E+00
          3   -1    0    0  501    0  0.00000000000E+00  0.00000000000E+00  0.18454319978E+04  0.18454319978E+04  0.00000000000E+00 0. -1.
         -3   -1    0    0    0  501 -0.00000000000E+00 -0.00000000000E+00 -0.12673450593E+02  0.12673450593E+02  0.00000000000E+00 0.  1.
          5    1    1    2  502    0 -0.64905665808E+02  0.25952411007E+02  0.11579212404E+04  0.11600387761E+04  0.47000000000E+01 0.  1.
         -5    1    1    2    0  502  0.50857909136E+02  0.15811842514E+02  0.40940652741E+03  0.41288295675E+03  0.47000000000E+01 0.  1.
        -11    1    1    2    0    0 -0.24560228101E+02  0.15315520603E+02  0.39447492240E+02  0.48927238014E+02  0.00000000000E+00 0.  1.
         11    1    1    2    0    0  0.38607984773E+02 -0.57079774124E+02  0.22598328722E+03  0.23625647760E+03  0.00000000000E+00 0. -1.
<mgrwt>
<rscale>  0 0.12482925E+03</rscale>
<asrwt>0</asrwt>
<pdfrwt beam="1">  1        3 0.28391240E+00 0.13253847E+03</pdfrwt>
<pdfrwt beam="2">  1       -3 0.19497631E-02 0.13253847E+03</pdfrwt>
<totfact> 0.12891335E+02</totfact>
</mgrwt>
</event>
<event>
 6    1  0.9263730E-006  0.1252978E+03  0.7546771E-02  0.1289077E+00
         -2   -1    0    0    0  501 -0.00000000000E+00  0.00000000000E+00  0.96179222079E+01  0.96179222079E+01  0.00000000000E+00 0.  1.
          2   -1    0    0  501    0  0.00000000000E+00 -0.00000000000E+00 -0.99818684964E+03  0.99818684964E+03  0.00000000000E+00 0. -1.
          5    1    1    2  502    0  0.43686655792E+02  0.45723130865E+02 -0.70553096564E+03  0.70837501514E+03  0.47000000000E+01 0. -1.
         -5    1    1    2    0  502 -0.28085145650E+02 -0.39290311220E+02 -0.20100753600E+03  0.20678158403E+03  0.47000000000E+01 0.  1.
        -11    1    1    2    0    0 -0.69077501446E+01  0.16848463705E+02 -0.35390897420E+02  0.39800795990E+02  0.00000000000E+00 0. -1.
         11    1    1    2    0    0 -0.86937599976E+01 -0.23281283350E+02 -0.46639528372E+02  0.52847376700E+02  0.00000000000E+00 0.  1.
<mgrwt>
<rscale>  0 0.95938223E+02</rscale>
<asrwt>0</asrwt>
<pdfrwt beam="2">  1        2 0.15356710E+00 0.12529783E+03</pdfrwt>
<pdfrwt beam="1">  1       -2 0.14796813E-02 0.12529783E+03</pdfrwt>
<totfact> 0.29818588E+04</totfact>
</mgrwt>
</event>
<event>
 6    1  0.9263730E-006  0.1467939E+03  0.7546771E-02  0.1214691E+00
         -1   -1    0    0    0  501 -0.00000000000E+00  0.00000000000E+00  0.37192396448E+02  0.37192396448E+02  0.00000000000E+00 0.  1.
          1   -1    0    0  501    0  0.00000000000E+00 -0.00000000000E+00 -0.47676747108E+03  0.47676747108E+03  0.00000000000E+00 0. -1.
          5    1    1    2  502    0 -0.81612332722E+01 -0.34460524345E+02 -0.43386931867E+02  0.56201862277E+02  0.47000000000E+01 0.  1.
         -5    1    1    2    0  502 -0.19588309958E+02  0.10626876764E+03 -0.22747290985E+03  0.25187847780E+03  0.47000000000E+01 0.  1.
        -11    1    1    2    0    0  0.39466919212E+02 -0.49449660461E+02 -0.40314702073E+02  0.75021209235E+02  0.00000000000E+00 0.  1.
         11    1    1    2    0    0 -0.11717375982E+02 -0.22358582833E+02 -0.12840053084E+03  0.13085831822E+03  0.00000000000E+00 0. -1.
<mgrwt>
<rscale>  0 0.13899267E+03</rscale>
<asrwt>0</asrwt>
<pdfrwt beam="2">  1        1 0.73348838E-01 0.14679388E+03</pdfrwt>
<pdfrwt beam="1">  1       -1 0.57219075E-02 0.14679388E+03</pdfrwt>
<totfact> 0.66534416E+03</totfact>
</mgrwt>
</event>
<event>
 6    1  0.9263730E-006  0.1206449E+03  0.7546771E-02  0.1252274E+00
          1   -1    0    0  501    0  0.00000000000E+00  0.00000000000E+00  0.46725673420E+03  0.46725673420E+03  0.00000000000E+00 0. -1.
         -1   -1    0    0    0  501 -0.00000000000E+00 -0.00000000000E+00 -0.28367394100E+02  0.28367394100E+02  0.00000000000E+00 0.  1.
          5    1    1    2  502    0 -0.47675698064E+02  0.19232178391E+02  0.13118888749E+03  0.14098036414E+03  0.47000000000E+01 0. -1.
         -5    1    1    2    0  502  0.43662451567E+02 -0.53200025029E+02  0.18512837037E+03  0.19756329582E+03  0.47000000000E+01 0.  1.
        -11    1    1    2    0    0  0.36219768603E+02  0.34466301596E+02  0.28287002274E+02  0.57445209383E+02  0.00000000000E+00 0.  1.
         11    1    1    2    0    0 -0.32206522107E+02 -0.49845495799E+00  0.94285079957E+02  0.99635258950E+02  0.00000000000E+00 0. -1.
<mgrwt>
<rscale>  0 0.11460400E+03</rscale>
<asrwt>0</asrwt>
<pdfrwt beam="1">  1        1 0.71885646E-01 0.12064494E+03</pdfrwt>
<pdfrwt beam="2">  1       -1 0.43642148E-02 0.12064494E+03</pdfrwt>
<totfact> 0.10060861E+04</totfact>
</mgrwt>
</event>
<event>
 6    1  0.9263730E-006  0.1642407E+03  0.7546771E-02  0.1188014E+00
         -1   -1    0    0    0  501 -0.00000000000E+00  0.00000000000E+00  0.40522981182E+02  0.40522981182E+02  0.00000000000E+00 0.  1.
          1   -1    0    0  501    0  0.00000000000E+00 -0.00000000000E+00 -0.67678593348E+03  0.67678593348E+03  0.00000000000E+00 0. -1.
          5    1    1    2  502    0 -0.31440144207E+02  0.18618434115E+02 -0.16339200154E+03  0.16749377578E+03  0.47000000000E+01 0. -1.
         -5    1    1    2    0  502  0.82390640119E+02  0.89580354130E+02 -0.28020803026E+03  0.30553475686E+03  0.47000000000E+01 0.  1.
        -11    1    1    2    0    0  0.15017593141E+02 -0.81920765723E+01  0.34784805796E+00  0.17110208081E+02  0.00000000000E+00 0.  1.
         11    1    1    2    0    0 -0.65968089053E+02 -0.10000671167E+03 -0.19301076856E+03  0.22717017395E+03  0.00000000000E+00 0. -1.
<mgrwt>
<rscale>  0 0.16060656E+03</rscale>
<asrwt>0</asrwt>
<pdfrwt beam="2">  1        1 0.10412092E+00 0.16424069E+03</pdfrwt>
<pdfrwt beam="1">  1       -1 0.62343045E-02 0.16424069E+03</pdfrwt>
<totfact> 0.36642917E+03</totfact>
</mgrwt>
</event>
<event>
 6    1  0.9263730E-006  0.1281379E+03  0.7546771E-02  0.1244745E+00
         -2   -1    0    0    0  501 -0.00000000000E+00  0.00000000000E+00  0.20043437647E+02  0.20043437647E+02  0.00000000000E+00 0. -1.
          2   -1    0    0  501    0  0.00000000000E+00 -0.00000000000E+00 -0.63091080031E+03  0.63091080031E+03  0.00000000000E+00 0.  1.
          5    1    1    2  502    0 -0.40226572505E+02  0.64503657918E+01 -0.26472623249E+03  0.26788402812E+03  0.47000000000E+01 0. -1.
         -5    1    1    2    0  502  0.67400060877E+02  0.10563904989E+01 -0.12126733172E+03  0.13882269234E+03  0.47000000000E+01 0. -1.
        -11    1    1    2    0    0 -0.53515652264E+02 -0.15743137054E+02 -0.84952973998E+02  0.10163060165E+03  0.00000000000E+00 0. -1.
         11    1    1    2    0    0  0.26342163892E+02  0.82363807638E+01 -0.13992082446E+03  0.14261691584E+03  0.00000000000E+00 0.  1.
<mgrwt>
<rscale>  0 0.11900645E+03</rscale>
<asrwt>0</asrwt>
<pdfrwt beam="2">  1        2 0.97063199E-01 0.12813791E+03</pdfrwt>
<pdfrwt beam="1">  1       -2 0.30836058E-02 0.12813791E+03</pdfrwt>
<totfact> 0.18196109E+04</totfact>
</mgrwt>
</event>
<event>
 6    1  0.9263730E-006  0.1338981E+03  0.7546771E-02  0.1234362E+00
          1   -1    0    0  501    0  0.00000000000E+00  0.00000000000E+00  0.95863086367E+03  0.95863086367E+03  0.00000000000E+00 0. -1.
         -1   -1    0    0    0  501 -0.00000000000E+00 -0.00000000000E+00 -0.18668774575E+02  0.18668774575E+02  0.00000000000E+00 0.  1.
          5    1    1    2  502    0 -0.43386131161E+02  0.69090611009E+01  0.14180484534E+03  0.14852877049E+03  0.47000000000E+01 0. -1.
         -5    1    1    2    0  502  0.60173080742E+02 -0.51892567140E+02  0.60096749365E+03  0.60621584984E+03  0.47000000000E+01 0. -1.
        -11    1    1    2    0    0 -0.42092144980E+02  0.25313747594E+02  0.43664935650E+02  0.65720324799E+02  0.00000000000E+00 0.  1.
         11    1    1    2    0    0  0.25305195398E+02  0.19669758445E+02  0.15352481445E+03  0.15683469311E+03  0.00000000000E+00 0. -1.
<mgrwt>
<rscale>  0 0.12545381E+03</rscale>
<asrwt>0</asrwt>
<pdfrwt beam="1">  1        1 0.14748163E+00 0.13389807E+03</pdfrwt>
<pdfrwt beam="2">  1       -1 0.28721199E-02 0.13389807E+03</pdfrwt>
<totfact> 0.67075127E+03</totfact>
</mgrwt>
</event>
<event>
 6    1  0.9263730E-006  0.2028054E+03  0.7546771E-02  0.1151685E+00
          1   -1    0    0  501    0  0.00000000000E+00  0.00000000000E+00  0.25195908181E+03  0.25195908181E+03  0.00000000000E+00 0. -1.
         -1   -1    0    0    0  501 -0.00000000000E+00 -0.00000000000E+00 -0.22474297071E+03  0.22474297071E+03  0.00000000000E+00 0.  1.
          5    1    1    2  502    0  0.54632513368E+02 -0.14993559887E+03  0.17029415113E+03  0.23342575529E+03  0.47000000000E+01 0. -1.
         -5    1    1    2    0  502 -0.10660560073E+02 -0.35939766633E+01 -0.16912810333E+02  0.20849397178E+02  0.47000000000E+01 0. -1.
        -11    1    1    2    0    0 -0.13627042450E+02  0.65628051236E+01 -0.53681820796E+02  0.55771897771E+02  0.00000000000E+00 0.  1.
         11    1    1    2    0    0 -0.30344910846E+02  0.14696677041E+03 -0.72483408889E+02  0.16665500228E+03  0.00000000000E+00 0. -1.
<mgrwt>
<rscale>  0 0.19771106E+03</rscale>
<asrwt>0</asrwt>
<pdfrwt beam="1">  1        1 0.38762936E-01 0.20280537E+03</pdfrwt>
<pdfrwt beam="2">  1       -1 0.34575842E-01 0.20280537E+03</pdfrwt>
<totfact> 0.87340582E+02</totfact>
</mgrwt>
</event>
<event>
 6    1  0.9263730E-006  0.1528570E+03  0.7546771E-02  0.1205415E+00
         -2   -1    0    0    0  501 -0.00000000000E+00  0.00000000000E+00  0.31216928652E+02  0.31216928652E+02  0.00000000000E+00 0.  1.
          2   -1    0    0  501    0  0.00000000000E+00 -0.00000000000E+00 -0.78152431080E+03  0.78152431080E+03  0.00000000000E+00 0. -1.
          5    1    1    2  502    0  0.58815902320E+01 -0.33934528401E+02 -0.15687746064E+03  0.16068221114E+03  0.47000000000E+01 0.  1.
         -5    1    1    2    0  502 -0.69875594201E+02  0.94315809144E+02 -0.42466258857E+03  0.44061147812E+03  0.47000000000E+01 0.  1.
        -11    1    1    2    0    0 -0.12308556464E+02 -0.25917221546E+02 -0.97061576621E+02  0.10121340124E+03  0.00000000000E+00 0. -1.
         11    1    1    2    0    0  0.76302560433E+02 -0.34464059197E+02 -0.71705756321E+02  0.11023414895E+03  0.00000000000E+00 0.  1.
<mgrwt>
<rscale>  0 0.14604814E+03</rscale>
<asrwt>0</asrwt>
<pdfrwt beam="2">  1        2 0.12023450E+00 0.15285703E+03</pdfrwt>
<pdfrwt beam="1">  1       -2 0.48026046E-02 0.15285703E+03</pdfrwt>
<totfact> 0.73878158E+03</totfact>
</mgrwt>
</event>
<event>
 6    1  0.9263730E-006  0.2151237E+03  0.7546771E-02  0.1140900E+00
         -2   -1    0    0    0  501 -0.00000000000E+00  0.00000000000E+00  0.12341046243E+03  0.12341046243E+03  0.00000000000E+00 0.  1.
          2   -1    0    0  501    0  0.00000000000E+00 -0.00000000000E+00 -0.36522201162E+03  0.36522201162E+03  0.00000000000E+00 0. -1.
          5    1    1    2  502    0  0.11890454834E+03  0.45549603149E+02 -0.86917509976E+02  0.15423942915E+03  0.47000000000E+01 0. -1.
         -5    1    1    2    0  502 -0.22947831629E+01  0.85047650345E+02 -0.93740310650E+02  0.12667953544E+03  0.47000000000E+01 0. -1.
        -11    1    1    2    0    0 -0.72607214678E+02 -0.14155710383E+02 -0.20443383818E+02  0.76747141326E+02  0.00000000000E+00 0.  1.
         11    1    1    2    0    0 -0.44002550502E+02 -0.11644154311E+03 -0.40710344740E+02  0.13096636813E+03  0.00000000000E+00 0. -1.
<mgrwt>
<rscale>  0 0.21084355E+03</rscale>
<asrwt>0</asrwt>
<pdfrwt beam="2">  1        2 0.56188002E-01 0.21512372E+03</pdfrwt>
<pdfrwt beam="1">  1       -2 0.18986225E-01 0.21512372E+03</pdfrwt>
<totfact> 0.20117164E+03</totfact>
</mgrwt>
</event>
<event>
 6    1  0.9263730E-006  0.3946601E+03  0.7546771E-02  0.1045645E+00
          2   -1    0    0  501    0  0.00000000000E+00  0.00000000000E+00  0.24600056122E+04  0.24600056122E+04  0.00000000000E+00 0. -1.
         -2   -1    0    0    0  501 -0.00000000000E+00 -0.00000000000E+00 -0.15828886105E+02  0.15828886105E+02  0.00000000000E+00 0.  1.
          5    1    1    2  502    0 -0.13959086268E+02 -0.64045330286E+01  0.99478414351E+03  0.99491379341E+03  0.47000000000E+01 0. -1.
         -5    1    1    2    0  502  0.60709800579E+02 -0.10641951976E+03  0.99407609999E+03  0.10016087942E+04  0.47000000000E+01 0. -1.
        -11    1    1    2    0    0  0.14519336689E+02  0.77876890414E+02  0.24174903916E+03  0.25439775772E+03  0.00000000000E+00 0.  1.
         11    1    1    2    0    0 -0.61270051001E+02  0.34947162377E+02  0.21356744339E+03  0.22491415292E+03  0.00000000000E+00 0. -1.
<mgrwt>
<rscale>  0 0.39466010E+03</rscale>
<asrwt>0</asrwt>
<pdfrwt beam="1">  1        2 0.37846210E+00 0.39466010E+03</pdfrwt>
<pdfrwt beam="2">  1       -2 0.24352152E-02 0.39466010E+03</pdfrwt>
<totfact> 0.24142598E+03</totfact>
</mgrwt>
</event>
<event>
 6    1  0.9263730E-006  0.1481812E+03  0.7546771E-02  0.1207437E+00
          1   -1    0    0  501    0  0.00000000000E+00  0.00000000000E+00  0.15495677311E+03  0.15495677311E+03  0.00000000000E+00 0. -1.
         -1   -1    0    0    0  501 -0.00000000000E+00 -0.00000000000E+00 -0.13883747390E+03  0.13883747390E+03  0.00000000000E+00 0.  1.
          5    1    1    2  502    0  0.50157780691E+02 -0.16163171929E+02  0.30410159051E+02  0.61023920426E+02  0.47000000000E+01 0.  1.
         -5    1    1    2    0  502 -0.70478520567E+02 -0.60773946241E+02  0.18328837388E+02  0.94966997862E+02  0.47000000000E+01 0.  1.
        -11    1    1    2    0    0  0.36944577045E+02  0.68685535861E+02 -0.64304966969E+02  0.10108280460E+03  0.00000000000E+00 0.  1.
         11    1    1    2    0    0 -0.16623837169E+02  0.82515823084E+01  0.31685269739E+02  0.36720524115E+02  0.00000000000E+00 0. -1.
<mgrwt>
<rscale>  0 0.14447059E+03</rscale>
<asrwt>0</asrwt>
<pdfrwt beam="1">  1        1 0.23839504E-01 0.14818123E+03</pdfrwt>
<pdfrwt beam="2">  1       -1 0.21359611E-01 0.14818123E+03</pdfrwt>
<totfact> 0.35594538E+03</totfact>
</mgrwt>
</event>
<event>
 6    1  0.9263730E-006  0.1560190E+03  0.7546771E-02  0.1201247E+00
          2   -1    0    0  501    0  0.00000000000E+00  0.00000000000E+00  0.10251161463E+04  0.10251161463E+04  0.00000000000E+00 0.  1.
         -2   -1    0    0    0  501 -0.00000000000E+00 -0.00000000000E+00 -0.23635186687E+02  0.23635186687E+02  0.00000000000E+00 0. -1.
          5    1    1    2  502    0 -0.97968507427E+02 -0.21223323646E+02  0.43880538433E+03  0.45013388367E+03  0.47000000000E+01 0. -1.
         -5    1    1    2    0  502  0.10387197949E+02  0.53579103147E+02  0.30102935657E+03  0.30597283816E+03  0.47000000000E+01 0. -1.
        -11    1    1    2    0    0  0.76660189457E+02  0.18620888987E+02  0.15325767787E+03  0.17237006115E+03  0.00000000000E+00 0.  1.
         11    1    1    2    0    0  0.10921120021E+02 -0.50976668487E+02  0.10838854084E+03  0.12027455000E+03  0.00000000000E+00 0. -1.
<mgrwt>
<rscale>  0 0.14937150E+03</rscale>
<asrwt>0</asrwt>
<pdfrwt beam="1">  1        2 0.15771014E+00 0.15601901E+03</pdfrwt>
<pdfrwt beam="2">  1       -2 0.36361834E-02 0.15601901E+03</pdfrwt>
<totfact> 0.78455934E+03</totfact>
</mgrwt>
</event>
<event>
 6    1  0.9263730E-006  0.1731790E+03  0.7546771E-02  0.1179332E+00
         -2   -1    0    0    0  501 -0.00000000000E+00  0.00000000000E+00  0.66086987341E+02  0.66086987341E+02  0.00000000000E+00 0. -1.
          2   -1    0    0  501    0  0.00000000000E+00 -0.00000000000E+00 -0.87123095504E+03  0.87123095504E+03  0.00000000000E+00 0.  1.
          5    1    1    2  502    0 -0.53145341877E+02  0.79957572013E+02 -0.24292807489E+03  0.26125424447E+03  0.47000000000E+01 0. -1.
         -5    1    1    2    0  502  0.14169794998E+02  0.33390039010E+02 -0.51102970769E+03  0.51233693010E+03  0.47000000000E+01 0. -1.
        -11    1    1    2    0    0  0.42470805208E+01 -0.25117452391E+02  0.29676080327E+02  0.39110022387E+02  0.00000000000E+00 0. -1.
         11    1    1    2    0    0  0.34728466358E+02 -0.88230158632E+02 -0.80862265444E+02  0.12461674543E+03  0.00000000000E+00 0.  1.
<mgrwt>
<rscale>  0 0.16858460E+03</rscale>
<asrwt>0</asrwt>
<pdfrwt beam="2">  1        2 0.13403553E+00 0.17317900E+03</pdfrwt>
<pdfrwt beam="1">  1       -2 0.10167229E-01 0.17317900E+03</pdfrwt>
<totfact> 0.20375036E+03</totfact>
</mgrwt>
</event>
<event>
 6    1  0.9263730E-006  0.2129840E+03  0.7546771E-02  0.1142397E+00
         -2   -1    0    0    0  501 -0.00000000000E+00  0.00000000000E+00  0.52140326910E+02  0.52140326910E+02  0.00000000000E+00 0. -1.
          2   -1    0    0  501    0  0.00000000000E+00 -0.00000000000E+00 -0.98780447579E+03  0.98780447579E+03  0.00000000000E+00 0.  1.
          5    1    1    2  502    0  0.32651256695E+02 -0.12916649711E+03 -0.66816101453E+03  0.68133055111E+03  0.47000000000E+01 0. -1.
         -5    1    1    2    0  502 -0.21826227552E+01 -0.40560094506E+02 -0.36487807161E+02  0.54802693181E+02  0.47000000000E+01 0. -1.
        -11    1    1    2    0    0  0.10446927778E+02  0.25340154958E+02  0.10733406458E+01  0.27430162476E+02  0.00000000000E+00 0. -1.
         11    1    1    2    0    0 -0.40915561718E+02  0.14438643666E+03 -0.23208866783E+03  0.27638139593E+03  0.00000000000E+00 0.  1.
<mgrwt>
<rscale>  0 0.20895392E+03</rscale>
<asrwt>0</asrwt>
<pdfrwt beam="2">  1        2 0.15196992E+00 0.21298402E+03</pdfrwt>
<pdfrwt beam="1">  1       -2 0.80215886E-02 0.21298402E+03</pdfrwt>
<totfact> 0.25047627E+03</totfact>
</mgrwt>
</event>
<event>
 6    1  0.9263730E-006  0.3426052E+03  0.7546771E-02  0.1065692E+00
         -1   -1    0    0    0  501 -0.00000000000E+00  0.00000000000E+00  0.17858445871E+03  0.17858445871E+03  0.00000000000E+00 0.  1.
          1   -1    0    0  501    0  0.00000000000E+00 -0.00000000000E+00 -0.16431767054E+03  0.16431767054E+03  0.00000000000E+00 0. -1.
          5    1    1    2  502    0  0.29408631443E+02  0.12105381687E+03  0.45286191787E+02  0.13263417112E+03  0.47000000000E+01 0. -1.
         -5    1    1    2    0  502  0.48979086319E+01  0.61626295558E+01 -0.48147814030E+02  0.49012952450E+02  0.47000000000E+01 0. -1.
        -11    1    1    2    0    0 -0.85861365718E+01 -0.75675407199E+02  0.53551337298E+02  0.93103355054E+02  0.00000000000E+00 0.  1.
         11    1    1    2    0    0 -0.25720403503E+02 -0.51541039224E+02 -0.36422926887E+02  0.68151650631E+02  0.00000000000E+00 0. -1.
<mgrwt>
<rscale>  0 0.34260521E+03</rscale>
<asrwt>0</asrwt>
<pdfrwt beam="2">  1        1 0.25279642E-01 0.34260521E+03</pdfrwt>
<pdfrwt beam="1">  1       -1 0.27474532E-01 0.34260521E+03</pdfrwt>
<totfact> 0.22458747E+03</totfact>
</mgrwt>
</event>
<event>
 6    1  0.9263730E-006  0.1392323E+03  0.7546771E-02  0.1229319E+00
         -1   -1    0    0    0  501 -0.00000000000E+00  0.00000000000E+00  0.22085126159E+02  0.22085126159E+02  0.00000000000E+00 0.  1.
          1   -1    0    0  501    0  0.00000000000E+00 -0.00000000000E+00 -0.65782945382E+03  0.65782945382E+03  0.00000000000E+00 0. -1.
          5    1    1    2  502    0 -0.87078561812E+00 -0.58359233336E+02 -0.62099418625E+02  0.85352130476E+02  0.47000000000E+01 0.  1.
         -5    1    1    2    0  502 -0.37504156858E+02  0.10523917598E+02 -0.30066221320E+03  0.30321142965E+03  0.47000000000E+01 0.  1.
        -11    1    1    2    0    0  0.54027941426E+02  0.43200810756E+01 -0.17073713175E+03  0.17913360855E+03  0.00000000000E+00 0.  1.
         11    1    1    2    0    0 -0.15652998950E+02  0.43515234663E+02 -0.10224556409E+03  0.11221741130E+03  0.00000000000E+00 0. -1.
<mgrwt>
<rscale>  0 0.12875252E+03</rscale>
<asrwt>0</asrwt>
<pdfrwt beam="2">  1        1 0.10120453E+00 0.13923232E+03</pdfrwt>
<pdfrwt beam="1">  1       -1 0.33977117E-02 0.13923232E+03</pdfrwt>
<totfact> 0.92871865E+03</totfact>
</mgrwt>
</event>
<event>
 6    1  0.9263730E-006  0.1481105E+03  0.7546771E-02  0.1212318E+00
         -2   -1    0    0    0  501 -0.00000000000E+00  0.00000000000E+00  0.23601591444E+02  0.23601591444E+02  0.00000000000E+00 0.  1.
          2   -1    0    0  501    0  0.00000000000E+00 -0.00000000000E+00 -0.76744390914E+03  0.76744390914E+03  0.00000000000E+00 0. -1.
          5    1    1    2  502    0  0.12346729021E+02 -0.49611463301E+02 -0.18042224468E+03  0.18758468856E+03  0.47000000000E+01 0.  1.
         -5    1    1    2    0  502 -0.89766482318E+02  0.31780840137E+02 -0.24621363393E+03  0.26402895046E+03  0.47000000000E+01 0.  1.
        -11    1    1    2    0    0  0.10494275350E+02  0.29621261089E+02 -0.27174984297E+02  0.41545501503E+02  0.00000000000E+00 0.  1.
         11    1    1    2    0    0  0.66925477946E+02 -0.11790637925E+02 -0.29003145479E+03  0.29788636006E+03  0.00000000000E+00 0. -1.
<mgrwt>
<rscale>  0 0.14075418E+03</rscale>
<asrwt>0</asrwt>
<pdfrwt beam="2">  1        2 0.11806828E+00 0.14811045E+03</pdfrwt>
<pdfrwt beam="1">  1       -2 0.36310146E-02 0.14811045E+03</pdfrwt>
<totfact> 0.11449395E+04</totfact>
</mgrwt>
</event>
<event>
 6    1  0.9263730E-006  0.1438935E+03  0.7546771E-02  0.1223028E+00
          1   -1    0    0  501    0  0.00000000000E+00  0.00000000000E+00  0.73612867047E+02  0.73612867047E+02  0.00000000000E+00 0. -1.
         -1   -1    0    0    0  501 -0.00000000000E+00 -0.00000000000E+00 -0.21359537950E+03  0.21359537950E+03  0.00000000000E+00 0.  1.
          5    1    1    2  502    0 -0.43834808017E+02  0.65696663691E+01  0.23143686441E+02  0.50223213081E+02  0.47000000000E+01 0. -1.
         -5    1    1    2    0  502  0.27024901673E+02 -0.56289628701E+02 -0.87028584752E+02  0.10721442148E+03  0.47000000000E+01 0.  1.
        -11    1    1    2    0    0  0.39902163099E+02  0.10110811789E+02 -0.73013969230E+02  0.83817962500E+02  0.00000000000E+00 0.  1.
         11    1    1    2    0    0 -0.23092256755E+02  0.39609150543E+02 -0.30836449131E+01  0.45952649485E+02  0.00000000000E+00 0. -1.
<mgrwt>
<rscale>  0 0.13302980E+03</rscale>
<asrwt>0</asrwt>
<pdfrwt beam="1">  1        1 0.11325057E-01 0.14389346E+03</pdfrwt>
<pdfrwt beam="2">  1       -1 0.32860827E-01 0.14389346E+03</pdfrwt>
<totfact> 0.45430087E+03</totfact>
</mgrwt>
</event>
<event>
 6    1  0.9263730E-006  0.2504295E+03  0.7546771E-02  0.1115413E+00
         -3   -1    0    0    0  501 -0.00000000000E+00  0.00000000000E+00  0.29893096414E+03  0.29893096414E+03  0.00000000000E+00 0.  1.
          3   -1    0    0  501    0  0.00000000000E+00 -0.00000000000E+00 -0.20250307486E+03  0.20250307486E+03  0.00000000000E+00 0. -1.
          5    1    1    2  502    0  0.54615325751E+02 -0.16834881472E+03  0.42623967464E+02  0.18210724814E+03  0.47000000000E+01 0. -1.
         -5    1    1    2    0  502  0.68989440897E+02 -0.10003511397E+02  0.45483918371E+02  0.83369598931E+02  0.47000000000E+01 0. -1.
        -11    1    1    2    0    0  0.50240550889E+01  0.57083992699E+02 -0.10213507364E+02  0.58207723583E+02  0.00000000000E+00 0. -1.
         11    1    1    2    0    0 -0.12862882174E+03  0.12126833342E+03  0.18533510811E+02  0.17774946834E+03  0.00000000000E+00 0.  1.
<mgrwt>
<rscale>  0 0.24669193E+03</rscale>
<asrwt>0</asrwt>
<pdfrwt beam="2">  1        3 0.31154319E-01 0.25042954E+03</pdfrwt>
<pdfrwt beam="1">  1       -3 0.45989379E-01 0.25042954E+03</pdfrwt>
<totfact> 0.11766866E+02</totfact>
</mgrwt>
</event>
<event>
 6    1  0.9263730E-006  0.2218200E+03  0.7546771E-02  0.1157613E+00
          1   -1    0    0  501    0  0.00000000000E+00  0.00000000000E+00  0.53033784469E+03  0.53033784469E+03  0.00000000000E+00 0. -1.
         -1   -1    0    0    0  501 -0.00000000000E+00 -0.00000000000E+00 -0.11449640095E+03  0.11449640095E+03  0.00000000000E+00 0.  1.
          5    1    1    2  502    0 -0.11033458558E+03  0.35231121971E+02  0.46228984190E+03  0.47660144844E+03  0.47000000000E+01 0. -1.
         -5    1    1    2    0  502  0.33651496714E+02 -0.15543250334E+02  0.13725052229E+01  0.37389699552E+02  0.47000000000E+01 0.  1.
        -11    1    1    2    0    0  0.63201529391E+02 -0.65870557391E+00 -0.72975243068E+02  0.96541459028E+02  0.00000000000E+00 0.  1.
         11    1    1    2    0    0  0.13481559472E+02 -0.19029166063E+02  0.25154339690E+02  0.34301638621E+02  0.00000000000E+00 0. -1.
<mgrwt>
<rscale>  0 0.19094333E+03</rscale>
<asrwt>0</asrwt>
<pdfrwt beam="1">  1        1 0.81590436E-01 0.22182004E+03</pdfrwt>
<pdfrwt beam="2">  1       -1 0.17614831E-01 0.22182004E+03</pdfrwt>
<totfact> 0.10354216E+03</totfact>
</mgrwt>
</event>
<event>
 6    1  0.9263730E-006  0.3163152E+03  0.7546771E-02  0.1077358E+00
         -2   -1    0    0    0  501 -0.00000000000E+00  0.00000000000E+00  0.77137073679E+02  0.77137073679E+02  0.00000000000E+00 0.  1.
          2   -1    0    0  501    0  0.00000000000E+00 -0.00000000000E+00 -0.32427754780E+03  0.32427754780E+03  0.00000000000E+00 0. -1.
          5    1    1    2  502    0  0.21676122335E+00  0.14456597528E+02  0.14037454632E+02  0.20692518698E+02  0.47000000000E+01 0. -1.
         -5    1    1    2    0  502  0.10582783617E+03 -0.27648935495E+02 -0.19653399825E+03  0.22497043586E+03  0.47000000000E+01 0. -1.
        -11    1    1    2    0    0 -0.27332435568E+02 -0.62393859682E+01 -0.69082948549E+02  0.74554984753E+02  0.00000000000E+00 0. -1.
         11    1    1    2    0    0 -0.78712161823E+02  0.19431723935E+02  0.44390180479E+01  0.81196682168E+02  0.00000000000E+00 0.  1.
<mgrwt>
<rscale>  0 0.31631517E+03</rscale>
<asrwt>0</asrwt>
<pdfrwt beam="2">  1        2 0.49888854E-01 0.31631517E+03</pdfrwt>
<pdfrwt beam="1">  1       -2 0.11867242E-01 0.31631517E+03</pdfrwt>
<totfact> 0.50555706E+03</totfact>
</mgrwt>
</event>
<event>
 6    1  0.9263730E-006  0.2642799E+03  0.7546771E-02  0.1106704E+00
          4   -1    0    0  501    0  0.00000000000E+00  0.00000000000E+00  0.90003822240E+03  0.90003822240E+03  0.00000000000E+00 0. -1.
         -4   -1    0    0    0  501 -0.00000000000E+00 -0.00000000000E+00 -0.78263791369E+02  0.78263791369E+02  0.00000000000E+00 0.  1.
          5    1    1    2  502    0  0.62936336439E+02  0.21901463143E+02  0.23773247309E+03  0.24694022615E+03  0.47000000000E+01 0. -1.
         -5    1    1    2    0  502  0.15769148219E+03 -0.96334586630E+02  0.30331545639E+03  0.35520319849E+03  0.47000000000E+01 0. -1.
        -11    1    1    2    0    0 -0.20199868674E+03  0.38396037210E+02  0.25711524165E+03  0.32922024939E+03  0.00000000000E+00 0. -1.
         11    1    1    2    0    0 -0.18629131895E+02  0.36037086277E+02  0.23611259907E+02  0.46938339733E+02  0.00000000000E+00 0.  1.
<mgrwt>
<rscale>  0 0.26073301E+03</rscale>
<asrwt>0</asrwt>
<pdfrwt beam="1">  1        4 0.13846741E+00 0.26427986E+03</pdfrwt>
<pdfrwt beam="2">  1       -4 0.12040584E-01 0.26427986E+03</pdfrwt>
<totfact> 0.39312053E+01</totfact>
</mgrwt>
</event>
<event>
 6    1  0.9263730E-006  0.1307808E+03  0.7546771E-02  0.1239829E+00
         -2   -1    0    0    0  501 -0.00000000000E+00  0.00000000000E+00  0.29796835914E+03  0.29796835914E+03  0.00000000000E+00 0.  1.
          2   -1    0    0  501    0  0.00000000000E+00 -0.00000000000E+00 -0.44392347593E+02  0.44392347593E+02  0.00000000000E+00 0. -1.
          5    1    1    2  502    0 -0.68198109280E+02 -0.24888231461E+02  0.37037977907E+02  0.81635212880E+02  0.47000000000E+01 0.  1.
         -5    1    1    2    0  502  0.39797252049E+02 -0.91650767819E+00  0.10028505669E+03  0.10799927709E+03  0.47000000000E+01 0.  1.
        -11    1    1    2    0    0  0.53455392658E+02  0.37709340690E+02  0.54929696222E+02  0.85420986336E+02  0.00000000000E+00 0. -1.
         11    1    1    2    0    0 -0.25054535427E+02 -0.11904601551E+02  0.61323280732E+02  0.67305230430E+02  0.00000000000E+00 0.  1.
<mgrwt>
<rscale>  0 0.12200277E+03</rscale>
<asrwt>0</asrwt>
<pdfrwt beam="2">  1        2 0.68295921E-02 0.13078082E+03</pdfrwt>
<pdfrwt beam="1">  1       -2 0.45841285E-01 0.13078082E+03</pdfrwt>
<totfact> 0.45180479E+03</totfact>
</mgrwt>
</event>
<event>
 6    1  0.9263730E-006  0.1653219E+03  0.7546771E-02  0.1189814E+00
          1   -1    0    0  501    0  0.00000000000E+00  0.00000000000E+00  0.86104329882E+03  0.86104329882E+03  0.00000000000E+00 0. -1.
         -1   -1    0    0    0  501 -0.00000000000E+00 -0.00000000000E+00 -0.52943770007E+02  0.52943770007E+02  0.00000000000E+00 0.  1.
          5    1    1    2  502    0  0.10802576980E+03  0.16609667216E+02  0.66055467333E+03  0.66955209987E+03  0.47000000000E+01 0. -1.
         -5    1    1    2    0  502 -0.13595775459E+02  0.36235321500E+02  0.77040153163E+02  0.86343030025E+02  0.47000000000E+01 0. -1.
        -11    1    1    2    0    0 -0.30936964510E+02 -0.12825523665E+02  0.75783572463E+02  0.82853724633E+02  0.00000000000E+00 0. -1.
         11    1    1    2    0    0 -0.63493029831E+02 -0.40019465051E+02 -0.52788701443E+01  0.75238214294E+02  0.00000000000E+00 0.  1.
<mgrwt>
<rscale>  0 0.15901444E+03</rscale>
<asrwt>0</asrwt>
<pdfrwt beam="1">  1        1 0.13246819E+00 0.16532187E+03</pdfrwt>
<pdfrwt beam="2">  1       -1 0.81451960E-02 0.16532187E+03</pdfrwt>
<totfact> 0.17102426E+03</totfact>
</mgrwt>
</event>
<event>
 6    1  0.9263730E-006  0.1164652E+03  0.7546771E-02  0.1259283E+00
         -1   -1    0    0    0  501 -0.00000000000E+00  0.00000000000E+00  0.20915043603E+02  0.20915043603E+02  0.00000000000E+00 0.  1.
          1   -1    0    0  501    0  0.00000000000E+00 -0.00000000000E+00 -0.58995583073E+03  0.58995583073E+03  0.00000000000E+00 0. -1.
          5    1    1    2  502    0  0.17737766313E+02 -0.22879057338E+02 -0.35322018949E+03  0.35443570910E+03  0.47000000000E+01 0. -1.
         -5    1    1    2    0  502 -0.37448280909E+02  0.18573007771E+02 -0.50377950910E+02  0.65630467761E+02  0.47000000000E+01 0.  1.
        -11    1    1    2    0    0 -0.35039097321E+02 -0.13391297808E+01 -0.95946409743E+02  0.10215304769E+03  0.00000000000E+00 0.  1.
         11    1    1    2    0    0  0.54749611916E+02  0.56451793483E+01 -0.69496236978E+02  0.88651649781E+02  0.00000000000E+00 0. -1.
<mgrwt>
<rscale>  0 0.11069781E+03</rscale>
<asrwt>0</asrwt>
<pdfrwt beam="2">  1        1 0.90762431E-01 0.11646516E+03</pdfrwt>
<pdfrwt beam="1">  1       -1 0.32176992E-02 0.11646516E+03</pdfrwt>
<totfact> 0.11531756E+04</totfact>
</mgrwt>
</event>
<event>
 6    1  0.9263730E-006  0.1254914E+03  0.7546771E-02  0.1250973E+00
         -1   -1    0    0    0  501 -0.00000000000E+00  0.00000000000E+00  0.11981138712E+02  0.11981138712E+02  0.00000000000E+00 0.  1.
          1   -1    0    0  501    0  0.00000000000E+00 -0.00000000000E+00 -0.11385492584E+04  0.11385492584E+04  0.00000000000E+00 0. -1.
          5    1    1    2  502    0  0.54781692069E+02 -0.37798296294E+02 -0.43824602672E+03  0.44329608043E+03  0.47000000000E+01 0. -1.
         -5    1    1    2    0  502 -0.51742620221E+02  0.27120748166E+02 -0.42657709980E+03  0.43058442354E+03  0.47000000000E+01 0. -1.
        -11    1    1    2    0    0 -0.11083454664E+02 -0.38323967754E+02 -0.12010640257E+03  0.12655875082E+03  0.00000000000E+00 0.  1.
         11    1    1    2    0    0  0.80443828160E+01  0.49001515882E+02 -0.14163859061E+03  0.15009114232E+03  0.00000000000E+00 0. -1.
<mgrwt>
<rscale>  0 0.11534911E+03</rscale>
<asrwt>0</asrwt>
<pdfrwt beam="2">  1        1 0.17516143E+00 0.12549141E+03</pdfrwt>
<pdfrwt beam="1">  1       -1 0.18432520E-02 0.12549141E+03</pdfrwt>
<totfact> 0.94275683E+03</totfact>
</mgrwt>
</event>
<event>
 6    1  0.9263730E-006  0.1257470E+03  0.7546771E-02  0.1249979E+00
          1   -1    0    0  501    0  0.00000000000E+00  0.00000000000E+00  0.35099916062E+02  0.35099916062E+02  0.00000000000E+00 0. -1.
         -1   -1    0    0    0  501 -0.00000000000E+00 -0.00000000000E+00 -0.34521003065E+03  0.34521003065E+03  0.00000000000E+00 0.  1.
          5    1    1    2  502    0 -0.26648461343E+02 -0.53829843343E+02 -0.59682135766E+02  0.84804716000E+02  0.47000000000E+01 0.  1.
         -5    1    1    2    0  502  0.16010798477E+02  0.62561283933E+02 -0.85819128565E+02  0.10750475684E+03  0.47000000000E+01 0.  1.
        -11    1    1    2    0    0  0.10049290285E+02 -0.34383708675E+02 -0.19788286270E+02  0.40924368425E+02  0.00000000000E+00 0. -1.
         11    1    1    2    0    0  0.58837258082E+00  0.25652268085E+02 -0.14482056398E+03  0.14707610544E+03  0.00000000000E+00 0.  1.
<mgrwt>
<rscale>  0 0.11592246E+03</rscale>
<asrwt>0</asrwt>
<pdfrwt beam="1">  1        1 0.53999871E-02 0.12574703E+03</pdfrwt>
<pdfrwt beam="2">  1       -1 0.53109235E-01 0.12574703E+03</pdfrwt>
<totfact> 0.52027584E+03</totfact>
</mgrwt>
</event>
<event>
 6    1  0.1970758E-005  0.3281151E+03  0.7546771E-02  0.1073260E+00
          1   -1    0    0  501    0  0.00000000000E+00  0.00000000000E+00  0.52174315904E+03  0.52174315904E+03  0.00000000000E+00 0. -1.
         -1   -1    0    0    0  501 -0.00000000000E+00 -0.00000000000E+00 -0.20299261136E+03  0.20299261136E+03  0.00000000000E+00 0.  1.
          5    1    1    2  502    0 -0.23557750906E+03 -0.20011506217E+02  0.21880236783E+03  0.32217043521E+03  0.47000000000E+01 0. -1.
         -5    1    1    2    0  502 -0.65847848865E+02 -0.14306435796E+02 -0.77044108931E+01  0.67985743010E+02  0.47000000000E+01 0. -1.
        -11    1    1    2    0    0  0.26732647276E+03  0.26435580005E+02  0.59650281955E+02  0.27517347086E+03  0.00000000000E+00 0. -1.
         11    1    1    2    0    0  0.34098885170E+02  0.78823620073E+01  0.48002308795E+02  0.59406121320E+02  0.00000000000E+00 0.  1.
<mgrwt>
<rscale>  0 0.32524580E+03</rscale>
<asrwt>0</asrwt>
<pdfrwt beam="1">  1        1 0.80268178E-01 0.32811507E+03</pdfrwt>
<pdfrwt beam="2">  1       -1 0.31229633E-01 0.32811507E+03</pdfrwt>
<totfact> 0.40774431E+02</totfact>
</mgrwt>
</event>
<event>
 6    1  0.9263730E-006  0.1305040E+03  0.7546771E-02  0.1240369E+00
          2   -1    0    0  501    0  0.00000000000E+00  0.00000000000E+00  0.62741051223E+03  0.62741051223E+03  0.00000000000E+00 0. -1.
         -2   -1    0    0    0  501 -0.00000000000E+00 -0.00000000000E+00 -0.21424249735E+02  0.21424249735E+02  0.00000000000E+00 0.  1.
          5    1    1    2  502    0 -0.12125567336E+02 -0.60745057451E+02  0.19890894681E+03  0.20838390175E+03  0.47000000000E+01 0.  1.
         -5    1    1    2    0  502  0.47600441342E+02  0.48604918077E+02  0.19489762842E+03  0.20648345126E+03  0.47000000000E+01 0.  1.
        -11    1    1    2    0    0 -0.43770292484E+01  0.49657173440E+02  0.10538572091E+03  0.11658105948E+03  0.00000000000E+00 0.  1.
         11    1    1    2    0    0 -0.31097844757E+02 -0.37517034065E+02  0.10679396636E+03  0.11738634948E+03  0.00000000000E+00 0. -1.
<mgrwt>
<rscale>  0 0.12166879E+03</rscale>
<asrwt>0</asrwt>
<pdfrwt beam="1">  1        2 0.96524680E-01 0.13050403E+03</pdfrwt>
<pdfrwt beam="2">  1       -2 0.32960389E-02 0.13050403E+03</pdfrwt>
<totfact> 0.16628007E+04</totfact>
</mgrwt>
</event>
<event>
 6    1  0.9263730E-006  0.1232279E+03  0.7546771E-02  0.1293697E+00
         -2   -1    0    0    0  501 -0.00000000000E+00  0.00000000000E+00  0.29671540274E+03  0.29671540274E+03  0.00000000000E+00 0.  1.
          2   -1    0    0  501    0  0.00000000000E+00 -0.00000000000E+00 -0.22870843706E+02  0.22870843706E+02  0.00000000000E+00 0. -1.
          5    1    1    2  502    0 -0.27307008332E+02 -0.62267641109E+02  0.92676239130E+02  0.11503872015E+03  0.47000000000E+01 0. -1.
         -5    1    1    2    0  502  0.40274689189E+02  0.33944155732E+02  0.11229538787E+03  0.12412332752E+03  0.47000000000E+01 0.  1.
        -11    1    1    2    0    0  0.85984466755E+00  0.26252929671E+02  0.53770746521E+02  0.59843536248E+02  0.00000000000E+00 0.  1.
         11    1    1    2    0    0 -0.13827525524E+02  0.20705557048E+01  0.15102185512E+02  0.20580662533E+02  0.00000000000E+00 0. -1.
<mgrwt>
<rscale>  0 0.93889481E+02</rscale>
<asrwt>0</asrwt>
<pdfrwt beam="2">  1        2 0.35185915E-02 0.12322791E+03</pdfrwt>
<pdfrwt beam="1">  1       -2 0.45648521E-01 0.12322791E+03</pdfrwt>
<totfact> 0.10756112E+04</totfact>
</mgrwt>
</event>
<event>
 6    1  0.9263730E-006  0.1389227E+03  0.7546771E-02  0.1226856E+00
          2   -1    0    0  501    0  0.00000000000E+00  0.00000000000E+00  0.22793254543E+03  0.22793254543E+03  0.00000000000E+00 0. -1.
         -2   -1    0    0    0  501 -0.00000000000E+00 -0.00000000000E+00 -0.67545595493E+02  0.67545595493E+02  0.00000000000E+00 0.  1.
          5    1    1    2  502    0 -0.25734237047E+02 -0.49760751390E+01 -0.12798157910E+02  0.29544798630E+02  0.47000000000E+01 0. -1.
         -5    1    1    2    0  502  0.81200485106E+02 -0.19454241771E+02  0.11840362141E+03  0.14496031825E+03  0.47000000000E+01 0. -1.
        -11    1    1    2    0    0 -0.18956587895E+02  0.10533747139E+02 -0.24421095567E+02  0.32660403582E+02  0.00000000000E+00 0.  1.
         11    1    1    2    0    0 -0.36509660165E+02  0.13896569771E+02  0.79202582005E+02  0.88312620463E+02  0.00000000000E+00 0. -1.
<mgrwt>
<rscale>  0 0.13040480E+03</rscale>
<asrwt>0</asrwt>
<pdfrwt beam="1">  1        2 0.35066545E-01 0.13892272E+03</pdfrwt>
<pdfrwt beam="2">  1       -2 0.10391630E-01 0.13892272E+03</pdfrwt>
<totfact> 0.87306836E+03</totfact>
</mgrwt>
</event>
<event>
 6    1  0.9263730E-006  0.2450967E+03  0.7546771E-02  0.1116443E+00
          2   -1    0    0  501    0  0.00000000000E+00  0.00000000000E+00  0.60293286368E+03  0.60293286368E+03  0.00000000000E+00 0. -1.
         -2   -1    0    0    0  501 -0.00000000000E+00 -0.00000000000E+00 -0.24908414583E+02  0.24908414583E+02  0.00000000000E+00 0.  1.
          5    1    1    2  502    0  0.45853586573E+00  0.71096473835E+01 -0.62883576135E+01  0.10601451907E+02  0.47000000000E+01 0.  1.
         -5    1    1    2    0  502 -0.33501632914E+02 -0.24855080264E+02  0.44848685024E+03  0.45044719919E+03  0.47000000000E+01 0.  1.
        -11    1    1    2    0    0  0.34642892154E+02 -0.12944521372E+00  0.14324398128E+03  0.14737362350E+03  0.00000000000E+00 0. -1.
         11    1    1    2    0    0 -0.15997951062E+01  0.17874878094E+02 -0.74180248023E+01  0.19419003662E+02  0.00000000000E+00 0.  1.
<mgrwt>
<rscale>  0 0.24509673E+03</rscale>
<asrwt>0</asrwt>
<pdfrwt beam="1">  1        2 0.92758891E-01 0.24509673E+03</pdfrwt>
<pdfrwt beam="2">  1       -2 0.38320642E-02 0.24509673E+03</pdfrwt>
<totfact> 0.14537892E+04</totfact>
</mgrwt>
</event>
<event>
 6    1  0.9263730E-006  0.2430799E+03  0.7546771E-02  0.1120336E+00
          2   -1    0    0  501    0  0.00000000000E+00  0.00000000000E+00  0.44528186439E+03  0.44528186439E+03  0.00000000000E+00 0.  1.
         -2   -1    0    0    0  501 -0.00000000000E+00 -0.00000000000E+00 -0.14110734032E+03  0.14110734032E+03  0.00000000000E+00 0. -1.
          5    1    1    2  502    0  0.16810021617E+02  0.56453587449E+02  0.74442652116E+02  0.95044109847E+02  0.47000000000E+01 0.  1.
         -5    1    1    2    0  502 -0.15213720104E+03  0.10213134306E+03  0.18243733901E+03  0.25861556766E+03  0.47000000000E+01 0.  1.
        -11    1    1    2    0    0  0.97368628743E+02 -0.63485590466E+02  0.57767304478E+02  0.12980035257E+03  0.00000000000E+00 0.  1.
         11    1    1    2    0    0  0.37958550675E+02 -0.95099340041E+02 -0.10472771533E+02  0.10292917463E+03  0.00000000000E+00 0. -1.
<mgrwt>
<rscale>  0 0.23918568E+03</rscale>
<asrwt>0</asrwt>
<pdfrwt beam="1">  1        2 0.68504902E-01 0.24307990E+03</pdfrwt>
<pdfrwt beam="2">  1       -2 0.21708822E-01 0.24307990E+03</pdfrwt>
<totfact> 0.12912248E+03</totfact>
</mgrwt>
</event>
<event>
 6    1  0.9263730E-006  0.1313203E+03  0.7546771E-02  0.1239379E+00
          1   -1    0    0  501    0  0.00000000000E+00  0.00000000000E+00  0.52106007045E+03  0.52106007045E+03  0.00000000000E+00 0. -1.
         -1   -1    0    0    0  501 -0.00000000000E+00 -0.00000000000E+00 -0.25721743269E+02  0.25721743269E+02  0.00000000000E+00 0.  1.
          5    1    1    2  502    0  0.18487653594E+02  0.57354175285E+02  0.14167061912E+03  0.15402580654E+03  0.47000000000E+01 0.  1.
         -5    1    1    2    0  502  0.20427782900E+02 -0.67692944758E+02  0.17124881299E+03  0.18533179715E+03  0.47000000000E+01 0.  1.
        -11    1    1    2    0    0  0.12419197151E+02 -0.30630350998E+02  0.60521459931E+02  0.68958697582E+02  0.00000000000E+00 0.  1.
         11    1    1    2    0    0 -0.51334633645E+02  0.40969120471E+02  0.12189743513E+03  0.13846551244E+03  0.00000000000E+00 0. -1.
<mgrwt>
<rscale>  0 0.12228244E+03</rscale>
<asrwt>0</asrwt>
<pdfrwt beam="1">  1        1 0.80163080E-01 0.13132027E+03</pdfrwt>
<pdfrwt beam="2">  1       -1 0.39571917E-02 0.13132027E+03</pdfrwt>
<totfact> 0.10145974E+04</totfact>
</mgrwt>
</event>
<event>
 6    1  0.9263730E-006  0.1306384E+03  0.7546771E-02  0.1241261E+00
          1   -1    0    0  501    0  0.00000000000E+00  0.00000000000E+00  0.22230095620E+03  0.22230095620E+03  0.00000000000E+00 0. -1.
         -1   -1    0    0    0  501 -0.00000000000E+00 -0.00000000000E+00 -0.81644110663E+02  0.81644110663E+02  0.00000000000E+00 0.  1.
          5    1    1    2  502    0 -0.40860548569E+02 -0.18634934754E+02  0.14466114259E+03  0.15154465150E+03  0.47000000000E+01 0.  1.
         -5    1    1    2    0  502  0.17893517153E+02  0.48874383779E+02  0.14240562209E+02  0.54164259045E+02  0.47000000000E+01 0.  1.
        -11    1    1    2    0    0 -0.21614769651E+02 -0.20972018773E+02 -0.38095737807E+02  0.48562424543E+02  0.00000000000E+00 0.  1.
         11    1    1    2    0    0  0.44581801067E+02 -0.92674302524E+01  0.19850878552E+02  0.49673731782E+02  0.00000000000E+00 0. -1.
<mgrwt>
<rscale>  0 0.12111990E+03</rscale>
<asrwt>0</asrwt>
<pdfrwt beam="1">  1        1 0.34200147E-01 0.13063845E+03</pdfrwt>
<pdfrwt beam="2">  1       -1 0.12560633E-01 0.13063845E+03</pdfrwt>
<totfact> 0.52124138E+03</totfact>
</mgrwt>
</event>
<event>
 6    1  0.9263730E-006  0.1158893E+03  0.7546771E-02  0.1260068E+00
         -1   -1    0    0    0  501 -0.00000000000E+00  0.00000000000E+00  0.11470788023E+03  0.11470788023E+03  0.00000000000E+00 0.  1.
          1   -1    0    0  501    0  0.00000000000E+00 -0.00000000000E+00 -0.75227215864E+03  0.75227215864E+03  0.00000000000E+00 0. -1.
          5    1    1    2  502    0 -0.65570471822E+02 -0.57969300761E+01 -0.37681547751E+03  0.38255076168E+03  0.47000000000E+01 0. -1.
         -5    1    1    2    0  502  0.46160588283E+02 -0.16443014820E+02 -0.35037978525E+03  0.35382093855E+03  0.47000000000E+01 0.  1.
        -11    1    1    2    0    0  0.30986532072E+02  0.33761649794E+02  0.69745341225E+01  0.46353622220E+02  0.00000000000E+00 0. -1.
         11    1    1    2    0    0 -0.11576648534E+02 -0.11521704898E+02  0.82656450225E+02  0.84254716419E+02  0.00000000000E+00 0.  1.
<mgrwt>
<rscale>  0 0.11027127E+03</rscale>
<asrwt>0</asrwt>
<pdfrwt beam="2">  1        1 0.11573418E+00 0.11588930E+03</pdfrwt>
<pdfrwt beam="1">  1       -1 0.17647366E-01 0.11588930E+03</pdfrwt>
<totfact> 0.63433772E+02</totfact>
</mgrwt>
</event>
<event>
 6    1  0.9263730E-006  0.2080950E+03  0.7546771E-02  0.1147146E+00
         -2   -1    0    0    0  501 -0.00000000000E+00  0.00000000000E+00  0.43551240542E+02  0.43551240542E+02  0.00000000000E+00 0.  1.
          2   -1    0    0  501    0  0.00000000000E+00 -0.00000000000E+00 -0.12537455447E+04  0.12537455447E+04  0.00000000000E+00 0. -1.
          5    1    1    2  502    0  0.24836325385E+01  0.13734119228E+03 -0.43339786411E+03  0.45466973744E+03  0.47000000000E+01 0. -1.
         -5    1    1    2    0  502  0.66087944317E+01  0.28780741940E+02 -0.53496104048E+03  0.53579605458E+03  0.47000000000E+01 0. -1.
        -11    1    1    2    0    0  0.68365526952E+01 -0.12521846784E+03 -0.22901406371E+03  0.26110121508E+03  0.00000000000E+00 0.  1.
         11    1    1    2    0    0 -0.15928979665E+02 -0.40903466376E+02 -0.12821335841E+02  0.45729778127E+02  0.00000000000E+00 0. -1.
<mgrwt>
<rscale>  0 0.20310482E+03</rscale>
<asrwt>0</asrwt>
<pdfrwt beam="2">  1        2 0.19288389E+00 0.20809497E+03</pdfrwt>
<pdfrwt beam="1">  1       -2 0.67001921E-02 0.20809497E+03</pdfrwt>
<totfact> 0.23203128E+03</totfact>
</mgrwt>
</event>
<event>
 6    1  0.9263730E-006  0.2322575E+03  0.7546771E-02  0.1128094E+00
          2   -1    0    0  501    0  0.00000000000E+00  0.00000000000E+00  0.70135324141E+03  0.70135324141E+03  0.00000000000E+00 0. -1.
         -2   -1    0    0    0  501 -0.00000000000E+00 -0.00000000000E+00 -0.80072327156E+02  0.80072327156E+02  0.00000000000E+00 0.  1.
          5    1    1    2  502    0 -0.36489747591E+02 -0.11684809131E+03  0.35097295962E+03  0.37173792718E+03  0.47000000000E+01 0.  1.
         -5    1    1    2    0  502  0.45566205688E+02 -0.78690464829E+02  0.98117919484E+02  0.13385695529E+03  0.47000000000E+01 0.  1.
        -11    1    1    2    0    0 -0.17380991366E+02  0.15639783291E+03  0.82623183303E+02  0.17773286534E+03  0.00000000000E+00 0.  1.
         11    1    1    2    0    0  0.83045332692E+01  0.39140723223E+02  0.89566851843E+02  0.98097820752E+02  0.00000000000E+00 0. -1.
<mgrwt>
<rscale>  0 0.22794544E+03</rscale>
<asrwt>0</asrwt>
<pdfrwt beam="1">  1        2 0.10790049E+00 0.23225755E+03</pdfrwt>
<pdfrwt beam="2">  1       -2 0.12318820E-01 0.23225755E+03</pdfrwt>
<totfact> 0.19755640E+03</totfact>
</mgrwt>
</event>
<event>
 6    1  0.9263730E-006  0.1366436E+03  0.7546771E-02  0.1229696E+00
         -1   -1    0    0    0  501 -0.00000000000E+00  0.00000000000E+00  0.20898507726E+03  0.20898507726E+03  0.00000000000E+00 0.  1.
          1   -1    0    0  501    0  0.00000000000E+00 -0.00000000000E+00 -0.80205342644E+02  0.80205342644E+02  0.00000000000E+00 0. -1.
          5    1    1    2  502    0  0.63863002526E+02 -0.64536896345E+02  0.21650854778E+02  0.93457710191E+02  0.47000000000E+01 0.  1.
         -5    1    1    2    0  502 -0.42665470433E+02  0.13584692173E+02  0.87684086028E+00  0.45030490543E+02  0.47000000000E+01 0.  1.
        -11    1    1    2    0    0  0.11461567052E+02  0.66960843870E+02  0.84119478158E+02  0.10812589300E+03  0.00000000000E+00 0. -1.
         11    1    1    2    0    0 -0.32659099146E+02 -0.16008639698E+02  0.22132560825E+02  0.42576326176E+02  0.00000000000E+00 0.  1.
<mgrwt>
<rscale>  0 0.12850151E+03</rscale>
<asrwt>0</asrwt>
<pdfrwt beam="2">  1        1 0.12339284E-01 0.13664364E+03</pdfrwt>
<pdfrwt beam="1">  1       -1 0.32151550E-01 0.13664364E+03</pdfrwt>
<totfact> 0.41988933E+03</totfact>
</mgrwt>
</event>
<event>
 6    1  0.9263730E-006  0.1327579E+03  0.7546771E-02  0.1236507E+00
         -2   -1    0    0    0  501 -0.00000000000E+00  0.00000000000E+00  0.42957740204E+02  0.42957740204E+02  0.00000000000E+00 0.  1.
          2   -1    0    0  501    0  0.00000000000E+00 -0.00000000000E+00 -0.31937059032E+03  0.31937059032E+03  0.00000000000E+00 0. -1.
          5    1    1    2  502    0  0.11787803215E+02  0.70920003168E+02 -0.93107798038E+02  0.11772744459E+03  0.47000000000E+01 0.  1.
         -5    1    1    2    0  502  0.29151415691E+02 -0.52929930683E+02 -0.70754520512E+02  0.93164772161E+02  0.47000000000E+01 0.  1.
        -11    1    1    2    0    0  0.13081640415E+02  0.10024040042E+02  0.65147637310E+01  0.17721536084E+02  0.00000000000E+00 0.  1.
         11    1    1    2    0    0 -0.54020859321E+02 -0.28014112528E+02 -0.11906529529E+03  0.13371457769E+03  0.00000000000E+00 0. -1.
<mgrwt>
<rscale>  0 0.12408425E+03</rscale>
<asrwt>0</asrwt>
<pdfrwt beam="2">  1        2 0.49133938E-01 0.13275793E+03</pdfrwt>
<pdfrwt beam="1">  1       -2 0.66088830E-02 0.13275793E+03</pdfrwt>
<totfact> 0.12256373E+04</totfact>
</mgrwt>
</event>
<event>
 6    1  0.9263730E-006  0.1278323E+03  0.7546771E-02  0.1245915E+00
         -2   -1    0    0    0  501 -0.00000000000E+00  0.00000000000E+00  0.12411554496E+02  0.12411554496E+02  0.00000000000E+00 0.  1.
          2   -1    0    0  501    0  0.00000000000E+00 -0.00000000000E+00 -0.10894417025E+04  0.10894417025E+04  0.00000000000E+00 0. -1.
          5    1    1    2  502    0 -0.59852471348E+02 -0.19996122045E+02 -0.30130605738E+03  0.30787918643E+03  0.47000000000E+01 0. -1.
         -5    1    1    2    0  502  0.60143517036E+02 -0.70812450625E+01 -0.47758413558E+03  0.48143128609E+03  0.47000000000E+01 0. -1.
        -11    1    1    2    0    0 -0.29528052857E+02 -0.19470079067E+02 -0.78009666298E+02  0.85653359072E+02  0.00000000000E+00 0.  1.
         11    1    1    2    0    0  0.29237007169E+02  0.46547446174E+02 -0.22013028871E+03  0.22688942536E+03  0.00000000000E+00 0. -1.
<mgrwt>
<rscale>  0 0.11830778E+03</rscale>
<asrwt>0</asrwt>
<pdfrwt beam="2">  1        2 0.16760639E+00 0.12783227E+03</pdfrwt>
<pdfrwt beam="1">  1       -2 0.19094702E-02 0.12783227E+03</pdfrwt>
<totfact> 0.18284048E+04</totfact>
</mgrwt>
</event>
<event>
 6    1  0.9263730E-006  0.2376694E+03  0.7546771E-02  0.1124124E+00
          2   -1    0    0  501    0  0.00000000000E+00  0.00000000000E+00  0.70221609181E+03  0.70221609181E+03  0.00000000000E+00 0. -1.
         -2   -1    0    0    0  501 -0.00000000000E+00 -0.00000000000E+00 -0.99660585107E+02  0.99660585107E+02  0.00000000000E+00 0.  1.
          5    1    1    2  502    0 -0.58976058003E+02  0.13130866202E+02  0.10251764798E+03  0.11909052528E+03  0.47000000000E+01 0.  1.
         -5    1    1    2    0  502 -0.16285088536E+02  0.17449719301E+03  0.40523834820E+03  0.44153672930E+03  0.47000000000E+01 0.  1.
        -11    1    1    2    0    0  0.84370507148E+02 -0.11267918840E+03  0.35306543422E+02  0.14512592458E+03  0.00000000000E+00 0.  1.
         11    1    1    2    0    0 -0.91093606090E+01 -0.74948870805E+02  0.59492967108E+02  0.96123497757E+02  0.00000000000E+00 0. -1.
<mgrwt>
<rscale>  0 0.23361002E+03</rscale>
<asrwt>0</asrwt>
<pdfrwt beam="1">  1        2 0.10803324E+00 0.23766945E+03</pdfrwt>
<pdfrwt beam="2">  1       -2 0.15332398E-01 0.23766945E+03</pdfrwt>
<totfact> 0.13783411E+03</totfact>
</mgrwt>
</event>
<event>
 6    1  0.1028815E-005  0.1715297E+03  0.7546771E-02  0.1182696E+00
          1   -1    0    0  501    0  0.00000000000E+00  0.00000000000E+00  0.69454354790E+03  0.69454354790E+03  0.00000000000E+00 0. -1.
         -1   -1    0    0    0  501 -0.00000000000E+00 -0.00000000000E+00 -0.37828283786E+02  0.37828283786E+02  0.00000000000E+00 0.  1.
          5    1    1    2  502    0 -0.24057868478E+02  0.94889833431E+02  0.15297347999E+03  0.18167508664E+03  0.47000000000E+01 0.  1.
         -5    1    1    2    0  502  0.50662548564E+02  0.19518611242E+02  0.25738021114E+03  0.26308617048E+03  0.47000000000E+01 0.  1.
        -11    1    1    2    0    0 -0.33455345462E+02 -0.49291231675E+02  0.19643839258E+03  0.20527281296E+03  0.00000000000E+00 0. -1.
         11    1    1    2    0    0  0.68506653767E+01 -0.65117212999E+02  0.49923180397E+02  0.82337761603E+02  0.00000000000E+00 0.  1.
<mgrwt>
<rscale>  0 0.16543253E+03</rscale>
<asrwt>0</asrwt>
<pdfrwt beam="1">  1        1 0.10685284E+00 0.17152966E+03</pdfrwt>
<pdfrwt beam="2">  1       -1 0.58197365E-02 0.17152966E+03</pdfrwt>
<totfact> 0.39203950E+03</totfact>
</mgrwt>
</event>
<event>
 6    1  0.9263730E-006  0.1262872E+03  0.7546771E-02  0.1248142E+00
          2   -1    0    0  501    0  0.00000000000E+00  0.00000000000E+00  0.42524342558E+02  0.42524342558E+02  0.00000000000E+00 0. -1.
         -2   -1    0    0    0  501 -0.00000000000E+00 -0.00000000000E+00 -0.28541890968E+03  0.28541890968E+03  0.00000000000E+00 0.  1.
          5    1    1    2  502    0 -0.54308404365E+02 -0.11504005880E+02 -0.27486201441E+02  0.62123475479E+02  0.47000000000E+01 0.  1.
         -5    1    1    2    0  502  0.54650847184E+02  0.29488409832E+02 -0.96525727744E+02  0.11487204851E+03  0.47000000000E+01 0.  1.
        -11    1    1    2    0    0 -0.38952291758E+02 -0.32223657041E+02 -0.77929567880E+02  0.92890595090E+02  0.00000000000E+00 0.  1.
         11    1    1    2    0    0  0.38609848938E+02  0.14239253089E+02 -0.40953070056E+02  0.58057133158E+02  0.00000000000E+00 0. -1.
<mgrwt>
<rscale>  0 0.11699301E+03</rscale>
<asrwt>0</asrwt>
<pdfrwt beam="1">  1        2 0.65422066E-02 0.12628720E+03</pdfrwt>
<pdfrwt beam="2">  1       -2 0.43910601E-01 0.12628720E+03</pdfrwt>
<totfact> 0.51723697E+03</totfact>
</mgrwt>
</event>
<event>
 6    1  0.9263730E-006  0.1305515E+03  0.7546771E-02  0.1239135E+00
         -1   -1    0    0    0  501 -0.00000000000E+00  0.00000000000E+00  0.20512278428E+02  0.20512278428E+02  0.00000000000E+00 0.  1.
          1   -1    0    0  501    0  0.00000000000E+00 -0.00000000000E+00 -0.65651005696E+03  0.65651005696E+03  0.00000000000E+00 0. -1.
          5    1    1    2  502    0  0.24407072207E+02  0.48770708365E+02 -0.18288261254E+03  0.19089899721E+03  0.47000000000E+01 0. -1.
         -5    1    1    2    0  502 -0.60858225080E+02 -0.39703733881E+02 -0.15234268482E+03  0.16885050685E+03  0.47000000000E+01 0. -1.
        -11    1    1    2    0    0  0.24004972283E+01  0.40224232181E+02 -0.10209630263E+03  0.10976067717E+03  0.00000000000E+00 0.  1.
         11    1    1    2    0    0  0.34050655644E+02 -0.49291206665E+02 -0.19867617854E+03  0.20751215416E+03  0.00000000000E+00 0. -1.
<mgrwt>
<rscale>  0 0.12243362E+03</rscale>
<asrwt>0</asrwt>
<pdfrwt beam="2">  1        1 0.10100153E+00 0.13055154E+03</pdfrwt>
<pdfrwt beam="1">  1       -1 0.31557355E-02 0.13055154E+03</pdfrwt>
<totfact> 0.10330199E+04</totfact>
</mgrwt>
</event>
<event>
 6    1  0.9263730E-006  0.1339284E+03  0.7546771E-02  0.1235154E+00
         -1   -1    0    0    0  501 -0.00000000000E+00  0.00000000000E+00  0.56612224621E+02  0.56612224621E+02  0.00000000000E+00 0.  1.
          1   -1    0    0  501    0  0.00000000000E+00 -0.00000000000E+00 -0.24743506305E+03  0.24743506305E+03  0.00000000000E+00 0. -1.
          5    1    1    2  502    0 -0.71827588845E+01  0.41843525680E+02 -0.73382500773E+02  0.84909093072E+02  0.47000000000E+01 0. -1.
         -5    1    1    2    0  502 -0.21184047414E+02 -0.80656721592E+02 -0.50968790897E+02  0.97847729909E+02  0.47000000000E+01 0. -1.
        -11    1    1    2    0    0  0.50198239388E+02  0.53432784129E+02 -0.58619600350E+02  0.93867902942E+02  0.00000000000E+00 0. -1.
         11    1    1    2    0    0 -0.21831433090E+02 -0.14619588217E+02 -0.78519464072E+01  0.27422561747E+02  0.00000000000E+00 0.  1.
<mgrwt>
<rscale>  0 0.12494583E+03</rscale>
<asrwt>0</asrwt>
<pdfrwt beam="2">  1        1 0.38066933E-01 0.13392839E+03</pdfrwt>
<pdfrwt beam="1">  1       -1 0.87095730E-02 0.13392839E+03</pdfrwt>
<totfact> 0.80061906E+03</totfact>
</mgrwt>
</event>
<event>
 6    1  0.9263730E-006  0.1652955E+03  0.7546771E-02  0.1190009E+00
         -1   -1    0    0    0  501 -0.00000000000E+00  0.00000000000E+00  0.30752213252E+02  0.30752213252E+02  0.00000000000E+00 0.  1.
          1   -1    0    0  501    0  0.00000000000E+00 -0.00000000000E+00 -0.89615831303E+03  0.89615831303E+03  0.00000000000E+00 0. -1.
          5    1    1    2  502    0  0.41928534363E+02 -0.11674963323E+03 -0.39023970698E+03  0.40950897152E+03  0.47000000000E+01 0.  1.
         -5    1    1    2    0  502  0.15005855795E+02  0.24797660041E+02 -0.25023524360E+03  0.25195211210E+03  0.47000000000E+01 0.  1.
        -11    1    1    2    0    0 -0.74891736777E+02  0.78888456162E+02 -0.21535287387E+03  0.24126545761E+03  0.00000000000E+00 0. -1.
         11    1    1    2    0    0  0.17957346619E+02  0.13063517025E+02 -0.95782753327E+01  0.24183985052E+02  0.00000000000E+00 0.  1.
<mgrwt>
<rscale>  0 0.15884327E+03</rscale>
<asrwt>0</asrwt>
<pdfrwt beam="2">  1        1 0.13787052E+00 0.16529550E+03</pdfrwt>
<pdfrwt beam="1">  1       -1 0.47311095E-02 0.16529550E+03</pdfrwt>
<totfact> 0.36253894E+03</totfact>
</mgrwt>
</event>
<event>
 6    1  0.9263730E-006  0.1260168E+03  0.7546771E-02  0.1248350E+00
         -2   -1    0    0    0  501 -0.00000000000E+00  0.00000000000E+00  0.33005249549E+02  0.33005249549E+02  0.00000000000E+00 0.  1.
          2   -1    0    0  501    0  0.00000000000E+00 -0.00000000000E+00 -0.36901905235E+03  0.36901905235E+03  0.00000000000E+00 0. -1.
          5    1    1    2  502    0  0.39790312223E+02 -0.86105378812E+01 -0.17242214980E+02  0.44461154808E+02  0.47000000000E+01 0.  1.
         -5    1    1    2    0  502 -0.47315522209E+02  0.22811298167E+02 -0.19852483814E+03  0.20541011496E+03  0.47000000000E+01 0.  1.
        -11    1    1    2    0    0  0.30712457051E+02  0.18922952913E+02 -0.14391781549E+02  0.38838853500E+02  0.00000000000E+00 0.  1.
         11    1    1    2    0    0 -0.23187247066E+02 -0.33123713199E+02 -0.10585496813E+03  0.11331417864E+03  0.00000000000E+00 0. -1.
<mgrwt>
<rscale>  0 0.11687098E+03</rscale>
<asrwt>0</asrwt>
<pdfrwt beam="2">  1        2 0.56772161E-01 0.12601679E+03</pdfrwt>
<pdfrwt beam="1">  1       -2 0.50777307E-02 0.12601679E+03</pdfrwt>
<totfact> 0.15593250E+04</totfact>
</mgrwt>
</event>
<event>
 6    1  0.9263730E-006  0.1264755E+03  0.7546771E-02  0.1247353E+00
         -2   -1    0    0    0  501 -0.00000000000E+00  0.00000000000E+00  0.10770471113E+02  0.10770471113E+02  0.00000000000E+00 0.  1.
          2   -1    0    0  501    0  0.00000000000E+00 -0.00000000000E+00 -0.12723972230E+04  0.12723972230E+04  0.00000000000E+00 0. -1.
          5    1    1    2  502    0  0.47958715555E+02 -0.16453421036E+02 -0.20970142325E+03  0.21579511203E+03  0.47000000000E+01 0. -1.
         -5    1    1    2    0  502 -0.48107957709E+02  0.35415141159E+02 -0.71656477047E+03  0.71906589969E+03  0.47000000000E+01 0.  1.
        -11    1    1    2    0    0  0.10388601918E+02  0.30356721627E+02 -0.56861518799E+02  0.65289248103E+02  0.00000000000E+00 0.  1.
         11    1    1    2    0    0 -0.10239359764E+02 -0.49318441750E+02 -0.27849903939E+03  0.28301743431E+03  0.00000000000E+00 0. -1.
<mgrwt>
<rscale>  0 0.11745671E+03</rscale>
<asrwt>0</asrwt>
<pdfrwt beam="2">  1        2 0.19575350E+00 0.12647549E+03</pdfrwt>
<pdfrwt beam="1">  1       -2 0.16569949E-02 0.12647549E+03</pdfrwt>
<totfact> 0.17746237E+04</totfact>
</mgrwt>
</event>
<event>
 6    1  0.9263730E-006  0.1476721E+03  0.7546771E-02  0.1212759E+00
         -1   -1    0    0    0  501 -0.00000000000E+00  0.00000000000E+00  0.58140424266E+03  0.58140424266E+03  0.00000000000E+00 0.  1.
          1   -1    0    0  501    0  0.00000000000E+00 -0.00000000000E+00 -0.31201008237E+02  0.31201008237E+02  0.00000000000E+00 0. -1.
          5    1    1    2  502    0 -0.27551241893E+02  0.29176961976E+01  0.13055347721E+02  0.30985738414E+02  0.47000000000E+01 0.  1.
         -5    1    1    2    0  502  0.83601201142E+02 -0.58038272327E+02  0.26382467606E+03  0.28281292684E+03  0.47000000000E+01 0.  1.
        -11    1    1    2    0    0 -0.43297503411E+02  0.73265379473E+02  0.14141944760E+03  0.16505135501E+03  0.00000000000E+00 0. -1.
         11    1    1    2    0    0 -0.12752455838E+02 -0.18144803344E+02  0.13190376304E+03  0.13375523064E+03  0.00000000000E+00 0.  1.
<mgrwt>
<rscale>  0 0.14042448E+03</rscale>
<asrwt>0</asrwt>
<pdfrwt beam="2">  1        1 0.48001556E-02 0.14767212E+03</pdfrwt>
<pdfrwt beam="1">  1       -1 0.89446798E-01 0.14767212E+03</pdfrwt>
<totfact> 0.22080564E+03</totfact>
</mgrwt>
</event>
<event>
 6    1  0.9263730E-006  0.1459856E+03  0.7546771E-02  0.1215602E+00
          1   -1    0    0  501    0  0.00000000000E+00  0.00000000000E+00  0.13686135422E+03  0.13686135422E+03  0.00000000000E+00 0. -1.
         -1   -1    0    0    0  501 -0.00000000000E+00 -0.00000000000E+00 -0.14259996172E+03  0.14259996172E+03  0.00000000000E+00 0.  1.
          5    1    1    2  502    0 -0.49360473482E+02 -0.19993301860E+01 -0.35672287459E+01  0.49752073167E+02  0.47000000000E+01 0. -1.
         -5    1    1    2    0  502  0.54241640225E+02 -0.73245069524E+02  0.46432411987E+02  0.10239655574E+03  0.47000000000E+01 0. -1.
        -11    1    1    2    0    0 -0.36486255652E+02  0.27663392819E+02  0.84701466316E+01  0.46564509422E+02  0.00000000000E+00 0. -1.
         11    1    1    2    0    0  0.31605088908E+02  0.47581006892E+02 -0.57073937370E+02  0.80748177618E+02  0.00000000000E+00 0.  1.
<mgrwt>
<rscale>  0 0.13832437E+03</rscale>
<asrwt>0</asrwt>
<pdfrwt beam="1">  1        1 0.21055593E-01 0.14598555E+03</pdfrwt>
<pdfrwt beam="2">  1       -1 0.21938456E-01 0.14598555E+03</pdfrwt>
<totfact> 0.39853453E+03</totfact>
</mgrwt>
</event>
<event>
 6    1  0.9263730E-006  0.1402770E+03  0.7546771E-02  0.1221760E+00
         -1   -1    0    0    0  501 -0.00000000000E+00  0.00000000000E+00  0.95249083216E+02  0.95249083216E+02  0.00000000000E+00 0.  1.
          1   -1    0    0  501    0  0.00000000000E+00 -0.00000000000E+00 -0.22881455275E+03  0.22881455275E+03  0.00000000000E+00 0. -1.
          5    1    1    2  502    0 -0.22178506033E+02 -0.47283812326E+02 -0.16958825480E+03  0.17751031295E+03  0.47000000000E+01 0. -1.
         -5    1    1    2    0  502 -0.13554887849E+02 -0.16736147861E+02  0.18412606338E+02  0.28721902827E+02  0.47000000000E+01 0.  1.
        -11    1    1    2    0    0  0.51581804124E+02  0.73025501111E+02  0.31629146596E+02  0.94835696041E+02  0.00000000000E+00 0.  1.
         11    1    1    2    0    0 -0.15848410241E+02 -0.90055409239E+01 -0.14018967663E+02  0.22995724143E+02  0.00000000000E+00 0. -1.
<mgrwt>
<rscale>  0 0.13391491E+03</rscale>
<asrwt>0</asrwt>
<pdfrwt beam="2">  1        1 0.35202239E-01 0.14027705E+03</pdfrwt>
<pdfrwt beam="1">  1       -1 0.14653705E-01 0.14027705E+03</pdfrwt>
<totfact> 0.39730418E+03</totfact>
</mgrwt>
</event>
<event>
 6    1  0.9263730E-006  0.1264726E+03  0.7546771E-02  0.1247908E+00
          1   -1    0    0  501    0  0.00000000000E+00  0.00000000000E+00  0.66234514481E+02  0.66234514481E+02  0.00000000000E+00 0. -1.
         -1   -1    0    0    0  501 -0.00000000000E+00 -0.00000000000E+00 -0.18256212189E+03  0.18256212189E+03  0.00000000000E+00 0.  1.
          5    1    1    2  502    0  0.10881322172E+02 -0.66628370055E+02 -0.28805953326E+02  0.73550090519E+02  0.47000000000E+01 0.  1.
         -5    1    1    2    0  502 -0.24538996790E+02  0.53092457713E+02 -0.30664870862E+02  0.66207218145E+02  0.47000000000E+01 0.  1.
        -11    1    1    2    0    0  0.31485221382E+02  0.19249502953E+02 -0.74610987847E+02  0.83238585025E+02  0.00000000000E+00 0.  1.
         11    1    1    2    0    0 -0.17827546764E+02 -0.57135906116E+01  0.17754204623E+02  0.25800742685E+02  0.00000000000E+00 0. -1.
<mgrwt>
<rscale>  0 0.11712985E+03</rscale>
<asrwt>0</asrwt>
<pdfrwt beam="1">  1        1 0.10189926E-01 0.12647263E+03</pdfrwt>
<pdfrwt beam="2">  1       -1 0.28086480E-01 0.12647263E+03</pdfrwt>
<totfact> 0.67422361E+03</totfact>
</mgrwt>
</event>
<event>
 6    1  0.9263730E-006  0.1266989E+03  0.7546771E-02  0.1247374E+00
         -3   -1    0    0    0  501 -0.00000000000E+00  0.00000000000E+00  0.16245155763E+03  0.16245155763E+03  0.00000000000E+00 0.  1.
          3   -1    0    0  501    0  0.00000000000E+00 -0.00000000000E+00 -0.89196134768E+02  0.89196134768E+02  0.00000000000E+00 0. -1.
          5    1    1    2  502    0 -0.14711622382E+02 -0.50354353963E+02  0.41078789126E+02  0.66794832975E+02  0.47000000000E+01 0. -1.
         -5    1    1    2    0  502  0.38320934168E+01  0.32770402807E+02 -0.50169209632E+02  0.60229758718E+02  0.47000000000E+01 0. -1.
        -11    1    1    2    0    0 -0.86571547892E+01 -0.35712685108E+02  0.30815519588E+02  0.47957673569E+02  0.00000000000E+00 0.  1.
         11    1    1    2    0    0  0.19536683755E+02  0.53296636264E+02  0.51530323780E+02  0.76665427137E+02  0.00000000000E+00 0. -1.
<mgrwt>
<rscale>  0 0.11744408E+03</rscale>
<asrwt>0</asrwt>
<pdfrwt beam="2">  1        3 0.13722482E-01 0.12669890E+03</pdfrwt>
<pdfrwt beam="1">  1       -3 0.24992547E-01 0.12669890E+03</pdfrwt>
<totfact> 0.14767370E+03</totfact>
</mgrwt>
</event>
<event>
 6    1  0.9263730E-006  0.1676232E+03  0.7546771E-02  0.1186901E+00
          1   -1    0    0  501    0  0.00000000000E+00  0.00000000000E+00  0.82884565891E+02  0.82884565891E+02  0.00000000000E+00 0. -1.
         -1   -1    0    0    0  501 -0.00000000000E+00 -0.00000000000E+00 -0.32937897005E+03  0.32937897005E+03  0.00000000000E+00 0.  1.
          5    1    1    2  502    0 -0.53314236788E+02  0.98602955239E+02 -0.70272877444E+02  0.13238322375E+03  0.47000000000E+01 0. -1.
         -5    1    1    2    0  502  0.44746271564E+02  0.12755911254E+02  0.59811504876E+01  0.47146646243E+02  0.47000000000E+01 0. -1.
        -11    1    1    2    0    0  0.24450184309E+02 -0.27450082335E+00 -0.69573639448E+02  0.73745360325E+02  0.00000000000E+00 0.  1.
         11    1    1    2    0    0 -0.15882219086E+02 -0.11108436567E+03 -0.11262903776E+03  0.15898830562E+03  0.00000000000E+00 0. -1.
<mgrwt>
<rscale>  0 0.16160064E+03</rscale>
<asrwt>0</asrwt>
<pdfrwt beam="1">  1        1 0.12751472E-01 0.16762323E+03</pdfrwt>
<pdfrwt beam="2">  1       -1 0.50673688E-01 0.16762323E+03</pdfrwt>
<totfact> 0.18211732E+03</totfact>
</mgrwt>
</event>
<event>
 6    1  0.9263730E-006  0.1265440E+03  0.7546771E-02  0.1248779E+00
         -1   -1    0    0    0  501 -0.00000000000E+00  0.00000000000E+00  0.35074443513E+03  0.35074443513E+03  0.00000000000E+00 0.  1.
          1   -1    0    0  501    0  0.00000000000E+00 -0.00000000000E+00 -0.37204330593E+02  0.37204330593E+02  0.00000000000E+00 0. -1.
          5    1    1    2  502    0  0.58372076080E+02 -0.22397757688E+02  0.82768985136E+02  0.10383522387E+03  0.47000000000E+01 0. -1.
         -5    1    1    2    0  502 -0.46590001174E+02  0.38004360117E+02  0.39257784313E+02  0.71959872335E+02  0.47000000000E+01 0. -1.
        -11    1    1    2    0    0 -0.40007945611E+02  0.36521245228E+00  0.16638116842E+03  0.17112411372E+03  0.00000000000E+00 0.  1.
         11    1    1    2    0    0  0.28225870705E+02 -0.15971814881E+02  0.25132166669E+02  0.41029555800E+02  0.00000000000E+00 0. -1.
<mgrwt>
<rscale>  0 0.11662017E+03</rscale>
<asrwt>0</asrwt>
<pdfrwt beam="2">  1        1 0.57237434E-02 0.12654400E+03</pdfrwt>
<pdfrwt beam="1">  1       -1 0.53960680E-01 0.12654400E+03</pdfrwt>
<totfact> 0.46698863E+03</totfact>
</mgrwt>
</event>
<event>
 6    1  0.9263730E-006  0.1542438E+03  0.7546771E-02  0.1208590E+00
          1   -1    0    0  501    0  0.00000000000E+00  0.00000000000E+00  0.53923390886E+03  0.53923390886E+03  0.00000000000E+00 0. -1.
         -1   -1    0    0    0  501 -0.00000000000E+00 -0.00000000000E+00 -0.35477927499E+02  0.35477927499E+02  0.00000000000E+00 0.  1.
          5    1    1    2  502    0 -0.90151919362E+02 -0.51617255970E+02  0.24832293526E+03  0.26921753259E+03  0.47000000000E+01 0. -1.
         -5    1    1    2    0  502  0.48988775513E+02 -0.76489859837E+01  0.99362935726E+02  0.11114625549E+03  0.47000000000E+01 0.  1.
        -11    1    1    2    0    0 -0.13310999667E+02 -0.15965751209E+02  0.44929004294E+02  0.49504579087E+02  0.00000000000E+00 0.  1.
         11    1    1    2    0    0  0.54474143517E+02  0.75231993163E+02  0.11114110608E+03  0.14484346920E+03  0.00000000000E+00 0. -1.
<mgrwt>
<rscale>  0 0.14358123E+03</rscale>
<asrwt>0</asrwt>
<pdfrwt beam="1">  1        1 0.82959057E-01 0.15424379E+03</pdfrwt>
<pdfrwt beam="2">  1       -1 0.54581431E-02 0.15424379E+03</pdfrwt>
<totfact> 0.60894571E+03</totfact>
</mgrwt>
</event>
<event>
 6    1  0.9263730E-006  0.1321202E+03  0.7546771E-02  0.1237993E+00
         -1   -1    0    0    0  501 -0.00000000000E+00  0.00000000000E+00  0.30718809681E+03  0.30718809681E+03  0.00000000000E+00 0.  1.
          1   -1    0    0  501    0  0.00000000000E+00 -0.00000000000E+00 -0.43897510402E+02  0.43897510402E+02  0.00000000000E+00 0. -1.
          5    1    1    2  502    0  0.13283120720E+02  0.61411553281E+02  0.12091553056E+03  0.13634689473E+03  0.47000000000E+01 0.  1.
         -5    1    1    2    0  502 -0.47423646651E+02 -0.35655408129E+02  0.39319500037E+02  0.71333186342E+02  0.47000000000E+01 0.  1.
        -11    1    1    2    0    0  0.75434945437E+01 -0.56035864903E+02  0.42798197072E+02  0.70912679670E+02  0.00000000000E+00 0. -1.
         11    1    1    2    0    0  0.26597031388E+02  0.30279719751E+02  0.60257358747E+02  0.72492846475E+02  0.00000000000E+00 0.  1.
<mgrwt>
<rscale>  0 0.12314758E+03</rscale>
<asrwt>0</asrwt>
<pdfrwt beam="2">  1        1 0.67534633E-02 0.13212021E+03</pdfrwt>
<pdfrwt beam="1">  1       -1 0.47259706E-01 0.13212021E+03</pdfrwt>
<totfact> 0.47701453E+03</totfact>
</mgrwt>
</event>
<event>
 6    1  0.9263730E-006  0.3521540E+03  0.7546771E-02  0.1088950E+00
         -2   -1    0    0    0  501 -0.00000000000E+00  0.00000000000E+00  0.26299200371E+03  0.26299200371E+03  0.00000000000E+00 0.  1.
          2   -1    0    0  501    0  0.00000000000E+00 -0.00000000000E+00 -0.84607998982E+03  0.84607998982E+03  0.00000000000E+00 0. -1.
          5    1    1    2  502    0 -0.93248243137E+02 -0.45526914018E+02 -0.17798784783E+03  0.20608177679E+03  0.47000000000E+01 0. -1.
         -5    1    1    2    0  502  0.21714932192E+03  0.11233559301E+03 -0.59864518675E+03  0.64666162952E+03  0.47000000000E+01 0.  1.
        -11    1    1    2    0    0 -0.13313780354E+03 -0.40040413328E+02  0.16914130760E+03  0.21894677748E+03  0.00000000000E+00 0.  1.
         11    1    1    2    0    0  0.92367247612E+01 -0.26768265666E+02  0.24403740873E+02  0.37381809744E+02  0.00000000000E+00 0. -1.
<mgrwt>
<rscale>  0 0.29269582E+03</rscale>
<asrwt>0</asrwt>
<pdfrwt beam="2">  1        2 0.13016615E+00 0.35215401E+03</pdfrwt>
<pdfrwt beam="1">  1       -2 0.40460309E-01 0.35215401E+03</pdfrwt>
<totfact> 0.19227964E+02</totfact>
</mgrwt>
</event>
<event>
 6    1  0.9263730E-006  0.1299231E+03  0.7546771E-02  0.1241471E+00
          3   -1    0    0  501    0  0.00000000000E+00  0.00000000000E+00  0.50153981559E+02  0.50153981559E+02  0.00000000000E+00 0.  1.
         -3   -1    0    0    0  501 -0.00000000000E+00 -0.00000000000E+00 -0.27281206312E+03  0.27281206312E+03  0.00000000000E+00 0. -1.
          5    1    1    2  502    0 -0.64793867398E+01 -0.45812481766E+02  0.15237682659E+02  0.48939175626E+02  0.47000000000E+01 0.  1.
         -5    1    1    2    0  502 -0.19647659223E+02  0.21864500011E+02 -0.10458899031E+03  0.10874297111E+03  0.47000000000E+01 0.  1.
        -11    1    1    2    0    0  0.27957043240E+02  0.40152702990E+02 -0.13950653328E+03  0.14783743995E+03  0.00000000000E+00 0. -1.
         11    1    1    2    0    0 -0.18299972775E+01 -0.16204721235E+02  0.61997593595E+01  0.17446457992E+02  0.00000000000E+00 0.  1.
<mgrwt>
<rscale>  0 0.12099130E+03</rscale>
<asrwt>0</asrwt>
<pdfrwt beam="1">  1        3 0.77159971E-02 0.12992307E+03</pdfrwt>
<pdfrwt beam="2">  1       -3 0.41971087E-01 0.12992307E+03</pdfrwt>
<totfact> 0.14605225E+03</totfact>
</mgrwt>
</event>
<event>
 6    1  0.9263730E-006  0.2317460E+03  0.7546771E-02  0.1128350E+00
         -2   -1    0    0    0  501 -0.00000000000E+00  0.00000000000E+00  0.87404732486E+02  0.87404732486E+02  0.00000000000E+00 0.  1.
          2   -1    0    0  501    0  0.00000000000E+00 -0.00000000000E+00 -0.57769530086E+03  0.57769530086E+03  0.00000000000E+00 0. -1.
          5    1    1    2  502    0  0.13032703521E+02 -0.15267556618E+02 -0.31479402762E+02  0.37629675050E+02  0.47000000000E+01 0. -1.
         -5    1    1    2    0  502 -0.11891167671E+02  0.21040731895E+03 -0.25467302019E+03  0.33059503468E+03  0.47000000000E+01 0. -1.
        -11    1    1    2    0    0 -0.20920310947E-01 -0.17572756855E+03 -0.12568481832E+03  0.21604826392E+03  0.00000000000E+00 0.  1.
         11    1    1    2    0    0 -0.11206155390E+01 -0.19412193784E+02 -0.78453327100E+02  0.80827059700E+02  0.00000000000E+00 0. -1.
<mgrwt>
<rscale>  0 0.22758684E+03</rscale>
<asrwt>0</asrwt>
<pdfrwt beam="2">  1        2 0.88876200E-01 0.23174604E+03</pdfrwt>
<pdfrwt beam="1">  1       -2 0.13446882E-01 0.23174604E+03</pdfrwt>
<totfact> 0.21536178E+03</totfact>
</mgrwt>
</event>
<event>
 6    1  0.9263730E-006  0.1469659E+03  0.7546771E-02  0.1213165E+00
          1   -1    0    0  501    0  0.00000000000E+00  0.00000000000E+00  0.14018157153E+03  0.14018157153E+03  0.00000000000E+00 0. -1.
         -1   -1    0    0    0  501 -0.00000000000E+00 -0.00000000000E+00 -0.12998038336E+03  0.12998038336E+03  0.00000000000E+00 0.  1.
          5    1    1    2  502    0  0.18206888751E+02  0.72476790892E+02 -0.29737938467E+02  0.80565569570E+02  0.47000000000E+01 0.  1.
         -5    1    1    2    0  502 -0.45757248006E+02 -0.26316131686E+00  0.49750092672E+02  0.67756599086E+02  0.47000000000E+01 0.  1.
        -11    1    1    2    0    0 -0.95066766898E+01  0.12182803210E+02 -0.24035995491E+02  0.28574930883E+02  0.00000000000E+00 0.  1.
         11    1    1    2    0    0  0.37057035945E+02 -0.84396432784E+02  0.14225029460E+02  0.93264855347E+02  0.00000000000E+00 0. -1.
<mgrwt>
<rscale>  0 0.14012209E+03</rscale>
<asrwt>0</asrwt>
<pdfrwt beam="1">  1        1 0.21566396E-01 0.14696591E+03</pdfrwt>
<pdfrwt beam="2">  1       -1 0.19996982E-01 0.14696591E+03</pdfrwt>
<totfact> 0.44920414E+03</totfact>
</mgrwt>
</event>
<event>
 6    1  0.9263730E-006  0.1144770E+03  0.7546771E-02  0.1261722E+00
          1   -1    0    0  501    0  0.00000000000E+00  0.00000000000E+00  0.43180378742E+03  0.43180378742E+03  0.00000000000E+00 0. -1.
         -1   -1    0    0    0  501 -0.00000000000E+00 -0.00000000000E+00 -0.30023229671E+02  0.30023229671E+02  0.00000000000E+00 0.  1.
          5    1    1    2  502    0  0.30711779158E+02  0.13034435144E+02  0.21163547505E+03  0.21430066303E+03  0.47000000000E+01 0. -1.
         -5    1    1    2    0  502 -0.46289029212E+02 -0.39489866002E+02  0.94020872356E+02  0.11208986654E+03  0.47000000000E+01 0.  1.
        -11    1    1    2    0    0  0.26526830709E+02  0.40337943013E+02  0.10506281542E+03  0.11562446791E+03  0.00000000000E+00 0. -1.
         11    1    1    2    0    0 -0.10949580655E+02 -0.13882512155E+02 -0.89386050786E+01  0.19812019609E+02  0.00000000000E+00 0.  1.
<mgrwt>
<rscale>  0 0.10937995E+03</rscale>
<asrwt>0</asrwt>
<pdfrwt beam="1">  1        1 0.66431348E-01 0.11447696E+03</pdfrwt>
<pdfrwt beam="2">  1       -1 0.46189587E-02 0.11447696E+03</pdfrwt>
<totfact> 0.10195090E+04</totfact>
</mgrwt>
</event>
<event>
 6    1  0.9263730E-006  0.1295474E+03  0.7546771E-02  0.1241500E+00
         -1   -1    0    0    0  501 -0.00000000000E+00  0.00000000000E+00  0.40536283611E+03  0.40536283611E+03  0.00000000000E+00 0.  1.
          1   -1    0    0  501    0  0.00000000000E+00 -0.00000000000E+00 -0.39246776491E+02  0.39246776491E+02  0.00000000000E+00 0. -1.
          5    1    1    2  502    0  0.34113385888E+02 -0.34700521640E+02  0.55767674228E+02  0.74161801405E+02  0.47000000000E+01 0. -1.
         -5    1    1    2    0  502 -0.39098798950E+02  0.68332160212E+02  0.53351340677E+02  0.95217938177E+02  0.47000000000E+01 0. -1.
        -11    1    1    2    0    0  0.35444892873E+02 -0.51728534300E+02  0.17542486678E+03  0.18629564025E+03  0.00000000000E+00 0.  1.
         11    1    1    2    0    0 -0.30459479811E+02  0.18096895728E+02  0.81572177930E+02  0.88934232766E+02  0.00000000000E+00 0. -1.
<mgrwt>
<rscale>  0 0.12097356E+03</rscale>
<asrwt>0</asrwt>
<pdfrwt beam="2">  1        1 0.60379659E-02 0.12954743E+03</pdfrwt>
<pdfrwt beam="1">  1       -1 0.62363511E-01 0.12954743E+03</pdfrwt>
<totfact> 0.33127171E+03</totfact>
</mgrwt>
</event>
<event>
 6    1  0.9263730E-006  0.3030519E+03  0.7546771E-02  0.1094597E+00
         -1   -1    0    0    0  501 -0.00000000000E+00  0.00000000000E+00  0.50296484816E+03  0.50296484816E+03  0.00000000000E+00 0.  1.
          1   -1    0    0  501    0  0.00000000000E+00 -0.00000000000E+00 -0.15404875824E+03  0.15404875824E+03  0.00000000000E+00 0. -1.
          5    1    1    2  502    0 -0.18252816175E+03  0.80317212496E+02  0.72535583886E+01  0.19960483102E+03  0.47000000000E+01 0. -1.
         -5    1    1    2    0  502  0.36477724960E+02  0.67416085293E+02  0.90786377881E+02  0.11891093046E+03  0.47000000000E+01 0.  1.
        -11    1    1    2    0    0  0.52662830655E+02 -0.40907021131E+00  0.63542472940E+02  0.82529915415E+02  0.00000000000E+00 0. -1.
         11    1    1    2    0    0  0.93387606138E+02 -0.14732422758E+03  0.18733368071E+03  0.25596792951E+03  0.00000000000E+00 0.  1.
<mgrwt>
<rscale>  0 0.28200908E+03</rscale>
<asrwt>0</asrwt>
<pdfrwt beam="2">  1        1 0.23699809E-01 0.30305191E+03</pdfrwt>
<pdfrwt beam="1">  1       -1 0.77379207E-01 0.30305191E+03</pdfrwt>
<totfact> 0.35922353E+02</totfact>
</mgrwt>
</event>
<event>
 6    1  0.9263730E-006  0.1225407E+03  0.7546771E-02  0.1247725E+00
         -2   -1    0    0    0  501 -0.00000000000E+00  0.00000000000E+00  0.21550300062E+02  0.21550300062E+02  0.00000000000E+00 0.  1.
          2   -1    0    0  501    0  0.00000000000E+00 -0.00000000000E+00 -0.11890391943E+04  0.11890391943E+04  0.00000000000E+00 0. -1.
          5    1    1    2  502    0 -0.27001648915E+02  0.15614518551E+02 -0.99541213602E+03  0.99591179969E+03  0.47000000000E+01 0. -1.
         -5    1    1    2    0  502  0.36114124027E+01  0.24273023996E+02 -0.43208622032E+02  0.49912894239E+02  0.47000000000E+01 0.  1.
        -11    1    1    2    0    0 -0.16532526439E+02 -0.43273145806E+02 -0.11216892086E+03  0.12135796795E+03  0.00000000000E+00 0. -1.
         11    1    1    2    0    0  0.39922762952E+02  0.33856032589E+01 -0.16699215286E+02  0.43406832438E+02  0.00000000000E+00 0.  1.
<mgrwt>
<rscale>  0 0.11723776E+03</rscale>
<asrwt>0</asrwt>
<pdfrwt beam="2">  1        2 0.18292906E+00 0.12254065E+03</pdfrwt>
<pdfrwt beam="1">  1       -2 0.33154317E-02 0.12254065E+03</pdfrwt>
<totfact> 0.71692386E+03</totfact>
</mgrwt>
</event>
<event>
 6    1  0.9263730E-006  0.1283631E+03  0.7546771E-02  0.1246540E+00
         -2   -1    0    0    0  501 -0.00000000000E+00  0.00000000000E+00  0.17927640794E+02  0.17927640794E+02  0.00000000000E+00 0.  1.
          2   -1    0    0  501    0  0.00000000000E+00 -0.00000000000E+00 -0.79994717509E+03  0.79994717509E+03  0.00000000000E+00 0. -1.
          5    1    1    2  502    0 -0.21576480440E+02  0.46450195862E+02 -0.58960079069E+03  0.59183979892E+03  0.47000000000E+01 0. -1.
         -5    1    1    2    0  502  0.90058839205E+01 -0.20106989634E+02 -0.17075584184E+02  0.28267694504E+02  0.47000000000E+01 0. -1.
        -11    1    1    2    0    0 -0.13884475145E+02  0.67265941113E+01  0.18911944364E+01  0.15543562487E+02  0.00000000000E+00 0.  1.
         11    1    1    2    0    0  0.26455071665E+02 -0.33069800339E+02 -0.17723435387E+03  0.18222375998E+03  0.00000000000E+00 0. -1.
<mgrwt>
<rscale>  0 0.11793679E+03</rscale>
<asrwt>0</asrwt>
<pdfrwt beam="2">  1        2 0.12306880E+00 0.12836308E+03</pdfrwt>
<pdfrwt beam="1">  1       -2 0.27580985E-02 0.12836308E+03</pdfrwt>
<totfact> 0.16151876E+04</totfact>
</mgrwt>
</event>
<event>
 6    1  0.9263730E-006  0.1695036E+03  0.7546771E-02  0.1185056E+00
          2   -1    0    0  501    0  0.00000000000E+00  0.00000000000E+00  0.10758832428E+04  0.10758832428E+04  0.00000000000E+00 0. -1.
         -2   -1    0    0    0  501 -0.00000000000E+00 -0.00000000000E+00 -0.23463175878E+02  0.23463175878E+02  0.00000000000E+00 0.  1.
          5    1    1    2  502    0 -0.13299885109E+02 -0.57212034588E+02  0.59117798534E+02  0.83469203597E+02  0.47000000000E+01 0.  1.
         -5    1    1    2    0  502 -0.27393037023E+02 -0.49795074952E+02  0.43923251361E+03  0.44291897564E+03  0.47000000000E+01 0.  1.
        -11    1    1    2    0    0  0.51993526847E+02  0.16889295575E+02  0.18773224475E+03  0.19552997432E+03  0.00000000000E+00 0.  1.
         11    1    1    2    0    0 -0.11300604716E+02  0.90117813965E+02  0.36633751001E+03  0.37742826511E+03  0.00000000000E+00 0. -1.
<mgrwt>
<rscale>  0 0.16326787E+03</rscale>
<asrwt>0</asrwt>
<pdfrwt beam="1">  1        2 0.16552046E+00 0.16950363E+03</pdfrwt>
<pdfrwt beam="2">  1       -2 0.36097202E-02 0.16950363E+03</pdfrwt>
<totfact> 0.74302889E+03</totfact>
</mgrwt>
</event>
<event>
 6    1  0.9263730E-006  0.1676898E+03  0.7546771E-02  0.1186905E+00
          2   -1    0    0  501    0  0.00000000000E+00  0.00000000000E+00  0.35140886164E+03  0.35140886164E+03  0.00000000000E+00 0. -1.
         -2   -1    0    0    0  501 -0.00000000000E+00 -0.00000000000E+00 -0.17035211062E+03  0.17035211062E+03  0.00000000000E+00 0.  1.
          5    1    1    2  502    0 -0.63004343203E+01  0.11124319573E+03  0.12801714466E+03  0.16977992636E+03  0.47000000000E+01 0.  1.
         -5    1    1    2    0  502 -0.29278805594E+02 -0.53640067052E+01  0.16585180256E+03  0.16856729053E+03  0.47000000000E+01 0.  1.
        -11    1    1    2    0    0 -0.18184271895E+01  0.14845600845E+02 -0.15579338503E+01  0.15037476509E+02  0.00000000000E+00 0. -1.
         11    1    1    2    0    0  0.37397667104E+02 -0.12072478987E+03 -0.11125426235E+03  0.16837627886E+03  0.00000000000E+00 0.  1.
<mgrwt>
<rscale>  0 0.16159753E+03</rscale>
<asrwt>0</asrwt>
<pdfrwt beam="1">  1        2 0.54062902E-01 0.16768984E+03</pdfrwt>
<pdfrwt beam="2">  1       -2 0.26208017E-01 0.16768984E+03</pdfrwt>
<totfact> 0.11933931E+03</totfact>
</mgrwt>
</event>
<event>
 6    1  0.9263730E-006  0.2136769E+03  0.7546771E-02  0.1140406E+00
          1   -1    0    0  501    0  0.00000000000E+00  0.00000000000E+00  0.17885206333E+04  0.17885206333E+04  0.00000000000E+00 0. -1.
         -1   -1    0    0    0  501 -0.00000000000E+00 -0.00000000000E+00 -0.43019289590E+02  0.43019289590E+02  0.00000000000E+00 0.  1.
          5    1    1    2  502    0 -0.80079810904E+02 -0.94634076302E+02  0.99014827748E+03  0.99788981652E+03  0.47000000000E+01 0. -1.
         -5    1    1    2    0  502 -0.67606253087E+02  0.40558461124E+02  0.47305171812E+03  0.47959942894E+03  0.47000000000E+01 0.  1.
        -11    1    1    2    0    0  0.14383886249E+03  0.19419829606E+02  0.12082624878E+03  0.18885372789E+03  0.00000000000E+00 0.  1.
         11    1    1    2    0    0  0.38472014997E+01  0.34655785572E+02  0.16147509934E+03  0.16519694955E+03  0.00000000000E+00 0. -1.
<mgrwt>
<rscale>  0 0.21147087E+03</rscale>
<asrwt>0</asrwt>
<pdfrwt beam="1">  1        1 0.27515696E+00 0.21367693E+03</pdfrwt>
<pdfrwt beam="2">  1       -1 0.66183536E-02 0.21367693E+03</pdfrwt>
<totfact> 0.53764241E+02</totfact>
</mgrwt>
</event>
<event>
 6    1  0.9263730E-006  0.1283427E+03  0.7546771E-02  0.1245370E+00
          2   -1    0    0  501    0  0.00000000000E+00  0.00000000000E+00  0.12119496099E+04  0.12119496099E+04  0.00000000000E+00 0. -1.
         -2   -1    0    0    0  501 -0.00000000000E+00 -0.00000000000E+00 -0.10255490633E+02  0.10255490633E+02  0.00000000000E+00 0.  1.
          5    1    1    2  502    0 -0.27384804574E+02 -0.35038648154E+02  0.14632164659E+03  0.15300244654E+03  0.47000000000E+01 0.  1.
         -5    1    1    2    0  502  0.32533936089E+02  0.63575580859E+02  0.60277649944E+03  0.60701063397E+03  0.47000000000E+01 0.  1.
        -11    1    1    2    0    0  0.58792884940E+01  0.31716927087E+02  0.17003898240E+03  0.17307161822E+03  0.00000000000E+00 0.  1.
         11    1    1    2    0    0 -0.11028420009E+02 -0.60253859792E+02  0.28255699082E+03  0.28912040179E+03  0.00000000000E+00 0. -1.
<mgrwt>
<rscale>  0 0.11863286E+03</rscale>
<asrwt>0</asrwt>
<pdfrwt beam="1">  1        2 0.18645367E+00 0.12834271E+03</pdfrwt>
<pdfrwt beam="2">  1       -2 0.15777687E-02 0.12834271E+03</pdfrwt>
<totfact> 0.20567577E+04</totfact>
</mgrwt>
</event>
<event>
 6    1  0.9263730E-006  0.2502792E+03  0.7546771E-02  0.1113129E+00
          3   -1    0    0  501    0  0.00000000000E+00  0.00000000000E+00  0.15423854963E+03  0.15423854963E+03  0.00000000000E+00 0. -1.
         -3   -1    0    0    0  501 -0.00000000000E+00 -0.00000000000E+00 -0.10153051131E+03  0.10153051131E+03  0.00000000000E+00 0.  1.
          5    1    1    2  502    0 -0.33013348559E+02  0.82526096152E+01  0.65978649457E+02  0.74385878583E+02  0.47000000000E+01 0. -1.
         -5    1    1    2    0  502 -0.86571571328E+00  0.54316213337E+02 -0.30286354332E+02  0.62372700388E+02  0.47000000000E+01 0.  1.
        -11    1    1    2    0    0 -0.21890403673E+02 -0.56616615293E+02  0.16571430977E+02  0.62922517629E+02  0.00000000000E+00 0. -1.
         11    1    1    2    0    0  0.55769467945E+02 -0.59522076595E+01  0.44431221961E+00  0.56087964344E+02  0.00000000000E+00 0.  1.
<mgrwt>
<rscale>  0 0.25027919E+03</rscale>
<asrwt>0</asrwt>
<pdfrwt beam="1">  1        3 0.23729008E-01 0.25027919E+03</pdfrwt>
<pdfrwt beam="2">  1       -3 0.15620079E-01 0.25027919E+03</pdfrwt>
<totfact> 0.14391623E+03</totfact>
</mgrwt>
</event>
<event>
 6    1  0.9263730E-006  0.1289726E+03  0.7546771E-02  0.1238352E+00
         -1   -1    0    0    0  501 -0.00000000000E+00  0.00000000000E+00  0.15480592666E+02  0.15480592666E+02  0.00000000000E+00 0.  1.
          1   -1    0    0  501    0  0.00000000000E+00 -0.00000000000E+00 -0.97850181280E+03  0.97850181280E+03  0.00000000000E+00 0. -1.
          5    1    1    2  502    0 -0.43457308839E+02 -0.72265436432E+02 -0.40828642233E+03  0.41693011843E+03  0.47000000000E+01 0. -1.
         -5    1    1    2    0  502  0.38399840294E+02  0.20840891096E+02 -0.26011249415E+03  0.26379819956E+03  0.47000000000E+01 0.  1.
        -11    1    1    2    0    0  0.47849105513E+02  0.34791894541E+02 -0.19010809400E+03  0.19910072885E+03  0.00000000000E+00 0. -1.
         11    1    1    2    0    0 -0.42791636968E+02  0.16632650795E+02 -0.10451420966E+03  0.11415335863E+03  0.00000000000E+00 0.  1.
<mgrwt>
<rscale>  0 0.12292262E+03</rscale>
<asrwt>0</asrwt>
<pdfrwt beam="2">  1        1 0.15053879E+00 0.12897260E+03</pdfrwt>
<pdfrwt beam="1">  1       -1 0.23816288E-02 0.12897260E+03</pdfrwt>
<totfact> 0.84898303E+03</totfact>
</mgrwt>
</event>
<event>
 6    1  0.9263730E-006  0.1489819E+03  0.7546771E-02  0.1216861E+00
          1   -1    0    0  501    0  0.00000000000E+00  0.00000000000E+00  0.33664952827E+03  0.33664952827E+03  0.00000000000E+00 0. -1.
         -1   -1    0    0    0  501 -0.00000000000E+00 -0.00000000000E+00 -0.76261891474E+02  0.76261891474E+02  0.00000000000E+00 0.  1.
          5    1    1    2  502    0 -0.23942047452E+02 -0.25016489497E+01  0.26567894961E+03  0.26680868455E+03  0.47000000000E+01 0. -1.
         -5    1    1    2    0  502 -0.30275224493E+02 -0.22722775582E+02  0.40784561602E+00  0.38146691683E+02  0.47000000000E+01 0.  1.
        -11    1    1    2    0    0 -0.20272231537E+02 -0.12998483772E+02 -0.12176477018E+01  0.24112374785E+02  0.00000000000E+00 0. -1.
         11    1    1    2    0    0  0.74489503483E+02  0.38222908304E+02 -0.44815107238E+01  0.83843668733E+02  0.00000000000E+00 0.  1.
<mgrwt>
<rscale>  0 0.13740746E+03</rscale>
<asrwt>0</asrwt>
<pdfrwt beam="1">  1        1 0.51792234E-01 0.14898187E+03</pdfrwt>
<pdfrwt beam="2">  1       -1 0.11732599E-01 0.14898187E+03</pdfrwt>
<totfact> 0.34875909E+03</totfact>
</mgrwt>
</event>
<event>
 6    1  0.9263730E-006  0.3264537E+03  0.7546771E-02  0.1072717E+00
         -2   -1    0    0    0  501 -0.00000000000E+00  0.00000000000E+00  0.14919180876E+03  0.14919180876E+03  0.00000000000E+00 0.  1.
          2   -1    0    0  501    0  0.00000000000E+00 -0.00000000000E+00 -0.17858224252E+03  0.17858224252E+03  0.00000000000E+00 0. -1.
          5    1    1    2  502    0 -0.26438648598E+02 -0.18916824025E+02 -0.52355037162E+02  0.61806053806E+02  0.47000000000E+01 0.  1.
         -5    1    1    2    0  502 -0.72008744483E+02  0.57095727399E+02  0.44085143398E+02  0.10203318694E+03  0.47000000000E+01 0.  1.
        -11    1    1    2    0    0  0.24323318946E+02  0.36951812750E+02 -0.36405306096E+02  0.57292291122E+02  0.00000000000E+00 0. -1.
         11    1    1    2    0    0  0.74124074135E+02 -0.75130716124E+02  0.15284766090E+02  0.10664251941E+03  0.00000000000E+00 0.  1.
<mgrwt>
<rscale>  0 0.32645372E+03</rscale>
<asrwt>0</asrwt>
<pdfrwt beam="2">  1        2 0.27474191E-01 0.32645372E+03</pdfrwt>
<pdfrwt beam="1">  1       -2 0.22952586E-01 0.32645372E+03</pdfrwt>
<totfact> 0.32040791E+03</totfact>
</mgrwt>
</event>
<event>
 6    1  0.9263730E-006  0.1376217E+03  0.7546771E-02  0.1227956E+00
          1   -1    0    0  501    0  0.00000000000E+00  0.00000000000E+00  0.93490363482E+02  0.93490363482E+02  0.00000000000E+00 0. -1.
         -1   -1    0    0    0  501 -0.00000000000E+00 -0.00000000000E+00 -0.16826290106E+03  0.16826290106E+03  0.00000000000E+00 0.  1.
          5    1    1    2  502    0 -0.40387537400E+02 -0.55635492461E+02  0.28260078441E+01  0.68967655600E+02  0.47000000000E+01 0. -1.
         -5    1    1    2    0  502  0.66610725337E+02  0.43964190189E+01 -0.19225038905E+02  0.69627647893E+02  0.47000000000E+01 0. -1.
        -11    1    1    2    0    0 -0.37998307824E+02  0.90239595911E+01  0.11468241758E+02  0.40704100693E+02  0.00000000000E+00 0. -1.
         11    1    1    2    0    0  0.11775119887E+02  0.42215113851E+02 -0.69841748275E+02  0.82453860357E+02  0.00000000000E+00 0.  1.
<mgrwt>
<rscale>  0 0.12966358E+03</rscale>
<asrwt>0</asrwt>
<pdfrwt beam="1">  1        1 0.14383133E-01 0.13762169E+03</pdfrwt>
<pdfrwt beam="2">  1       -1 0.25886600E-01 0.13762169E+03</pdfrwt>
<totfact> 0.49419725E+03</totfact>
</mgrwt>
</event>
<event>
 6    1  0.9263730E-006  0.1226776E+03  0.7546771E-02  0.1252024E+00
         -2   -1    0    0    0  501 -0.00000000000E+00  0.00000000000E+00  0.15178712682E+02  0.15178712682E+02  0.00000000000E+00 0.  1.
          2   -1    0    0  501    0  0.00000000000E+00 -0.00000000000E+00 -0.15140776940E+04  0.15140776940E+04  0.00000000000E+00 0. -1.
          5    1    1    2  502    0 -0.23656833701E+02 -0.40491040480E+02 -0.72966890106E+03  0.73118941821E+03  0.47000000000E+01 0. -1.
         -5    1    1    2    0  502  0.36390641391E+02  0.60274243880E+02 -0.60328168700E+03  0.60739455638E+03  0.47000000000E+01 0.  1.
        -11    1    1    2    0    0  0.30394589554E+02  0.84701694251E+01 -0.23978207834E+02  0.39629904052E+02  0.00000000000E+00 0.  1.
         11    1    1    2    0    0 -0.43128397243E+02 -0.28253372825E+02 -0.14197018548E+03  0.15104252808E+03  0.00000000000E+00 0. -1.
<mgrwt>
<rscale>  0 0.11474655E+03</rscale>
<asrwt>0</asrwt>
<pdfrwt beam="2">  1        2 0.23293513E+00 0.12267757E+03</pdfrwt>
<pdfrwt beam="1">  1       -2 0.23351856E-02 0.12267757E+03</pdfrwt>
<totfact> 0.80372708E+03</totfact>
</mgrwt>
</event>
<event>
 6    1  0.9263730E-006  0.1562318E+03  0.7546771E-02  0.1200891E+00
         -2   -1    0    0    0  501 -0.00000000000E+00  0.00000000000E+00  0.13896938056E+03  0.13896938056E+03  0.00000000000E+00 0.  1.
          2   -1    0    0  501    0  0.00000000000E+00 -0.00000000000E+00 -0.27843077886E+03  0.27843077886E+03  0.00000000000E+00 0. -1.
          5    1    1    2  502    0 -0.36319213254E+02 -0.31720603688E+00 -0.23064417799E+02  0.43280980112E+02  0.47000000000E+01 0.  1.
         -5    1    1    2    0  502  0.72028851560E+02 -0.86330309022E+02 -0.19188000670E+03  0.22244348649E+03  0.47000000000E+01 0.  1.
        -11    1    1    2    0    0  0.16772430963E+02 -0.84202044537E+00  0.40462329127E+02  0.43808943348E+02  0.00000000000E+00 0. -1.
         11    1    1    2    0    0 -0.52482069269E+02  0.87489535504E+02  0.35020697062E+02  0.10786674947E+03  0.00000000000E+00 0.  1.
<mgrwt>
<rscale>  0 0.14966060E+03</rscale>
<asrwt>0</asrwt>
<pdfrwt beam="2">  1        2 0.42835504E-01 0.15623184E+03</pdfrwt>
<pdfrwt beam="1">  1       -2 0.21379905E-01 0.15623184E+03</pdfrwt>
<totfact> 0.21753892E+03</totfact>
</mgrwt>
</event>
<event>
 6    1  0.9263730E-006  0.1547478E+03  0.7546771E-02  0.1203972E+00
         -1   -1    0    0    0  501 -0.00000000000E+00  0.00000000000E+00  0.34613278102E+03  0.34613278102E+03  0.00000000000E+00 0.  1.
          1   -1    0    0  501    0  0.00000000000E+00 -0.00000000000E+00 -0.57198277954E+02  0.57198277954E+02  0.00000000000E+00 0. -1.
          5    1    1    2  502    0 -0.22795681883E+02 -0.23077485534E+02  0.79958306993E+02  0.86415474935E+02  0.47000000000E+01 0.  1.
         -5    1    1    2    0  502  0.11016235993E+03 -0.31542138737E+01  0.80903455100E+02  0.13679602939E+03  0.47000000000E+01 0.  1.
        -11    1    1    2    0    0 -0.72597930369E+02  0.61888295694E+01  0.29762005675E+02  0.78705387916E+02  0.00000000000E+00 0. -1.
         11    1    1    2    0    0 -0.14768747674E+02  0.20042869838E+02  0.98310735301E+02  0.10141416674E+03  0.00000000000E+00 0.  1.
<mgrwt>
<rscale>  0 0.14718728E+03</rscale>
<asrwt>0</asrwt>
<pdfrwt beam="2">  1        1 0.87997352E-02 0.15474776E+03</pdfrwt>
<pdfrwt beam="1">  1       -1 0.53251196E-01 0.15474776E+03</pdfrwt>
<totfact> 0.27102833E+03</totfact>
</mgrwt>
</event>
<event>
 6    1  0.9263730E-006  0.1332119E+03  0.7546771E-02  0.1232470E+00
          1   -1    0    0  501    0  0.00000000000E+00  0.00000000000E+00  0.26757341684E+03  0.26757341684E+03  0.00000000000E+00 0. -1.
         -1   -1    0    0    0  501 -0.00000000000E+00 -0.00000000000E+00 -0.55037415148E+02  0.55037415148E+02  0.00000000000E+00 0.  1.
          5    1    1    2  502    0 -0.21878216276E+00 -0.51825993609E+02  0.50288379417E+02  0.72367068364E+02  0.47000000000E+01 0. -1.
         -5    1    1    2    0  502 -0.42928149273E+02  0.67899461990E+02  0.55717960961E+02  0.97876167232E+02  0.47000000000E+01 0. -1.
        -11    1    1    2    0    0  0.18565611840E+01 -0.48718670900E+02  0.79342262404E+02  0.93124380895E+02  0.00000000000E+00 0. -1.
         11    1    1    2    0    0  0.41290370252E+02  0.32645202519E+02  0.27187398912E+02  0.59243215499E+02  0.00000000000E+00 0.  1.
<mgrwt>
<rscale>  0 0.12667805E+03</rscale>
<asrwt>0</asrwt>
<pdfrwt beam="1">  1        1 0.41165140E-01 0.13321192E+03</pdfrwt>
<pdfrwt beam="2">  1       -1 0.84672948E-02 0.13321192E+03</pdfrwt>
<totfact> 0.75827557E+03</totfact>
</mgrwt>
</event>
<event>
 6    1  0.9263730E-006  0.1307979E+03  0.7546771E-02  0.1240813E+00
          3   -1    0    0  501    0  0.00000000000E+00  0.00000000000E+00  0.99296703225E+03  0.99296703225E+03  0.00000000000E+00 0. -1.
         -3   -1    0    0    0  501 -0.00000000000E+00 -0.00000000000E+00 -0.14104468113E+02  0.14104468113E+02  0.00000000000E+00 0.  1.
          5    1    1    2  502    0  0.57438935512E+02 -0.59225800315E+02  0.47068286806E+03  0.47788218111E+03  0.47000000000E+01 0.  1.
         -5    1    1    2    0  502 -0.40375456855E+02  0.24679573998E+02  0.22084362079E+03  0.22590540881E+03  0.47000000000E+01 0.  1.
        -11    1    1    2    0    0 -0.37114956817E+01 -0.14870339630E+02  0.46727549715E+01  0.16023009703E+02  0.00000000000E+00 0.  1.
         11    1    1    2    0    0 -0.13351982976E+02  0.49416565947E+02  0.28266332032E+03  0.28726090074E+03  0.00000000000E+00 0. -1.
<mgrwt>
<rscale>  0 0.12139527E+03</rscale>
<asrwt>0</asrwt>
<pdfrwt beam="1">  1        3 0.15276410E+00 0.13079789E+03</pdfrwt>
<pdfrwt beam="2">  1       -3 0.21699189E-02 0.13079789E+03</pdfrwt>
<totfact> 0.63802236E+02</totfact>
</mgrwt>
</event>
<event>
 6    1  0.1245172E-005  0.1537511E+03  0.7546771E-02  0.1203954E+00
         -1   -1    0    0    0  501 -0.00000000000E+00  0.00000000000E+00  0.16843311149E+04  0.16843311149E+04  0.00000000000E+00 0.  1.
          1   -1    0    0  501    0  0.00000000000E+00 -0.00000000000E+00 -0.11906702833E+02  0.11906702833E+02  0.00000000000E+00 0. -1.
          5    1    1    2  502    0  0.27140650361E+02 -0.64349119821E+02  0.84658526173E+03  0.84947402521E+03  0.47000000000E+01 0.  1.
         -5    1    1    2    0  502  0.43551302150E+02  0.94223092827E+01  0.10084648620E+03  0.11035216179E+03  0.47000000000E+01 0.  1.
        -11    1    1    2    0    0 -0.91891055586E+02  0.53560016883E+02  0.64157629180E+03  0.65033282226E+03  0.00000000000E+00 0.  1.
         11    1    1    2    0    0  0.21199103075E+02  0.13667936553E+01  0.83416372276E+02  0.86078808425E+02  0.00000000000E+00 0. -1.
<mgrwt>
<rscale>  0 0.14720185E+03</rscale>
<asrwt>0</asrwt>
<pdfrwt beam="2">  1        1 0.18318018E-02 0.15375107E+03</pdfrwt>
<pdfrwt beam="1">  1       -1 0.25912768E+00 0.15375107E+03</pdfrwt>
<totfact> 0.47425522E+02</totfact>
</mgrwt>
</event>
<event>
 6    1  0.9263730E-006  0.3879123E+03  0.7546771E-02  0.1048047E+00
          4   -1    0    0  501    0  0.00000000000E+00  0.00000000000E+00  0.28850246905E+03  0.28850246905E+03  0.00000000000E+00 0. -1.
         -4   -1    0    0    0  501 -0.00000000000E+00 -0.00000000000E+00 -0.13039397212E+03  0.13039397212E+03  0.00000000000E+00 0.  1.
          5    1    1    2  502    0  0.20357752867E+02 -0.10986551559E+03  0.35952833626E+02  0.11747155343E+03  0.47000000000E+01 0. -1.
         -5    1    1    2    0  502  0.48054860263E+02 -0.19046511022E+02  0.11743479277E+03  0.12839415769E+03  0.47000000000E+01 0. -1.
        -11    1    1    2    0    0 -0.44326716197E+02  0.57617276207E+02  0.47143390613E+02  0.86643566205E+02  0.00000000000E+00 0. -1.
         11    1    1    2    0    0 -0.24085896934E+02  0.71294750409E+02 -0.42422520082E+02  0.86387163844E+02  0.00000000000E+00 0.  1.
<mgrwt>
<rscale>  0 0.38791227E+03</rscale>
<asrwt>0</asrwt>
<pdfrwt beam="1">  1        4 0.44384995E-01 0.38791227E+03</pdfrwt>
<pdfrwt beam="2">  1       -4 0.20060611E-01 0.38791227E+03</pdfrwt>
<totfact> 0.21490616E+02</totfact>
</mgrwt>
</event>
<event>
 6    1  0.9263730E-006  0.1311085E+03  0.7546771E-02  0.1239193E+00
         -1   -1    0    0    0  501 -0.00000000000E+00  0.00000000000E+00  0.41978121156E+02  0.41978121156E+02  0.00000000000E+00 0. -1.
          1   -1    0    0  501    0  0.00000000000E+00 -0.00000000000E+00 -0.32170641151E+03  0.32170641151E+03  0.00000000000E+00 0.  1.
          5    1    1    2  502    0  0.72393067106E+02  0.21618662347E+02 -0.13880271021E+03  0.15810251449E+03  0.47000000000E+01 0. -1.
         -5    1    1    2    0  502 -0.35011211805E+02 -0.35199183436E+02 -0.41788845266E+02  0.65062777802E+02  0.47000000000E+01 0. -1.
        -11    1    1    2    0    0 -0.25045903666E+02 -0.12884585423E+02  0.81571803217E+01  0.29323189164E+02  0.00000000000E+00 0. -1.
         11    1    1    2    0    0 -0.12335951635E+02  0.26465106513E+02 -0.10729391520E+03  0.11119605121E+03  0.00000000000E+00 0.  1.
<mgrwt>
<rscale>  0 0.12239784E+03</rscale>
<asrwt>0</asrwt>
<pdfrwt beam="2">  1        1 0.49493295E-01 0.13110850E+03</pdfrwt>
<pdfrwt beam="1">  1       -1 0.64581724E-02 0.13110850E+03</pdfrwt>
<totfact> 0.90593425E+03</totfact>
</mgrwt>
</event>
<event>
 6    1  0.9263730E-006  0.1144060E+03  0.7546771E-02  0.1262881E+00
         -1   -1    0    0    0  501 -0.00000000000E+00  0.00000000000E+00  0.15446784299E+02  0.15446784299E+02  0.00000000000E+00 0.  1.
          1   -1    0    0  501    0  0.00000000000E+00 -0.00000000000E+00 -0.11294951631E+04  0.11294951631E+04  0.00000000000E+00 0. -1.
          5    1    1    2  502    0 -0.19262148580E+02  0.35019893934E+02 -0.49217138961E+03  0.49381392254E+03  0.47000000000E+01 0. -1.
         -5    1    1    2    0  502  0.19272295891E+02 -0.66271324584E+02 -0.45185856252E+03  0.45712313480E+03  0.47000000000E+01 0.  1.
        -11    1    1    2    0    0 -0.18472342392E+02 -0.20061178906E+02 -0.10814201608E+03  0.11152745839E+03  0.00000000000E+00 0.  1.
         11    1    1    2    0    0  0.18462195081E+02  0.51312609557E+02 -0.61876410577E+02  0.82477431657E+02  0.00000000000E+00 0. -1.
<mgrwt>
<rscale>  0 0.10876110E+03</rscale>
<asrwt>0</asrwt>
<pdfrwt beam="2">  1        1 0.17376849E+00 0.11440602E+03</pdfrwt>
<pdfrwt beam="1">  1       -1 0.23764283E-02 0.11440602E+03</pdfrwt>
<totfact> 0.66040401E+03</totfact>
</mgrwt>
</event>
<event>
 6    1  0.1106438E-005  0.1992538E+03  0.7546771E-02  0.1154612E+00
          1   -1    0    0  501    0  0.00000000000E+00  0.00000000000E+00  0.10755010412E+04  0.10755010412E+04  0.00000000000E+00 0. -1.
         -1   -1    0    0    0  501 -0.00000000000E+00 -0.00000000000E+00 -0.36425544290E+02  0.36425544290E+02  0.00000000000E+00 0.  1.
          5    1    1    2  502    0  0.97322355743E+02  0.61669122706E+02  0.59600207078E+03  0.60705459392E+03  0.47000000000E+01 0. -1.
         -5    1    1    2    0  502  0.54304239173E+02 -0.28705790575E+02  0.10522277055E+03  0.12192987430E+03  0.47000000000E+01 0. -1.
        -11    1    1    2    0    0 -0.12086332100E+03 -0.31845492305E+02  0.16301228692E+03  0.20541441875E+03  0.00000000000E+00 0.  1.
         11    1    1    2    0    0 -0.30763273921E+02 -0.11178398266E+01  0.17483836870E+03  0.17752769857E+03  0.00000000000E+00 0. -1.
<mgrwt>
<rscale>  0 0.19433143E+03</rscale>
<asrwt>0</asrwt>
<pdfrwt beam="1">  1        1 0.16546167E+00 0.19925380E+03</pdfrwt>
<pdfrwt beam="2">  1       -1 0.56039307E-02 0.19925380E+03</pdfrwt>
<totfact> 0.20772817E+03</totfact>
</mgrwt>
</event>
<event>
 6    1  0.9263730E-006  0.1998361E+03  0.7546771E-02  0.1171418E+00
         -2   -1    0    0    0  501 -0.00000000000E+00  0.00000000000E+00  0.16812921359E+03  0.16812921359E+03  0.00000000000E+00 0.  1.
          2   -1    0    0  501    0  0.00000000000E+00 -0.00000000000E+00 -0.26314516008E+03  0.26314516008E+03  0.00000000000E+00 0. -1.
          5    1    1    2  502    0  0.71340173899E+02  0.42967335608E+02 -0.21098615364E+03  0.22687630852E+03  0.47000000000E+01 0. -1.
         -5    1    1    2    0  502  0.80660668404E+01 -0.44671614313E+02  0.19744017801E+02  0.49724549254E+02  0.47000000000E+01 0.  1.
        -11    1    1    2    0    0 -0.13009085168E+02 -0.37177522194E+02  0.13357332735E+02  0.41591138373E+02  0.00000000000E+00 0.  1.
         11    1    1    2    0    0 -0.66397155571E+02  0.38881800899E+02  0.82868856614E+02  0.11308237752E+03  0.00000000000E+00 0. -1.
<mgrwt>
<rscale>  0 0.17631474E+03</rscale>
<asrwt>0</asrwt>
<pdfrwt beam="2">  1        2 0.40483870E-01 0.19983613E+03</pdfrwt>
<pdfrwt beam="1">  1       -2 0.25866033E-01 0.19983613E+03</pdfrwt>
<totfact> 0.16716054E+03</totfact>
</mgrwt>
</event>
<event>
 6    1  0.9263730E-006  0.1315786E+03  0.7546771E-02  0.1238307E+00
          1   -1    0    0  501    0  0.00000000000E+00  0.00000000000E+00  0.70888631099E+03  0.70888631099E+03  0.00000000000E+00 0. -1.
         -1   -1    0    0    0  501 -0.00000000000E+00 -0.00000000000E+00 -0.20616245572E+02  0.20616245572E+02  0.00000000000E+00 0.  1.
          5    1    1    2  502    0 -0.55679251904E+01  0.52737256305E+02  0.75745842481E+02  0.92583706162E+02  0.47000000000E+01 0. -1.
         -5    1    1    2    0  502  0.16190410732E+02 -0.13033303383E+02  0.41344026593E+03  0.41398905769E+03  0.47000000000E+01 0. -1.
        -11    1    1    2    0    0 -0.12505385162E+02  0.20860197751E+02  0.13743729137E+02  0.27936044796E+02  0.00000000000E+00 0.  1.
         11    1    1    2    0    0  0.18828996203E+01 -0.60564150674E+02  0.18534022787E+03  0.19499374792E+03  0.00000000000E+00 0. -1.
<mgrwt>
<rscale>  0 0.12295076E+03</rscale>
<asrwt>0</asrwt>
<pdfrwt beam="1">  1        1 0.10905941E+00 0.13157856E+03</pdfrwt>
<pdfrwt beam="2">  1       -1 0.31717306E-02 0.13157856E+03</pdfrwt>
<totfact> 0.92038040E+03</totfact>
</mgrwt>
</event>
<event>
 6    1  0.9263730E-006  0.1387638E+03  0.7546771E-02  0.1221926E+00
          3   -1    0    0  501    0  0.00000000000E+00  0.00000000000E+00  0.22689858790E+02  0.22689858790E+02  0.00000000000E+00 0. -1.
         -3   -1    0    0    0  501 -0.00000000000E+00 -0.00000000000E+00 -0.75754218862E+03  0.75754218862E+03  0.00000000000E+00 0.  1.
          5    1    1    2  502    0  0.20756310776E+02 -0.38160839467E+02 -0.44640721570E+02  0.62465655589E+02  0.47000000000E+01 0. -1.
         -5    1    1    2    0  502 -0.75553771709E+02  0.13104278944E+02 -0.28541140022E+03  0.29557038404E+03  0.47000000000E+01 0. -1.
        -11    1    1    2    0    0  0.67038524201E+02  0.55522974587E+02 -0.28771312112E+03  0.30059242256E+03  0.00000000000E+00 0. -1.
         11    1    1    2    0    0 -0.12241063268E+02 -0.30466414064E+02 -0.11708708691E+03  0.12160358521E+03  0.00000000000E+00 0.  1.
<mgrwt>
<rscale>  0 0.13379834E+03</rscale>
<asrwt>0</asrwt>
<pdfrwt beam="1">  1        3 0.34907477E-02 0.13876384E+03</pdfrwt>
<pdfrwt beam="2">  1       -3 0.11654495E+00 0.13876384E+03</pdfrwt>
<totfact> 0.59295117E+02</totfact>
</mgrwt>
</event>
<event>
 6    1  0.9263730E-006  0.3072271E+03  0.7546771E-02  0.1081683E+00
          2   -1    0    0  501    0  0.00000000000E+00  0.00000000000E+00  0.42845895486E+03  0.42845895486E+03  0.00000000000E+00 0. -1.
         -2   -1    0    0    0  501 -0.00000000000E+00 -0.00000000000E+00 -0.55074411171E+02  0.55074411171E+02  0.00000000000E+00 0.  1.
          5    1    1    2  502    0 -0.10835025575E+03  0.44030549213E+02  0.18778018699E+03  0.22127348646E+03  0.47000000000E+01 0. -1.
         -5    1    1    2    0  502  0.38128705724E+01 -0.38827950059E+02  0.24200542012E+02  0.46150882131E+02  0.47000000000E+01 0. -1.
        -11    1    1    2    0    0  0.66160038985E+02  0.18463169463E+01  0.19588510095E+02  0.69023687039E+02  0.00000000000E+00 0.  1.
         11    1    1    2    0    0  0.38377346189E+02 -0.70489161004E+01  0.14181530459E+03  0.14708531040E+03  0.00000000000E+00 0. -1.
<mgrwt>
<rscale>  0 0.30722711E+03</rscale>
<asrwt>0</asrwt>
<pdfrwt beam="1">  1        2 0.65916760E-01 0.30722711E+03</pdfrwt>
<pdfrwt beam="2">  1       -2 0.84729866E-02 0.30722711E+03</pdfrwt>
<totfact> 0.63847440E+03</totfact>
</mgrwt>
</event>
<event>
 6    1  0.9263730E-006  0.1413803E+03  0.7546771E-02  0.1222818E+00
          1   -1    0    0  501    0  0.00000000000E+00  0.00000000000E+00  0.49329804580E+03  0.49329804580E+03  0.00000000000E+00 0. -1.
         -1   -1    0    0    0  501 -0.00000000000E+00 -0.00000000000E+00 -0.40814469484E+02  0.40814469484E+02  0.00000000000E+00 0.  1.
          5    1    1    2  502    0  0.32662414349E+02  0.12645033846E+02  0.34801865793E+03  0.34980824241E+03  0.47000000000E+01 0.  1.
         -5    1    1    2    0  502  0.32665224524E+02 -0.22439866144E+02  0.20428085068E+02  0.44832590214E+02  0.47000000000E+01 0.  1.
        -11    1    1    2    0    0 -0.79431596339E+02 -0.14494937164E+02  0.48554899952E+02  0.94218151169E+02  0.00000000000E+00 0.  1.
         11    1    1    2    0    0  0.14103957466E+02  0.24289769462E+02  0.35481933362E+02  0.45253531484E+02  0.00000000000E+00 0. -1.
<mgrwt>
<rscale>  0 0.13317609E+03</rscale>
<asrwt>0</asrwt>
<pdfrwt beam="1">  1        1 0.75892003E-01 0.14138028E+03</pdfrwt>
<pdfrwt beam="2">  1       -1 0.62791495E-02 0.14138028E+03</pdfrwt>
<totfact> 0.55296049E+03</totfact>
</mgrwt>
</event>
<event>
 6    1  0.9263730E-006  0.2058446E+03  0.7546771E-02  0.1189432E+00
         -2   -1    0    0    0  501 -0.00000000000E+00  0.00000000000E+00  0.16466920848E+02  0.16466920848E+02  0.00000000000E+00 0.  1.
          2   -1    0    0  501    0  0.00000000000E+00 -0.00000000000E+00 -0.12142325719E+04  0.12142325719E+04  0.00000000000E+00 0. -1.
          5    1    1    2  502    0  0.52534347797E+02 -0.82873031318E+02 -0.75616950618E+03  0.76252357937E+03  0.47000000000E+01 0. -1.
         -5    1    1    2    0  502 -0.55831547183E+01  0.79869973489E+02 -0.19859260643E+03  0.21417632365E+03  0.47000000000E+01 0.  1.
        -11    1    1    2    0    0  0.39702353776E+01 -0.11774031177E+02 -0.13077642753E+02  0.18039271579E+02  0.00000000000E+00 0. -1.
         11    1    1    2    0    0 -0.50921428457E+02  0.14777089006E+02 -0.22992589573E+03  0.23596031820E+03  0.00000000000E+00 0.  1.
<mgrwt>
<rscale>  0 0.15935076E+03</rscale>
<asrwt>0</asrwt>
<pdfrwt beam="2">  1        2 0.18680505E+00 0.20584462E+03</pdfrwt>
<pdfrwt beam="1">  1       -2 0.25333719E-02 0.20584462E+03</pdfrwt>
<totfact> 0.10551461E+04</totfact>
</mgrwt>
</event>
<event>
 6    1  0.9263730E-006  0.3268689E+03  0.7546771E-02  0.1072531E+00
         -2   -1    0    0    0  501 -0.00000000000E+00  0.00000000000E+00  0.29059791991E+02  0.29059791991E+02  0.00000000000E+00 0.  1.
          2   -1    0    0  501    0  0.00000000000E+00 -0.00000000000E+00 -0.91916749318E+03  0.91916749318E+03  0.00000000000E+00 0. -1.
          5    1    1    2  502    0  0.10306873424E+02 -0.12402678073E+02 -0.39173590986E+03  0.39209586983E+03  0.47000000000E+01 0. -1.
         -5    1    1    2    0  502  0.85615016041E+02 -0.50656282925E+02 -0.19890890912E+03  0.22244737377E+03  0.47000000000E+01 0. -1.
        -11    1    1    2    0    0 -0.95168971827E+01  0.32617500933E+02 -0.17978789668E+03  0.18297038146E+03  0.00000000000E+00 0. -1.
         11    1    1    2    0    0 -0.86404992282E+02  0.30441460064E+02 -0.11967498553E+03  0.15071366011E+03  0.00000000000E+00 0.  1.
<mgrwt>
<rscale>  0 0.32686888E+03</rscale>
<asrwt>0</asrwt>
<pdfrwt beam="2">  1        2 0.14141040E+00 0.32686888E+03</pdfrwt>
<pdfrwt beam="1">  1       -2 0.44707368E-02 0.32686888E+03</pdfrwt>
<totfact> 0.68761007E+03</totfact>
</mgrwt>
</event>
<event>
 6    1  0.9263730E-006  0.1583408E+03  0.7546771E-02  0.1197301E+00
         -2   -1    0    0    0  501 -0.00000000000E+00  0.00000000000E+00  0.30209296809E+03  0.30209296809E+03  0.00000000000E+00 0.  1.
          2   -1    0    0  501    0  0.00000000000E+00 -0.00000000000E+00 -0.73888496918E+02  0.73888496918E+02  0.00000000000E+00 0. -1.
          5    1    1    2  502    0 -0.24385569133E+02  0.58740687588E+02  0.11524739977E+03  0.13171627657E+03  0.47000000000E+01 0.  1.
         -5    1    1    2    0  502  0.25224303007E+02  0.38465419317E+02 -0.22887734854E+02  0.51592561016E+02  0.47000000000E+01 0.  1.
        -11    1    1    2    0    0 -0.19816435553E+02 -0.38430133475E+02  0.12191780598E+03  0.12935809867E+03  0.00000000000E+00 0.  1.
         11    1    1    2    0    0  0.18977701679E+02 -0.58775973430E+02  0.13927000274E+02  0.63314528746E+02  0.00000000000E+00 0. -1.
<mgrwt>
<rscale>  0 0.15261058E+03</rscale>
<asrwt>0</asrwt>
<pdfrwt beam="2">  1        2 0.11367461E-01 0.15834084E+03</pdfrwt>
<pdfrwt beam="1">  1       -2 0.46475841E-01 0.15834084E+03</pdfrwt>
<totfact> 0.23605722E+03</totfact>
</mgrwt>
</event>
<event>
 6    1  0.9263730E-006  0.1591288E+03  0.7546771E-02  0.1197007E+00
         -1   -1    0    0    0  501 -0.00000000000E+00  0.00000000000E+00  0.35282969170E+03  0.35282969170E+03  0.00000000000E+00 0.  1.
          1   -1    0    0  501    0  0.00000000000E+00 -0.00000000000E+00 -0.10030606722E+03  0.10030606722E+03  0.00000000000E+00 0. -1.
          5    1    1    2  502    0 -0.54722016058E+02 -0.39332112128E+02  0.41457326791E+02  0.79261049896E+02  0.47000000000E+01 0. -1.
         -5    1    1    2    0  502  0.28790162049E+02 -0.55663692196E+02 -0.49628454595E+02  0.80077422318E+02  0.47000000000E+01 0. -1.
        -11    1    1    2    0    0  0.60846194486E+02  0.65226971317E+02  0.18255752745E+03  0.20318481242E+03  0.00000000000E+00 0.  1.
         11    1    1    2    0    0 -0.34914340477E+02  0.29768833007E+02  0.78137224840E+02  0.90612474281E+02  0.00000000000E+00 0. -1.
<mgrwt>
<rscale>  0 0.15285555E+03</rscale>
<asrwt>0</asrwt>
<pdfrwt beam="2">  1        1 0.15431703E-01 0.15912882E+03</pdfrwt>
<pdfrwt beam="1">  1       -1 0.54281490E-01 0.15912882E+03</pdfrwt>
<totfact> 0.12477415E+03</totfact>
</mgrwt>
</event>
<event>
 6    1  0.9263730E-006  0.1258530E+03  0.7546771E-02  0.1248161E+00
          2   -1    0    0  501    0  0.00000000000E+00  0.00000000000E+00  0.79046804893E+03  0.79046804893E+03  0.00000000000E+00 0. -1.
         -2   -1    0    0    0  501 -0.00000000000E+00 -0.00000000000E+00 -0.26898284194E+02  0.26898284194E+02  0.00000000000E+00 0.  1.
          5    1    1    2  502    0 -0.57781814211E+02  0.38227003738E+02  0.39328748102E+03  0.39937097365E+03  0.47000000000E+01 0.  1.
         -5    1    1    2    0  502  0.49516012537E+02 -0.26265217634E+02  0.28696565208E+03  0.29242618321E+03  0.47000000000E+01 0.  1.
        -11    1    1    2    0    0 -0.31225333057E+02  0.20779148259E+02  0.15615021087E+02  0.40627863720E+02  0.00000000000E+00 0.  1.
         11    1    1    2    0    0  0.39491134731E+02 -0.32740934363E+02  0.67701610554E+02  0.84941312545E+02  0.00000000000E+00 0. -1.
<mgrwt>
<rscale>  0 0.11698170E+03</rscale>
<asrwt>0</asrwt>
<pdfrwt beam="1">  1        2 0.12161045E+00 0.12585301E+03</pdfrwt>
<pdfrwt beam="2">  1       -2 0.41381982E-02 0.12585301E+03</pdfrwt>
<totfact> 0.90024482E+03</totfact>
</mgrwt>
</event>
<event>
 6    1  0.9263730E-006  0.3673956E+03  0.7546771E-02  0.1055693E+00
         -2   -1    0    0    0  501 -0.00000000000E+00  0.00000000000E+00  0.24538658922E+02  0.24538658922E+02  0.00000000000E+00 0.  1.
          2   -1    0    0  501    0  0.00000000000E+00 -0.00000000000E+00 -0.13751724829E+04  0.13751724829E+04  0.00000000000E+00 0. -1.
          5    1    1    2  502    0  0.18524971856E+02  0.19881888116E+02 -0.48246664796E+03  0.48325419858E+03  0.47000000000E+01 0. -1.
         -5    1    1    2    0  502 -0.15325496425E+02 -0.11299706586E+03 -0.65802109079E+03  0.66784508208E+03  0.47000000000E+01 0. -1.
        -11    1    1    2    0    0 -0.22245526828E+02  0.61267639047E+02 -0.44652766185E+02  0.79009218363E+02  0.00000000000E+00 0.  1.
         11    1    1    2    0    0  0.19046051397E+02  0.31847538693E+02 -0.16549331905E+03  0.16960264280E+03  0.00000000000E+00 0. -1.
<mgrwt>
<rscale>  0 0.36739564E+03</rscale>
<asrwt>0</asrwt>
<pdfrwt beam="2">  1        2 0.21156507E+00 0.36739564E+03</pdfrwt>
<pdfrwt beam="1">  1       -2 0.37751770E-02 0.36739564E+03</pdfrwt>
<totfact> 0.47977165E+03</totfact>
</mgrwt>
</event>
<event>
 6    1  0.9263730E-006  0.1355192E+03  0.7546771E-02  0.1230283E+00
          2   -1    0    0  501    0  0.00000000000E+00  0.00000000000E+00  0.19423209465E+03  0.19423209465E+03  0.00000000000E+00 0. -1.
         -2   -1    0    0    0  501 -0.00000000000E+00 -0.00000000000E+00 -0.12617777399E+03  0.12617777399E+03  0.00000000000E+00 0.  1.
          5    1    1    2  502    0  0.88981616615E+02  0.15378771264E+02  0.13449743774E+03  0.16206753363E+03  0.47000000000E+01 0. -1.
         -5    1    1    2    0  502 -0.28112625760E+02 -0.10025814725E+02  0.20035661353E+01  0.30281033095E+02  0.47000000000E+01 0.  1.
        -11    1    1    2    0    0 -0.78722260450E+02  0.47570500622E+01 -0.72524347136E+02  0.10714291737E+03  0.00000000000E+00 0.  1.
         11    1    1    2    0    0  0.17853269595E+02 -0.10110006601E+02  0.40776639183E+01  0.20918384540E+02  0.00000000000E+00 0. -1.
<mgrwt>
<rscale>  0 0.12811270E+03</rscale>
<asrwt>0</asrwt>
<pdfrwt beam="1">  1        2 0.29881861E-01 0.13551918E+03</pdfrwt>
<pdfrwt beam="2">  1       -2 0.19411965E-01 0.13551918E+03</pdfrwt>
<totfact> 0.37475882E+03</totfact>
</mgrwt>
</event>
<event>
 6    1  0.9263730E-006  0.2723741E+03  0.7546771E-02  0.1099928E+00
         -2   -1    0    0    0  501 -0.00000000000E+00  0.00000000000E+00  0.18301318649E+02  0.18301318649E+02  0.00000000000E+00 0.  1.
          2   -1    0    0  501    0  0.00000000000E+00 -0.00000000000E+00 -0.10134194567E+04  0.10134194567E+04  0.00000000000E+00 0. -1.
          5    1    1    2  502    0 -0.52593333953E+01  0.50802167307E+01 -0.78405235120E+03  0.78410053476E+03  0.47000000000E+01 0.  1.
         -5    1    1    2    0  502 -0.30701848949E+02  0.21514661276E+00 -0.42500942015E+02  0.52640952585E+02  0.47000000000E+01 0.  1.
        -11    1    1    2    0    0  0.28405750558E+02  0.32441306333E+02 -0.14151484220E+03  0.14793841822E+03  0.00000000000E+00 0. -1.
         11    1    1    2    0    0  0.75554317860E+01 -0.37736669676E+02 -0.27050002636E+02  0.47040869787E+02  0.00000000000E+00 0.  1.
<mgrwt>
<rscale>  0 0.27237410E+03</rscale>
<asrwt>0</asrwt>
<pdfrwt beam="2">  1        2 0.15591073E+00 0.27237410E+03</pdfrwt>
<pdfrwt beam="1">  1       -2 0.28155867E-02 0.27237410E+03</pdfrwt>
<totfact> 0.11961527E+04</totfact>
</mgrwt>
</event>
<event>
 6    1  0.9263730E-006  0.2569533E+03  0.7546771E-02  0.1108988E+00
          1   -1    0    0  501    0  0.00000000000E+00  0.00000000000E+00  0.75912463959E+03  0.75912463959E+03  0.00000000000E+00 0. -1.
         -1   -1    0    0    0  501 -0.00000000000E+00 -0.00000000000E+00 -0.21743787838E+02  0.21743787838E+02  0.00000000000E+00 0.  1.
          5    1    1    2  502    0  0.44441244983E+00  0.17589228008E+02  0.52369489926E+01  0.18949777811E+02  0.47000000000E+01 0. -1.
         -5    1    1    2    0  502  0.15249016058E+02 -0.82061338886E+02  0.45273814723E+03  0.46039169821E+03  0.47000000000E+01 0. -1.
        -11    1    1    2    0    0  0.32234725657E+02  0.28058851355E+02  0.18259728130E+03  0.18753171416E+03  0.00000000000E+00 0. -1.
         11    1    1    2    0    0 -0.47928154165E+02  0.36413259523E+02  0.96808474234E+02  0.11399523724E+03  0.00000000000E+00 0.  1.
<mgrwt>
<rscale>  0 0.25695327E+03</rscale>
<asrwt>0</asrwt>
<pdfrwt beam="1">  1        1 0.11678839E+00 0.25695327E+03</pdfrwt>
<pdfrwt beam="2">  1       -1 0.33451987E-02 0.25695327E+03</pdfrwt>
<totfact> 0.79737582E+03</totfact>
</mgrwt>
</event>
<event>
 6    1  0.9263730E-006  0.1516128E+03  0.7546771E-02  0.1207619E+00
         -3   -1    0    0    0  501 -0.00000000000E+00  0.00000000000E+00  0.25801763326E+03  0.25801763326E+03  0.00000000000E+00 0.  1.
          3   -1    0    0  501    0  0.00000000000E+00 -0.00000000000E+00 -0.84867784104E+02  0.84867784104E+02  0.00000000000E+00 0. -1.
          5    1    1    2  502    0 -0.36124902163E+02 -0.81443687460E+02  0.50529008282E+01  0.89362769597E+02  0.47000000000E+01 0.  1.
         -5    1    1    2    0  502  0.59482696111E+02 -0.11146882646E+01  0.27479167515E+02  0.65701052609E+02  0.47000000000E+01 0.  1.
        -11    1    1    2    0    0  0.25392074622E+02  0.17073193178E+01  0.53999256269E+02  0.59695829590E+02  0.00000000000E+00 0. -1.
         11    1    1    2    0    0 -0.48749868570E+02  0.80851056406E+02  0.86618524540E+02  0.12812576556E+03  0.00000000000E+00 0.  1.
<mgrwt>
<rscale>  0 0.14432981E+03</rscale>
<asrwt>0</asrwt>
<pdfrwt beam="2">  1        3 0.13056582E-01 0.15161284E+03</pdfrwt>
<pdfrwt beam="1">  1       -3 0.39695020E-01 0.15161284E+03</pdfrwt>
<totfact> 0.69774097E+02</totfact>
</mgrwt>
</event>
<event>
 6    1  0.9263730E-006  0.1405448E+03  0.7546771E-02  0.1223465E+00
         -1   -1    0    0    0  501 -0.00000000000E+00  0.00000000000E+00  0.17661161549E+02  0.17661161549E+02  0.00000000000E+00 0.  1.
          1   -1    0    0  501    0  0.00000000000E+00 -0.00000000000E+00 -0.91995601411E+03  0.91995601411E+03  0.00000000000E+00 0. -1.
          5    1    1    2  502    0 -0.38652266286E+02 -0.96077332311E+01 -0.21018737451E+03  0.21397927150E+03  0.47000000000E+01 0. -1.
         -5    1    1    2    0  502  0.96934541255E+02 -0.17431825337E+02 -0.35770143507E+03  0.37104255884E+03  0.47000000000E+01 0. -1.
        -11    1    1    2    0    0 -0.65751359186E+02  0.10644374637E+02 -0.32596311149E+03  0.33269880373E+03  0.00000000000E+00 0.  1.
         11    1    1    2    0    0  0.74690842167E+01  0.16395183931E+02 -0.84429314880E+01  0.19896541591E+02  0.00000000000E+00 0. -1.
<mgrwt>
<rscale>  0 0.13272655E+03</rscale>
<asrwt>0</asrwt>
<pdfrwt beam="2">  1        1 0.14153164E+00 0.14054480E+03</pdfrwt>
<pdfrwt beam="1">  1       -1 0.27171029E-02 0.14054480E+03</pdfrwt>
<totfact> 0.77942124E+03</totfact>
</mgrwt>
</event>
<event>
 6    1  0.9263730E-006  0.1374170E+03  0.7546771E-02  0.1228798E+00
         -4   -1    0    0    0  501 -0.00000000000E+00  0.00000000000E+00  0.16058419250E+03  0.16058419250E+03  0.00000000000E+00 0. -1.
          4   -1    0    0  501    0  0.00000000000E+00 -0.00000000000E+00 -0.93686985594E+02  0.93686985594E+02  0.00000000000E+00 0.  1.
          5    1    1    2  502    0  0.86570881594E-01 -0.14039379673E+02 -0.41425708956E+02  0.43991942883E+02  0.47000000000E+01 0. -1.
         -5    1    1    2    0  502  0.39313223420E+02 -0.27298250839E+02  0.89480253400E+02  0.10158508642E+03  0.47000000000E+01 0. -1.
        -11    1    1    2    0    0 -0.35398546060E+02  0.68593096316E+02  0.37420177787E+01  0.77279186218E+02  0.00000000000E+00 0.  1.
         11    1    1    2    0    0 -0.40012482409E+01 -0.27255465805E+02  0.15100644688E+02  0.31414962577E+02  0.00000000000E+00 0. -1.
<mgrwt>
<rscale>  0 0.12909977E+03</rscale>
<asrwt>0</asrwt>
<pdfrwt beam="2">  1        4 0.14413382E-01 0.13741700E+03</pdfrwt>
<pdfrwt beam="1">  1       -4 0.24705260E-01 0.13741700E+03</pdfrwt>
<totfact> 0.10245398E+03</totfact>
</mgrwt>
</event>
<event>
 6    1  0.9263730E-006  0.1451683E+03  0.7546771E-02  0.1217545E+00
         -1   -1    0    0    0  501 -0.00000000000E+00  0.00000000000E+00  0.44306141763E+02  0.44306141763E+02  0.00000000000E+00 0.  1.
          1   -1    0    0  501    0  0.00000000000E+00 -0.00000000000E+00 -0.38520675304E+03  0.38520675304E+03  0.00000000000E+00 0. -1.
          5    1    1    2  502    0 -0.33329047705E+02 -0.44726602757E+02 -0.22559743073E+03  0.23243834702E+03  0.47000000000E+01 0. -1.
         -5    1    1    2    0  502 -0.97713314738E+01 -0.15200134706E+02  0.14580998491E+02  0.23690051305E+02  0.47000000000E+01 0. -1.
        -11    1    1    2    0    0 -0.10176995070E+02 -0.15621447424E+02 -0.41461013350E+02  0.45460053633E+02  0.00000000000E+00 0. -1.
         11    1    1    2    0    0  0.53277374249E+02  0.75548184886E+02 -0.88423165692E+02  0.12792444285E+03  0.00000000000E+00 0.  1.
<mgrwt>
<rscale>  0 0.13691270E+03</rscale>
<asrwt>0</asrwt>
<pdfrwt beam="2">  1        1 0.59262575E-01 0.14516825E+03</pdfrwt>
<pdfrwt beam="1">  1       -1 0.68163298E-02 0.14516825E+03</pdfrwt>
<totfact> 0.67183715E+03</totfact>
</mgrwt>
</event>
<event>
 6    1  0.9263730E-006  0.1605795E+03  0.7546771E-02  0.1202236E+00
         -2   -1    0    0    0  501 -0.00000000000E+00  0.00000000000E+00  0.30618701313E+02  0.30618701313E+02  0.00000000000E+00 0.  1.
          2   -1    0    0  501    0  0.00000000000E+00 -0.00000000000E+00 -0.67008670920E+03  0.67008670920E+03  0.00000000000E+00 0. -1.
          5    1    1    2  502    0  0.38590656493E+02 -0.43561787987E+01 -0.36936455057E+03  0.37143031148E+03  0.47000000000E+01 0.  1.
         -5    1    1    2    0  502  0.55371828845E+02  0.40845324722E+02 -0.79247899972E+02  0.10505569776E+03  0.47000000000E+01 0.  1.
        -11    1    1    2    0    0 -0.23000448794E+02 -0.27878847980E+02 -0.11246934428E+03  0.11813384025E+03  0.00000000000E+00 0.  1.
         11    1    1    2    0    0 -0.70962036544E+02 -0.86102979439E+01 -0.78386213061E+02  0.10608556103E+03  0.00000000000E+00 0. -1.
<mgrwt>
<rscale>  0 0.14857405E+03</rscale>
<asrwt>0</asrwt>
<pdfrwt beam="2">  1        2 0.10309026E+00 0.16057953E+03</pdfrwt>
<pdfrwt beam="1">  1       -2 0.47105694E-02 0.16057953E+03</pdfrwt>
<totfact> 0.91837780E+03</totfact>
</mgrwt>
</event>
<event>
 6    1  0.9263730E-006  0.2771083E+03  0.7546771E-02  0.1097279E+00
          1   -1    0    0  501    0  0.00000000000E+00  0.00000000000E+00  0.13525989097E+03  0.13525989097E+03  0.00000000000E+00 0. -1.
         -1   -1    0    0    0  501 -0.00000000000E+00 -0.00000000000E+00 -0.14192861227E+03  0.14192861227E+03  0.00000000000E+00 0.  1.
          5    1    1    2  502    0 -0.68124551227E+02  0.81236510346E+02 -0.13762673749E+01  0.10613344998E+03  0.47000000000E+01 0. -1.
         -5    1    1    2    0  502  0.14084545848E+01 -0.34787357737E+02 -0.30098461972E+02  0.46261770564E+02  0.47000000000E+01 0. -1.
        -11    1    1    2    0    0  0.43295804161E+02  0.18900106140E+02  0.28680744547E+02  0.55265954961E+02  0.00000000000E+00 0.  1.
         11    1    1    2    0    0  0.23420292482E+02 -0.65349258749E+02 -0.38747365022E+01  0.69527327735E+02  0.00000000000E+00 0. -1.
<mgrwt>
<rscale>  0 0.27710827E+03</rscale>
<asrwt>0</asrwt>
<pdfrwt beam="1">  1        1 0.20809214E-01 0.27710827E+03</pdfrwt>
<pdfrwt beam="2">  1       -1 0.21835171E-01 0.27710827E+03</pdfrwt>
<totfact> 0.42070799E+03</totfact>
</mgrwt>
</event>
<event>
 6    1  0.9263730E-006  0.2748670E+03  0.7546771E-02  0.1098526E+00
          2   -1    0    0  501    0  0.00000000000E+00  0.00000000000E+00  0.54504708848E+02  0.54504708848E+02  0.00000000000E+00 0. -1.
         -2   -1    0    0    0  501 -0.00000000000E+00 -0.00000000000E+00 -0.34653826757E+03  0.34653826757E+03  0.00000000000E+00 0.  1.
          5    1    1    2  502    0 -0.76419941466E+02  0.48847583639E+02 -0.37164591758E+02  0.98129459193E+02  0.47000000000E+01 0. -1.
         -5    1    1    2    0  502  0.24779667498E+02 -0.28289400665E+02 -0.55104435398E+02  0.66879824401E+02  0.47000000000E+01 0. -1.
        -11    1    1    2    0    0 -0.28562339064E+02 -0.33086666835E+02 -0.83293983582E+02  0.94066053580E+02  0.00000000000E+00 0.  1.
         11    1    1    2    0    0  0.80202613031E+02  0.12528483861E+02 -0.11647054798E+03  0.14196763924E+03  0.00000000000E+00 0. -1.
<mgrwt>
<rscale>  0 0.27486700E+03</rscale>
<asrwt>0</asrwt>
<pdfrwt beam="1">  1        2 0.83853397E-02 0.27486700E+03</pdfrwt>
<pdfrwt beam="2">  1       -2 0.53313581E-01 0.27486700E+03</pdfrwt>
<totfact> 0.26921281E+03</totfact>
</mgrwt>
</event>
<event>
 6    1  0.9263730E-006  0.1996726E+03  0.7546771E-02  0.1154890E+00
         -1   -1    0    0    0  501 -0.00000000000E+00  0.00000000000E+00  0.62568218585E+02  0.62568218585E+02  0.00000000000E+00 0.  1.
          1   -1    0    0  501    0  0.00000000000E+00 -0.00000000000E+00 -0.70930233818E+03  0.70930233818E+03  0.00000000000E+00 0. -1.
          5    1    1    2  502    0 -0.99010841235E+02 -0.63913693794E+02 -0.45788870417E+03  0.47283428634E+03  0.47000000000E+01 0.  1.
         -5    1    1    2    0  502 -0.49937499574E+02  0.18535055027E+02 -0.51287923551E+02  0.74093476304E+02  0.47000000000E+01 0.  1.
        -11    1    1    2    0    0  0.49036044445E+02  0.43523351459E+02 -0.97035652180E+02  0.11710992089E+03  0.00000000000E+00 0. -1.
         11    1    1    2    0    0  0.99912296364E+02  0.18552873081E+01 -0.40521839692E+02  0.10783287322E+03  0.00000000000E+00 0.  1.
<mgrwt>
<rscale>  0 0.19401360E+03</rscale>
<asrwt>0</asrwt>
<pdfrwt beam="2">  1        1 0.10912344E+00 0.19967258E+03</pdfrwt>
<pdfrwt beam="1">  1       -1 0.96258794E-02 0.19967258E+03</pdfrwt>
<totfact> 0.17801759E+03</totfact>
</mgrwt>
</event>
<event>
 6    1  0.9263730E-006  0.1251114E+03  0.7546771E-02  0.1251504E+00
          2   -1    0    0  501    0  0.00000000000E+00  0.00000000000E+00  0.11004709349E+03  0.11004709349E+03  0.00000000000E+00 0. -1.
         -2   -1    0    0    0  501 -0.00000000000E+00 -0.00000000000E+00 -0.11424635923E+03  0.11424635923E+03  0.00000000000E+00 0.  1.
          5    1    1    2  502    0 -0.97977407315E+01 -0.54017904760E+02  0.39155914659E+02  0.67595897885E+02  0.47000000000E+01 0. -1.
         -5    1    1    2    0  502  0.11365736915E+02  0.59020325769E+02 -0.93706318243E+01  0.61012110030E+02  0.47000000000E+01 0. -1.
        -11    1    1    2    0    0 -0.12910246122E+02  0.22572585385E+02 -0.53889418567E+02  0.59835319832E+02  0.00000000000E+00 0.  1.
         11    1    1    2    0    0  0.11342249939E+02 -0.27575006394E+02  0.19904869988E+02  0.35850124973E+02  0.00000000000E+00 0. -1.
<mgrwt>
<rscale>  0 0.11504400E+03</rscale>
<asrwt>0</asrwt>
<pdfrwt beam="1">  1        2 0.16930322E-01 0.12511138E+03</pdfrwt>
<pdfrwt beam="2">  1       -2 0.17576363E-01 0.12511138E+03</pdfrwt>
<totfact> 0.82938160E+03</totfact>
</mgrwt>
</event>
<event>
 6    1  0.9263730E-006  0.1482324E+03  0.7546771E-02  0.1214868E+00
         -2   -1    0    0    0  501 -0.00000000000E+00  0.00000000000E+00  0.45518300393E+02  0.45518300393E+02  0.00000000000E+00 0. -1.
          2   -1    0    0  501    0  0.00000000000E+00 -0.00000000000E+00 -0.48687233744E+03  0.48687233744E+03  0.00000000000E+00 0.  1.
          5    1    1    2  502    0 -0.24202431432E+02 -0.54835106994E+02 -0.56137498696E+02  0.82256643537E+02  0.47000000000E+01 0. -1.
         -5    1    1    2    0  502  0.31905550394E+02 -0.24508128294E+02 -0.31177021469E+03  0.31439047261E+03  0.47000000000E+01 0. -1.
        -11    1    1    2    0    0  0.14886630135E+02  0.34063228468E+02  0.96916984139E+01  0.38416719129E+02  0.00000000000E+00 0. -1.
         11    1    1    2    0    0 -0.22589749097E+02  0.45280006820E+02 -0.83138022073E+02  0.97326802557E+02  0.00000000000E+00 0.  1.
<mgrwt>
<rscale>  0 0.13886204E+03</rscale>
<asrwt>0</asrwt>
<pdfrwt beam="2">  1        2 0.74903436E-01 0.14823242E+03</pdfrwt>
<pdfrwt beam="1">  1       -2 0.70028155E-02 0.14823242E+03</pdfrwt>
<totfact> 0.71917512E+03</totfact>
</mgrwt>
</event>
<event>
 6    1  0.9263730E-006  0.1164584E+03  0.7546771E-02  0.1260290E+00
         -2   -1    0    0    0  501 -0.00000000000E+00  0.00000000000E+00  0.54715188583E+02  0.54715188583E+02  0.00000000000E+00 0.  1.
          2   -1    0    0  501    0  0.00000000000E+00 -0.00000000000E+00 -0.94787387517E+03  0.94787387517E+03  0.00000000000E+00 0. -1.
          5    1    1    2  502    0  0.51471041049E+02 -0.25696682665E+02 -0.60320154910E+03  0.60595691795E+03  0.47000000000E+01 0. -1.
         -5    1    1    2    0  502 -0.53156325056E+02 -0.37522997052E+00 -0.29831582205E+03  0.30305140715E+03  0.47000000000E+01 0.  1.
        -11    1    1    2    0    0 -0.43089061941E+02  0.21111898317E+02  0.14434682968E+01  0.48004823823E+02  0.00000000000E+00 0.  1.
         11    1    1    2    0    0  0.44774345949E+02  0.49600143187E+01  0.69152162658E+01  0.45575914836E+02  0.00000000000E+00 0. -1.
<mgrwt>
<rscale>  0 0.11015138E+03</rscale>
<asrwt>0</asrwt>
<pdfrwt beam="2">  1        2 0.14582673E+00 0.11645842E+03</pdfrwt>
<pdfrwt beam="1">  1       -2 0.84177225E-02 0.11645842E+03</pdfrwt>
<totfact> 0.24313484E+03</totfact>
</mgrwt>
</event>
<event>
 6    1  0.9263730E-006  0.1797687E+03  0.7546771E-02  0.1172189E+00
          2   -1    0    0  501    0  0.00000000000E+00  0.00000000000E+00  0.11814479514E+04  0.11814479514E+04  0.00000000000E+00 0. -1.
         -2   -1    0    0    0  501 -0.00000000000E+00 -0.00000000000E+00 -0.26613580023E+02  0.26613580023E+02  0.00000000000E+00 0.  1.
          5    1    1    2  502    0 -0.58128082467E+02  0.67326403714E+02  0.23345612542E+03  0.24987110898E+03  0.47000000000E+01 0.  1.
         -5    1    1    2    0  502 -0.64574365892E+02 -0.26884446295E+02  0.52161133746E+03  0.52630133911E+03  0.47000000000E+01 0.  1.
        -11    1    1    2    0    0  0.54820942258E+02  0.26574398174E+02  0.97887380866E+02  0.11529732729E+03  0.00000000000E+00 0.  1.
         11    1    1    2    0    0  0.67881506100E+02 -0.67016355593E+02  0.30187952767E+03  0.31659175608E+03  0.00000000000E+00 0. -1.
<mgrwt>
<rscale>  0 0.17554125E+03</rscale>
<asrwt>0</asrwt>
<pdfrwt beam="1">  1        2 0.18176118E+00 0.17976873E+03</pdfrwt>
<pdfrwt beam="2">  1       -2 0.40943978E-02 0.17976873E+03</pdfrwt>
<totfact> 0.53670389E+03</totfact>
</mgrwt>
</event>
<event>
 6    1  0.9263730E-006  0.1329026E+03  0.7546771E-02  0.1236090E+00
          1   -1    0    0  501    0  0.00000000000E+00  0.00000000000E+00  0.39624752014E+02  0.39624752014E+02  0.00000000000E+00 0. -1.
         -1   -1    0    0    0  501 -0.00000000000E+00 -0.00000000000E+00 -0.43192349676E+03  0.43192349676E+03  0.00000000000E+00 0.  1.
          5    1    1    2  502    0  0.19143281837E+02  0.32373777816E+02 -0.98073796257E+02  0.10514317021E+03  0.47000000000E+01 0.  1.
         -5    1    1    2    0  502 -0.63477783126E+02 -0.23832367502E+02 -0.15581617395E+02  0.69730104632E+02  0.47000000000E+01 0.  1.
        -11    1    1    2    0    0  0.94508635310E+01  0.19297243415E+02 -0.88885625162E+01  0.23253149647E+02  0.00000000000E+00 0. -1.
         11    1    1    2    0    0  0.34883637758E+02 -0.27838653729E+02 -0.26975476857E+03  0.27342182428E+03  0.00000000000E+00 0.  1.
<mgrwt>
<rscale>  0 0.12434924E+03</rscale>
<asrwt>0</asrwt>
<pdfrwt beam="1">  1        1 0.60961157E-02 0.13290263E+03</pdfrwt>
<pdfrwt beam="2">  1       -1 0.66449769E-01 0.13290263E+03</pdfrwt>
<totfact> 0.28972333E+03</totfact>
</mgrwt>
</event>
<event>
 6    1  0.9263730E-006  0.1541729E+03  0.7546771E-02  0.1200445E+00
         -1   -1    0    0    0  501 -0.00000000000E+00  0.00000000000E+00  0.20287513437E+03  0.20287513437E+03  0.00000000000E+00 0.  1.
          1   -1    0    0  501    0  0.00000000000E+00 -0.00000000000E+00 -0.11511846482E+03  0.11511846482E+03  0.00000000000E+00 0. -1.
          5    1    1    2  502    0  0.27141749995E+02 -0.88770026028E+02 -0.23749916740E-02  0.92945586875E+02  0.47000000000E+01 0.  1.
         -5    1    1    2    0  502 -0.60837234138E+02  0.50509285811E+01 -0.15894434224E+00  0.61227413798E+02  0.47000000000E+01 0.  1.
        -11    1    1    2    0    0  0.44817309392E+02  0.15730059212E+02  0.81885950840E+02  0.94664327647E+02  0.00000000000E+00 0. -1.
         11    1    1    2    0    0 -0.11121825249E+02  0.67989038235E+02  0.60320380463E+01  0.69156270865E+02  0.00000000000E+00 0.  1.
<mgrwt>
<rscale>  0 0.15002267E+03</rscale>
<asrwt>0</asrwt>
<pdfrwt beam="2">  1        1 0.17710533E-01 0.15417292E+03</pdfrwt>
<pdfrwt beam="1">  1       -1 0.31211559E-01 0.15417292E+03</pdfrwt>
<totfact> 0.27798723E+03</totfact>
</mgrwt>
</event>
<event>
 6    1  0.9263730E-006  0.1671038E+03  0.7546771E-02  0.1188646E+00
          2   -1    0    0  501    0  0.00000000000E+00  0.00000000000E+00  0.38174741344E+03  0.38174741344E+03  0.00000000000E+00 0. -1.
         -2   -1    0    0    0  501 -0.00000000000E+00 -0.00000000000E+00 -0.73618123446E+02  0.73618123446E+02  0.00000000000E+00 0.  1.
          5    1    1    2  502    0  0.29206378911E+02  0.10121296391E+02  0.12611305764E+03  0.12993092979E+03  0.47000000000E+01 0. -1.
         -5    1    1    2    0  502 -0.42556668975E+01 -0.11817870675E+03  0.12925637612E+03  0.17525301195E+03  0.47000000000E+01 0. -1.
        -11    1    1    2    0    0 -0.55815481536E+02  0.83101372775E+02  0.44922438901E+02  0.10972343256E+03  0.00000000000E+00 0.  1.
         11    1    1    2    0    0  0.30864769522E+02  0.24956037582E+02  0.78374173393E+01  0.40458162588E+02  0.00000000000E+00 0. -1.
<mgrwt>
<rscale>  0 0.16004538E+03</rscale>
<asrwt>0</asrwt>
<pdfrwt beam="1">  1        2 0.58730370E-01 0.16710383E+03</pdfrwt>
<pdfrwt beam="2">  1       -2 0.11325865E-01 0.16710383E+03</pdfrwt>
<totfact> 0.44426899E+03</totfact>
</mgrwt>
</event>
<event>
 6    1  0.9263730E-006  0.1388781E+03  0.7546771E-02  0.1225916E+00
         -2   -1    0    0    0  501 -0.00000000000E+00  0.00000000000E+00  0.23564359033E+02  0.23564359033E+02  0.00000000000E+00 0.  1.
          2   -1    0    0  501    0  0.00000000000E+00 -0.00000000000E+00 -0.93688262440E+03  0.93688262440E+03  0.00000000000E+00 0. -1.
          5    1    1    2  502    0  0.58027042425E+01  0.56695668397E+02 -0.21281371470E+03  0.22036296730E+03  0.47000000000E+01 0. -1.
         -5    1    1    2    0  502 -0.63640492377E+02 -0.38804423460E+02 -0.54185315591E+03  0.54697607637E+03  0.47000000000E+01 0. -1.
        -11    1    1    2    0    0  0.17335356501E+01 -0.45604793846E+02 -0.49777304336E+02  0.67532084186E+02  0.00000000000E+00 0.  1.
         11    1    1    2    0    0  0.56104252485E+02  0.27713548908E+02 -0.10887409042E+03  0.12557585558E+03  0.00000000000E+00 0. -1.
<mgrwt>
<rscale>  0 0.13104334E+03</rscale>
<asrwt>0</asrwt>
<pdfrwt beam="2">  1        2 0.14413578E+00 0.13887808E+03</pdfrwt>
<pdfrwt beam="1">  1       -2 0.36252861E-02 0.13887808E+03</pdfrwt>
<totfact> 0.88609895E+03</totfact>
</mgrwt>
</event>
<event>
 6    1  0.9263730E-006  0.1290430E+03  0.7546771E-02  0.1241095E+00
          1   -1    0    0  501    0  0.00000000000E+00  0.00000000000E+00  0.16290073104E+04  0.16290073104E+04  0.00000000000E+00 0. -1.
         -1   -1    0    0    0  501 -0.00000000000E+00 -0.00000000000E+00 -0.98679761188E+01  0.98679761188E+01  0.00000000000E+00 0.  1.
          5    1    1    2  502    0  0.44133329942E+02 -0.40009465775E+02  0.31368452596E+03  0.31932519473E+03  0.47000000000E+01 0. -1.
         -5    1    1    2    0  502 -0.26367208850E+02  0.35416173070E+02  0.92446862144E+03  0.92553436297E+03  0.47000000000E+01 0.  1.
        -11    1    1    2    0    0 -0.39709124647E+02 -0.35029005521E+02  0.24597202052E+03  0.25160699650E+03  0.00000000000E+00 0. -1.
         11    1    1    2    0    0  0.21943003555E+02  0.39622298226E+02  0.13501416636E+03  0.14240873232E+03  0.00000000000E+00 0.  1.
<mgrwt>
<rscale>  0 0.12122157E+03</rscale>
<asrwt>0</asrwt>
<pdfrwt beam="1">  1        1 0.25061630E+00 0.12904302E+03</pdfrwt>
<pdfrwt beam="2">  1       -1 0.15181515E-02 0.12904302E+03</pdfrwt>
<totfact> 0.59175958E+03</totfact>
</mgrwt>
</event>
<event>
 6    1  0.9263730E-006  0.1990249E+03  0.7546771E-02  0.1156730E+00
         -2   -1    0    0    0  501 -0.00000000000E+00  0.00000000000E+00  0.26253581849E+02  0.26253581849E+02  0.00000000000E+00 0.  1.
          2   -1    0    0  501    0  0.00000000000E+00 -0.00000000000E+00 -0.13363485771E+04  0.13363485771E+04  0.00000000000E+00 0. -1.
          5    1    1    2  502    0  0.13959337319E+02  0.22677146990E+02 -0.10831371315E+03  0.11163810528E+03  0.47000000000E+01 0.  1.
         -5    1    1    2    0  502  0.44998661186E+02 -0.16592609459E+03 -0.68539736462E+03  0.70664558712E+03  0.47000000000E+01 0.  1.
        -11    1    1    2    0    0 -0.97279783724E+01  0.24604755599E+02 -0.24922884591E+02  0.36348008717E+02  0.00000000000E+00 0.  1.
         11    1    1    2    0    0 -0.49230020132E+02  0.11864419200E+03 -0.49146103287E+03  0.50797045781E+03  0.00000000000E+00 0. -1.
<mgrwt>
<rscale>  0 0.19193206E+03</rscale>
<asrwt>0</asrwt>
<pdfrwt beam="2">  1        2 0.20559203E+00 0.19902494E+03</pdfrwt>
<pdfrwt beam="1">  1       -2 0.40390137E-02 0.19902494E+03</pdfrwt>
<totfact> 0.45085242E+03</totfact>
</mgrwt>
</event>
<event>
 6    1  0.9263730E-006  0.1894781E+03  0.7546771E-02  0.1163811E+00
          2   -1    0    0  501    0  0.00000000000E+00  0.00000000000E+00  0.25135018965E+04  0.25135018965E+04  0.00000000000E+00 0. -1.
         -2   -1    0    0    0  501 -0.00000000000E+00 -0.00000000000E+00 -0.20034550100E+02  0.20034550100E+02  0.00000000000E+00 0.  1.
          5    1    1    2  502    0 -0.12492768303E+03  0.10525128686E+03  0.16345699396E+04  0.16427190072E+04  0.47000000000E+01 0.  1.
         -5    1    1    2    0  502  0.13230312242E+02 -0.16927472820E+02  0.41794271006E+03  0.41852094259E+03  0.47000000000E+01 0.  1.
        -11    1    1    2    0    0 -0.13756406265E+02 -0.15694660716E+01  0.18203523823E+02  0.22870728380E+02  0.00000000000E+00 0.  1.
         11    1    1    2    0    0  0.12545377705E+03 -0.86754347964E+02  0.42275117293E+03  0.44942576838E+03  0.00000000000E+00 0. -1.
<mgrwt>
<rscale>  0 0.18418682E+03</rscale>
<asrwt>0</asrwt>
<pdfrwt beam="1">  1        2 0.38669235E+00 0.18947811E+03</pdfrwt>
<pdfrwt beam="2">  1       -2 0.30822405E-02 0.18947811E+03</pdfrwt>
<totfact> 0.16201396E+03</totfact>
</mgrwt>
</event>
<event>
 6    1  0.9263730E-006  0.1346117E+03  0.7546771E-02  0.1233665E+00
          2   -1    0    0  501    0  0.00000000000E+00  0.00000000000E+00  0.30272304102E+03  0.30272304102E+03  0.00000000000E+00 0. -1.
         -2   -1    0    0    0  501 -0.00000000000E+00 -0.00000000000E+00 -0.55909925603E+02  0.55909925603E+02  0.00000000000E+00 0.  1.
          5    1    1    2  502    0 -0.34885451128E+02 -0.21632603385E+02  0.12447915580E+03  0.13115683154E+03  0.47000000000E+01 0.  1.
         -5    1    1    2    0  502  0.39347999665E+02  0.71382758562E+02  0.85121990254E+02  0.11794747357E+03  0.47000000000E+01 0.  1.
        -11    1    1    2    0    0 -0.35545483536E+02  0.69401027765E+01  0.28926125676E+01  0.36331991878E+02  0.00000000000E+00 0.  1.
         11    1    1    2    0    0  0.31082934999E+02 -0.56690257953E+02  0.34319356794E+02  0.73196669635E+02  0.00000000000E+00 0. -1.
<mgrwt>
<rscale>  0 0.12590291E+03</rscale>
<asrwt>0</asrwt>
<pdfrwt beam="1">  1        2 0.46572775E-01 0.13461172E+03</pdfrwt>
<pdfrwt beam="2">  1       -2 0.86015272E-02 0.13461172E+03</pdfrwt>
<totfact> 0.86585748E+03</totfact>
</mgrwt>
</event>
<event>
 6    1  0.9263730E-006  0.1558874E+03  0.7546771E-02  0.1201196E+00
         -2   -1    0    0    0  501 -0.00000000000E+00  0.00000000000E+00  0.31737925320E+02  0.31737925320E+02  0.00000000000E+00 0.  1.
          2   -1    0    0  501    0  0.00000000000E+00 -0.00000000000E+00 -0.68435929451E+03  0.68435929451E+03  0.00000000000E+00 0. -1.
          5    1    1    2  502    0  0.48011203551E+02 -0.10997232898E+03 -0.34001296427E+03  0.36059658162E+03  0.47000000000E+01 0.  1.
         -5    1    1    2    0  502  0.68633847442E+01  0.34698373386E+02 -0.91523220542E+02  0.98232749449E+02  0.47000000000E+01 0.  1.
        -11    1    1    2    0    0  0.23302492633E+02  0.26995896500E+02 -0.93259076076E+02  0.99845079305E+02  0.00000000000E+00 0. -1.
         11    1    1    2    0    0 -0.78177080929E+02  0.48278059090E+02 -0.12782610830E+03  0.15742280945E+03  0.00000000000E+00 0.  1.
<mgrwt>
<rscale>  0 0.14941336E+03</rscale>
<asrwt>0</asrwt>
<pdfrwt beam="2">  1        2 0.10528605E+00 0.15588738E+03</pdfrwt>
<pdfrwt beam="1">  1       -2 0.48827577E-02 0.15588738E+03</pdfrwt>
<totfact> 0.84722318E+03</totfact>
</mgrwt>
</event>
<event>
 6    1  0.9263730E-006  0.1370475E+03  0.7546771E-02  0.1239348E+00
          1   -1    0    0  501    0  0.00000000000E+00  0.00000000000E+00  0.18669113349E+03  0.18669113349E+03  0.00000000000E+00 0.  1.
         -1   -1    0    0    0  501 -0.00000000000E+00 -0.00000000000E+00 -0.75590714486E+02  0.75590714486E+02  0.00000000000E+00 0. -1.
          5    1    1    2  502    0  0.15383444972E+02 -0.40568025704E+02  0.10140096237E+03  0.11039320749E+03  0.47000000000E+01 0. -1.
         -5    1    1    2    0  502 -0.63302166531E+02  0.11224423034E+02  0.79809964026E+01  0.64953354521E+02  0.47000000000E+01 0. -1.
        -11    1    1    2    0    0  0.35531335341E+02  0.11583477540E+02  0.32346370080E+02  0.49426110513E+02  0.00000000000E+00 0.  1.
         11    1    1    2    0    0  0.12387386218E+02  0.17760125130E+02 -0.30627909850E+02  0.37509175460E+02  0.00000000000E+00 0. -1.
<mgrwt>
<rscale>  0 0.12230129E+03</rscale>
<asrwt>0</asrwt>
<pdfrwt beam="1">  1        1 0.28721713E-01 0.13704745E+03</pdfrwt>
<pdfrwt beam="2">  1       -1 0.11629341E-01 0.13704745E+03</pdfrwt>
<totfact> 0.73138969E+03</totfact>
</mgrwt>
</event>
<event>
 6    1  0.9263730E-006  0.1781556E+03  0.7546771E-02  0.1176158E+00
          1   -1    0    0  501    0  0.00000000000E+00  0.00000000000E+00  0.69362517187E+02  0.69362517187E+02  0.00000000000E+00 0. -1.
         -1   -1    0    0    0  501 -0.00000000000E+00 -0.00000000000E+00 -0.39637918656E+03  0.39637918656E+03  0.00000000000E+00 0.  1.
          5    1    1    2  502    0  0.34908073182E+02  0.27831880442E+02 -0.31962288648E+02  0.55107758418E+02  0.47000000000E+01 0. -1.
         -5    1    1    2    0  502 -0.10785525828E+03  0.76049643352E+02 -0.14144860441E+03  0.19350995500E+03  0.47000000000E+01 0. -1.
        -11    1    1    2    0    0  0.91006958964E+02 -0.77295181650E+02 -0.10588043634E+03  0.15958533293E+03  0.00000000000E+00 0. -1.
         11    1    1    2    0    0 -0.18059773871E+02 -0.26586342144E+02 -0.47725339976E+02  0.57538657411E+02  0.00000000000E+00 0.  1.
<mgrwt>
<rscale>  0 0.17163037E+03</rscale>
<asrwt>0</asrwt>
<pdfrwt beam="1">  1        1 0.10671156E-01 0.17815563E+03</pdfrwt>
<pdfrwt beam="2">  1       -1 0.60981414E-01 0.17815563E+03</pdfrwt>
<totfact> 0.16314211E+03</totfact>
</mgrwt>
</event>
<event>
 6    1  0.9263730E-006  0.1712143E+03  0.7546771E-02  0.1197777E+00
         -1   -1    0    0    0  501 -0.00000000000E+00  0.00000000000E+00  0.25393037244E+02  0.25393037244E+02  0.00000000000E+00 0.  1.
          1   -1    0    0  501    0  0.00000000000E+00 -0.00000000000E+00 -0.80954140316E+03  0.80954140316E+03  0.00000000000E+00 0. -1.
          5    1    1    2  502    0 -0.32832026076E+02 -0.42164134412E+02 -0.44984504933E+03  0.45303246525E+03  0.47000000000E+01 0. -1.
         -5    1    1    2    0  502 -0.70816552967E+01  0.76696560443E+02 -0.12623578638E+03  0.14795295195E+03  0.47000000000E+01 0.  1.
        -11    1    1    2    0    0  0.27841135097E+02 -0.11715421281E+01 -0.56333934695E+01  0.28429499405E+02  0.00000000000E+00 0. -1.
         11    1    1    2    0    0  0.12072546276E+02 -0.33360883903E+02 -0.20243413673E+03  0.20551952380E+03  0.00000000000E+00 0.  1.
<mgrwt>
<rscale>  0 0.15221538E+03</rscale>
<asrwt>0</asrwt>
<pdfrwt beam="2">  1        1 0.12454482E+00 0.17121432E+03</pdfrwt>
<pdfrwt beam="1">  1       -1 0.39066216E-02 0.17121432E+03</pdfrwt>
<totfact> 0.56490436E+03</totfact>
</mgrwt>
</event>
<event>
 6    1  0.9263730E-006  0.2292600E+03  0.7546771E-02  0.1130073E+00
          2   -1    0    0  501    0  0.00000000000E+00  0.00000000000E+00  0.76643868777E+02  0.76643868777E+02  0.00000000000E+00 0. -1.
         -2   -1    0    0    0  501 -0.00000000000E+00 -0.00000000000E+00 -0.69862355504E+03  0.69862355504E+03  0.00000000000E+00 0.  1.
          5    1    1    2  502    0 -0.76294206719E+02  0.86634080866E+02 -0.46196155620E+02  0.12442847239E+03  0.47000000000E+01 0. -1.
         -5    1    1    2    0  502  0.19900844330E-01  0.89763225980E+02 -0.16196072217E+03  0.18523175392E+03  0.47000000000E+01 0. -1.
        -11    1    1    2    0    0  0.35678566583E+02 -0.26122194329E+02 -0.17525297421E+03  0.18074549544E+03  0.00000000000E+00 0. -1.
         11    1    1    2    0    0  0.40595739292E+02 -0.15027511252E+03 -0.23856983426E+03  0.28486170207E+03  0.00000000000E+00 0.  1.
<mgrwt>
<rscale>  0 0.22518855E+03</rscale>
<asrwt>0</asrwt>
<pdfrwt beam="1">  1        2 0.11791364E-01 0.22926005E+03</pdfrwt>
<pdfrwt beam="2">  1       -2 0.10748055E+00 0.22926005E+03</pdfrwt>
<totfact> 0.37751108E+02</totfact>
</mgrwt>
</event>
<event>
 6    1  0.9263730E-006  0.1514106E+03  0.7546771E-02  0.1207704E+00
          1   -1    0    0  501    0  0.00000000000E+00  0.00000000000E+00  0.30513758615E+03  0.30513758615E+03  0.00000000000E+00 0. -1.
         -1   -1    0    0    0  501 -0.00000000000E+00 -0.00000000000E+00 -0.67788328056E+02  0.67788328056E+02  0.00000000000E+00 0.  1.
          5    1    1    2  502    0 -0.10430549534E+03 -0.30444633461E+02  0.12201152406E+03  0.16344850586E+03  0.47000000000E+01 0. -1.
         -5    1    1    2    0  502  0.19281776052E+02  0.37237393713E+02  0.59071059744E+02  0.72594011306E+02  0.47000000000E+01 0. -1.
        -11    1    1    2    0    0  0.69344952024E+02 -0.28621803682E+02  0.54810174728E+00  0.75021533127E+02  0.00000000000E+00 0.  1.
         11    1    1    2    0    0  0.15678767267E+02  0.21829043430E+02  0.55718572541E+02  0.61861863907E+02  0.00000000000E+00 0. -1.
<mgrwt>
<rscale>  0 0.14426374E+03</rscale>
<asrwt>0</asrwt>
<pdfrwt beam="1">  1        1 0.46944243E-01 0.15141059E+03</pdfrwt>
<pdfrwt beam="2">  1       -1 0.10428974E-01 0.15141059E+03</pdfrwt>
<totfact> 0.47288336E+03</totfact>
</mgrwt>
</event>
<event>
 6    1  0.9263730E-006  0.1675581E+03  0.7546771E-02  0.1191646E+00
         -2   -1    0    0    0  501 -0.00000000000E+00  0.00000000000E+00  0.16022577964E+02  0.16022577964E+02  0.00000000000E+00 0.  1.
          2   -1    0    0  501    0  0.00000000000E+00 -0.00000000000E+00 -0.15783196478E+04  0.15783196478E+04  0.00000000000E+00 0. -1.
          5    1    1    2  502    0  0.34368651325E+02  0.63562457873E+02 -0.72415906152E+03  0.72777044913E+03  0.47000000000E+01 0. -1.
         -5    1    1    2    0  502  0.54271796499E+02 -0.65655055792E+02 -0.41833585975E+03  0.42694612751E+03  0.47000000000E+01 0.  1.
        -11    1    1    2    0    0 -0.87769010521E+01  0.21936747161E+02 -0.18598128246E+02  0.30069008004E+02  0.00000000000E+00 0. -1.
         11    1    1    2    0    0 -0.79863546772E+02 -0.19844149243E+02 -0.40120402034E+03  0.40955664114E+03  0.00000000000E+00 0.  1.
<mgrwt>
<rscale>  0 0.15741563E+03</rscale>
<asrwt>0</asrwt>
<pdfrwt beam="2">  1        2 0.24281852E+00 0.16755813E+03</pdfrwt>
<pdfrwt beam="1">  1       -2 0.24650109E-02 0.16755813E+03</pdfrwt>
<totfact> 0.69481767E+03</totfact>
</mgrwt>
</event>
<event>
 6    1  0.9263730E-006  0.2560852E+03  0.7546771E-02  0.1109518E+00
         -1   -1    0    0    0  501 -0.00000000000E+00  0.00000000000E+00  0.58514119653E+03  0.58514119653E+03  0.00000000000E+00 0.  1.
          1   -1    0    0  501    0  0.00000000000E+00 -0.00000000000E+00 -0.28018710492E+02  0.28018710492E+02  0.00000000000E+00 0. -1.
          5    1    1    2  502    0  0.70354019829E+02 -0.73806529471E+02  0.28401252414E+03  0.30179843566E+03  0.47000000000E+01 0.  1.
         -5    1    1    2    0  502 -0.24872358719E+02  0.27106829593E+02  0.69263155747E+02  0.78567736272E+02  0.47000000000E+01 0.  1.
        -11    1    1    2    0    0 -0.39063472359E+02 -0.80089361667E+01  0.15201476768E+03  0.15715784270E+03  0.00000000000E+00 0.  1.
         11    1    1    2    0    0 -0.64181887506E+01  0.54708636044E+02  0.51832038474E+02  0.75635892386E+02  0.00000000000E+00 0. -1.
<mgrwt>
<rscale>  0 0.25608516E+03</rscale>
<asrwt>0</asrwt>
<pdfrwt beam="2">  1        1 0.43105713E-02 0.25608516E+03</pdfrwt>
<pdfrwt beam="1">  1       -1 0.90021713E-01 0.25608516E+03</pdfrwt>
<totfact> 0.25891945E+03</totfact>
</mgrwt>
</event>
<event>
 6    1  0.9263730E-006  0.1456481E+03  0.7546771E-02  0.1217166E+00
          1   -1    0    0  501    0  0.00000000000E+00  0.00000000000E+00  0.15409400336E+03  0.15409400336E+03  0.00000000000E+00 0. -1.
         -1   -1    0    0    0  501 -0.00000000000E+00 -0.00000000000E+00 -0.11243208865E+03  0.11243208865E+03  0.00000000000E+00 0.  1.
          5    1    1    2  502    0 -0.84307106282E+02  0.37646395322E+02  0.28691486280E+02  0.96799951629E+02  0.47000000000E+01 0. -1.
         -5    1    1    2    0  502  0.45881855557E+02  0.26459739935E+02  0.14365700052E+02  0.55079268738E+02  0.47000000000E+01 0. -1.
        -11    1    1    2    0    0 -0.21179406475E+02  0.20071739656E+01 -0.12917889083E+02  0.24889111361E+02  0.00000000000E+00 0.  1.
         11    1    1    2    0    0  0.59604657200E+02 -0.66113309223E+02  0.11522617460E+02  0.89757760274E+02  0.00000000000E+00 0. -1.
<mgrwt>
<rscale>  0 0.13718644E+03</rscale>
<asrwt>0</asrwt>
<pdfrwt beam="1">  1        1 0.23706770E-01 0.14564812E+03</pdfrwt>
<pdfrwt beam="2">  1       -1 0.17297244E-01 0.14564812E+03</pdfrwt>
<totfact> 0.50221658E+03</totfact>
</mgrwt>
</event>
<event>
 6    1  0.9263730E-006  0.2330331E+03  0.7546771E-02  0.1159828E+00
          1   -1    0    0  501    0  0.00000000000E+00  0.00000000000E+00  0.32638343524E+03  0.32638343524E+03  0.00000000000E+00 0. -1.
         -1   -1    0    0    0  501 -0.00000000000E+00 -0.00000000000E+00 -0.10215525639E+03  0.10215525639E+03  0.00000000000E+00 0.  1.
          5    1    1    2  502    0 -0.10038179342E+03  0.41857759785E+02  0.20099471464E+03  0.22858158679E+03  0.47000000000E+01 0. -1.
         -5    1    1    2    0  502  0.73431789037E+02 -0.60322116036E+02  0.30564090821E+02  0.99936174491E+02  0.47000000000E+01 0.  1.
        -11    1    1    2    0    0 -0.21551170647E+02  0.10303369607E+02  0.29947044818E+02  0.38307151745E+02  0.00000000000E+00 0. -1.
         11    1    1    2    0    0  0.48501175028E+02  0.81609866441E+01 -0.37277671437E+02  0.61713778607E+02  0.00000000000E+00 0.  1.
<mgrwt>
<rscale>  0 0.18849229E+03</rscale>
<asrwt>0</asrwt>
<pdfrwt beam="1">  1        1 0.50212836E-01 0.23303313E+03</pdfrwt>
<pdfrwt beam="2">  1       -1 0.15716193E-01 0.23303313E+03</pdfrwt>
<totfact> 0.23302032E+03</totfact>
</mgrwt>
</event>
<event>
 6    1  0.9263730E-006  0.1559476E+03  0.7546771E-02  0.1201704E+00
          1   -1    0    0  501    0  0.00000000000E+00  0.00000000000E+00  0.40233372311E+03  0.40233372311E+03  0.00000000000E+00 0. -1.
         -1   -1    0    0    0  501 -0.00000000000E+00 -0.00000000000E+00 -0.71676787697E+02  0.71676787697E+02  0.00000000000E+00 0.  1.
          5    1    1    2  502    0  0.90293911860E+02 -0.53179367008E+02  0.27725311691E+03  0.29643281942E+03  0.47000000000E+01 0. -1.
         -5    1    1    2    0  502 -0.30802343368E+02 -0.18622976586E+02  0.26268573045E+02  0.44807672822E+02  0.47000000000E+01 0. -1.
        -11    1    1    2    0    0 -0.24359776957E+02 -0.18964983482E+02 -0.26501005268E+01  0.30985357263E+02  0.00000000000E+00 0.  1.
         11    1    1    2    0    0 -0.35131791535E+02  0.90767327076E+02  0.29785345987E+02  0.10178466130E+03  0.00000000000E+00 0. -1.
<mgrwt>
<rscale>  0 0.14900222E+03</rscale>
<asrwt>0</asrwt>
<pdfrwt beam="1">  1        1 0.61897495E-01 0.15594761E+03</pdfrwt>
<pdfrwt beam="2">  1       -1 0.11027198E-01 0.15594761E+03</pdfrwt>
<totfact> 0.30734033E+03</totfact>
</mgrwt>
</event>
<event>
 6    1  0.9263730E-006  0.2344997E+03  0.7546771E-02  0.1157892E+00
         -2   -1    0    0    0  501 -0.00000000000E+00  0.00000000000E+00  0.24285196717E+02  0.24285196717E+02  0.00000000000E+00 0.  1.
          2   -1    0    0  501    0  0.00000000000E+00 -0.00000000000E+00 -0.18532162266E+04  0.18532162266E+04  0.00000000000E+00 0. -1.
          5    1    1    2  502    0  0.63652881099E+02  0.34652924274E+02 -0.14528026659E+04  0.14546168535E+04  0.47000000000E+01 0. -1.
         -5    1    1    2    0  502 -0.82608044906E+02  0.26275311576E+01 -0.22996651226E+03  0.24441292880E+03  0.47000000000E+01 0.  1.
        -11    1    1    2    0    0  0.50673706624E+02  0.30315895219E+01 -0.80140002628E+02  0.94865352470E+02  0.00000000000E+00 0.  1.
         11    1    1    2    0    0 -0.31718542817E+02 -0.40312044954E+02 -0.66021849079E+02  0.83606288535E+02  0.00000000000E+00 0. -1.
<mgrwt>
<rscale>  0 0.19063279E+03</rscale>
<asrwt>0</asrwt>
<pdfrwt beam="2">  1        2 0.28511030E+00 0.23449967E+03</pdfrwt>
<pdfrwt beam="1">  1       -2 0.37361827E-02 0.23449967E+03</pdfrwt>
<totfact> 0.27047250E+03</totfact>
</mgrwt>
</event>
<event>
 6    1  0.1368617E-005  0.1969843E+03  0.7546771E-02  0.1156737E+00
         -1   -1    0    0    0  501 -0.00000000000E+00  0.00000000000E+00  0.18741974433E+02  0.18741974433E+02  0.00000000000E+00 0.  1.
          1   -1    0    0  501    0  0.00000000000E+00 -0.00000000000E+00 -0.23777619143E+04  0.23777619143E+04  0.00000000000E+00 0. -1.
          5    1    1    2  502    0  0.76170552136E+02  0.11204858388E+03 -0.11068580646E+04  0.11151294558E+04  0.47000000000E+01 0.  1.
         -5    1    1    2    0  502 -0.45803150542E+02  0.37135466351E+02 -0.67361401732E+03  0.67620625980E+03  0.47000000000E+01 0.  1.
        -11    1    1    2    0    0 -0.38320000052E+02 -0.31138754057E+02 -0.27462530779E+03  0.27902885887E+03  0.00000000000E+00 0. -1.
         11    1    1    2    0    0  0.79525984584E+01 -0.11804529617E+03 -0.30392255020E+03  0.32613931424E+03  0.00000000000E+00 0.  1.
<mgrwt>
<rscale>  0 0.19192488E+03</rscale>
<asrwt>0</asrwt>
<pdfrwt beam="2">  1        1 0.36580943E+00 0.19698429E+03</pdfrwt>
<pdfrwt beam="1">  1       -1 0.28833814E-02 0.19698429E+03</pdfrwt>
<totfact> 0.77206836E+02</totfact>
</mgrwt>
</event>
<event>
 6    1  0.9263730E-006  0.4608465E+03  0.7546771E-02  0.1024536E+00
          1   -1    0    0  501    0  0.00000000000E+00  0.00000000000E+00  0.73375910887E+03  0.73375910887E+03  0.00000000000E+00 0. -1.
         -1   -1    0    0    0  501 -0.00000000000E+00 -0.00000000000E+00 -0.72360076876E+02  0.72360076876E+02  0.00000000000E+00 0.  1.
          5    1    1    2  502    0 -0.10201564294E+03  0.91382609751E+02  0.60388287136E+03  0.61923709925E+03  0.47000000000E+01 0.  1.
         -5    1    1    2    0  502  0.98773699849E+01 -0.18201857374E+02  0.25737720445E+02  0.33367503703E+02  0.47000000000E+01 0.  1.
        -11    1    1    2    0    0  0.21635662204E+02 -0.54285068897E+02 -0.22431357307E+02  0.62595018770E+02  0.00000000000E+00 0.  1.
         11    1    1    2    0    0  0.70502610751E+02 -0.18895683480E+02  0.54209797495E+02  0.90919564019E+02  0.00000000000E+00 0. -1.
<mgrwt>
<rscale>  0 0.46084646E+03</rscale>
<asrwt>0</asrwt>
<pdfrwt beam="1">  1        1 0.11288601E+00 0.46084646E+03</pdfrwt>
<pdfrwt beam="2">  1       -1 0.11132320E-01 0.46084646E+03</pdfrwt>
<totfact> 0.13557919E+03</totfact>
</mgrwt>
</event>
<event>
 6    1  0.9263730E-006  0.1256021E+03  0.7546771E-02  0.1249382E+00
          1   -1    0    0  501    0  0.00000000000E+00  0.00000000000E+00  0.60239074488E+03  0.60239074488E+03  0.00000000000E+00 0. -1.
         -1   -1    0    0    0  501 -0.00000000000E+00 -0.00000000000E+00 -0.26579001683E+02  0.26579001683E+02  0.00000000000E+00 0.  1.
          5    1    1    2  502    0  0.60594723104E+02 -0.27125745446E+02  0.32017890935E+03  0.32702316512E+03  0.47000000000E+01 0.  1.
         -5    1    1    2    0  502 -0.48307445573E+02  0.26524911799E+02  0.15908820684E+03  0.16842899928E+03  0.47000000000E+01 0.  1.
        -11    1    1    2    0    0  0.82050917619E+00  0.17548373353E+02 -0.13027235854E+02  0.21870699958E+02  0.00000000000E+00 0.  1.
         11    1    1    2    0    0 -0.13107786707E+02 -0.16947539707E+02  0.10957186287E+03  0.11164688221E+03  0.00000000000E+00 0. -1.
<mgrwt>
<rscale>  0 0.11626895E+03</rscale>
<asrwt>0</asrwt>
<pdfrwt beam="1">  1        1 0.92675489E-01 0.12560206E+03</pdfrwt>
<pdfrwt beam="2">  1       -1 0.40890776E-02 0.12560206E+03</pdfrwt>
<totfact> 0.79435421E+03</totfact>
</mgrwt>
</event>
<event>
 6    1  0.9263730E-006  0.1291097E+03  0.7546771E-02  0.1242279E+00
         -2   -1    0    0    0  501 -0.00000000000E+00  0.00000000000E+00  0.10502589727E+03  0.10502589727E+03  0.00000000000E+00 0. -1.
          2   -1    0    0  501    0  0.00000000000E+00 -0.00000000000E+00 -0.12696096784E+03  0.12696096784E+03  0.00000000000E+00 0.  1.
          5    1    1    2  502    0  0.84748521088E+01  0.77429531481E+02 -0.26713539812E+02  0.82479443942E+02  0.47000000000E+01 0. -1.
         -5    1    1    2    0  502  0.78623377052E+01 -0.49601322645E+02 -0.66934116215E+01  0.50882210265E+02  0.47000000000E+01 0. -1.
        -11    1    1    2    0    0 -0.84626556127E+01 -0.61814606324E+02  0.12893508614E+02  0.63709533505E+02  0.00000000000E+00 0.  1.
         11    1    1    2    0    0 -0.78745342014E+01  0.33986397487E+02 -0.14216277521E+01  0.34915677403E+02  0.00000000000E+00 0. -1.
<mgrwt>
<rscale>  0 0.12049709E+03</rscale>
<asrwt>0</asrwt>
<pdfrwt beam="2">  1        2 0.19532457E-01 0.12910967E+03</pdfrwt>
<pdfrwt beam="1">  1       -2 0.16157830E-01 0.12910967E+03</pdfrwt>
<totfact> 0.81164677E+03</totfact>
</mgrwt>
</event>
<event>
 6    1  0.9263730E-006  0.1720908E+03  0.7546771E-02  0.1182023E+00
         -2   -1    0    0    0  501 -0.00000000000E+00  0.00000000000E+00  0.75354940245E+02  0.75354940245E+02  0.00000000000E+00 0. -1.
          2   -1    0    0  501    0  0.00000000000E+00 -0.00000000000E+00 -0.34322897766E+03  0.34322897766E+03  0.00000000000E+00 0.  1.
          5    1    1    2  502    0  0.86945536730E+02 -0.57447763818E+02 -0.72449138694E+02  0.12700684872E+03  0.47000000000E+01 0.  1.
         -5    1    1    2    0  502 -0.39458619242E+02 -0.50876786905E+02 -0.80855743136E+02  0.10346579762E+03  0.47000000000E+01 0.  1.
        -11    1    1    2    0    0 -0.28306175262E+02  0.32690149705E+02 -0.99706643397E+02  0.10867980577E+03  0.00000000000E+00 0.  1.
         11    1    1    2    0    0 -0.19180742226E+02  0.75634401018E+02 -0.14862512191E+02  0.79431465795E+02  0.00000000000E+00 0. -1.
<mgrwt>
<rscale>  0 0.16605745E+03</rscale>
<asrwt>0</asrwt>
<pdfrwt beam="2">  1        2 0.52804459E-01 0.17209083E+03</pdfrwt>
<pdfrwt beam="1">  1       -2 0.11593067E-01 0.17209083E+03</pdfrwt>
<totfact> 0.48037977E+03</totfact>
</mgrwt>
</event>
<event>
 6    1  0.9263730E-006  0.1529628E+03  0.7546771E-02  0.1205645E+00
          2   -1    0    0  501    0  0.00000000000E+00  0.00000000000E+00  0.18323137021E+04  0.18323137021E+04  0.00000000000E+00 0. -1.
         -2   -1    0    0    0  501 -0.00000000000E+00 -0.00000000000E+00 -0.14762686286E+02  0.14762686286E+02  0.00000000000E+00 0.  1.
          5    1    1    2  502    0  0.71649312388E+02  0.37396025267E+02  0.51353534283E+03  0.51987760579E+03  0.47000000000E+01 0.  1.
         -5    1    1    2    0  502  0.14959787762E+02 -0.53876516007E+02  0.94291613709E+03  0.94458425024E+03  0.47000000000E+01 0.  1.
        -11    1    1    2    0    0 -0.37305876716E+02  0.52233582993E+02  0.15676317868E+03  0.16939530637E+03  0.00000000000E+00 0. -1.
         11    1    1    2    0    0 -0.49303223434E+02 -0.35753092253E+02  0.20433635718E+03  0.21321922595E+03  0.00000000000E+00 0.  1.
<mgrwt>
<rscale>  0 0.14586724E+03</rscale>
<asrwt>0</asrwt>
<pdfrwt beam="1">  1        2 0.28189424E+00 0.15296279E+03</pdfrwt>
<pdfrwt beam="2">  1       -2 0.22711840E-02 0.15296279E+03</pdfrwt>
<totfact> 0.57796308E+03</totfact>
</mgrwt>
</event>
<event>
 6    1  0.9263730E-006  0.1400518E+03  0.7546771E-02  0.1224295E+00
         -3   -1    0    0    0  501 -0.00000000000E+00  0.00000000000E+00  0.32315497666E+02  0.32315497666E+02  0.00000000000E+00 0.  1.
          3   -1    0    0  501    0  0.00000000000E+00 -0.00000000000E+00 -0.53474308942E+03  0.53474308942E+03  0.00000000000E+00 0. -1.
          5    1    1    2  502    0  0.65048670845E+02 -0.22320496961E+02 -0.10190666282E+03  0.12303085829E+03  0.47000000000E+01 0.  1.
         -5    1    1    2    0  502 -0.37849816423E+02 -0.34677370495E+02 -0.25935585380E+03  0.26442896499E+03  0.47000000000E+01 0.  1.
        -11    1    1    2    0    0 -0.37958184145E+02 -0.84521108493E+01 -0.81844632622E+02  0.90613496845E+02  0.00000000000E+00 0. -1.
         11    1    1    2    0    0  0.10759329724E+02  0.65449978305E+02 -0.59320442509E+02  0.88985266959E+02  0.00000000000E+00 0.  1.
<mgrwt>
<rscale>  0 0.13215352E+03</rscale>
<asrwt>0</asrwt>
<pdfrwt beam="2">  1        3 0.82268171E-01 0.14005181E+03</pdfrwt>
<pdfrwt beam="1">  1       -3 0.49716148E-02 0.14005181E+03</pdfrwt>
<totfact> 0.75056448E+02</totfact>
</mgrwt>
</event>
<event>
 6    1  0.9263730E-006  0.1821372E+03  0.7546771E-02  0.1171065E+00
          1   -1    0    0  501    0  0.00000000000E+00  0.00000000000E+00  0.82311946965E+03  0.82311946965E+03  0.00000000000E+00 0. -1.
         -1   -1    0    0    0  501 -0.00000000000E+00 -0.00000000000E+00 -0.40392544717E+02  0.40392544717E+02  0.00000000000E+00 0.  1.
          5    1    1    2  502    0  0.14828005461E+02  0.40632104305E+02  0.21493273121E+03  0.21929205774E+03  0.47000000000E+01 0.  1.
         -5    1    1    2    0  502  0.11536536809E+03 -0.64490321730E+02  0.34273733944E+03  0.36736785869E+03  0.47000000000E+01 0.  1.
        -11    1    1    2    0    0 -0.10376472224E+03  0.23535930963E+02  0.22664092686E+03  0.25037405488E+03  0.00000000000E+00 0. -1.
         11    1    1    2    0    0 -0.26428651309E+02  0.32228646220E+00 -0.15840725635E+01  0.26478043063E+02  0.00000000000E+00 0.  1.
<mgrwt>
<rscale>  0 0.17667020E+03</rscale>
<asrwt>0</asrwt>
<pdfrwt beam="1">  1        1 0.12663375E+00 0.18213717E+03</pdfrwt>
<pdfrwt beam="2">  1       -1 0.62142383E-02 0.18213717E+03</pdfrwt>
<totfact> 0.27648580E+03</totfact>
</mgrwt>
</event>
<event>
 6    1  0.9263730E-006  0.1490382E+03  0.7546771E-02  0.1210430E+00
          2   -1    0    0  501    0  0.00000000000E+00  0.00000000000E+00  0.43408426870E+03  0.43408426870E+03  0.00000000000E+00 0. -1.
         -2   -1    0    0    0  501 -0.00000000000E+00 -0.00000000000E+00 -0.45196309361E+02  0.45196309361E+02  0.00000000000E+00 0.  1.
          5    1    1    2  502    0 -0.56590273169E+02  0.66944043057E+02  0.14734848067E+03  0.17151568055E+03  0.47000000000E+01 0.  1.
         -5    1    1    2    0  502  0.59044772006E+02  0.14183016855E+02  0.11983354056E+03  0.13442325138E+03  0.47000000000E+01 0.  1.
        -11    1    1    2    0    0 -0.29167159239E+02 -0.65543935909E+02  0.12299557374E+03  0.14238905109E+03  0.00000000000E+00 0. -1.
         11    1    1    2    0    0  0.26712660402E+02 -0.15583124003E+02 -0.12896356299E+01  0.30952595037E+02  0.00000000000E+00 0.  1.
<mgrwt>
<rscale>  0 0.14217674E+03</rscale>
<asrwt>0</asrwt>
<pdfrwt beam="1">  1        2 0.66782192E-01 0.14903824E+03</pdfrwt>
<pdfrwt beam="2">  1       -2 0.69532787E-02 0.14903824E+03</pdfrwt>
<totfact> 0.82406469E+03</totfact>
</mgrwt>
</event>
<event>
 6    1  0.9263730E-006  0.3298922E+03  0.7546771E-02  0.1071185E+00
          2   -1    0    0  501    0  0.00000000000E+00  0.00000000000E+00  0.25629225330E+04  0.25629225330E+04  0.00000000000E+00 0. -1.
         -2   -1    0    0    0  501 -0.00000000000E+00 -0.00000000000E+00 -0.10615699515E+02  0.10615699515E+02  0.00000000000E+00 0.  1.
          5    1    1    2  502    0  0.11048758920E+02 -0.65053452242E+00  0.18395929607E+02  0.21977226735E+02  0.47000000000E+01 0.  1.
         -5    1    1    2    0  502 -0.59779164441E+02 -0.77703381161E+02  0.19902496464E+04  0.19926683389E+04  0.47000000000E+01 0.  1.
        -11    1    1    2    0    0  0.59825679651E+02  0.14845035095E+02  0.33035094060E+03  0.33605242295E+03  0.00000000000E+00 0. -1.
         11    1    1    2    0    0 -0.11095274131E+02  0.63508880588E+02  0.21331031691E+03  0.22284024395E+03  0.00000000000E+00 0.  1.
<mgrwt>
<rscale>  0 0.32989220E+03</rscale>
<asrwt>0</asrwt>
<pdfrwt beam="1">  1        2 0.39429528E+00 0.32989220E+03</pdfrwt>
<pdfrwt beam="2">  1       -2 0.16331866E-02 0.32989220E+03</pdfrwt>
<totfact> 0.38454966E+03</totfact>
</mgrwt>
</event>
<event>
 6    1  0.9263730E-006  0.3121398E+03  0.7546771E-02  0.1079325E+00
          1   -1    0    0  501    0  0.00000000000E+00  0.00000000000E+00  0.10079930827E+04  0.10079930827E+04  0.00000000000E+00 0. -1.
         -1   -1    0    0    0  501 -0.00000000000E+00 -0.00000000000E+00 -0.24164658023E+02  0.24164658023E+02  0.00000000000E+00 0.  1.
          5    1    1    2  502    0 -0.36359984743E+01  0.25667403963E+01  0.35540313520E+03  0.35546207555E+03  0.47000000000E+01 0. -1.
         -5    1    1    2    0  502  0.70209815498E+02 -0.86175331590E+02  0.29122136955E+03  0.31174922943E+03  0.47000000000E+01 0. -1.
        -11    1    1    2    0    0 -0.26214980463E+02  0.66969444327E+02  0.29705527709E+03  0.30563698945E+03  0.00000000000E+00 0. -1.
         11    1    1    2    0    0 -0.40358836561E+02  0.16639146866E+02  0.40148642798E+02  0.59309446259E+02  0.00000000000E+00 0.  1.
<mgrwt>
<rscale>  0 0.31213976E+03</rscale>
<asrwt>0</asrwt>
<pdfrwt beam="1">  1        1 0.15507583E+00 0.31213976E+03</pdfrwt>
<pdfrwt beam="2">  1       -1 0.37176405E-02 0.31213976E+03</pdfrwt>
<totfact> 0.43350172E+03</totfact>
</mgrwt>
</event>
<event>
 6    1  0.9263730E-006  0.1587562E+03  0.7546771E-02  0.1197823E+00
          1   -1    0    0  501    0  0.00000000000E+00  0.00000000000E+00  0.16888032331E+04  0.16888032331E+04  0.00000000000E+00 0. -1.
         -1   -1    0    0    0  501 -0.00000000000E+00 -0.00000000000E+00 -0.13121962828E+02  0.13121962828E+02  0.00000000000E+00 0.  1.
          5    1    1    2  502    0 -0.76193823804E+02  0.90728439521E+01  0.41056080873E+03  0.41769616104E+03  0.47000000000E+01 0. -1.
         -5    1    1    2    0  502  0.64985582813E+01 -0.77750357961E+02  0.64955831630E+03  0.65424417896E+03  0.47000000000E+01 0. -1.
        -11    1    1    2    0    0 -0.78246992172E+01  0.48221178415E+02  0.15562760852E+03  0.16311486903E+03  0.00000000000E+00 0.  1.
         11    1    1    2    0    0  0.77519964740E+02  0.20456335595E+02  0.45993453676E+03  0.46686998694E+03  0.00000000000E+00 0. -1.
<mgrwt>
<rscale>  0 0.15217696E+03</rscale>
<asrwt>0</asrwt>
<pdfrwt beam="1">  1        1 0.25981571E+00 0.15875621E+03</pdfrwt>
<pdfrwt beam="2">  1       -1 0.20187648E-02 0.15875621E+03</pdfrwt>
<totfact> 0.36116493E+03</totfact>
</mgrwt>
</event>
<event>
 6    1  0.9263730E-006  0.2360504E+03  0.7546771E-02  0.1125345E+00
          2   -1    0    0  501    0  0.00000000000E+00  0.00000000000E+00  0.66765226564E+03  0.66765226564E+03  0.00000000000E+00 0.  1.
         -2   -1    0    0    0  501 -0.00000000000E+00 -0.00000000000E+00 -0.93493696873E+02  0.93493696873E+02  0.00000000000E+00 0. -1.
          5    1    1    2  502    0 -0.99209327944E+02 -0.11272991470E+03  0.19233199623E+03  0.24405780298E+03  0.47000000000E+01 0.  1.
         -5    1    1    2    0  502 -0.78184547099E+01 -0.56502011084E+02  0.25929999513E+03  0.26554130180E+03  0.47000000000E+01 0.  1.
        -11    1    1    2    0    0  0.69785356116E+02  0.13493558266E+03  0.13053089955E+03  0.20028959816E+03  0.00000000000E+00 0. -1.
         11    1    1    2    0    0  0.37242426538E+02  0.34296343125E+02 -0.80043221394E+01  0.51257259575E+02  0.00000000000E+00 0.  1.
<mgrwt>
<rscale>  0 0.23184910E+03</rscale>
<asrwt>0</asrwt>
<pdfrwt beam="1">  1        2 0.10271573E+00 0.23605040E+03</pdfrwt>
<pdfrwt beam="2">  1       -2 0.14383646E-01 0.23605040E+03</pdfrwt>
<totfact> 0.16278104E+03</totfact>
</mgrwt>
</event>
<event>
 6    1  0.9263730E-006  0.2507247E+03  0.7546771E-02  0.1112848E+00
          2   -1    0    0  501    0  0.00000000000E+00  0.00000000000E+00  0.53270178828E+02  0.53270178828E+02  0.00000000000E+00 0.  1.
         -2   -1    0    0    0  501 -0.00000000000E+00 -0.00000000000E+00 -0.29501916852E+03  0.29501916852E+03  0.00000000000E+00 0. -1.
          5    1    1    2  502    0  0.61253818999E+02  0.75356888171E+02 -0.73773922594E+02  0.12204660008E+03  0.47000000000E+01 0. -1.
         -5    1    1    2    0  502 -0.34687833911E+02 -0.21895757767E+02 -0.32761096434E+02  0.52707205098E+02  0.47000000000E+01 0. -1.
        -11    1    1    2    0    0  0.13455494299E+02 -0.46596171893E+02 -0.21993695345E+02  0.53253884336E+02  0.00000000000E+00 0.  1.
         11    1    1    2    0    0 -0.40021479387E+02 -0.68649585104E+01 -0.11322027532E+03  0.12028165783E+03  0.00000000000E+00 0. -1.
<mgrwt>
<rscale>  0 0.25072474E+03</rscale>
<asrwt>0</asrwt>
<pdfrwt beam="1">  1        2 0.81954123E-02 0.25072474E+03</pdfrwt>
<pdfrwt beam="2">  1       -2 0.45387563E-01 0.25072474E+03</pdfrwt>
<totfact> 0.38042531E+03</totfact>
</mgrwt>
</event>
<event>
 6    1  0.9263730E-006  0.1322032E+03  0.7546771E-02  0.1238192E+00
          1   -1    0    0  501    0  0.00000000000E+00  0.00000000000E+00  0.77348575119E+02  0.77348575119E+02  0.00000000000E+00 0. -1.
         -1   -1    0    0    0  501 -0.00000000000E+00 -0.00000000000E+00 -0.17503123388E+03  0.17503123388E+03  0.00000000000E+00 0.  1.
          5    1    1    2  502    0 -0.59450573593E+02  0.56749250313E+02 -0.24853517986E+02  0.85992066308E+02  0.47000000000E+01 0. -1.
         -5    1    1    2    0  502  0.17705300407E+02 -0.46363803652E+02 -0.17337908945E+02  0.52780422869E+02  0.47000000000E+01 0. -1.
        -11    1    1    2    0    0 -0.20602151283E+02  0.13761065939E+02 -0.36478788667E+02  0.44096684636E+02  0.00000000000E+00 0.  1.
         11    1    1    2    0    0  0.62347424469E+02 -0.24146512599E+02 -0.19012443159E+02  0.69510635183E+02  0.00000000000E+00 0. -1.
<mgrwt>
<rscale>  0 0.12302292E+03</rscale>
<asrwt>0</asrwt>
<pdfrwt beam="1">  1        1 0.11899781E-01 0.13220320E+03</pdfrwt>
<pdfrwt beam="2">  1       -1 0.26927882E-01 0.13220320E+03</pdfrwt>
<totfact> 0.59139671E+03</totfact>
</mgrwt>
</event>
<event>
 6    1  0.9263730E-006  0.1345687E+03  0.7546771E-02  0.1233189E+00
         -3   -1    0    0    0  501 -0.00000000000E+00  0.00000000000E+00  0.42150223484E+02  0.42150223484E+02  0.00000000000E+00 0.  1.
          3   -1    0    0  501    0  0.00000000000E+00 -0.00000000000E+00 -0.41003896140E+03  0.41003896140E+03  0.00000000000E+00 0. -1.
          5    1    1    2  502    0 -0.17871366714E+02 -0.63342539777E+02 -0.17731403655E+03  0.18919307770E+03  0.47000000000E+01 0.  1.
         -5    1    1    2    0  502  0.57435656611E+02  0.33053198138E+02 -0.12014349379E+03  0.13728771852E+03  0.47000000000E+01 0.  1.
        -11    1    1    2    0    0 -0.64703997994E+02  0.41081626424E+02 -0.54552513722E+02  0.94075948783E+02  0.00000000000E+00 0. -1.
         11    1    1    2    0    0  0.25139708096E+02 -0.10792284785E+02 -0.15878693861E+02  0.31632439880E+02  0.00000000000E+00 0.  1.
<mgrwt>
<rscale>  0 0.12621090E+03</rscale>
<asrwt>0</asrwt>
<pdfrwt beam="2">  1        3 0.63082919E-01 0.13456867E+03</pdfrwt>
<pdfrwt beam="1">  1       -3 0.64846496E-02 0.13456867E+03</pdfrwt>
<totfact> 0.85953329E+02</totfact>
</mgrwt>
</event>
<event>
 6    1  0.9263730E-006  0.3970748E+03  0.7546771E-02  0.1044797E+00
         -2   -1    0    0    0  501 -0.00000000000E+00  0.00000000000E+00  0.15524388346E+03  0.15524388346E+03  0.00000000000E+00 0.  1.
          2   -1    0    0  501    0  0.00000000000E+00 -0.00000000000E+00 -0.25390430816E+03  0.25390430816E+03  0.00000000000E+00 0. -1.
          5    1    1    2  502    0  0.72218613360E+02 -0.82412453353E+02 -0.25600237550E+02  0.11262682960E+03  0.47000000000E+01 0.  1.
         -5    1    1    2    0  502  0.19625660522E+02 -0.19473785076E+02 -0.12007017908E+03  0.12330179545E+03  0.47000000000E+01 0.  1.
        -11    1    1    2    0    0 -0.56952850298E+02  0.12799740384E+02 -0.13632408516E+02  0.59944166296E+02  0.00000000000E+00 0. -1.
         11    1    1    2    0    0 -0.34891423584E+02  0.89086498045E+02  0.60642400447E+02  0.11327540027E+03  0.00000000000E+00 0.  1.
<mgrwt>
<rscale>  0 0.39707476E+03</rscale>
<asrwt>0</asrwt>
<pdfrwt beam="2">  1        2 0.39062201E-01 0.39707476E+03</pdfrwt>
<pdfrwt beam="1">  1       -2 0.23883674E-01 0.39707476E+03</pdfrwt>
<totfact> 0.20347621E+03</totfact>
</mgrwt>
</event>
<event>
 6    1  0.9263730E-006  0.1609368E+03  0.7546771E-02  0.1195223E+00
         -1   -1    0    0    0  501 -0.00000000000E+00  0.00000000000E+00  0.35737652403E+02  0.35737652403E+02  0.00000000000E+00 0.  1.
          1   -1    0    0  501    0  0.00000000000E+00 -0.00000000000E+00 -0.68993681105E+03  0.68993681105E+03  0.00000000000E+00 0. -1.
          5    1    1    2  502    0 -0.58780632506E+02 -0.91323609430E+02 -0.40313849737E+03  0.41753790542E+03  0.47000000000E+01 0.  1.
         -5    1    1    2    0  502 -0.24787009129E+02  0.33947236051E+02 -0.65541140322E+02  0.78003472562E+02  0.47000000000E+01 0.  1.
        -11    1    1    2    0    0  0.76138531777E+02  0.74878269562E+02 -0.11431814928E+03  0.15643679404E+03  0.00000000000E+00 0. -1.
         11    1    1    2    0    0  0.74291098582E+01 -0.17501896183E+02 -0.71201371671E+02  0.73696291434E+02  0.00000000000E+00 0.  1.
<mgrwt>
<rscale>  0 0.15435340E+03</rscale>
<asrwt>0</asrwt>
<pdfrwt beam="2">  1        1 0.10614412E+00 0.16093680E+03</pdfrwt>
<pdfrwt beam="1">  1       -1 0.54981009E-02 0.16093680E+03</pdfrwt>
<totfact> 0.42985529E+03</totfact>
</mgrwt>
</event>
<event>
 6    1  0.9263730E-006  0.1359925E+03  0.7546771E-02  0.1228192E+00
         -1   -1    0    0    0  501 -0.00000000000E+00  0.00000000000E+00  0.36518822462E+02  0.36518822462E+02  0.00000000000E+00 0.  1.
          1   -1    0    0  501    0  0.00000000000E+00 -0.00000000000E+00 -0.42104837863E+03  0.42104837863E+03  0.00000000000E+00 0. -1.
          5    1    1    2  502    0 -0.24362851407E+02 -0.51008219836E+02 -0.78761524020E+02  0.97061087390E+02  0.47000000000E+01 0.  1.
         -5    1    1    2    0  502  0.73331436093E+02  0.29296003897E+02 -0.12385941460E+03  0.14696598228E+03  0.47000000000E+01 0.  1.
        -11    1    1    2    0    0 -0.32476241079E+02 -0.19400203804E+02 -0.14736208083E+02  0.40598398625E+02  0.00000000000E+00 0.  1.
         11    1    1    2    0    0 -0.16492343608E+02  0.41112419742E+02 -0.16717240947E+03  0.17294173279E+03  0.00000000000E+00 0. -1.
<mgrwt>
<rscale>  0 0.12950530E+03</rscale>
<asrwt>0</asrwt>
<pdfrwt beam="2">  1        1 0.64776674E-01 0.13599252E+03</pdfrwt>
<pdfrwt beam="1">  1       -1 0.56182803E-02 0.13599252E+03</pdfrwt>
<totfact> 0.79796448E+03</totfact>
</mgrwt>
</event>
<event>
 6    1  0.9263730E-006  0.1259616E+03  0.7546771E-02  0.1248785E+00
         -1   -1    0    0    0  501 -0.00000000000E+00  0.00000000000E+00  0.40622879006E+02  0.40622879006E+02  0.00000000000E+00 0.  1.
          1   -1    0    0  501    0  0.00000000000E+00 -0.00000000000E+00 -0.67253717063E+03  0.67253717063E+03  0.00000000000E+00 0. -1.
          5    1    1    2  502    0  0.36638458618E+02 -0.40946402142E+02 -0.28096360304E+03  0.28632432787E+03  0.47000000000E+01 0.  1.
         -5    1    1    2    0  502 -0.48133898124E+02  0.51481820623E+02 -0.32231736109E+03  0.32996639414E+03  0.47000000000E+01 0.  1.
        -11    1    1    2    0    0 -0.17816792707E+02 -0.12851968923E+02  0.26477881637E+02  0.34404787800E+02  0.00000000000E+00 0.  1.
         11    1    1    2    0    0  0.29312232213E+02  0.23165504418E+01 -0.55111209124E+02  0.62464539816E+02  0.00000000000E+00 0. -1.
<mgrwt>
<rscale>  0 0.11661704E+03</rscale>
<asrwt>0</asrwt>
<pdfrwt beam="2">  1        1 0.10346726E+00 0.12596163E+03</pdfrwt>
<pdfrwt beam="1">  1       -1 0.62496735E-02 0.12596163E+03</pdfrwt>
<totfact> 0.36462972E+03</totfact>
</mgrwt>
</event>
<event>
 6    1  0.9263730E-006  0.1333065E+03  0.7546771E-02  0.1235838E+00
          4   -1    0    0  501    0  0.00000000000E+00  0.00000000000E+00  0.13852183562E+03  0.13852183562E+03  0.00000000000E+00 0. -1.
         -4   -1    0    0    0  501 -0.00000000000E+00 -0.00000000000E+00 -0.22213709327E+03  0.22213709327E+03  0.00000000000E+00 0.  1.
          5    1    1    2  502    0  0.42316545727E+02  0.48320765044E+01  0.10740923668E+03  0.11564113943E+03  0.47000000000E+01 0.  1.
         -5    1    1    2    0  502 -0.11029654120E+02 -0.38984903410E+02 -0.18301579358E+02  0.44704739915E+02  0.47000000000E+01 0.  1.
        -11    1    1    2    0    0  0.27867840280E+02  0.29176121768E+02 -0.88591053387E+02  0.97345967269E+02  0.00000000000E+00 0. -1.
         11    1    1    2    0    0 -0.59154731887E+02  0.49767051373E+01 -0.84131861581E+02  0.10296708227E+03  0.00000000000E+00 0.  1.
<mgrwt>
<rscale>  0 0.12450924E+03</rscale>
<asrwt>0</asrwt>
<pdfrwt beam="1">  1        4 0.21311052E-01 0.13330651E+03</pdfrwt>
<pdfrwt beam="2">  1       -4 0.34174937E-01 0.13330651E+03</pdfrwt>
<totfact> 0.27633427E+02</totfact>
</mgrwt>
</event>
<event>
 6    1  0.9263730E-006  0.3551780E+03  0.7546771E-02  0.1060510E+00
          2   -1    0    0  501    0  0.00000000000E+00  0.00000000000E+00  0.37682265550E+02  0.37682265550E+02  0.00000000000E+00 0. -1.
         -2   -1    0    0    0  501 -0.00000000000E+00 -0.00000000000E+00 -0.83694156108E+03  0.83694156108E+03  0.00000000000E+00 0.  1.
          5    1    1    2  502    0 -0.30888799346E+02 -0.39617295950E+02 -0.20425090330E+03  0.21039051680E+03  0.47000000000E+01 0. -1.
         -5    1    1    2    0  502 -0.10476269085E+03  0.39439251506E+02 -0.13205064477E+03  0.17317661141E+03  0.47000000000E+01 0. -1.
        -11    1    1    2    0    0  0.68786309998E+02  0.45903925045E+02 -0.22947358053E+03  0.24391976332E+03  0.00000000000E+00 0.  1.
         11    1    1    2    0    0  0.66865180202E+02 -0.45725880602E+02 -0.23348416694E+03  0.24713693510E+03  0.00000000000E+00 0. -1.
<mgrwt>
<rscale>  0 0.35517801E+03</rscale>
<asrwt>0</asrwt>
<pdfrwt beam="1">  1        2 0.57972717E-02 0.35517801E+03</pdfrwt>
<pdfrwt beam="2">  1       -2 0.12876024E+00 0.35517801E+03</pdfrwt>
<totfact> 0.60648603E+02</totfact>
</mgrwt>
</event>
<event>
 6    1  0.9263730E-006  0.1302253E+03  0.7546771E-02  0.1240728E+00
         -2   -1    0    0    0  501 -0.00000000000E+00  0.00000000000E+00  0.16649817843E+02  0.16649817843E+02  0.00000000000E+00 0.  1.
          2   -1    0    0  501    0  0.00000000000E+00 -0.00000000000E+00 -0.83731128058E+03  0.83731128058E+03  0.00000000000E+00 0. -1.
          5    1    1    2  502    0  0.68476158677E+01 -0.62574420773E+02 -0.40562635210E+03  0.41050855715E+03  0.47000000000E+01 0. -1.
         -5    1    1    2    0  502  0.27531806310E+02  0.50270952479E+02 -0.16326342787E+03  0.17309594421E+03  0.47000000000E+01 0. -1.
        -11    1    1    2    0    0 -0.12562639615E+02 -0.25038468171E+02 -0.19595178400E+02  0.34186485911E+02  0.00000000000E+00 0.  1.
         11    1    1    2    0    0 -0.21816782563E+02  0.37341936465E+02 -0.23217650436E+03  0.23617011115E+03  0.00000000000E+00 0. -1.
<mgrwt>
<rscale>  0 0.12144756E+03</rscale>
<asrwt>0</asrwt>
<pdfrwt beam="2">  1        2 0.12881712E+00 0.13022531E+03</pdfrwt>
<pdfrwt beam="1">  1       -2 0.25615105E-02 0.13022531E+03</pdfrwt>
<totfact> 0.17014244E+04</totfact>
</mgrwt>
</event>
<event>
 6    1  0.9263730E-006  0.1422334E+03  0.7546771E-02  0.1220857E+00
          1   -1    0    0  501    0  0.00000000000E+00  0.00000000000E+00  0.48405762789E+03  0.48405762789E+03  0.00000000000E+00 0. -1.
         -1   -1    0    0    0  501 -0.00000000000E+00 -0.00000000000E+00 -0.43609517928E+02  0.43609517928E+02  0.00000000000E+00 0.  1.
          5    1    1    2  502    0 -0.36140876627E+02  0.65028823722E+02  0.14334505006E+03  0.16156981232E+03  0.47000000000E+01 0.  1.
         -5    1    1    2    0  502 -0.30790585785E+02 -0.53857603973E+02  0.21981771750E+03  0.22845266601E+03  0.47000000000E+01 0.  1.
        -11    1    1    2    0    0  0.44980606166E+02 -0.51093166930E+02  0.41631641705E+02  0.79793234231E+02  0.00000000000E+00 0. -1.
         11    1    1    2    0    0  0.21950856246E+02  0.39921947180E+02  0.35653700700E+02  0.57851433260E+02  0.00000000000E+00 0.  1.
<mgrwt>
<rscale>  0 0.13454927E+03</rscale>
<asrwt>0</asrwt>
<pdfrwt beam="1">  1        1 0.74470401E-01 0.14223339E+03</pdfrwt>
<pdfrwt beam="2">  1       -1 0.67091569E-02 0.14223339E+03</pdfrwt>
<totfact> 0.51341701E+03</totfact>
</mgrwt>
</event>
<event>
 6    1  0.9263730E-006  0.1477346E+03  0.7546771E-02  0.1209189E+00
         -1   -1    0    0    0  501 -0.00000000000E+00  0.00000000000E+00  0.80645061134E+02  0.80645061134E+02  0.00000000000E+00 0.  1.
          1   -1    0    0  501    0  0.00000000000E+00 -0.00000000000E+00 -0.37854635345E+03  0.37854635345E+03  0.00000000000E+00 0. -1.
          5    1    1    2  502    0  0.99107360968E+02  0.31614235697E+02 -0.27595051220E+03  0.29494491703E+03  0.47000000000E+01 0. -1.
         -5    1    1    2    0  502 -0.21405529266E+02 -0.18840312450E+02 -0.18015508819E+02  0.34055874888E+02  0.47000000000E+01 0. -1.
        -11    1    1    2    0    0  0.13484703980E+01  0.22501748166E+02  0.29730819773E+02  0.37310436708E+02  0.00000000000E+00 0.  1.
         11    1    1    2    0    0 -0.79050302100E+02 -0.35275671413E+02 -0.33666091067E+02  0.92880185957E+02  0.00000000000E+00 0. -1.
<mgrwt>
<rscale>  0 0.14312216E+03</rscale>
<asrwt>0</asrwt>
<pdfrwt beam="2">  1        1 0.58237900E-01 0.14773456E+03</pdfrwt>
<pdfrwt beam="1">  1       -1 0.12406933E-01 0.14773456E+03</pdfrwt>
<totfact> 0.27606373E+03</totfact>
</mgrwt>
</event>
<event>
 6    1  0.9263730E-006  0.1897104E+03  0.7546771E-02  0.1178872E+00
         -1   -1    0    0    0  501 -0.00000000000E+00  0.00000000000E+00  0.43103608614E+02  0.43103608614E+02  0.00000000000E+00 0.  1.
          1   -1    0    0  501    0  0.00000000000E+00 -0.00000000000E+00 -0.69531411216E+03  0.69531411216E+03  0.00000000000E+00 0. -1.
          5    1    1    2  502    0  0.21910303938E+02  0.87738272425E+02 -0.46751534205E+03  0.47620452635E+03  0.47000000000E+01 0. -1.
         -5    1    1    2    0  502  0.40513731950E+02 -0.51033247006E+02 -0.80230232720E+02  0.10346368937E+03  0.47000000000E+01 0.  1.
        -11    1    1    2    0    0 -0.34224506860E+02 -0.68747803367E+02 -0.69426432401E+02  0.10352587528E+03  0.00000000000E+00 0.  1.
         11    1    1    2    0    0 -0.28199529028E+02  0.32042777948E+02 -0.35038496373E+02  0.55223629762E+02  0.00000000000E+00 0. -1.
<mgrwt>
<rscale>  0 0.16902135E+03</rscale>
<asrwt>0</asrwt>
<pdfrwt beam="2">  1        1 0.10697140E+00 0.18971037E+03</pdfrwt>
<pdfrwt beam="1">  1       -1 0.66313247E-02 0.18971037E+03</pdfrwt>
<totfact> 0.32277633E+03</totfact>
</mgrwt>
</event>
<event>
 6    1  0.9263730E-006  0.2570908E+03  0.7546771E-02  0.1108904E+00
          2   -1    0    0  501    0  0.00000000000E+00  0.00000000000E+00  0.33432107099E+02  0.33432107099E+02  0.00000000000E+00 0. -1.
         -2   -1    0    0    0  501 -0.00000000000E+00 -0.00000000000E+00 -0.49425294842E+03  0.49425294842E+03  0.00000000000E+00 0.  1.
          5    1    1    2  502    0 -0.35461380773E+02  0.91170632240E+02 -0.11800295104E+03  0.15335051406E+03  0.47000000000E+01 0.  1.
         -5    1    1    2    0  502 -0.31999228595E+01 -0.38154133378E+02 -0.91301600928E+02  0.99116344425E+02  0.47000000000E+01 0.  1.
        -11    1    1    2    0    0  0.95944785157E+01 -0.38183853758E+02 -0.23568017120E+03  0.23894602696E+03  0.00000000000E+00 0.  1.
         11    1    1    2    0    0  0.29066825117E+02 -0.14832645103E+02 -0.15836118155E+02  0.36272170067E+02  0.00000000000E+00 0. -1.
<mgrwt>
<rscale>  0 0.25709078E+03</rscale>
<asrwt>0</asrwt>
<pdfrwt beam="1">  1        2 0.51434011E-02 0.25709078E+03</pdfrwt>
<pdfrwt beam="2">  1       -2 0.76038916E-01 0.25709078E+03</pdfrwt>
<totfact> 0.23994468E+03</totfact>
</mgrwt>
</event>
<event>
 6    1  0.9263730E-006  0.1216769E+03  0.7546771E-02  0.1251531E+00
         -1   -1    0    0    0  501 -0.00000000000E+00  0.00000000000E+00  0.90626125129E+02  0.90626125129E+02  0.00000000000E+00 0.  1.
          1   -1    0    0  501    0  0.00000000000E+00 -0.00000000000E+00 -0.13799807305E+03  0.13799807305E+03  0.00000000000E+00 0. -1.
          5    1    1    2  502    0 -0.33927179029E+02  0.51830217510E+02 -0.44214187311E+02  0.76252273957E+02  0.47000000000E+01 0. -1.
         -5    1    1    2    0  502  0.53266507741E-01 -0.54690627218E+02 -0.54221361738E+01  0.55159379108E+02  0.47000000000E+01 0.  1.
        -11    1    1    2    0    0  0.60622742296E+02  0.13540623108E+02  0.17627277609E+02  0.64569236278E+02  0.00000000000E+00 0. -1.
         11    1    1    2    0    0 -0.26748829774E+02 -0.10680213399E+02 -0.15362902043E+02  0.32643308836E+02  0.00000000000E+00 0.  1.
<mgrwt>
<rscale>  0 0.11502894E+03</rscale>
<asrwt>0</asrwt>
<pdfrwt beam="2">  1        1 0.21230473E-01 0.12167686E+03</pdfrwt>
<pdfrwt beam="1">  1       -1 0.13942481E-01 0.12167686E+03</pdfrwt>
<totfact> 0.79992685E+03</totfact>
</mgrwt>
</event>
<event>
 6    1  0.9263730E-006  0.1474600E+03  0.7546771E-02  0.1213150E+00
          2   -1    0    0  501    0  0.00000000000E+00  0.00000000000E+00  0.10663367205E+04  0.10663367205E+04  0.00000000000E+00 0. -1.
         -2   -1    0    0    0  501 -0.00000000000E+00 -0.00000000000E+00 -0.17723091393E+02  0.17723091393E+02  0.00000000000E+00 0.  1.
          5    1    1    2  502    0 -0.54520269139E+02 -0.52031483636E+02  0.25654913541E+03  0.26743089559E+03  0.47000000000E+01 0. -1.
         -5    1    1    2    0  502  0.57565548807E+02 -0.26139809678E+02  0.44105565158E+03  0.44558866666E+03  0.47000000000E+01 0. -1.
        -11    1    1    2    0    0 -0.45638495661E+02  0.28387168304E+02  0.13470856859E+03  0.14503483051E+03  0.00000000000E+00 0. -1.
         11    1    1    2    0    0  0.42593215994E+02  0.49784125010E+02  0.21630027355E+03  0.22600541916E+03  0.00000000000E+00 0.  1.
<mgrwt>
<rscale>  0 0.14013302E+03</rscale>
<asrwt>0</asrwt>
<pdfrwt beam="1">  1        2 0.16405175E+00 0.14746002E+03</pdfrwt>
<pdfrwt beam="2">  1       -2 0.27266303E-02 0.14746002E+03</pdfrwt>
<totfact> 0.11317471E+04</totfact>
</mgrwt>
</event>
<event>
 6    1  0.1211720E-005  0.1693911E+03  0.7546771E-02  0.1184688E+00
          1   -1    0    0  501    0  0.00000000000E+00  0.00000000000E+00  0.36856352872E+03  0.36856352872E+03  0.00000000000E+00 0. -1.
         -1   -1    0    0    0  501 -0.00000000000E+00 -0.00000000000E+00 -0.68928728920E+02  0.68928728920E+02  0.00000000000E+00 0.  1.
          5    1    1    2  502    0  0.99454238907E+02 -0.17590938729E+02  0.19130284425E+03  0.21637803719E+03  0.47000000000E+01 0. -1.
         -5    1    1    2    0  502  0.14212441988E+02  0.29772628475E+02 -0.68853511503E+01  0.34027944017E+02  0.47000000000E+01 0. -1.
        -11    1    1    2    0    0 -0.24502793108E+02 -0.45613299500E+02  0.47212093562E+02  0.70070976444E+02  0.00000000000E+00 0. -1.
         11    1    1    2    0    0 -0.89163887787E+02  0.33431609754E+02  0.68005213137E+02  0.11701529998E+03  0.00000000000E+00 0.  1.
<mgrwt>
<rscale>  0 0.16360291E+03</rscale>
<asrwt>0</asrwt>
<pdfrwt beam="1">  1        1 0.56702080E-01 0.16939110E+03</pdfrwt>
<pdfrwt beam="2">  1       -1 0.10604420E-01 0.16939110E+03</pdfrwt>
<totfact> 0.36588973E+03</totfact>
</mgrwt>
</event>
<event>
 6    1  0.9263730E-006  0.1293262E+03  0.7546771E-02  0.1242348E+00
         -1   -1    0    0    0  501 -0.00000000000E+00  0.00000000000E+00  0.55825935013E+03  0.55825935013E+03  0.00000000000E+00 0.  1.
          1   -1    0    0  501    0  0.00000000000E+00 -0.00000000000E+00 -0.23666918552E+02  0.23666918552E+02  0.00000000000E+00 0. -1.
          5    1    1    2  502    0  0.53754617245E+02  0.48030770718E+02  0.13029739191E+03  0.14898326802E+03  0.47000000000E+01 0. -1.
         -5    1    1    2    0  502 -0.20858424796E+02 -0.52340222848E+02  0.12551870040E+03  0.13766483561E+03  0.47000000000E+01 0. -1.
        -11    1    1    2    0    0 -0.34026532352E+02  0.43250934661E+02  0.19943533336E+03  0.20688861846E+03  0.00000000000E+00 0.  1.
         11    1    1    2    0    0  0.11303399036E+01 -0.38941482532E+02  0.79341005898E+02  0.88389546593E+02  0.00000000000E+00 0. -1.
<mgrwt>
<rscale>  0 0.12045518E+03</rscale>
<asrwt>0</asrwt>
<pdfrwt beam="2">  1        1 0.36410648E-02 0.12932619E+03</pdfrwt>
<pdfrwt beam="1">  1       -1 0.85886044E-01 0.12932619E+03</pdfrwt>
<totfact> 0.34914871E+03</totfact>
</mgrwt>
</event>
<event>
 6    1  0.9263730E-006  0.1500557E+03  0.7546771E-02  0.1209651E+00
         -3   -1    0    0    0  501 -0.00000000000E+00  0.00000000000E+00  0.66267283201E+03  0.66267283201E+03  0.00000000000E+00 0.  1.
          3   -1    0    0  501    0  0.00000000000E+00 -0.00000000000E+00 -0.29195918419E+02  0.29195918419E+02  0.00000000000E+00 0. -1.
          5    1    1    2  502    0  0.29720734603E+02 -0.47611844841E+02  0.17288890255E+03  0.18183198965E+03  0.47000000000E+01 0. -1.
         -5    1    1    2    0  502 -0.81803153170E+02 -0.17037356870E+02  0.10806141747E+03  0.13667987175E+03  0.47000000000E+01 0. -1.
        -11    1    1    2    0    0 -0.14702853100E+02  0.47786663322E+02  0.10293501974E+03  0.11443494820E+03  0.00000000000E+00 0.  1.
         11    1    1    2    0    0  0.66785271667E+02  0.16862538389E+02  0.24959157383E+03  0.25892194082E+03  0.00000000000E+00 0. -1.
<mgrwt>
<rscale>  0 0.14276927E+03</rscale>
<asrwt>0</asrwt>
<pdfrwt beam="2">  1        3 0.44916803E-02 0.15005573E+03</pdfrwt>
<pdfrwt beam="1">  1       -3 0.10194965E+00 0.15005573E+03</pdfrwt>
<totfact> 0.55055888E+02</totfact>
</mgrwt>
</event>
<event>
 6    1  0.9263730E-006  0.2007493E+03  0.7546771E-02  0.1153328E+00
         -1   -1    0    0    0  501 -0.00000000000E+00  0.00000000000E+00  0.50232091590E+02  0.50232091590E+02  0.00000000000E+00 0.  1.
          1   -1    0    0  501    0  0.00000000000E+00 -0.00000000000E+00 -0.74472305020E+03  0.74472305020E+03  0.00000000000E+00 0. -1.
          5    1    1    2  502    0 -0.63690764173E+02  0.15070731230E+02 -0.55906816657E+02  0.86205002926E+02  0.47000000000E+01 0. -1.
         -5    1    1    2    0  502 -0.50943948558E+02  0.92329218411E+02 -0.36789911141E+03  0.38274249391E+03  0.47000000000E+01 0. -1.
        -11    1    1    2    0    0  0.10932837358E+03 -0.83625397696E+02 -0.26828018776E+03  0.30152969928E+03  0.00000000000E+00 0. -1.
         11    1    1    2    0    0  0.53063391546E+01 -0.23774551945E+02 -0.24048427876E+01  0.24477945670E+02  0.00000000000E+00 0.  1.
<mgrwt>
<rscale>  0 0.19580431E+03</rscale>
<asrwt>0</asrwt>
<pdfrwt beam="2">  1        1 0.11457278E+00 0.20074932E+03</pdfrwt>
<pdfrwt beam="1">  1       -1 0.77280141E-02 0.20074932E+03</pdfrwt>
<totfact> 0.23185224E+03</totfact>
</mgrwt>
</event>
<event>
 6    1  0.9263730E-006  0.1273951E+03  0.7546771E-02  0.1245629E+00
         -2   -1    0    0    0  501 -0.00000000000E+00  0.00000000000E+00  0.23691323010E+02  0.23691323010E+02  0.00000000000E+00 0.  1.
          2   -1    0    0  501    0  0.00000000000E+00 -0.00000000000E+00 -0.75317046083E+03  0.75317046083E+03  0.00000000000E+00 0. -1.
          5    1    1    2  502    0  0.98087246268E+01  0.30281714686E+02 -0.35824339484E+02  0.48152534955E+02  0.47000000000E+01 0. -1.
         -5    1    1    2    0  502 -0.26309011410E+02 -0.12065993741E+02 -0.57846453429E+03  0.57920726836E+03  0.47000000000E+01 0. -1.
        -11    1    1    2    0    0  0.16113442019E+02  0.29601253802E+02 -0.88586673859E+02  0.94781200804E+02  0.00000000000E+00 0. -1.
         11    1    1    2    0    0  0.38684476453E+00 -0.47816974747E+02 -0.26603590188E+02  0.54720779726E+02  0.00000000000E+00 0.  1.
<mgrwt>
<rscale>  0 0.11847792E+03</rscale>
<asrwt>0</asrwt>
<pdfrwt beam="2">  1        2 0.11587239E+00 0.12739506E+03</pdfrwt>
<pdfrwt beam="1">  1       -2 0.36448187E-02 0.12739506E+03</pdfrwt>
<totfact> 0.11536180E+04</totfact>
</mgrwt>
</event>
<event>
 6    1  0.9263730E-006  0.2587072E+03  0.7546771E-02  0.1107922E+00
         -2   -1    0    0    0  501 -0.00000000000E+00  0.00000000000E+00  0.14003513299E+02  0.14003513299E+02  0.00000000000E+00 0.  1.
          2   -1    0    0  501    0  0.00000000000E+00 -0.00000000000E+00 -0.11948678523E+04  0.11948678523E+04  0.00000000000E+00 0. -1.
          5    1    1    2  502    0  0.16201240594E+01  0.84813896533E+01 -0.12606056952E+00  0.98318189409E+01  0.47000000000E+01 0. -1.
         -5    1    1    2    0  502 -0.50943610623E+02 -0.52681346752E+02 -0.74459435294E+03  0.74820680041E+03  0.47000000000E+01 0. -1.
        -11    1    1    2    0    0  0.27614041794E+01  0.63528018670E+02 -0.25432639272E+03  0.26215519935E+03  0.00000000000E+00 0. -1.
         11    1    1    2    0    0  0.46562082384E+02 -0.19328061572E+02 -0.18181753276E+03  0.18867754688E+03  0.00000000000E+00 0.  1.
<mgrwt>
<rscale>  0 0.25870715E+03</rscale>
<asrwt>0</asrwt>
<pdfrwt beam="2">  1        2 0.18382581E+00 0.25870715E+03</pdfrwt>
<pdfrwt beam="1">  1       -2 0.21543868E-02 0.25870715E+03</pdfrwt>
<totfact> 0.13882444E+04</totfact>
</mgrwt>
</event>
<event>
 6    1  0.9263730E-006  0.1676784E+03  0.7546771E-02  0.1186802E+00
          2   -1    0    0  501    0  0.00000000000E+00  0.00000000000E+00  0.43284730216E+02  0.43284730216E+02  0.00000000000E+00 0.  1.
         -2   -1    0    0    0  501 -0.00000000000E+00 -0.00000000000E+00 -0.56859690180E+03  0.56859690180E+03  0.00000000000E+00 0. -1.
          5    1    1    2  502    0  0.54362105808E+02  0.94614286066E+01 -0.46247812012E+02  0.72150587628E+02  0.47000000000E+01 0.  1.
         -5    1    1    2    0  502  0.65909398192E+01 -0.10313061055E+03 -0.20976584331E+03  0.23388707177E+03  0.47000000000E+01 0.  1.
        -11    1    1    2    0    0 -0.17625581007E+02  0.95893784203E+02 -0.15001322997E+03  0.17891408027E+03  0.00000000000E+00 0.  1.
         11    1    1    2    0    0 -0.43327464620E+02 -0.22246022637E+01 -0.11928528630E+03  0.12692989235E+03  0.00000000000E+00 0. -1.
<mgrwt>
<rscale>  0 0.16169032E+03</rscale>
<asrwt>0</asrwt>
<pdfrwt beam="1">  1        2 0.66591894E-02 0.16767843E+03</pdfrwt>
<pdfrwt beam="2">  1       -2 0.87476445E-01 0.16767843E+03</pdfrwt>
<totfact> 0.12312076E+03</totfact>
</mgrwt>
</event>
<event>
 6    1  0.9263730E-006  0.1326277E+03  0.7546771E-02  0.1238729E+00
          2   -1    0    0  501    0  0.00000000000E+00  0.00000000000E+00  0.88837549967E+03  0.88837549967E+03  0.00000000000E+00 0. -1.
         -2   -1    0    0    0  501 -0.00000000000E+00 -0.00000000000E+00 -0.14855241642E+02  0.14855241642E+02  0.00000000000E+00 0.  1.
          5    1    1    2  502    0  0.14374649587E+02  0.10159710212E+02  0.40104644174E+03  0.40146007111E+03  0.47000000000E+01 0. -1.
         -5    1    1    2    0  502 -0.51090305099E+02 -0.34989734052E+02  0.10801445435E+03  0.12459419373E+03  0.47000000000E+01 0. -1.
        -11    1    1    2    0    0 -0.16333088031E+02 -0.66147856922E+01  0.17700155829E+02  0.24976402277E+02  0.00000000000E+00 0.  1.
         11    1    1    2    0    0  0.53048743542E+02  0.31444809533E+02  0.34675920612E+03  0.35220007420E+03  0.00000000000E+00 0. -1.
<mgrwt>
<rscale>  0 0.12268684E+03</rscale>
<asrwt>0</asrwt>
<pdfrwt beam="1">  1        2 0.13667311E+00 0.13262765E+03</pdfrwt>
<pdfrwt beam="2">  1       -2 0.22854225E-02 0.13262765E+03</pdfrwt>
<totfact> 0.18651713E+04</totfact>
</mgrwt>
</event>
<event>
 6    1  0.9263730E-006  0.1745747E+03  0.7546771E-02  0.1179149E+00
         -2   -1    0    0    0  501 -0.00000000000E+00  0.00000000000E+00  0.19340269489E+02  0.19340269489E+02  0.00000000000E+00 0.  1.
          2   -1    0    0  501    0  0.00000000000E+00 -0.00000000000E+00 -0.14420392595E+04  0.14420392595E+04  0.00000000000E+00 0. -1.
          5    1    1    2  502    0  0.98530765819E+02 -0.42962814523E+02 -0.36902283543E+03  0.38438790084E+03  0.47000000000E+01 0.  1.
         -5    1    1    2    0  502  0.22592315536E+02  0.29493785606E+02 -0.53675831301E+03  0.53806307501E+03  0.47000000000E+01 0.  1.
        -11    1    1    2    0    0 -0.10524187781E+03 -0.27216975144E+02 -0.36145964396E+03  0.37745157410E+03  0.00000000000E+00 0. -1.
         11    1    1    2    0    0 -0.15881203549E+02  0.40686004061E+02 -0.15545819764E+03  0.16147697906E+03  0.00000000000E+00 0.  1.
<mgrwt>
<rscale>  0 0.16875835E+03</rscale>
<asrwt>0</asrwt>
<pdfrwt beam="2">  1        2 0.22185222E+00 0.17457467E+03</pdfrwt>
<pdfrwt beam="1">  1       -2 0.29754258E-02 0.17457467E+03</pdfrwt>
<totfact> 0.62172737E+03</totfact>
</mgrwt>
</event>
<event>
 6    1  0.9263730E-006  0.1393758E+03  0.7546771E-02  0.1219998E+00
         -1   -1    0    0    0  501 -0.00000000000E+00  0.00000000000E+00  0.73711432964E+02  0.73711432964E+02  0.00000000000E+00 0.  1.
          1   -1    0    0  501    0  0.00000000000E+00 -0.00000000000E+00 -0.24913561674E+03  0.24913561674E+03  0.00000000000E+00 0. -1.
          5    1    1    2  502    0 -0.22445843793E+02 -0.65435005657E+02 -0.12471380113E+03  0.14269259988E+03  0.47000000000E+01 0. -1.
         -5    1    1    2    0  502  0.45967544160E+02 -0.16427281289E+02 -0.78624871225E+01  0.49666682901E+02  0.47000000000E+01 0.  1.
        -11    1    1    2    0    0 -0.26175551881E+02 -0.55010665972E+01 -0.33079006958E+02  0.42539886592E+02  0.00000000000E+00 0. -1.
         11    1    1    2    0    0  0.26538515138E+01  0.87363353544E+02 -0.97688885649E+01  0.87947880327E+02  0.00000000000E+00 0.  1.
<mgrwt>
<rscale>  0 0.13515724E+03</rscale>
<asrwt>0</asrwt>
<pdfrwt beam="2">  1        1 0.38328556E-01 0.13937583E+03</pdfrwt>
<pdfrwt beam="1">  1       -1 0.11340221E-01 0.13937583E+03</pdfrwt>
<totfact> 0.53202312E+03</totfact>
</mgrwt>
</event>
<event>
 6    1  0.9263730E-006  0.1649425E+03  0.7546771E-02  0.1190084E+00
          2   -1    0    0  501    0  0.00000000000E+00  0.00000000000E+00  0.57286953150E+03  0.57286953150E+03  0.00000000000E+00 0. -1.
         -2   -1    0    0    0  501 -0.00000000000E+00 -0.00000000000E+00 -0.41046840133E+02  0.41046840133E+02  0.00000000000E+00 0.  1.
          5    1    1    2  502    0  0.28684994158E+02  0.58795848007E+02  0.26611549030E+03  0.27407904847E+03  0.47000000000E+01 0.  1.
         -5    1    1    2    0  502  0.56096151593E+02  0.73615575446E+01  0.28400771602E+02  0.63479639103E+02  0.47000000000E+01 0.  1.
        -11    1    1    2    0    0 -0.58804485776E+02 -0.53687164103E+02  0.68279302413E+02  0.10489205058E+03  0.00000000000E+00 0.  1.
         11    1    1    2    0    0 -0.25976659975E+02 -0.12470241449E+02  0.16902712705E+03  0.17146563348E+03  0.00000000000E+00 0. -1.
<mgrwt>
<rscale>  0 0.15877743E+03</rscale>
<asrwt>0</asrwt>
<pdfrwt beam="1">  1        2 0.88133768E-01 0.16494253E+03</pdfrwt>
<pdfrwt beam="2">  1       -2 0.63148989E-02 0.16494253E+03</pdfrwt>
<totfact> 0.70707975E+03</totfact>
</mgrwt>
</event>
<event>
 6    1  0.9263730E-006  0.1288807E+03  0.7546771E-02  0.1249408E+00
          4   -1    0    0  501    0  0.00000000000E+00  0.00000000000E+00  0.40073097320E+02  0.40073097320E+02  0.00000000000E+00 0. -1.
         -4   -1    0    0    0  501 -0.00000000000E+00 -0.00000000000E+00 -0.28927049943E+03  0.28927049943E+03  0.00000000000E+00 0.  1.
          5    1    1    2  502    0  0.30248402553E+02  0.29821875621E+02 -0.12430993390E+03  0.13145097865E+03  0.47000000000E+01 0. -1.
         -5    1    1    2    0  502 -0.52386607409E+02 -0.76425900229E+01 -0.88801233142E+01  0.53886105891E+02  0.47000000000E+01 0. -1.
        -11    1    1    2    0    0 -0.66986231680E+01 -0.20840604180E+02 -0.11286477485E+03  0.11496808138E+03  0.00000000000E+00 0.  1.
         11    1    1    2    0    0  0.28836828024E+02 -0.13386814181E+01 -0.31425700512E+01  0.29038430828E+02  0.00000000000E+00 0. -1.
<mgrwt>
<rscale>  0 0.11625421E+03</rscale>
<asrwt>0</asrwt>
<pdfrwt beam="1">  1        4 0.61650919E-02 0.12888073E+03</pdfrwt>
<pdfrwt beam="2">  1       -4 0.44503154E-01 0.12888073E+03</pdfrwt>
<totfact> 0.13605857E+03</totfact>
</mgrwt>
</event>
<event>
 6    1  0.9263730E-006  0.3350901E+03  0.7546771E-02  0.1068907E+00
          1   -1    0    0  501    0  0.00000000000E+00  0.00000000000E+00  0.75155044263E+03  0.75155044263E+03  0.00000000000E+00 0. -1.
         -1   -1    0    0    0  501 -0.00000000000E+00 -0.00000000000E+00 -0.37351251865E+02  0.37351251865E+02  0.00000000000E+00 0.  1.
          5    1    1    2  502    0  0.10146118537E+03  0.20173950995E+02  0.13679997869E+03  0.17157413734E+03  0.47000000000E+01 0.  1.
         -5    1    1    2    0  502  0.71511620203E+01  0.34344621816E+01  0.24608198119E+03  0.24625467735E+03  0.47000000000E+01 0.  1.
        -11    1    1    2    0    0 -0.59678892320E+02 -0.74951492292E+02  0.20246233667E+03  0.22398726337E+03  0.00000000000E+00 0.  1.
         11    1    1    2    0    0 -0.48933455067E+02  0.51343079115E+02  0.12885489422E+03  0.14708561644E+03  0.00000000000E+00 0. -1.
<mgrwt>
<rscale>  0 0.33509014E+03</rscale>
<asrwt>0</asrwt>
<pdfrwt beam="1">  1        1 0.11562313E+00 0.33509014E+03</pdfrwt>
<pdfrwt beam="2">  1       -1 0.57463470E-02 0.33509014E+03</pdfrwt>
<totfact> 0.36261843E+03</totfact>
</mgrwt>
</event>
<event>
 6    1  0.9263730E-006  0.1460051E+03  0.7546771E-02  0.1215124E+00
         -4   -1    0    0    0  501 -0.00000000000E+00  0.00000000000E+00  0.32399233017E+03  0.32399233017E+03  0.00000000000E+00 0.  1.
          4   -1    0    0  501    0  0.00000000000E+00 -0.00000000000E+00 -0.82291543414E+02  0.82291543414E+02  0.00000000000E+00 0. -1.
          5    1    1    2  502    0  0.30944027539E+00  0.64000349740E+02 -0.43316638953E+02  0.77424555086E+02  0.47000000000E+01 0.  1.
         -5    1    1    2    0  502  0.42749746421E+02 -0.20451961600E+01  0.53868870161E+02  0.68961357431E+02  0.47000000000E+01 0.  1.
        -11    1    1    2    0    0  0.88476379377E+01 -0.48875004136E+02  0.47946102279E+02  0.69035320309E+02  0.00000000000E+00 0. -1.
         11    1    1    2    0    0 -0.51906824634E+02 -0.13080149444E+02  0.18320245327E+03  0.19086264076E+03  0.00000000000E+00 0.  1.
<mgrwt>
<rscale>  0 0.13867396E+03</rscale>
<asrwt>0</asrwt>
<pdfrwt beam="2">  1        4 0.12660238E-01 0.14600509E+03</pdfrwt>
<pdfrwt beam="1">  1       -4 0.49844973E-01 0.14600509E+03</pdfrwt>
<totfact> 0.33348890E+02</totfact>
</mgrwt>
</event>
<event>
 6    1  0.9263730E-006  0.1253515E+03  0.7546771E-02  0.1256362E+00
          2   -1    0    0  501    0  0.00000000000E+00  0.00000000000E+00  0.12723804925E+03  0.12723804925E+03  0.00000000000E+00 0.  1.
         -2   -1    0    0    0  501 -0.00000000000E+00 -0.00000000000E+00 -0.10359849787E+03  0.10359849787E+03  0.00000000000E+00 0. -1.
          5    1    1    2  502    0  0.36263523743E+01  0.52163551130E+02 -0.23061310662E+01  0.52550877619E+02  0.47000000000E+01 0.  1.
         -5    1    1    2    0  502  0.37168258895E+01 -0.57937587729E+02  0.66094718772E+02  0.88097563622E+02  0.47000000000E+01 0.  1.
        -11    1    1    2    0    0 -0.26036044595E+02  0.14459744129E+01  0.16175074940E+02  0.30685493469E+02  0.00000000000E+00 0.  1.
         11    1    1    2    0    0  0.18692866331E+02  0.43280621864E+01 -0.56324111261E+02  0.59502612407E+02  0.00000000000E+00 0. -1.
<mgrwt>
<rscale>  0 0.11230377E+03</rscale>
<asrwt>0</asrwt>
<pdfrwt beam="1">  1        2 0.19575084E-01 0.12535151E+03</pdfrwt>
<pdfrwt beam="2">  1       -2 0.15938230E-01 0.12535151E+03</pdfrwt>
<totfact> 0.82613958E+03</totfact>
</mgrwt>
</event>
<event>
 6    1  0.1029755E-005  0.4129893E+03  0.7546771E-02  0.1039372E+00
         -1   -1    0    0    0  501 -0.00000000000E+00  0.00000000000E+00  0.33521211907E+02  0.33521211907E+02  0.00000000000E+00 0.  1.
          1   -1    0    0  501    0  0.00000000000E+00 -0.00000000000E+00 -0.12720318342E+04  0.12720318342E+04  0.00000000000E+00 0. -1.
          5    1    1    2  502    0 -0.89325642394E+02  0.11733487145E+03 -0.44467728876E+03  0.46851523304E+03  0.47000000000E+01 0. -1.
         -5    1    1    2    0  502 -0.27976241778E+02 -0.29402495138E+01 -0.39703732729E+03  0.39806035275E+03  0.47000000000E+01 0. -1.
        -11    1    1    2    0    0  0.29173794508E+02 -0.85030094879E+02 -0.14513825995E+03  0.17072299735E+03  0.00000000000E+00 0.  1.
         11    1    1    2    0    0  0.88128089664E+02 -0.29364527061E+02 -0.25165774633E+03  0.26825446302E+03  0.00000000000E+00 0. -1.
<mgrwt>
<rscale>  0 0.41298934E+03</rscale>
<asrwt>0</asrwt>
<pdfrwt beam="2">  1        1 0.19569718E+00 0.41298934E+03</pdfrwt>
<pdfrwt beam="1">  1       -1 0.51571102E-02 0.41298934E+03</pdfrwt>
<totfact> 0.17102866E+03</totfact>
</mgrwt>
</event>
<event>
 6    1  0.9263730E-006  0.2211725E+03  0.7546771E-02  0.1168596E+00
         -2   -1    0    0    0  501 -0.00000000000E+00  0.00000000000E+00  0.95849783895E+02  0.95849783895E+02  0.00000000000E+00 0.  1.
          2   -1    0    0  501    0  0.00000000000E+00 -0.00000000000E+00 -0.71142017408E+03  0.71142017408E+03  0.00000000000E+00 0. -1.
          5    1    1    2  502    0  0.30196688658E+02 -0.47595911505E+02 -0.56447915961E+03  0.56730593371E+03  0.47000000000E+01 0. -1.
         -5    1    1    2    0  502 -0.41366331999E+02  0.77163694119E+02 -0.99893698123E+02  0.13291444631E+03  0.47000000000E+01 0.  1.
        -11    1    1    2    0    0  0.22319985420E+02  0.28019235917E+02  0.25317991712E+02  0.43866388441E+02  0.00000000000E+00 0. -1.
         11    1    1    2    0    0 -0.11150342079E+02 -0.57587018531E+02  0.23484475830E+02  0.63183189511E+02  0.00000000000E+00 0.  1.
<mgrwt>
<rscale>  0 0.17918298E+03</rscale>
<asrwt>0</asrwt>
<pdfrwt beam="2">  1        2 0.10944926E+00 0.22117253E+03</pdfrwt>
<pdfrwt beam="1">  1       -2 0.14746120E-01 0.22117253E+03</pdfrwt>
<totfact> 0.14462351E+03</totfact>
</mgrwt>
</event>
<event>
 6    1  0.9263730E-006  0.1347335E+03  0.7546771E-02  0.1233259E+00
          1   -1    0    0  501    0  0.00000000000E+00  0.00000000000E+00  0.10046451206E+04  0.10046451206E+04  0.00000000000E+00 0. -1.
         -1   -1    0    0    0  501 -0.00000000000E+00 -0.00000000000E+00 -0.14369255433E+02  0.14369255433E+02  0.00000000000E+00 0.  1.
          5    1    1    2  502    0 -0.19265016004E+02 -0.70929342493E+02  0.54008287016E+03  0.54508137843E+03  0.47000000000E+01 0. -1.
         -5    1    1    2    0  502 -0.17365123587E+02  0.36461872539E+02  0.83268811180E+02  0.92664991132E+02  0.47000000000E+01 0. -1.
        -11    1    1    2    0    0 -0.35835380473E+01 -0.27221400769E+02  0.14091184175E+03  0.14356181090E+03  0.00000000000E+00 0. -1.
         11    1    1    2    0    0  0.40213677638E+02  0.61688870724E+02  0.22601234205E+03  0.23770619554E+03  0.00000000000E+00 0.  1.
<mgrwt>
<rscale>  0 0.12616574E+03</rscale>
<asrwt>0</asrwt>
<pdfrwt beam="1">  1        1 0.15456073E+00 0.13473349E+03</pdfrwt>
<pdfrwt beam="2">  1       -1 0.22106555E-02 0.13473349E+03</pdfrwt>
<totfact> 0.90685689E+03</totfact>
</mgrwt>
</event>
<event>
 6    1  0.9263730E-006  0.1800768E+03  0.7546771E-02  0.1174195E+00
         -1   -1    0    0    0  501 -0.00000000000E+00  0.00000000000E+00  0.57256844416E+02  0.57256844416E+02  0.00000000000E+00 0.  1.
          1   -1    0    0  501    0  0.00000000000E+00 -0.00000000000E+00 -0.49286071316E+03  0.49286071316E+03  0.00000000000E+00 0. -1.
          5    1    1    2  502    0  0.79030804118E+02 -0.10627746273E+03 -0.20872785666E+03  0.24724517231E+03  0.47000000000E+01 0. -1.
         -5    1    1    2    0  502 -0.40734950069E+02 -0.17561341453E+02 -0.40631834755E+02  0.60338817244E+02  0.47000000000E+01 0. -1.
        -11    1    1    2    0    0 -0.24631817309E+02  0.93941663238E+02 -0.18580945844E+03  0.20965905027E+03  0.00000000000E+00 0. -1.
         11    1    1    2    0    0 -0.13664036740E+02  0.29897140946E+02 -0.43471888758E+00  0.32874517750E+02  0.00000000000E+00 0.  1.
<mgrwt>
<rscale>  0 0.17355042E+03</rscale>
<asrwt>0</asrwt>
<pdfrwt beam="2">  1        1 0.75824727E-01 0.18007680E+03</pdfrwt>
<pdfrwt beam="1">  1       -1 0.88087451E-02 0.18007680E+03</pdfrwt>
<totfact> 0.33572217E+03</totfact>
</mgrwt>
</event>
<event>
 6    1  0.9263730E-006  0.1252154E+03  0.7546771E-02  0.1246582E+00
         -3   -1    0    0    0  501 -0.00000000000E+00  0.00000000000E+00  0.39359366568E+03  0.39359366568E+03  0.00000000000E+00 0.  1.
          3   -1    0    0  501    0  0.00000000000E+00 -0.00000000000E+00 -0.32688231563E+02  0.32688231563E+02  0.00000000000E+00 0. -1.
          5    1    1    2  502    0 -0.45823890818E+02  0.31847347586E+02  0.11123020974E+03  0.12453245391E+03  0.47000000000E+01 0. -1.
         -5    1    1    2    0  502  0.53026017271E+02 -0.33533049612E+02  0.54892060160E+02  0.83495222573E+02  0.47000000000E+01 0. -1.
        -11    1    1    2    0    0 -0.38369268744E+02  0.15600916953E+02  0.33137343958E+02  0.53044066193E+02  0.00000000000E+00 0. -1.
         11    1    1    2    0    0  0.31167142291E+02 -0.13915214927E+02  0.16164582026E+03  0.16521015457E+03  0.00000000000E+00 0.  1.
<mgrwt>
<rscale>  0 0.11791218E+03</rscale>
<asrwt>0</asrwt>
<pdfrwt beam="2">  1        3 0.50289590E-02 0.12521544E+03</pdfrwt>
<pdfrwt beam="1">  1       -3 0.60552868E-01 0.12521544E+03</pdfrwt>
<totfact> 0.13843233E+03</totfact>
</mgrwt>
</event>
<event>
 6    1  0.9263730E-006  0.1261158E+03  0.7546771E-02  0.1249284E+00
          3   -1    0    0  501    0  0.00000000000E+00  0.00000000000E+00  0.82706501209E+03  0.82706501209E+03  0.00000000000E+00 0. -1.
         -3   -1    0    0    0  501 -0.00000000000E+00 -0.00000000000E+00 -0.16647542624E+02  0.16647542624E+02  0.00000000000E+00 0.  1.
          5    1    1    2  502    0  0.21121263557E+02 -0.50387094818E+02  0.23492300386E+03  0.24123821181E+03  0.47000000000E+01 0.  1.
         -5    1    1    2    0  502 -0.33255603701E+02  0.61912902490E+02  0.38311549213E+03  0.38953653614E+03  0.47000000000E+01 0.  1.
        -11    1    1    2    0    0  0.38805185176E+02  0.22597696015E+02  0.70443017565E+02  0.83538715488E+02  0.00000000000E+00 0.  1.
         11    1    1    2    0    0 -0.26670845032E+02 -0.34123503687E+02  0.12193595591E+03  0.12939909127E+03  0.00000000000E+00 0. -1.
<mgrwt>
<rscale>  0 0.11632587E+03</rscale>
<asrwt>0</asrwt>
<pdfrwt beam="1">  1        3 0.12724074E+00 0.12611582E+03</pdfrwt>
<pdfrwt beam="2">  1       -3 0.25611611E-02 0.12611582E+03</pdfrwt>
<totfact> 0.76836829E+02</totfact>
</mgrwt>
</event>
<event>
 6    1  0.9263730E-006  0.1460997E+03  0.7546771E-02  0.1215142E+00
         -2   -1    0    0    0  501 -0.00000000000E+00  0.00000000000E+00  0.75978302731E+02  0.75978302731E+02  0.00000000000E+00 0.  1.
          2   -1    0    0  501    0  0.00000000000E+00 -0.00000000000E+00 -0.23073484477E+03  0.23073484477E+03  0.00000000000E+00 0. -1.
          5    1    1    2  502    0  0.68950003455E+02  0.11515916870E+02 -0.98401516703E+01  0.70750532879E+02  0.47000000000E+01 0.  1.
         -5    1    1    2    0  502 -0.10655539971E+02 -0.59691110407E+02 -0.80990510146E+02  0.10128238705E+03  0.47000000000E+01 0.  1.
        -11    1    1    2    0    0 -0.71549226969E+02  0.11860773626E+02 -0.18145064080E+02  0.74761040531E+02  0.00000000000E+00 0.  1.
         11    1    1    2    0    0  0.13254763484E+02  0.36314419911E+02 -0.45780816142E+02  0.59919187037E+02  0.00000000000E+00 0. -1.
<mgrwt>
<rscale>  0 0.13866127E+03</rscale>
<asrwt>0</asrwt>
<pdfrwt beam="2">  1        2 0.35497668E-01 0.14609968E+03</pdfrwt>
<pdfrwt beam="1">  1       -2 0.11688970E-01 0.14609968E+03</pdfrwt>
<totfact> 0.71751204E+03</totfact>
</mgrwt>
</event>
<event>
 6    1  0.9263730E-006  0.3286117E+03  0.7546771E-02  0.1071753E+00
          2   -1    0    0  501    0  0.00000000000E+00  0.00000000000E+00  0.44623572992E+03  0.44623572992E+03  0.00000000000E+00 0. -1.
         -2   -1    0    0    0  501 -0.00000000000E+00 -0.00000000000E+00 -0.60498089042E+02  0.60498089042E+02  0.00000000000E+00 0.  1.
          5    1    1    2  502    0 -0.13410580058E+03 -0.29158275709E+02  0.14846916615E+03  0.20223687618E+03  0.47000000000E+01 0.  1.
         -5    1    1    2    0  502  0.16773648347E+02  0.13839364309E+01  0.96261613796E+02  0.97834854983E+02  0.47000000000E+01 0.  1.
        -11    1    1    2    0    0  0.25597867103E+02  0.14209992140E+02 -0.87166985829E+01  0.30547594193E+02  0.00000000000E+00 0.  1.
         11    1    1    2    0    0  0.91734285132E+02  0.13564347138E+02  0.14972355952E+03  0.17611449360E+03  0.00000000000E+00 0. -1.
<mgrwt>
<rscale>  0 0.32861168E+03</rscale>
<asrwt>0</asrwt>
<pdfrwt beam="1">  1        2 0.68651649E-01 0.32861168E+03</pdfrwt>
<pdfrwt beam="2">  1       -2 0.93073986E-02 0.32861168E+03</pdfrwt>
<totfact> 0.52724523E+03</totfact>
</mgrwt>
</event>
<event>
 6    1  0.9263730E-006  0.2394391E+03  0.7546771E-02  0.1122868E+00
         -2   -1    0    0    0  501 -0.00000000000E+00  0.00000000000E+00  0.76880055706E+02  0.76880055706E+02  0.00000000000E+00 0.  1.
          2   -1    0    0  501    0  0.00000000000E+00 -0.00000000000E+00 -0.73521662886E+03  0.73521662886E+03  0.00000000000E+00 0. -1.
          5    1    1    2  502    0  0.16430576371E+03 -0.19701223243E+02 -0.16355268990E+03  0.23271462042E+03  0.47000000000E+01 0.  1.
         -5    1    1    2    0  502  0.34920748744E+02  0.64583219552E+02 -0.84748059702E+02  0.11222644325E+03  0.47000000000E+01 0.  1.
        -11    1    1    2    0    0 -0.70733583297E+02 -0.37224382816E+02 -0.80818259862E+02  0.11366831401E+03  0.00000000000E+00 0.  1.
         11    1    1    2    0    0 -0.12849292916E+03 -0.76576134940E+01 -0.32921756370E+03  0.35348730689E+03  0.00000000000E+00 0. -1.
<mgrwt>
<rscale>  0 0.23544063E+03</rscale>
<asrwt>0</asrwt>
<pdfrwt beam="2">  1        2 0.11311025E+00 0.23943908E+03</pdfrwt>
<pdfrwt beam="1">  1       -2 0.11827701E-01 0.23943908E+03</pdfrwt>
<totfact> 0.19925052E+03</totfact>
</mgrwt>
</event>
<event>
 6    1  0.9263730E-006  0.4357273E+03  0.7546771E-02  0.1032066E+00
          1   -1    0    0  501    0  0.00000000000E+00  0.00000000000E+00  0.28715813686E+04  0.28715813686E+04  0.00000000000E+00 0. -1.
         -1   -1    0    0    0  501 -0.00000000000E+00 -0.00000000000E+00 -0.16529073790E+02  0.16529073790E+02  0.00000000000E+00 0.  1.
          5    1    1    2  502    0  0.21866920179E+02 -0.18275839950E+02  0.10575939000E+03  0.10963260052E+03  0.47000000000E+01 0. -1.
         -5    1    1    2    0  502 -0.78083780133E+02 -0.13199241978E+03  0.20296167694E+04  0.20354079189E+04  0.47000000000E+01 0. -1.
        -11    1    1    2    0    0  0.67165202762E+02  0.88341670664E+02  0.57028127855E+03  0.58097861570E+03  0.00000000000E+00 0.  1.
         11    1    1    2    0    0 -0.10948342807E+02  0.61926589069E+02  0.14939485692E+03  0.16209130735E+03  0.00000000000E+00 0. -1.
<mgrwt>
<rscale>  0 0.43572735E+03</rscale>
<asrwt>0</asrwt>
<pdfrwt beam="1">  1        1 0.44178135E+00 0.43572735E+03</pdfrwt>
<pdfrwt beam="2">  1       -1 0.25429367E-02 0.43572735E+03</pdfrwt>
<totfact> 0.41729305E+02</totfact>
</mgrwt>
</event>
<event>
 6    1  0.9263730E-006  0.1804010E+03  0.7546771E-02  0.1172787E+00
          1   -1    0    0  501    0  0.00000000000E+00  0.00000000000E+00  0.75005404065E+02  0.75005404065E+02  0.00000000000E+00 0. -1.
         -1   -1    0    0    0  501 -0.00000000000E+00 -0.00000000000E+00 -0.39085753344E+03  0.39085753344E+03  0.00000000000E+00 0.  1.
          5    1    1    2  502    0  0.40727082119E+02  0.77842300557E+02 -0.27110251066E+02  0.92060711962E+02  0.47000000000E+01 0. -1.
         -5    1    1    2    0  502  0.83560561978E+01  0.42614044361E+02 -0.16836051204E+03  0.17393427628E+03  0.47000000000E+01 0. -1.
        -11    1    1    2    0    0  0.16233710804E+02 -0.37338904480E+01 -0.41182518098E+02  0.44423812322E+02  0.00000000000E+00 0.  1.
         11    1    1    2    0    0 -0.65316849121E+02 -0.11672245447E+03 -0.79198848170E+02  0.15544413694E+03  0.00000000000E+00 0. -1.
<mgrwt>
<rscale>  0 0.17494516E+03</rscale>
<asrwt>0</asrwt>
<pdfrwt beam="1">  1        1 0.11539293E-01 0.18040098E+03</pdfrwt>
<pdfrwt beam="2">  1       -1 0.60131927E-01 0.18040098E+03</pdfrwt>
<totfact> 0.15110861E+03</totfact>
</mgrwt>
</event>
<event>
 6    1  0.9263730E-006  0.1429257E+03  0.7546771E-02  0.1219991E+00
         -2   -1    0    0    0  501 -0.00000000000E+00  0.00000000000E+00  0.20606808547E+02  0.20606808547E+02  0.00000000000E+00 0.  1.
          2   -1    0    0  501    0  0.00000000000E+00 -0.00000000000E+00 -0.15539297579E+04  0.15539297579E+04  0.00000000000E+00 0. -1.
          5    1    1    2  502    0  0.25900238403E+02  0.14591327901E+02 -0.12467882626E+04  0.12471514707E+04  0.47000000000E+01 0.  1.
         -5    1    1    2    0  502  0.38050782550E+02  0.12111629047E+02 -0.10953289610E+03  0.11667947094E+03  0.47000000000E+01 0.  1.
        -11    1    1    2    0    0 -0.28055444234E+02 -0.33262458517E+02 -0.16741446155E+03  0.17297716911E+03  0.00000000000E+00 0. -1.
         11    1    1    2    0    0 -0.35895576719E+02  0.65595015685E+01 -0.95873291316E+01  0.37728455689E+02  0.00000000000E+00 0.  1.
<mgrwt>
<rscale>  0 0.13516232E+03</rscale>
<asrwt>0</asrwt>
<pdfrwt beam="2">  1        2 0.23906609E+00 0.14292569E+03</pdfrwt>
<pdfrwt beam="1">  1       -2 0.31702787E-02 0.14292569E+03</pdfrwt>
<totfact> 0.49213087E+03</totfact>
</mgrwt>
</event>
<event>
 6    1  0.9263730E-006  0.1394283E+03  0.7546771E-02  0.1230150E+00
         -2   -1    0    0    0  501 -0.00000000000E+00  0.00000000000E+00  0.21139795808E+02  0.21139795808E+02  0.00000000000E+00 0. -1.
          2   -1    0    0  501    0  0.00000000000E+00 -0.00000000000E+00 -0.69524943251E+03  0.69524943251E+03  0.00000000000E+00 0.  1.
          5    1    1    2  502    0 -0.50888883687E+02 -0.80837525844E+02 -0.39357238912E+03  0.40502555419E+03  0.47000000000E+01 0.  1.
         -5    1    1    2    0  502  0.14597141557E+02  0.30855323809E+02 -0.56783585989E+02  0.66419825254E+02  0.47000000000E+01 0.  1.
        -11    1    1    2    0    0  0.57260119409E+02  0.42535445134E+02 -0.20026472445E+03  0.21258867615E+03  0.00000000000E+00 0.  1.
         11    1    1    2    0    0 -0.20968377279E+02  0.74467569013E+01 -0.23488937139E+02  0.32355172724E+02  0.00000000000E+00 0. -1.
<mgrwt>
<rscale>  0 0.12820104E+03</rscale>
<asrwt>0</asrwt>
<pdfrwt beam="2">  1        2 0.10696146E+00 0.13942827E+03</pdfrwt>
<pdfrwt beam="1">  1       -2 0.32522761E-02 0.13942827E+03</pdfrwt>
<totfact> 0.15119819E+04</totfact>
</mgrwt>
</event>
<event>
 6    1  0.9263730E-006  0.3077282E+03  0.7546771E-02  0.1081440E+00
          1   -1    0    0  501    0  0.00000000000E+00  0.00000000000E+00  0.17968161127E+03  0.17968161127E+03  0.00000000000E+00 0. -1.
         -1   -1    0    0    0  501 -0.00000000000E+00 -0.00000000000E+00 -0.13175620717E+03  0.13175620717E+03  0.00000000000E+00 0.  1.
          5    1    1    2  502    0 -0.11414267294E+02 -0.10276517086E+01 -0.33815737191E+02  0.36012992762E+02  0.47000000000E+01 0.  1.
         -5    1    1    2    0  502 -0.72172451826E+02  0.53863855285E+02  0.10538906995E+03  0.13870516852E+03  0.47000000000E+01 0.  1.
        -11    1    1    2    0    0  0.69539459644E+02 -0.77078983583E+02 -0.68190942312E+01  0.10403560066E+03  0.00000000000E+00 0.  1.
         11    1    1    2    0    0  0.14047259477E+02  0.24242780006E+02 -0.16828834433E+02  0.32684056505E+02  0.00000000000E+00 0. -1.
<mgrwt>
<rscale>  0 0.30772824E+03</rscale>
<asrwt>0</asrwt>
<pdfrwt beam="1">  1        1 0.27643325E-01 0.30772824E+03</pdfrwt>
<pdfrwt beam="2">  1       -1 0.20270186E-01 0.30772824E+03</pdfrwt>
<totfact> 0.33139493E+03</totfact>
</mgrwt>
</event>
<event>
 6    1  0.9263730E-006  0.3551608E+03  0.7546771E-02  0.1066276E+00
         -2   -1    0    0    0  501 -0.00000000000E+00  0.00000000000E+00  0.27719190435E+03  0.27719190435E+03  0.00000000000E+00 0.  1.
          2   -1    0    0  501    0  0.00000000000E+00 -0.00000000000E+00 -0.66475295092E+03  0.66475295092E+03  0.00000000000E+00 0. -1.
          5    1    1    2  502    0  0.18127612842E+03 -0.16800457372E+03 -0.50843808717E+03  0.56534763642E+03  0.47000000000E+01 0. -1.
         -5    1    1    2    0  502  0.51612914792E+02 -0.26288151426E+01  0.34725160543E+01  0.52009153138E+02  0.47000000000E+01 0.  1.
        -11    1    1    2    0    0 -0.74392569223E+02  0.91806581053E+01  0.15954744321E+02  0.76636105754E+02  0.00000000000E+00 0. -1.
         11    1    1    2    0    0 -0.15849647399E+03  0.16145273076E+03  0.10144978023E+03  0.24795195995E+03  0.00000000000E+00 0.  1.
<mgrwt>
<rscale>  0 0.34122436E+03</rscale>
<asrwt>0</asrwt>
<pdfrwt beam="2">  1        2 0.10226968E+00 0.35516078E+03</pdfrwt>
<pdfrwt beam="1">  1       -2 0.42644909E-01 0.35516078E+03</pdfrwt>
<totfact> 0.23537581E+02</totfact>
</mgrwt>
</event>
<event>
 6    1  0.9263730E-006  0.1696022E+03  0.7546771E-02  0.1186673E+00
         -1   -1    0    0    0  501 -0.00000000000E+00  0.00000000000E+00  0.12470182207E+03  0.12470182207E+03  0.00000000000E+00 0.  1.
          1   -1    0    0  501    0  0.00000000000E+00 -0.00000000000E+00 -0.19291978427E+03  0.19291978427E+03  0.00000000000E+00 0. -1.
          5    1    1    2  502    0 -0.35097405868E+02  0.40185916328E+02  0.43055991641E+02  0.68721497263E+02  0.47000000000E+01 0. -1.
         -5    1    1    2    0  502 -0.61891348058E+02  0.14649681036E+02 -0.84509689629E+02  0.10587317772E+03  0.47000000000E+01 0.  1.
        -11    1    1    2    0    0  0.86194503124E+02 -0.48027457112E+01 -0.24539671313E+01  0.86363074805E+02  0.00000000000E+00 0.  1.
         11    1    1    2    0    0  0.10794250802E+02 -0.50032851653E+02 -0.24310297083E+02  0.56663856551E+02  0.00000000000E+00 0. -1.
<mgrwt>
<rscale>  0 0.16180538E+03</rscale>
<asrwt>0</asrwt>
<pdfrwt beam="2">  1        1 0.29679967E-01 0.16960216E+03</pdfrwt>
<pdfrwt beam="1">  1       -1 0.19184896E-01 0.16960216E+03</pdfrwt>
<totfact> 0.32348169E+03</totfact>
</mgrwt>
</event>
<event>
 6    1  0.9263730E-006  0.1456208E+03  0.7546771E-02  0.1215723E+00
          2   -1    0    0  501    0  0.00000000000E+00  0.00000000000E+00  0.68930586573E+02  0.68930586573E+02  0.00000000000E+00 0. -1.
         -2   -1    0    0    0  501 -0.00000000000E+00 -0.00000000000E+00 -0.35988519982E+03  0.35988519982E+03  0.00000000000E+00 0.  1.
          5    1    1    2  502    0 -0.53194080531E+02  0.16555897452E+01 -0.45129460067E+01  0.53617234754E+02  0.47000000000E+01 0. -1.
         -5    1    1    2    0  502  0.49018101714E+02 -0.76245860641E+02 -0.34893684761E+02  0.97241271057E+02  0.47000000000E+01 0. -1.
        -11    1    1    2    0    0  0.36391580320E+02  0.26160201540E+02 -0.45540237066E+02  0.63895355503E+02  0.00000000000E+00 0. -1.
         11    1    1    2    0    0 -0.32215601503E+02  0.48430069355E+02 -0.20600774541E+03  0.21406192507E+03  0.00000000000E+00 0.  1.
<mgrwt>
<rscale>  0 0.13823591E+03</rscale>
<asrwt>0</asrwt>
<pdfrwt beam="1">  1        2 0.10604706E-01 0.14562076E+03</pdfrwt>
<pdfrwt beam="2">  1       -2 0.55366953E-01 0.14562076E+03</pdfrwt>
<totfact> 0.18064430E+03</totfact>
</mgrwt>
</event>
<event>
 6    1  0.9263730E-006  0.1519688E+03  0.7546771E-02  0.1205402E+00
          1   -1    0    0  501    0  0.00000000000E+00  0.00000000000E+00  0.76311979833E+03  0.76311979833E+03  0.00000000000E+00 0. -1.
         -1   -1    0    0    0  501 -0.00000000000E+00 -0.00000000000E+00 -0.26001907623E+02  0.26001907623E+02  0.00000000000E+00 0.  1.
          5    1    1    2  502    0 -0.33712834630E+02 -0.22235620440E+02  0.37391589520E+03  0.37611988078E+03  0.47000000000E+01 0. -1.
         -5    1    1    2    0  502 -0.47513891746E+02 -0.72441497121E+01  0.33658621640E+02  0.58864593981E+02  0.47000000000E+01 0. -1.
        -11    1    1    2    0    0  0.51253862897E+02  0.51890117278E+02  0.11376207876E+03  0.13513457477E+03  0.00000000000E+00 0.  1.
         11    1    1    2    0    0  0.29972863479E+02 -0.22410347126E+02  0.21578129510E+03  0.21900265642E+03  0.00000000000E+00 0. -1.
<mgrwt>
<rscale>  0 0.14605813E+03</rscale>
<asrwt>0</asrwt>
<pdfrwt beam="1">  1        1 0.11740303E+00 0.15196877E+03</pdfrwt>
<pdfrwt beam="2">  1       -1 0.40002941E-02 0.15196877E+03</pdfrwt>
<totfact> 0.59305906E+03</totfact>
</mgrwt>
</event>
<event>
 6    1  0.9263730E-006  0.1355626E+03  0.7546771E-02  0.1239744E+00
         -2   -1    0    0    0  501 -0.00000000000E+00  0.00000000000E+00  0.51891112657E+02  0.51891112657E+02  0.00000000000E+00 0.  1.
          2   -1    0    0  501    0  0.00000000000E+00 -0.00000000000E+00 -0.51579798721E+03  0.51579798721E+03  0.00000000000E+00 0. -1.
          5    1    1    2  502    0 -0.30276796896E+02 -0.61962049301E+01 -0.27693992446E+03  0.27869856323E+03  0.47000000000E+01 0. -1.
         -5    1    1    2    0  502  0.75886171327E+02  0.32112243685E+02 -0.18191385391E+03  0.19976147636E+03  0.47000000000E+01 0. -1.
        -11    1    1    2    0    0 -0.23932527842E+02  0.18386092347E+02 -0.21703489238E+02  0.37173320080E+02  0.00000000000E+00 0.  1.
         11    1    1    2    0    0 -0.21676846590E+02 -0.44302131102E+02  0.16650393059E+02  0.52055740195E+02  0.00000000000E+00 0. -1.
<mgrwt>
<rscale>  0 0.12205544E+03</rscale>
<asrwt>0</asrwt>
<pdfrwt beam="2">  1        2 0.79353536E-01 0.13556260E+03</pdfrwt>
<pdfrwt beam="1">  1       -2 0.79832481E-02 0.13556260E+03</pdfrwt>
<totfact> 0.54893764E+03</totfact>
</mgrwt>
</event>
<event>
 6    1  0.9263730E-006  0.1542763E+03  0.7546771E-02  0.1245812E+00
          2   -1    0    0  501    0  0.00000000000E+00  0.00000000000E+00  0.77565690828E+03  0.77565690828E+03  0.00000000000E+00 0. -1.
         -2   -1    0    0    0  501 -0.00000000000E+00 -0.00000000000E+00 -0.22167456988E+02  0.22167456988E+02  0.00000000000E+00 0.  1.
          5    1    1    2  502    0 -0.12523991203E+02 -0.27334467909E+02  0.63492730148E+03  0.63565618982E+03  0.47000000000E+01 0. -1.
         -5    1    1    2    0  502  0.45892223740E+02  0.25902645105E+02  0.81305113874E+02  0.97003375020E+02  0.47000000000E+01 0.  1.
        -11    1    1    2    0    0 -0.12831296636E+02 -0.11296303324E+02 -0.38125237552E+01  0.17515249914E+02  0.00000000000E+00 0.  1.
         11    1    1    2    0    0 -0.20536935901E+02  0.12728126128E+02  0.41069559700E+02  0.47649550521E+02  0.00000000000E+00 0. -1.
<mgrwt>
<rscale>  0 0.11836929E+03</rscale>
<asrwt>0</asrwt>
<pdfrwt beam="1">  1        2 0.11933181E+00 0.15427626E+03</pdfrwt>
<pdfrwt beam="2">  1       -2 0.34103786E-02 0.15427626E+03</pdfrwt>
<totfact> 0.12432761E+04</totfact>
</mgrwt>
</event>
<event>
 6    1  0.9263730E-006  0.1351000E+03  0.7546771E-02  0.1237215E+00
          1   -1    0    0  501    0  0.00000000000E+00  0.00000000000E+00  0.27910973973E+03  0.27910973973E+03  0.00000000000E+00 0. -1.
         -1   -1    0    0    0  501 -0.00000000000E+00 -0.00000000000E+00 -0.48780119905E+02  0.48780119905E+02  0.00000000000E+00 0.  1.
          5    1    1    2  502    0  0.16731770252E+02  0.63559481279E+02  0.13571961777E+03  0.15086969359E+03  0.47000000000E+01 0. -1.
         -5    1    1    2    0  502  0.30810816711E+02 -0.44411372399E+02  0.26935634835E+02  0.60574704694E+02  0.47000000000E+01 0. -1.
        -11    1    1    2    0    0 -0.27784923635E+02  0.30093425498E+02  0.22323010295E+02  0.46646897306E+02  0.00000000000E+00 0.  1.
         11    1    1    2    0    0 -0.19757663328E+02 -0.49241534377E+02  0.45351356927E+02  0.69798564048E+02  0.00000000000E+00 0. -1.
<mgrwt>
<rscale>  0 0.12363725E+03</rscale>
<asrwt>0</asrwt>
<pdfrwt beam="1">  1        1 0.42939959E-01 0.13509997E+03</pdfrwt>
<pdfrwt beam="2">  1       -1 0.75046340E-02 0.13509997E+03</pdfrwt>
<totfact> 0.86425608E+03</totfact>
</mgrwt>
</event>
<event>
 6    1  0.9263730E-006  0.1302934E+03  0.7546771E-02  0.1240834E+00
         -1   -1    0    0    0  501 -0.00000000000E+00  0.00000000000E+00  0.26064716617E+02  0.26064716617E+02  0.00000000000E+00 0.  1.
          1   -1    0    0  501    0  0.00000000000E+00 -0.00000000000E+00 -0.53030265441E+03  0.53030265441E+03  0.00000000000E+00 0. -1.
          5    1    1    2  502    0  0.18653523757E+02  0.78414227322E+02 -0.15698151839E+03  0.17652770919E+03  0.47000000000E+01 0.  1.
         -5    1    1    2    0  502  0.15197831621E+01 -0.47681956327E+02 -0.63308756730E+02  0.79410121387E+02  0.47000000000E+01 0.  1.
        -11    1    1    2    0    0  0.10347510718E+02 -0.56839879317E+02 -0.17689808829E+03  0.18609346173E+03  0.00000000000E+00 0.  1.
         11    1    1    2    0    0 -0.30520817637E+02  0.26107608322E+02 -0.10704957438E+03  0.11433607872E+03  0.00000000000E+00 0. -1.
<mgrwt>
<rscale>  0 0.12138200E+03</rscale>
<asrwt>0</asrwt>
<pdfrwt beam="2">  1        1 0.81585016E-01 0.13029339E+03</pdfrwt>
<pdfrwt beam="1">  1       -1 0.40099568E-02 0.13029339E+03</pdfrwt>
<totfact> 0.97177738E+03</totfact>
</mgrwt>
</event>
<event>
 6    1  0.9263730E-006  0.1273111E+03  0.7546771E-02  0.1245404E+00
          3   -1    0    0  501    0  0.00000000000E+00  0.00000000000E+00  0.11767777737E+03  0.11767777737E+03  0.00000000000E+00 0. -1.
         -3   -1    0    0    0  501 -0.00000000000E+00 -0.00000000000E+00 -0.10889371510E+03  0.10889371510E+03  0.00000000000E+00 0.  1.
          5    1    1    2  502    0 -0.57529971516E+02 -0.38920504057E+02 -0.62953263287E+01  0.69901533547E+02  0.47000000000E+01 0.  1.
         -5    1    1    2    0  502  0.48485707538E+02  0.16716243626E+02  0.29986710502E+02  0.59595213257E+02  0.47000000000E+01 0.  1.
        -11    1    1    2    0    0 -0.30062149141E+02  0.23904738232E+02  0.21157623343E+02  0.43849907029E+02  0.00000000000E+00 0. -1.
         11    1    1    2    0    0  0.39106413118E+02 -0.17004778019E+01 -0.36064945245E+02  0.53224838631E+02  0.00000000000E+00 0.  1.
<mgrwt>
<rscale>  0 0.11861260E+03</rscale>
<asrwt>0</asrwt>
<pdfrwt beam="1">  1        3 0.18104273E-01 0.12731114E+03</pdfrwt>
<pdfrwt beam="2">  1       -3 0.16752879E-01 0.12731114E+03</pdfrwt>
<totfact> 0.18599098E+03</totfact>
</mgrwt>
</event>
<event>
 6    1  0.9263730E-006  0.1798936E+03  0.7546771E-02  0.1173744E+00
          3   -1    0    0  501    0  0.00000000000E+00  0.00000000000E+00  0.12382878714E+04  0.12382878714E+04  0.00000000000E+00 0. -1.
         -3   -1    0    0    0  501 -0.00000000000E+00 -0.00000000000E+00 -0.23465135396E+02  0.23465135396E+02  0.00000000000E+00 0.  1.
          5    1    1    2  502    0  0.34009986964E+02 -0.95905475642E+02  0.64422409739E+03  0.65222796408E+03  0.47000000000E+01 0.  1.
         -5    1    1    2    0  502 -0.40084988229E+02 -0.33320377526E+02  0.93889518149E+02  0.10749132736E+03  0.47000000000E+01 0.  1.
        -11    1    1    2    0    0 -0.24971498793E+02  0.14753535524E+02  0.39393538878E+02  0.48919254571E+02  0.00000000000E+00 0.  1.
         11    1    1    2    0    0  0.31046500057E+02  0.11447231764E+03  0.43731558161E+03  0.45311446081E+03  0.00000000000E+00 0. -1.
<mgrwt>
<rscale>  0 0.17399553E+03</rscale>
<asrwt>0</asrwt>
<pdfrwt beam="1">  1        3 0.19050577E+00 0.17989356E+03</pdfrwt>
<pdfrwt beam="2">  1       -3 0.36100218E-02 0.17989356E+03</pdfrwt>
<totfact> 0.17009907E+02</totfact>
</mgrwt>
</event>
<event>
 6    1  0.9263730E-006  0.2612707E+03  0.7546771E-02  0.1106382E+00
          2   -1    0    0  501    0  0.00000000000E+00  0.00000000000E+00  0.29360820251E+02  0.29360820251E+02  0.00000000000E+00 0. -1.
         -2   -1    0    0    0  501 -0.00000000000E+00 -0.00000000000E+00 -0.58123715088E+03  0.58123715088E+03  0.00000000000E+00 0.  1.
          5    1    1    2  502    0  0.64915985715E+02  0.30906565819E+02 -0.85796036280E+02  0.11203727439E+03  0.47000000000E+01 0. -1.
         -5    1    1    2    0  502 -0.20126683893E+02 -0.23969769594E+02 -0.20866810190E+03  0.21105473226E+03  0.47000000000E+01 0. -1.
        -11    1    1    2    0    0 -0.26455683239E+02 -0.62900415276E+02 -0.12079017314E+03  0.13873222894E+03  0.00000000000E+00 0. -1.
         11    1    1    2    0    0 -0.18333618583E+02  0.55963619051E+02 -0.13662201930E+03  0.14877373554E+03  0.00000000000E+00 0.  1.
<mgrwt>
<rscale>  0 0.26127074E+03</rscale>
<asrwt>0</asrwt>
<pdfrwt beam="1">  1        2 0.45170492E-02 0.26127074E+03</pdfrwt>
<pdfrwt beam="2">  1       -2 0.89421101E-01 0.26127074E+03</pdfrwt>
<totfact> 0.19898265E+03</totfact>
</mgrwt>
</event>
<event>
 6    1  0.9263730E-006  0.1896471E+03  0.7546771E-02  0.1163674E+00
          2   -1    0    0  501    0  0.00000000000E+00  0.00000000000E+00  0.59697848531E+03  0.59697848531E+03  0.00000000000E+00 0. -1.
         -2   -1    0    0    0  501 -0.00000000000E+00 -0.00000000000E+00 -0.18555264885E+03  0.18555264885E+03  0.00000000000E+00 0.  1.
          5    1    1    2  502    0 -0.10424554007E+03 -0.75505995113E+02  0.33221658571E+03  0.35631199495E+03  0.47000000000E+01 0. -1.
         -5    1    1    2    0  502  0.33685126747E+02 -0.48442751435E+02  0.20625227129E+03  0.21457743904E+03  0.47000000000E+01 0. -1.
        -11    1    1    2    0    0  0.80737571846E+02  0.11370055037E+03 -0.13588447573E+03  0.19470737378E+03  0.00000000000E+00 0.  1.
         11    1    1    2    0    0 -0.10177158518E+02  0.10248196181E+02  0.88414551936E+01  0.16934326394E+02  0.00000000000E+00 0. -1.
<mgrwt>
<rscale>  0 0.18433365E+03</rscale>
<asrwt>0</asrwt>
<pdfrwt beam="1">  1        2 0.91842843E-01 0.18964714E+03</pdfrwt>
<pdfrwt beam="2">  1       -2 0.28546562E-01 0.18964714E+03</pdfrwt>
<totfact> 0.57264064E+02</totfact>
</mgrwt>
</event>
<event>
 6    1  0.9263730E-006  0.1321044E+03  0.7546771E-02  0.1237235E+00
          3   -1    0    0  501    0  0.00000000000E+00  0.00000000000E+00  0.37629507048E+02  0.37629507048E+02  0.00000000000E+00 0. -1.
         -3   -1    0    0    0  501 -0.00000000000E+00 -0.00000000000E+00 -0.36823431144E+03  0.36823431144E+03  0.00000000000E+00 0.  1.
          5    1    1    2  502    0  0.31543501729E+02 -0.25067005285E+02 -0.13501456781E+03  0.14097649016E+03  0.47000000000E+01 0. -1.
         -5    1    1    2    0  502 -0.75072852582E+02  0.16894688833E+02 -0.77953218096E+02  0.10963648078E+03  0.47000000000E+01 0.  1.
        -11    1    1    2    0    0 -0.14485183351E+02 -0.62464502355E+01  0.68167251563E+01  0.17184481928E+02  0.00000000000E+00 0.  1.
         11    1    1    2    0    0  0.58014534204E+02  0.14418766688E+02 -0.12445374364E+03  0.13806636563E+03  0.00000000000E+00 0. -1.
<mgrwt>
<rscale>  0 0.12362450E+03</rscale>
<asrwt>0</asrwt>
<pdfrwt beam="1">  1        3 0.57891550E-02 0.13210444E+03</pdfrwt>
<pdfrwt beam="2">  1       -3 0.56651432E-01 0.13210444E+03</pdfrwt>
<totfact> 0.12807542E+03</totfact>
</mgrwt>
</event>
<event>
 6    1  0.9263730E-006  0.2169168E+03  0.7546771E-02  0.1139777E+00
         -2   -1    0    0    0  501 -0.00000000000E+00  0.00000000000E+00  0.17301694942E+03  0.17301694942E+03  0.00000000000E+00 0. -1.
          2   -1    0    0  501    0  0.00000000000E+00 -0.00000000000E+00 -0.29315681754E+03  0.29315681754E+03  0.00000000000E+00 0.  1.
          5    1    1    2  502    0 -0.91879279890E+02  0.21077972229E+01 -0.38047243493E+01  0.92102175922E+02  0.47000000000E+01 0. -1.
         -5    1    1    2    0  502 -0.82872834395E+02 -0.31935931755E+02 -0.14796581999E+03  0.17263772561E+03  0.47000000000E+01 0. -1.
        -11    1    1    2    0    0  0.23915620987E+02 -0.12834947015E+02 -0.22852558804E+02  0.35481435089E+02  0.00000000000E+00 0.  1.
         11    1    1    2    0    0  0.15083649330E+03  0.42663081548E+02  0.54483235021E+02  0.16595243034E+03  0.00000000000E+00 0. -1.
<mgrwt>
<rscale>  0 0.21227445E+03</rscale>
<asrwt>0</asrwt>
<pdfrwt beam="2">  1        2 0.45101048E-01 0.21691684E+03</pdfrwt>
<pdfrwt beam="1">  1       -2 0.26617993E-01 0.21691684E+03</pdfrwt>
<totfact> 0.14173766E+03</totfact>
</mgrwt>
</event>
<event>
 6    1  0.1512717E-005  0.2629297E+03  0.7546771E-02  0.1107544E+00
         -1   -1    0    0    0  501 -0.00000000000E+00  0.00000000000E+00  0.12749126936E+03  0.12749126936E+03  0.00000000000E+00 0.  1.
          1   -1    0    0  501    0  0.00000000000E+00 -0.00000000000E+00 -0.51629636980E+03  0.51629636980E+03  0.00000000000E+00 0. -1.
          5    1    1    2  502    0  0.19040927271E+03 -0.10779072743E+03 -0.15507083143E+03  0.26822301321E+03  0.47000000000E+01 0.  1.
         -5    1    1    2    0  502 -0.76932834087E+01 -0.34062889131E+02 -0.67992266094E+02  0.76580057940E+02  0.47000000000E+01 0.  1.
        -11    1    1    2    0    0 -0.66252933103E+02  0.10614991069E+03 -0.10239440104E+03  0.16168447065E+03  0.00000000000E+00 0. -1.
         11    1    1    2    0    0 -0.11646305620E+03  0.35703705876E+02 -0.63347601873E+02  0.13730009737E+03  0.00000000000E+00 0.  1.
<mgrwt>
<rscale>  0 0.25933418E+03</rscale>
<asrwt>0</asrwt>
<pdfrwt beam="2">  1        1 0.79430209E-01 0.26292967E+03</pdfrwt>
<pdfrwt beam="1">  1       -1 0.19614042E-01 0.26292967E+03</pdfrwt>
<totfact> 0.90243301E+02</totfact>
</mgrwt>
</event>
<event>
 6    1  0.9263730E-006  0.1522997E+03  0.7546771E-02  0.1207043E+00
          2   -1    0    0  501    0  0.00000000000E+00  0.00000000000E+00  0.29601060751E+03  0.29601060751E+03  0.00000000000E+00 0. -1.
         -2   -1    0    0    0  501 -0.00000000000E+00 -0.00000000000E+00 -0.76173550873E+02  0.76173550873E+02  0.00000000000E+00 0.  1.
          5    1    1    2  502    0 -0.33031282958E+02 -0.11669184793E+02  0.10924113313E+02  0.36995429167E+02  0.47000000000E+01 0.  1.
         -5    1    1    2    0  502  0.28196128749E+02  0.98541018354E+02  0.18049422322E+03  0.20761890230E+03  0.47000000000E+01 0.  1.
        -11    1    1    2    0    0  0.38947412834E+02 -0.23865762778E+02  0.32097468619E+02  0.55827619430E+02  0.00000000000E+00 0. -1.
         11    1    1    2    0    0 -0.34112258625E+02 -0.63006070783E+02 -0.36787485204E+01  0.71742207484E+02  0.00000000000E+00 0.  1.
<mgrwt>
<rscale>  0 0.14477648E+03</rscale>
<asrwt>0</asrwt>
<pdfrwt beam="1">  1        2 0.45540093E-01 0.15229968E+03</pdfrwt>
<pdfrwt beam="2">  1       -2 0.11719008E-01 0.15229968E+03</pdfrwt>
<totfact> 0.54924976E+03</totfact>
</mgrwt>
</event>
<event>
 6    1  0.9263730E-006  0.1507348E+03  0.7546771E-02  0.1221711E+00
          2   -1    0    0  501    0  0.00000000000E+00  0.00000000000E+00  0.34090153407E+03  0.34090153407E+03  0.00000000000E+00 0. -1.
         -2   -1    0    0    0  501 -0.00000000000E+00 -0.00000000000E+00 -0.86889913524E+02  0.86889913524E+02  0.00000000000E+00 0.  1.
          5    1    1    2  502    0  0.28487799111E+02  0.13092877919E+02  0.27681195453E+03  0.27862147499E+03  0.47000000000E+01 0. -1.
         -5    1    1    2    0  502 -0.45950962947E+02  0.56095071738E+01  0.13432332112E+02  0.48430105435E+02  0.47000000000E+01 0.  1.
        -11    1    1    2    0    0  0.44961612909E+02  0.31294333063E+01 -0.45893556964E+02  0.64323856842E+02  0.00000000000E+00 0.  1.
         11    1    1    2    0    0 -0.27498449073E+02 -0.21831818399E+02  0.96608908614E+01  0.36416010329E+02  0.00000000000E+00 0. -1.
<mgrwt>
<rscale>  0 0.13394929E+03</rscale>
<asrwt>0</asrwt>
<pdfrwt beam="1">  1        2 0.52446389E-01 0.15073483E+03</pdfrwt>
<pdfrwt beam="2">  1       -2 0.13367679E-01 0.15073483E+03</pdfrwt>
<totfact> 0.38229730E+03</totfact>
</mgrwt>
</event>
<event>
 6    1  0.9263730E-006  0.1713140E+03  0.7546771E-02  0.1181724E+00
          2   -1    0    0  501    0  0.00000000000E+00  0.00000000000E+00  0.11350334369E+04  0.11350334369E+04  0.00000000000E+00 0. -1.
         -2   -1    0    0    0  501 -0.00000000000E+00 -0.00000000000E+00 -0.28035613591E+02  0.28035613591E+02  0.00000000000E+00 0.  1.
          5    1    1    2  502    0 -0.53542852548E+02  0.36204086580E+02  0.15064934742E+03  0.16399661222E+03  0.47000000000E+01 0.  1.
         -5    1    1    2    0  502 -0.63483887978E+02 -0.41245445367E+02  0.67431282522E+03  0.67856559525E+03  0.47000000000E+01 0.  1.
        -11    1    1    2    0    0  0.50131367042E+02  0.43653598163E+02  0.78826749507E+02  0.10311375772E+03  0.00000000000E+00 0. -1.
         11    1    1    2    0    0  0.66895373484E+02 -0.38612239376E+02  0.20320890121E+03  0.21739308534E+03  0.00000000000E+00 0.  1.
<mgrwt>
<rscale>  0 0.16633554E+03</rscale>
<asrwt>0</asrwt>
<pdfrwt beam="1">  1        2 0.17462049E+00 0.17131400E+03</pdfrwt>
<pdfrwt beam="2">  1       -2 0.43131722E-02 0.17131400E+03</pdfrwt>
<totfact> 0.52668054E+03</totfact>
</mgrwt>
</event>
<event>
 6    1  0.9263730E-006  0.1271465E+03  0.7546771E-02  0.1246380E+00
          2   -1    0    0  501    0  0.00000000000E+00  0.00000000000E+00  0.24520840541E+03  0.24520840541E+03  0.00000000000E+00 0. -1.
         -2   -1    0    0    0  501 -0.00000000000E+00 -0.00000000000E+00 -0.82631477975E+02  0.82631477975E+02  0.00000000000E+00 0.  1.
          5    1    1    2  502    0  0.19458535944E+02  0.50843345304E+02  0.70975600677E+02  0.89572910381E+02  0.47000000000E+01 0. -1.
         -5    1    1    2    0  502 -0.41016745058E+02 -0.58793221116E+02  0.11982864512E+03  0.13971403085E+03  0.47000000000E+01 0. -1.
        -11    1    1    2    0    0 -0.20881060646E+02 -0.13881703464E+01 -0.46822960801E+02  0.51286795267E+02  0.00000000000E+00 0.  1.
         11    1    1    2    0    0  0.42439269761E+02  0.93380461588E+01  0.18595642438E+02  0.47266146887E+02  0.00000000000E+00 0. -1.
<mgrwt>
<rscale>  0 0.11803181E+03</rscale>
<asrwt>0</asrwt>
<pdfrwt beam="1">  1        2 0.37724370E-01 0.12714653E+03</pdfrwt>
<pdfrwt beam="2">  1       -2 0.12712535E-01 0.12714653E+03</pdfrwt>
<totfact> 0.58256234E+03</totfact>
</mgrwt>
</event>
<event>
 6    1  0.9263730E-006  0.1424823E+03  0.7546771E-02  0.1223889E+00
          2   -1    0    0  501    0  0.00000000000E+00  0.00000000000E+00  0.10684209329E+04  0.10684209329E+04  0.00000000000E+00 0. -1.
         -2   -1    0    0    0  501 -0.00000000000E+00 -0.00000000000E+00 -0.15160760518E+02  0.15160760518E+02  0.00000000000E+00 0.  1.
          5    1    1    2  502    0  0.69231053431E+02  0.24899411604E+02  0.35596366232E+03  0.36351772769E+03  0.47000000000E+01 0.  1.
         -5    1    1    2    0  502 -0.54253326474E+02  0.41830107613E+02  0.35678315456E+03  0.36333110342E+03  0.47000000000E+01 0.  1.
        -11    1    1    2    0    0  0.11202416437E+02 -0.77034058315E+02  0.26260933990E+03  0.27390400814E+03  0.00000000000E+00 0.  1.
         11    1    1    2    0    0 -0.26180143395E+02  0.10304539098E+02  0.77904015641E+02  0.82828854194E+02  0.00000000000E+00 0. -1.
<mgrwt>
<rscale>  0 0.13243373E+03</rscale>
<asrwt>0</asrwt>
<pdfrwt beam="1">  1        2 0.16437239E+00 0.14248227E+03</pdfrwt>
<pdfrwt beam="2">  1       -2 0.23324255E-02 0.14248227E+03</pdfrwt>
<totfact> 0.14156379E+04</totfact>
</mgrwt>
</event>
<event>
 6    1  0.9263730E-006  0.1374616E+03  0.7546771E-02  0.1228872E+00
          2   -1    0    0  501    0  0.00000000000E+00  0.00000000000E+00  0.58976001812E+03  0.58976001812E+03  0.00000000000E+00 0. -1.
         -2   -1    0    0    0  501 -0.00000000000E+00 -0.00000000000E+00 -0.25340303396E+02  0.25340303396E+02  0.00000000000E+00 0.  1.
          5    1    1    2  502    0  0.64866674171E+02  0.44419606839E+02  0.23507481452E+03  0.24791741631E+03  0.47000000000E+01 0.  1.
         -5    1    1    2    0  502 -0.79642627293E+01 -0.50045912764E+02  0.68569046388E+02  0.85392195122E+02  0.47000000000E+01 0.  1.
        -11    1    1    2    0    0 -0.27792214330E+01  0.18722521175E+02  0.43936770301E+01  0.19430935869E+02  0.00000000000E+00 0.  1.
         11    1    1    2    0    0 -0.54123190009E+02 -0.13096215249E+02  0.25638217679E+03  0.26235977422E+03  0.00000000000E+00 0. -1.
<mgrwt>
<rscale>  0 0.12905017E+03</rscale>
<asrwt>0</asrwt>
<pdfrwt beam="1">  1        2 0.90732300E-01 0.13746164E+03</pdfrwt>
<pdfrwt beam="2">  1       -2 0.38985086E-02 0.13746164E+03</pdfrwt>
<totfact> 0.13976979E+04</totfact>
</mgrwt>
</event>
<event>
 6    1  0.9263730E-006  0.2573105E+03  0.7546771E-02  0.1108770E+00
          1   -1    0    0  501    0  0.00000000000E+00  0.00000000000E+00  0.19699232735E+03  0.19699232735E+03  0.00000000000E+00 0. -1.
         -1   -1    0    0    0  501 -0.00000000000E+00 -0.00000000000E+00 -0.84024475919E+02  0.84024475919E+02  0.00000000000E+00 0.  1.
          5    1    1    2  502    0  0.20846017441E+02  0.63461574505E+01  0.85838932340E+02  0.88686202212E+02  0.47000000000E+01 0. -1.
         -5    1    1    2    0  502 -0.48726811360E+02 -0.63077159241E+02  0.87622633029E+01  0.80323703982E+02  0.47000000000E+01 0. -1.
        -11    1    1    2    0    0  0.25713464055E+02  0.26999250689E+02 -0.34832994021E+02  0.51024300524E+02  0.00000000000E+00 0.  1.
         11    1    1    2    0    0  0.21673298644E+01  0.29731751101E+02  0.53199649810E+02  0.60982596552E+02  0.00000000000E+00 0. -1.
<mgrwt>
<rscale>  0 0.25731053E+03</rscale>
<asrwt>0</asrwt>
<pdfrwt beam="1">  1        1 0.30306512E-01 0.25731053E+03</pdfrwt>
<pdfrwt beam="2">  1       -1 0.12926843E-01 0.25731053E+03</pdfrwt>
<totfact> 0.60224117E+03</totfact>
</mgrwt>
</event>
<event>
 6    1  0.9263730E-006  0.6171233E+03  0.7546771E-02  0.9870504E-01
          2   -1    0    0  501    0  0.00000000000E+00  0.00000000000E+00  0.30622644685E+03  0.30622644685E+03  0.00000000000E+00 0.  1.
         -2   -1    0    0    0  501 -0.00000000000E+00 -0.00000000000E+00 -0.31091470273E+03  0.31091470273E+03  0.00000000000E+00 0. -1.
          5    1    1    2  502    0 -0.10109786822E+03  0.27428153071E+02  0.15510460481E+03  0.18722342528E+03  0.47000000000E+01 0.  1.
         -5    1    1    2    0  502  0.35841005196E+02  0.15129721754E+02  0.30116609386E+02  0.49422528210E+02  0.47000000000E+01 0.  1.
        -11    1    1    2    0    0  0.13521958217E+03 -0.14632542374E+02  0.37376318563E+02  0.14105118181E+03  0.00000000000E+00 0.  1.
         11    1    1    2    0    0 -0.69962719150E+02 -0.27925332451E+02 -0.22728578864E+03  0.23944401429E+03  0.00000000000E+00 0. -1.
<mgrwt>
<rscale>  0 0.61712334E+03</rscale>
<asrwt>0</asrwt>
<pdfrwt beam="1">  1        2 0.47111761E-01 0.61712334E+03</pdfrwt>
<pdfrwt beam="2">  1       -2 0.47833031E-01 0.61712334E+03</pdfrwt>
<totfact> 0.44831572E+02</totfact>
</mgrwt>
</event>
<event>
 6    1  0.9263730E-006  0.1301859E+03  0.7546771E-02  0.1240583E+00
         -1   -1    0    0    0  501 -0.00000000000E+00  0.00000000000E+00  0.55055146741E+02  0.55055146741E+02  0.00000000000E+00 0.  1.
          1   -1    0    0  501    0  0.00000000000E+00 -0.00000000000E+00 -0.23836650145E+03  0.23836650145E+03  0.00000000000E+00 0. -1.
          5    1    1    2  502    0  0.27579226031E+01 -0.46319420675E+02 -0.54171402240E+02  0.71482345299E+02  0.47000000000E+01 0.  1.
         -5    1    1    2    0  502 -0.20882368880E+02  0.77848527025E+02 -0.47254295525E+02  0.93549585438E+02  0.47000000000E+01 0.  1.
        -11    1    1    2    0    0 -0.15154888500E+02 -0.15084182483E+02  0.14007837185E+02  0.25562134286E+02  0.00000000000E+00 0.  1.
         11    1    1    2    0    0  0.33279334777E+02 -0.16444923867E+02 -0.95893494130E+02  0.10282758317E+03  0.00000000000E+00 0. -1.
<mgrwt>
<rscale>  0 0.12153681E+03</rscale>
<asrwt>0</asrwt>
<pdfrwt beam="2">  1        1 0.36671770E-01 0.13018589E+03</pdfrwt>
<pdfrwt beam="1">  1       -1 0.84700225E-02 0.13018589E+03</pdfrwt>
<totfact> 0.87274781E+03</totfact>
</mgrwt>
</event>
<event>
 6    1  0.9263730E-006  0.2908330E+03  0.7546771E-02  0.1091646E+00
          2   -1    0    0  501    0  0.00000000000E+00  0.00000000000E+00  0.29797739655E+03  0.29797739655E+03  0.00000000000E+00 0. -1.
         -2   -1    0    0    0  501 -0.00000000000E+00 -0.00000000000E+00 -0.29327675804E+03  0.29327675804E+03  0.00000000000E+00 0.  1.
          5    1    1    2  502    0  0.13620220960E+03 -0.19088977489E+03  0.93610341124E+02  0.25253699536E+03  0.47000000000E+01 0.  1.
         -5    1    1    2    0  502 -0.19755669234E+02 -0.44479256882E+02 -0.10350683716E+02  0.49979169791E+02  0.47000000000E+01 0.  1.
        -11    1    1    2    0    0 -0.34055032412E+02  0.47299638389E+02  0.19150459158E+02  0.61349336674E+02  0.00000000000E+00 0. -1.
         11    1    1    2    0    0 -0.82391507955E+02  0.18806939338E+03 -0.97709478056E+02  0.22738865278E+03  0.00000000000E+00 0.  1.
<mgrwt>
<rscale>  0 0.28753032E+03</rscale>
<asrwt>0</asrwt>
<pdfrwt beam="1">  1        2 0.45842676E-01 0.29083304E+03</pdfrwt>
<pdfrwt beam="2">  1       -2 0.45119501E-01 0.29083304E+03</pdfrwt>
<totfact> 0.52114009E+02</totfact>
</mgrwt>
</event>
<event>
 6    1  0.9263730E-006  0.1374782E+03  0.7546771E-02  0.1228713E+00
         -1   -1    0    0    0  501 -0.00000000000E+00  0.00000000000E+00  0.16781930735E+03  0.16781930735E+03  0.00000000000E+00 0.  1.
          1   -1    0    0  501    0  0.00000000000E+00 -0.00000000000E+00 -0.92217125731E+02  0.92217125731E+02  0.00000000000E+00 0. -1.
          5    1    1    2  502    0 -0.25636602274E+02  0.44761591913E+01 -0.21823990927E+02  0.34287723127E+02  0.47000000000E+01 0. -1.
         -5    1    1    2    0  502  0.75175492186E+02  0.24184654159E+02  0.87861631646E+02  0.11822862783E+03  0.47000000000E+01 0. -1.
        -11    1    1    2    0    0 -0.39505448203E+02 -0.35406725004E+02  0.45321994939E+02  0.69773919472E+02  0.00000000000E+00 0.  1.
         11    1    1    2    0    0 -0.10033441709E+02  0.67459116538E+01 -0.35757454034E+02  0.37746162660E+02  0.00000000000E+00 0. -1.
<mgrwt>
<rscale>  0 0.12915660E+03</rscale>
<asrwt>0</asrwt>
<pdfrwt beam="2">  1        1 0.14187250E-01 0.13747824E+03</pdfrwt>
<pdfrwt beam="1">  1       -1 0.25818355E-01 0.13747824E+03</pdfrwt>
<totfact> 0.50523949E+03</totfact>
</mgrwt>
</event>
<event>
 6    1  0.9263730E-006  0.1403101E+03  0.7546771E-02  0.1223286E+00
          2   -1    0    0  501    0  0.00000000000E+00  0.00000000000E+00  0.10076369360E+04  0.10076369360E+04  0.00000000000E+00 0. -1.
         -2   -1    0    0    0  501 -0.00000000000E+00 -0.00000000000E+00 -0.19482228334E+02  0.19482228334E+02  0.00000000000E+00 0.  1.
          5    1    1    2  502    0 -0.57341882346E+02 -0.33978390773E+02  0.68847894009E+03  0.69171378724E+03  0.47000000000E+01 0. -1.
         -5    1    1    2    0  502  0.29323613392E+02 -0.23258402480E+02  0.68880245506E+02  0.78532832683E+02  0.47000000000E+01 0. -1.
        -11    1    1    2    0    0  0.30468319434E+02 -0.14884613378E+02  0.37562240648E+02  0.50604269850E+02  0.00000000000E+00 0.  1.
         11    1    1    2    0    0 -0.24500504805E+01  0.72121406631E+02  0.19323328144E+03  0.20626827458E+03  0.00000000000E+00 0. -1.
<mgrwt>
<rscale>  0 0.13285088E+03</rscale>
<asrwt>0</asrwt>
<pdfrwt beam="1">  1        2 0.15502103E+00 0.14031008E+03</pdfrwt>
<pdfrwt beam="2">  1       -2 0.29972667E-02 0.14031008E+03</pdfrwt>
<totfact> 0.10634971E+04</totfact>
</mgrwt>
</event>
<event>
 6    1  0.9263730E-006  0.1412280E+03  0.7546771E-02  0.1219016E+00
         -1   -1    0    0    0  501 -0.00000000000E+00  0.00000000000E+00  0.86253755602E+02  0.86253755602E+02  0.00000000000E+00 0.  1.
          1   -1    0    0  501    0  0.00000000000E+00 -0.00000000000E+00 -0.62951879900E+03  0.62951879900E+03  0.00000000000E+00 0. -1.
          5    1    1    2  502    0 -0.47166142948E+02 -0.48001229718E+00 -0.51427994383E+03  0.51645989784E+03  0.47000000000E+01 0. -1.
         -5    1    1    2    0  502 -0.26358438007E+02 -0.35888136162E+02 -0.59616790376E+02  0.74558549249E+02  0.47000000000E+01 0.  1.
        -11    1    1    2    0    0  0.49923243740E+02  0.14043103347E+02  0.61150286144E+02  0.80180399803E+02  0.00000000000E+00 0.  1.
         11    1    1    2    0    0  0.23601337215E+02  0.22325045112E+02 -0.30518595336E+02  0.44573707709E+02  0.00000000000E+00 0. -1.
<mgrwt>
<rscale>  0 0.13585594E+03</rscale>
<asrwt>0</asrwt>
<pdfrwt beam="2">  1        1 0.96849051E-01 0.14122798E+03</pdfrwt>
<pdfrwt beam="1">  1       -1 0.13269808E-01 0.14122798E+03</pdfrwt>
<totfact> 0.12776953E+03</totfact>
</mgrwt>
</event>
<event>
 6    1  0.9263730E-006  0.2265333E+03  0.7546771E-02  0.1132361E+00
          1   -1    0    0  501    0  0.00000000000E+00  0.00000000000E+00  0.58094741791E+02  0.58094741791E+02  0.00000000000E+00 0. -1.
         -1   -1    0    0    0  501 -0.00000000000E+00 -0.00000000000E+00 -0.82033591089E+03  0.82033591089E+03  0.00000000000E+00 0.  1.
          5    1    1    2  502    0  0.11361861586E+03 -0.11740456306E+03 -0.38360153110E+03  0.41697151696E+03  0.47000000000E+01 0.  1.
         -5    1    1    2    0  502  0.46400079822E+02  0.16958242725E+02 -0.41370461093E+02  0.64607696560E+02  0.47000000000E+01 0.  1.
        -11    1    1    2    0    0 -0.67420590743E+02  0.62388480281E+02 -0.24120051096E+03  0.25809987411E+03  0.00000000000E+00 0.  1.
         11    1    1    2    0    0 -0.92598104935E+02  0.38057840050E+02 -0.96068665945E+02  0.13875156505E+03  0.00000000000E+00 0. -1.
<mgrwt>
<rscale>  0 0.22205452E+03</rscale>
<asrwt>0</asrwt>
<pdfrwt beam="1">  1        1 0.89376527E-02 0.22653332E+03</pdfrwt>
<pdfrwt beam="2">  1       -1 0.12620552E+00 0.22653332E+03</pdfrwt>
<totfact> 0.43793778E+02</totfact>
</mgrwt>
</event>
<event>
 6    1  0.9263730E-006  0.2509857E+03  0.7546771E-02  0.1142948E+00
         -2   -1    0    0    0  501 -0.00000000000E+00  0.00000000000E+00  0.49191211039E+02  0.49191211039E+02  0.00000000000E+00 0.  1.
          2   -1    0    0  501    0  0.00000000000E+00 -0.00000000000E+00 -0.83651086357E+03  0.83651086357E+03  0.00000000000E+00 0. -1.
          5    1    1    2  502    0  0.46270776566E+02 -0.10360023762E+03 -0.32166496050E+03  0.34112231063E+03  0.47000000000E+01 0. -1.
         -5    1    1    2    0  502  0.29695862781E+02  0.13393654961E+03 -0.36062707242E+03  0.38586891421E+03  0.47000000000E+01 0.  1.
        -11    1    1    2    0    0 -0.12596331968E+02  0.93228152825E+01 -0.77465240782E+02  0.79034460796E+02  0.00000000000E+00 0. -1.
         11    1    1    2    0    0 -0.63370307379E+02 -0.39659127272E+02 -0.27562378831E+02  0.79676388976E+02  0.00000000000E+00 0.  1.
<mgrwt>
<rscale>  0 0.20826354E+03</rscale>
<asrwt>0</asrwt>
<pdfrwt beam="2">  1        2 0.12869397E+00 0.25098570E+03</pdfrwt>
<pdfrwt beam="1">  1       -2 0.75678789E-02 0.25098570E+03</pdfrwt>
<totfact> 0.34396478E+03</totfact>
</mgrwt>
</event>
<event>
 6    1  0.9263730E-006  0.3123191E+03  0.7546771E-02  0.1079240E+00
         -2   -1    0    0    0  501 -0.00000000000E+00  0.00000000000E+00  0.11514736392E+03  0.11514736392E+03  0.00000000000E+00 0.  1.
          2   -1    0    0  501    0  0.00000000000E+00 -0.00000000000E+00 -0.21177911129E+03  0.21177911129E+03  0.00000000000E+00 0. -1.
          5    1    1    2  502    0 -0.81777629779E+02 -0.42319646986E+02 -0.45423397378E+01  0.92310650001E+02  0.47000000000E+01 0.  1.
         -5    1    1    2    0  502  0.10424885352E+02 -0.34990092318E+02 -0.88152132133E+02  0.95529436273E+02  0.47000000000E+01 0.  1.
        -11    1    1    2    0    0  0.15980499870E+02  0.65307305684E+02  0.29363710687E+02  0.73366532269E+02  0.00000000000E+00 0.  1.
         11    1    1    2    0    0  0.55372244557E+02  0.12002433620E+02 -0.33300986182E+02  0.65719856670E+02  0.00000000000E+00 0. -1.
<mgrwt>
<rscale>  0 0.31231911E+03</rscale>
<asrwt>0</asrwt>
<pdfrwt beam="2">  1        2 0.32581401E-01 0.31231911E+03</pdfrwt>
<pdfrwt beam="1">  1       -2 0.17714979E-01 0.31231911E+03</pdfrwt>
<totfact> 0.41387679E+03</totfact>
</mgrwt>
</event>
<event>
 6    1  0.9263730E-006  0.2058504E+03  0.7546771E-02  0.1177935E+00
          2   -1    0    0  501    0  0.00000000000E+00  0.00000000000E+00  0.36199545713E+03  0.36199545713E+03  0.00000000000E+00 0. -1.
         -2   -1    0    0    0  501 -0.00000000000E+00 -0.00000000000E+00 -0.89552475714E+02  0.89552475714E+02  0.00000000000E+00 0.  1.
          5    1    1    2  502    0 -0.55736145799E+01  0.20394905169E+02  0.30570653809E+03  0.30647282875E+03  0.47000000000E+01 0. -1.
         -5    1    1    2    0  502  0.30141904983E+02 -0.33139407095E+02 -0.16967088301E+02  0.48132388514E+02  0.47000000000E+01 0.  1.
        -11    1    1    2    0    0  0.19368675635E+01  0.49525590605E+02 -0.28098913118E+01  0.49643036470E+02  0.00000000000E+00 0. -1.
         11    1    1    2    0    0 -0.26505157966E+02 -0.36781088679E+02 -0.13486577053E+02  0.47299679109E+02  0.00000000000E+00 0.  1.
<mgrwt>
<rscale>  0 0.16991683E+03</rscale>
<asrwt>0</asrwt>
<pdfrwt beam="1">  1        2 0.55691608E-01 0.20585041E+03</pdfrwt>
<pdfrwt beam="2">  1       -2 0.13777304E-01 0.20585041E+03</pdfrwt>
<totfact> 0.34591055E+03</totfact>
</mgrwt>
</event>
<event>
 6    1  0.9263730E-006  0.1521330E+03  0.7546771E-02  0.1205243E+00
         -1   -1    0    0    0  501 -0.00000000000E+00  0.00000000000E+00  0.40109778373E+02  0.40109778373E+02  0.00000000000E+00 0.  1.
          1   -1    0    0  501    0  0.00000000000E+00 -0.00000000000E+00 -0.49616465846E+03  0.49616465846E+03  0.00000000000E+00 0. -1.
          5    1    1    2  502    0  0.45375498451E+02  0.52098620956E+02 -0.15082900860E+03  0.16596590614E+03  0.47000000000E+01 0. -1.
         -5    1    1    2    0  502  0.40377356972E+02 -0.64960556006E+02 -0.82698100691E+02  0.11274427103E+03  0.47000000000E+01 0. -1.
        -11    1    1    2    0    0 -0.53852725125E+02 -0.38231946571E+02 -0.14545052340E+03  0.15974245678E+03  0.00000000000E+00 0.  1.
         11    1    1    2    0    0 -0.31900130297E+02  0.51093881621E+02 -0.77077247392E+02  0.97821802875E+02  0.00000000000E+00 0. -1.
<mgrwt>
<rscale>  0 0.14618346E+03</rscale>
<asrwt>0</asrwt>
<pdfrwt beam="2">  1        1 0.76333031E-01 0.15213301E+03</pdfrwt>
<pdfrwt beam="1">  1       -1 0.61707346E-02 0.15213301E+03</pdfrwt>
<totfact> 0.56548027E+03</totfact>
</mgrwt>
</event>
<event>
 6    1  0.9263730E-006  0.1335029E+03  0.7546771E-02  0.1234753E+00
         -3   -1    0    0    0  501 -0.00000000000E+00  0.00000000000E+00  0.28529262702E+03  0.28529262702E+03  0.00000000000E+00 0.  1.
          3   -1    0    0  501    0  0.00000000000E+00 -0.00000000000E+00 -0.52063680215E+02  0.52063680215E+02  0.00000000000E+00 0. -1.
          5    1    1    2  502    0 -0.18510321354E+02  0.48196282852E+02  0.84632458373E+02  0.99248459372E+02  0.47000000000E+01 0. -1.
         -5    1    1    2    0  502 -0.27859932899E+02 -0.55133507380E+02  0.62782053873E+01  0.62268654716E+02  0.47000000000E+01 0. -1.
        -11    1    1    2    0    0  0.29696409441E+02 -0.41578937898E+02  0.59598213106E+02  0.78502431910E+02  0.00000000000E+00 0.  1.
         11    1    1    2    0    0  0.16673844813E+02  0.48516162426E+02  0.82720069937E+02  0.97336761235E+02  0.00000000000E+00 0. -1.
<mgrwt>
<rscale>  0 0.12520245E+03</rscale>
<asrwt>0</asrwt>
<pdfrwt beam="2">  1        3 0.80097972E-02 0.13350292E+03</pdfrwt>
<pdfrwt beam="1">  1       -3 0.43891172E-01 0.13350292E+03</pdfrwt>
<totfact> 0.12657374E+03</totfact>
</mgrwt>
</event>
<event>
 6    1  0.9263730E-006  0.1441157E+03  0.7546771E-02  0.1219282E+00
         -3   -1    0    0    0  501 -0.00000000000E+00  0.00000000000E+00  0.52428840546E+02  0.52428840546E+02  0.00000000000E+00 0.  1.
          3   -1    0    0  501    0  0.00000000000E+00 -0.00000000000E+00 -0.31943971982E+03  0.31943971982E+03  0.00000000000E+00 0. -1.
          5    1    1    2  502    0 -0.16442703185E+02 -0.57777230369E+02 -0.15079862418E+03  0.16239115091E+03  0.47000000000E+01 0.  1.
         -5    1    1    2    0  502  0.56872060292E+02 -0.14710210574E+01 -0.18648798825E+02  0.60053832871E+02  0.47000000000E+01 0.  1.
        -11    1    1    2    0    0 -0.57303409284E+02  0.32003199995E+02 -0.97309192197E+02  0.11737531432E+03  0.00000000000E+00 0.  1.
         11    1    1    2    0    0  0.16874052176E+02  0.27245051431E+02 -0.25426406982E+00  0.32048262271E+02  0.00000000000E+00 0. -1.
<mgrwt>
<rscale>  0 0.13566630E+03</rscale>
<asrwt>0</asrwt>
<pdfrwt beam="2">  1        3 0.49144571E-01 0.14411572E+03</pdfrwt>
<pdfrwt beam="1">  1       -3 0.80659756E-02 0.14411572E+03</pdfrwt>
<totfact> 0.10138965E+03</totfact>
</mgrwt>
</event>
<event>
 6    1  0.9263730E-006  0.3291794E+03  0.7546771E-02  0.1071501E+00
          1   -1    0    0  501    0  0.00000000000E+00  0.00000000000E+00  0.30522300324E+03  0.30522300324E+03  0.00000000000E+00 0. -1.
         -1   -1    0    0    0  501 -0.00000000000E+00 -0.00000000000E+00 -0.88754030370E+02  0.88754030370E+02  0.00000000000E+00 0.  1.
          5    1    1    2  502    0 -0.95345945276E+02  0.43219929339E+02  0.65771146426E+02  0.12372043192E+03  0.47000000000E+01 0. -1.
         -5    1    1    2    0  502  0.51115295895E+01  0.81908481816E+01  0.13120032120E+03  0.13163902161E+03  0.47000000000E+01 0. -1.
        -11    1    1    2    0    0  0.29795767151E+02  0.25222169307E+02 -0.26424050513E+00  0.39038639676E+02  0.00000000000E+00 0.  1.
         11    1    1    2    0    0  0.60438648535E+02 -0.76632946827E+02  0.19761745753E+02  0.99578940401E+02  0.00000000000E+00 0. -1.
<mgrwt>
<rscale>  0 0.32917941E+03</rscale>
<asrwt>0</asrwt>
<pdfrwt beam="1">  1        1 0.46957385E-01 0.32917941E+03</pdfrwt>
<pdfrwt beam="2">  1       -1 0.13654466E-01 0.32917941E+03</pdfrwt>
<totfact> 0.32047562E+03</totfact>
</mgrwt>
</event>
<event>
 6    1  0.9263730E-006  0.1843674E+03  0.7546771E-02  0.1168681E+00
          1   -1    0    0  501    0  0.00000000000E+00  0.00000000000E+00  0.16173886731E+03  0.16173886731E+03  0.00000000000E+00 0. -1.
         -1   -1    0    0    0  501 -0.00000000000E+00 -0.00000000000E+00 -0.18965327684E+03  0.18965327684E+03  0.00000000000E+00 0.  1.
          5    1    1    2  502    0 -0.46857914829E+02  0.74477884847E+02 -0.56050638721E+02  0.10443363258E+03  0.47000000000E+01 0. -1.
         -5    1    1    2    0  502  0.33526086812E+01  0.53880936902E+02  0.58789281424E+02  0.79954142837E+02  0.47000000000E+01 0. -1.
        -11    1    1    2    0    0  0.31809049905E+02 -0.25961460374E+02 -0.47267987707E+02  0.62610508244E+02  0.00000000000E+00 0.  1.
         11    1    1    2    0    0  0.11696256242E+02 -0.10239736138E+03  0.16614935473E+02  0.10439386049E+03  0.00000000000E+00 0. -1.
<mgrwt>
<rscale>  0 0.17909552E+03</rscale>
<asrwt>0</asrwt>
<pdfrwt beam="1">  1        1 0.24882903E-01 0.18436744E+03</pdfrwt>
<pdfrwt beam="2">  1       -1 0.29177427E-01 0.18436744E+03</pdfrwt>
<totfact> 0.20331319E+03</totfact>
</mgrwt>
</event>
<event>
 6    1  0.9263730E-006  0.3924314E+03  0.7546771E-02  0.1086904E+00
         -2   -1    0    0    0  501 -0.00000000000E+00  0.00000000000E+00  0.34944848161E+02  0.34944848161E+02  0.00000000000E+00 0.  1.
          2   -1    0    0  501    0  0.00000000000E+00 -0.00000000000E+00 -0.20072827472E+04  0.20072827472E+04  0.00000000000E+00 0. -1.
          5    1    1    2  502    0 -0.38265790337E+01 -0.84674299010E+02 -0.15702268312E+04  0.15725198794E+04  0.47000000000E+01 0. -1.
         -5    1    1    2    0  502 -0.75219125631E+02  0.42218100764E+02 -0.62287566068E+02  0.10649936986E+03  0.47000000000E+01 0.  1.
        -11    1    1    2    0    0  0.96228466279E+02  0.42014457316E+02 -0.32091024637E+03  0.33765147500E+03  0.00000000000E+00 0.  1.
         11    1    1    2    0    0 -0.17182761615E+02  0.44174092986E+00 -0.18913255395E+02  0.25556871119E+02  0.00000000000E+00 0. -1.
<mgrwt>
<rscale>  0 0.29669585E+03</rscale>
<asrwt>0</asrwt>
<pdfrwt beam="2">  1        2 0.30881276E+00 0.39243137E+03</pdfrwt>
<pdfrwt beam="1">  1       -2 0.53761300E-02 0.39243137E+03</pdfrwt>
<totfact> 0.12767180E+03</totfact>
</mgrwt>
</event>
<event>
 6    1  0.9263730E-006  0.1327944E+03  0.7546771E-02  0.1236061E+00
          1   -1    0    0  501    0  0.00000000000E+00  0.00000000000E+00  0.28885081602E+03  0.28885081602E+03  0.00000000000E+00 0. -1.
         -1   -1    0    0    0  501 -0.00000000000E+00 -0.00000000000E+00 -0.67687978937E+02  0.67687978937E+02  0.00000000000E+00 0.  1.
          5    1    1    2  502    0 -0.64800142732E+02 -0.50558846091E+01  0.17256664730E+03  0.18446126484E+03  0.47000000000E+01 0. -1.
         -5    1    1    2    0  502  0.36314434646E+02  0.39661681046E+02  0.44291542460E+02  0.69825624526E+02  0.47000000000E+01 0. -1.
        -11    1    1    2    0    0 -0.97131040872E+01 -0.42207465046E+02  0.32517705254E+02  0.54159169598E+02  0.00000000000E+00 0. -1.
         11    1    1    2    0    0  0.38198812173E+02  0.76016686085E+01 -0.28213057931E+02  0.48092735989E+02  0.00000000000E+00 0.  1.
<mgrwt>
<rscale>  0 0.12436734E+03</rscale>
<asrwt>0</asrwt>
<pdfrwt beam="1">  1        1 0.44438586E-01 0.13279438E+03</pdfrwt>
<pdfrwt beam="2">  1       -1 0.10413535E-01 0.13279438E+03</pdfrwt>
<totfact> 0.50362156E+03</totfact>
</mgrwt>
</event>
<event>
 6    1  0.9263730E-006  0.1451416E+03  0.7546771E-02  0.1220585E+00
          1   -1    0    0  501    0  0.00000000000E+00  0.00000000000E+00  0.12962260911E+04  0.12962260911E+04  0.00000000000E+00 0. -1.
         -1   -1    0    0    0  501 -0.00000000000E+00 -0.00000000000E+00 -0.12511322432E+02  0.12511322432E+02  0.00000000000E+00 0.  1.
          5    1    1    2  502    0  0.10548026401E+03 -0.53103194058E+01  0.50414954566E+03  0.51511468624E+03  0.47000000000E+01 0. -1.
         -5    1    1    2    0  502 -0.31990385267E+02  0.11663606489E+02  0.30695478684E+03  0.30887336504E+03  0.47000000000E+01 0. -1.
        -11    1    1    2    0    0 -0.12337472406E+02 -0.34552226872E+02  0.11053178174E+03  0.11646177219E+03  0.00000000000E+00 0.  1.
         11    1    1    2    0    0 -0.61152406335E+02  0.28198939789E+02  0.36207865445E+03  0.36828759009E+03  0.00000000000E+00 0. -1.
<mgrwt>
<rscale>  0 0.13474131E+03</rscale>
<asrwt>0</asrwt>
<pdfrwt beam="1">  1        1 0.19941929E+00 0.14514155E+03</pdfrwt>
<pdfrwt beam="2">  1       -1 0.19248199E-02 0.14514155E+03</pdfrwt>
<totfact> 0.69650123E+03</totfact>
</mgrwt>
</event>
<event>
 6    1  0.9263730E-006  0.1557815E+03  0.7546771E-02  0.1201650E+00
         -2   -1    0    0    0  501 -0.00000000000E+00  0.00000000000E+00  0.26287153296E+03  0.26287153296E+03  0.00000000000E+00 0. -1.
          2   -1    0    0  501    0  0.00000000000E+00 -0.00000000000E+00 -0.87943868838E+02  0.87943868838E+02  0.00000000000E+00 0.  1.
          5    1    1    2  502    0  0.73929456963E+02 -0.88721302057E+02 -0.21854793441E+01  0.11560233720E+03  0.47000000000E+01 0.  1.
         -5    1    1    2    0  502 -0.16194004318E+02  0.15853589175E+02  0.37602521733E+02  0.44154520790E+02  0.47000000000E+01 0.  1.
        -11    1    1    2    0    0 -0.54948390740E+02  0.49768461993E+02  0.14860996459E+03  0.16607572679E+03  0.00000000000E+00 0. -1.
         11    1    1    2    0    0 -0.27870619050E+01  0.23099250889E+02 -0.90993428582E+01  0.24982817018E+02  0.00000000000E+00 0.  1.
<mgrwt>
<rscale>  0 0.14904629E+03</rscale>
<asrwt>0</asrwt>
<pdfrwt beam="2">  1        2 0.13529826E-01 0.15578154E+03</pdfrwt>
<pdfrwt beam="1">  1       -2 0.40441774E-01 0.15578154E+03</pdfrwt>
<totfact> 0.25011153E+03</totfact>
</mgrwt>
</event>
<event>
 6    1  0.9263730E-006  0.1251983E+03  0.7546771E-02  0.1250308E+00
          3   -1    0    0  501    0  0.00000000000E+00  0.00000000000E+00  0.38931196421E+03  0.38931196421E+03  0.00000000000E+00 0. -1.
         -3   -1    0    0    0  501 -0.00000000000E+00 -0.00000000000E+00 -0.31048488888E+02  0.31048488888E+02  0.00000000000E+00 0.  1.
          5    1    1    2  502    0  0.31991186434E+02 -0.41693989438E+02  0.18107405611E+03  0.18860468859E+03  0.47000000000E+01 0. -1.
         -5    1    1    2    0  502 -0.30658273810E+02  0.48553210499E+02  0.60867230377E+02  0.83810821119E+02  0.47000000000E+01 0. -1.
        -11    1    1    2    0    0  0.27548720090E+02  0.29528407291E+02  0.77549154526E+02  0.87434147697E+02  0.00000000000E+00 0. -1.
         11    1    1    2    0    0 -0.28881632714E+02 -0.36387628352E+02  0.38773034316E+02  0.60510795693E+02  0.00000000000E+00 0.  1.
<mgrwt>
<rscale>  0 0.11573222E+03</rscale>
<asrwt>0</asrwt>
<pdfrwt beam="1">  1        3 0.59894145E-01 0.12519834E+03</pdfrwt>
<pdfrwt beam="2">  1       -3 0.47766909E-02 0.12519834E+03</pdfrwt>
<totfact> 0.15366947E+03</totfact>
</mgrwt>
</event>
<event>
 6    1  0.9263730E-006  0.1555686E+03  0.7546771E-02  0.1201677E+00
          3   -1    0    0  501    0  0.00000000000E+00  0.00000000000E+00  0.13386577036E+04  0.13386577036E+04  0.00000000000E+00 0. -1.
         -3   -1    0    0    0  501 -0.00000000000E+00 -0.00000000000E+00 -0.26006265742E+02  0.26006265742E+02  0.00000000000E+00 0.  1.
          5    1    1    2  502    0 -0.24608424123E+02 -0.38453746676E+02  0.32868452341E+03  0.33187327567E+03  0.47000000000E+01 0. -1.
         -5    1    1    2    0  502  0.10955823043E+03  0.15644791825E+01  0.79693429752E+03  0.80444503729E+03  0.47000000000E+01 0. -1.
        -11    1    1    2    0    0 -0.16315725575E+02  0.32398475551E+01 -0.82994250600E+01  0.18589781320E+02  0.00000000000E+00 0.  1.
         11    1    1    2    0    0 -0.68634080730E+02  0.33649419938E+02  0.19533204198E+03  0.20975587506E+03  0.00000000000E+00 0. -1.
<mgrwt>
<rscale>  0 0.14902453E+03</rscale>
<asrwt>0</asrwt>
<pdfrwt beam="1">  1        3 0.20594729E+00 0.15556856E+03</pdfrwt>
<pdfrwt beam="2">  1       -3 0.40009650E-02 0.15556856E+03</pdfrwt>
<totfact> 0.11520703E+02</totfact>
</mgrwt>
</event>
<event>
 6    1  0.9263730E-006  0.1736719E+03  0.7546771E-02  0.1180716E+00
         -1   -1    0    0    0  501 -0.00000000000E+00  0.00000000000E+00  0.16751641342E+03  0.16751641342E+03  0.00000000000E+00 0.  1.
          1   -1    0    0  501    0  0.00000000000E+00 -0.00000000000E+00 -0.16329545986E+03  0.16329545986E+03  0.00000000000E+00 0. -1.
          5    1    1    2  502    0  0.76694491044E+02 -0.85101031788E+02  0.25763047689E+02  0.11751619120E+03  0.47000000000E+01 0.  1.
         -5    1    1    2    0  502  0.27869108872E+01 -0.55605091314E+01 -0.58744620405E+02  0.59259653734E+02  0.47000000000E+01 0.  1.
        -11    1    1    2    0    0  0.10677605557E+02 -0.75150124864E+01  0.13258704695E+02  0.18608598101E+02  0.00000000000E+00 0.  1.
         11    1    1    2    0    0 -0.90159007488E+02  0.98176553406E+02  0.23943821582E+02  0.13542743024E+03  0.00000000000E+00 0. -1.
<mgrwt>
<rscale>  0 0.16727843E+03</rscale>
<asrwt>0</asrwt>
<pdfrwt beam="2">  1        1 0.25122378E-01 0.17367186E+03</pdfrwt>
<pdfrwt beam="1">  1       -1 0.25771756E-01 0.17367186E+03</pdfrwt>
<totfact> 0.24666588E+03</totfact>
</mgrwt>
</event>
<event>
 6    1  0.9263730E-006  0.2341443E+03  0.7546771E-02  0.1125795E+00
         -2   -1    0    0    0  501 -0.00000000000E+00  0.00000000000E+00  0.72063628867E+03  0.72063628867E+03  0.00000000000E+00 0.  1.
          2   -1    0    0  501    0  0.00000000000E+00 -0.00000000000E+00 -0.88029128036E+02  0.88029128036E+02  0.00000000000E+00 0. -1.
          5    1    1    2  502    0 -0.41829652832E+02 -0.12776369062E+03  0.75291585770E+02  0.15415639262E+03  0.47000000000E+01 0. -1.
         -5    1    1    2    0  502 -0.96055270048E+02 -0.22018324713E+02  0.77108422263E+02  0.12521669342E+03  0.47000000000E+01 0.  1.
        -11    1    1    2    0    0  0.89289811978E+02  0.13656921026E+03  0.42129732661E+03  0.45179116539E+03  0.00000000000E+00 0.  1.
         11    1    1    2    0    0  0.48595110902E+02  0.13212805068E+02  0.58909825992E+02  0.77501165280E+02  0.00000000000E+00 0. -1.
<mgrwt>
<rscale>  0 0.23120369E+03</rscale>
<asrwt>0</asrwt>
<pdfrwt beam="2">  1        2 0.13542943E-01 0.23414431E+03</pdfrwt>
<pdfrwt beam="1">  1       -2 0.11086712E+00 0.23414431E+03</pdfrwt>
<totfact> 0.29656829E+02</totfact>
</mgrwt>
</event>
<event>
 6    1  0.9263730E-006  0.1740152E+03  0.7546771E-02  0.1178026E+00
          2   -1    0    0  501    0  0.00000000000E+00  0.00000000000E+00  0.67556577102E+03  0.67556577102E+03  0.00000000000E+00 0. -1.
         -2   -1    0    0    0  501 -0.00000000000E+00 -0.00000000000E+00 -0.48092581015E+02  0.48092581015E+02  0.00000000000E+00 0.  1.
          5    1    1    2  502    0  0.60829703803E+02  0.40741275125E+02  0.10131311024E+03  0.12508613300E+03  0.47000000000E+01 0.  1.
         -5    1    1    2    0  502 -0.17834506428E+02  0.72429749401E+02  0.36650212625E+03  0.37404550092E+03  0.47000000000E+01 0.  1.
        -11    1    1    2    0    0  0.18562715938E+02 -0.74622230186E+02  0.45883599724E+02  0.89545275613E+02  0.00000000000E+00 0.  1.
         11    1    1    2    0    0 -0.61557913314E+02 -0.38548794339E+02  0.11377435380E+03  0.13498144250E+03  0.00000000000E+00 0. -1.
<mgrwt>
<rscale>  0 0.16982920E+03</rscale>
<asrwt>0</asrwt>
<pdfrwt beam="1">  1        2 0.10393319E+00 0.17401521E+03</pdfrwt>
<pdfrwt beam="2">  1       -2 0.73988591E-02 0.17401521E+03</pdfrwt>
<totfact> 0.45900966E+03</totfact>
</mgrwt>
</event>
<event>
 6    1  0.9263730E-006  0.1280204E+03  0.7546771E-02  0.1244300E+00
          1   -1    0    0  501    0  0.00000000000E+00  0.00000000000E+00  0.26080950446E+03  0.26080950446E+03  0.00000000000E+00 0. -1.
         -1   -1    0    0    0  501 -0.00000000000E+00 -0.00000000000E+00 -0.50226098036E+02  0.50226098036E+02  0.00000000000E+00 0.  1.
          5    1    1    2  502    0 -0.43485083940E+02 -0.10683820640E+02  0.14098437186E+03  0.14799925560E+03  0.47000000000E+01 0.  1.
         -5    1    1    2    0  502  0.44870810187E+02 -0.16909227721E+02  0.86927794306E+01  0.48958819463E+02  0.47000000000E+01 0.  1.
        -11    1    1    2    0    0 -0.89459718332E+01  0.56136347173E+02  0.62528757851E+02  0.84505416657E+02  0.00000000000E+00 0. -1.
         11    1    1    2    0    0  0.75602455864E+01 -0.28543298812E+02 -0.16225027243E+01  0.29572110772E+02  0.00000000000E+00 0.  1.
<mgrwt>
<rscale>  0 0.11927347E+03</rscale>
<asrwt>0</asrwt>
<pdfrwt beam="1">  1        1 0.40124538E-01 0.12802044E+03</pdfrwt>
<pdfrwt beam="2">  1       -1 0.77270921E-02 0.12802044E+03</pdfrwt>
<totfact> 0.89573512E+03</totfact>
</mgrwt>
</event>
<event>
 6    1  0.9263730E-006  0.1284555E+03  0.7546771E-02  0.1243535E+00
         -2   -1    0    0    0  501 -0.00000000000E+00  0.00000000000E+00  0.31354597812E+03  0.31354597812E+03  0.00000000000E+00 0.  1.
          2   -1    0    0  501    0  0.00000000000E+00 -0.00000000000E+00 -0.40516448931E+02  0.40516448931E+02  0.00000000000E+00 0. -1.
          5    1    1    2  502    0 -0.32726616303E+02 -0.22179604990E+02  0.10599689943E+02  0.41199632511E+02  0.47000000000E+01 0.  1.
         -5    1    1    2    0  502  0.59885814921E+02  0.33794975178E+02  0.14519094133E+03  0.16071997580E+03  0.47000000000E+01 0.  1.
        -11    1    1    2    0    0 -0.28153981443E+02  0.16629390735E+02  0.11940159664E+03  0.12379791835E+03  0.00000000000E+00 0.  1.
         11    1    1    2    0    0  0.99478282516E+00 -0.28244760923E+02 -0.21626987248E+01  0.28344900393E+02  0.00000000000E+00 0. -1.
<mgrwt>
<rscale>  0 0.11973462E+03</rscale>
<asrwt>0</asrwt>
<pdfrwt beam="2">  1        2 0.62333000E-02 0.12845547E+03</pdfrwt>
<pdfrwt beam="1">  1       -2 0.48237841E-01 0.12845547E+03</pdfrwt>
<totfact> 0.45902857E+03</totfact>
</mgrwt>
</event>
<event>
 6    1  0.9263730E-006  0.1599491E+03  0.7546771E-02  0.1196537E+00
          2   -1    0    0  501    0  0.00000000000E+00  0.00000000000E+00  0.43697579304E+03  0.43697579304E+03  0.00000000000E+00 0. -1.
         -2   -1    0    0    0  501 -0.00000000000E+00 -0.00000000000E+00 -0.55370939633E+02  0.55370939633E+02  0.00000000000E+00 0.  1.
          5    1    1    2  502    0  0.11789319237E+03  0.33909782309E+02  0.18658984661E+03  0.22335294715E+03  0.47000000000E+01 0.  1.
         -5    1    1    2    0  502 -0.18407572736E+02 -0.25999624754E+02  0.97369626801E+02  0.10255609901E+03  0.47000000000E+01 0.  1.
        -11    1    1    2    0    0 -0.53200616940E+01 -0.17317773978E+02  0.63174425136E+02  0.65720745151E+02  0.00000000000E+00 0. -1.
         11    1    1    2    0    0 -0.94165557937E+02  0.94076164231E+01  0.34470954865E+02  0.10071694136E+03  0.00000000000E+00 0.  1.
<mgrwt>
<rscale>  0 0.15324858E+03</rscale>
<asrwt>0</asrwt>
<pdfrwt beam="1">  1        2 0.67227043E-01 0.15994913E+03</pdfrwt>
<pdfrwt beam="2">  1       -2 0.85186064E-02 0.15994913E+03</pdfrwt>
<totfact> 0.60037736E+03</totfact>
</mgrwt>
</event>
<event>
 6    1  0.9263730E-006  0.1268124E+03  0.7546771E-02  0.1239563E+00
         -1   -1    0    0    0  501 -0.00000000000E+00  0.00000000000E+00  0.35659305971E+03  0.35659305971E+03  0.00000000000E+00 0.  1.
          1   -1    0    0  501    0  0.00000000000E+00 -0.00000000000E+00 -0.41624987085E+02  0.41624987085E+02  0.00000000000E+00 0. -1.
          5    1    1    2  502    0  0.15928071252E+02 -0.37022420576E+02  0.30206112933E+02  0.50585198800E+02  0.47000000000E+01 0. -1.
         -5    1    1    2    0  502  0.12099733966E+02  0.84573338694E+02  0.89004924822E+02  0.12346262520E+03  0.47000000000E+01 0.  1.
        -11    1    1    2    0    0  0.64130759123E+00  0.28020050839E+02  0.58882338210E+02  0.65212454927E+02  0.00000000000E+00 0.  1.
         11    1    1    2    0    0 -0.28669112809E+02 -0.75570968957E+02  0.13687469665E+03  0.15895776786E+03  0.00000000000E+00 0. -1.
<mgrwt>
<rscale>  0 0.12216813E+03</rscale>
<asrwt>0</asrwt>
<pdfrwt beam="2">  1        1 0.64038444E-02 0.12681236E+03</pdfrwt>
<pdfrwt beam="1">  1       -1 0.54860469E-01 0.12681236E+03</pdfrwt>
<totfact> 0.38904589E+03</totfact>
</mgrwt>
</event>
<event>
 6    1  0.9263730E-006  0.1873465E+03  0.7546771E-02  0.1190177E+00
          2   -1    0    0  501    0  0.00000000000E+00  0.00000000000E+00  0.31858283665E+03  0.31858283665E+03  0.00000000000E+00 0. -1.
         -2   -1    0    0    0  501 -0.00000000000E+00 -0.00000000000E+00 -0.64673592637E+02  0.64673592637E+02  0.00000000000E+00 0.  1.
          5    1    1    2  502    0  0.55764559970E+02  0.67646113414E+02  0.18918897282E+03  0.20856711209E+03  0.47000000000E+01 0. -1.
         -5    1    1    2    0  502 -0.90315031357E+01 -0.60138893058E+02  0.49007852954E+01  0.61191193841E+02  0.47000000000E+01 0.  1.
        -11    1    1    2    0    0 -0.70419427983E+02 -0.10592011435E+02  0.52642293632E+02  0.88556748034E+02  0.00000000000E+00 0. -1.
         11    1    1    2    0    0  0.23686371148E+02  0.30847910792E+01  0.71771922649E+01  0.24941375322E+02  0.00000000000E+00 0.  1.
<mgrwt>
<rscale>  0 0.15869553E+03</rscale>
<asrwt>0</asrwt>
<pdfrwt beam="1">  1        2 0.49012743E-01 0.18734650E+03</pdfrwt>
<pdfrwt beam="2">  1       -2 0.99497837E-02 0.18734650E+03</pdfrwt>
<totfact> 0.66658341E+03</totfact>
</mgrwt>
</event>
<event>
 6    1  0.9263730E-006  0.3219343E+03  0.7546771E-02  0.1109892E+00
         -2   -1    0    0    0  501 -0.00000000000E+00  0.00000000000E+00  0.53668196760E+02  0.53668196760E+02  0.00000000000E+00 0.  1.
          2   -1    0    0  501    0  0.00000000000E+00 -0.00000000000E+00 -0.10110164327E+04  0.10110164327E+04  0.00000000000E+00 0. -1.
          5    1    1    2  502    0 -0.63569186592E+02  0.54144177779E+01 -0.69314126837E+03  0.69608711044E+03  0.47000000000E+01 0. -1.
         -5    1    1    2    0  502  0.10396670442E+03 -0.72155702324E+02 -0.10490230392E+03  0.16444483687E+03  0.47000000000E+01 0.  1.
        -11    1    1    2    0    0 -0.25281820301E+02 -0.23053074057E+02 -0.27213916345E+02  0.43717409622E+02  0.00000000000E+00 0.  1.
         11    1    1    2    0    0 -0.15115697524E+02  0.89794358603E+02 -0.13209074733E+03  0.16043527255E+03  0.00000000000E+00 0. -1.
<mgrwt>
<rscale>  0 0.25547595E+03</rscale>
<asrwt>0</asrwt>
<pdfrwt beam="2">  1        2 0.15554099E+00 0.32193429E+03</pdfrwt>
<pdfrwt beam="1">  1       -2 0.82566456E-02 0.32193429E+03</pdfrwt>
<totfact> 0.23257305E+03</totfact>
</mgrwt>
</event>
<event>
 6    1  0.9263730E-006  0.7276074E+03  0.7546771E-02  0.9671151E-01
         -2   -1    0    0    0  501 -0.00000000000E+00  0.00000000000E+00  0.23484450988E+03  0.23484450988E+03  0.00000000000E+00 0.  1.
          2   -1    0    0  501    0  0.00000000000E+00 -0.00000000000E+00 -0.56357769925E+03  0.56357769925E+03  0.00000000000E+00 0. -1.
          5    1    1    2  502    0 -0.62815716440E+02  0.37078533725E+02 -0.26830278634E+02  0.77862608142E+02  0.47000000000E+01 0. -1.
         -5    1    1    2    0  502 -0.10729800975E+02  0.12437922163E+02 -0.24950553384E+03  0.25008984776E+03  0.47000000000E+01 0.  1.
        -11    1    1    2    0    0 -0.12349504253E+02  0.11014549078E+03  0.15783219715E+03  0.19286145766E+03  0.00000000000E+00 0.  1.
         11    1    1    2    0    0  0.85895021669E+02 -0.15966194667E+03 -0.21022957404E+03  0.27760829556E+03  0.00000000000E+00 0. -1.
<mgrwt>
<rscale>  0 0.72760739E+03</rscale>
<asrwt>0</asrwt>
<pdfrwt beam="2">  1        2 0.86704260E-01 0.72760739E+03</pdfrwt>
<pdfrwt beam="1">  1       -2 0.36129925E-01 0.72760739E+03</pdfrwt>
<totfact> 0.38809126E+02</totfact>
</mgrwt>
</event>
<event>
 6    1  0.9263730E-006  0.1428436E+03  0.7546771E-02  0.1219548E+00
         -2   -1    0    0    0  501 -0.00000000000E+00  0.00000000000E+00  0.12576550705E+03  0.12576550705E+03  0.00000000000E+00 0. -1.
          2   -1    0    0  501    0  0.00000000000E+00 -0.00000000000E+00 -0.14438046222E+03  0.14438046222E+03  0.00000000000E+00 0.  1.
          5    1    1    2  502    0  0.10187516982E+02 -0.18964025640E+02  0.48876858809E+02  0.53613963645E+02  0.47000000000E+01 0. -1.
         -5    1    1    2    0  502 -0.17042294262E+02  0.87751456952E+02 -0.20951409442E+02  0.91933723674E+02  0.47000000000E+01 0. -1.
        -11    1    1    2    0    0 -0.25285939517E+02 -0.76211469195E+02 -0.43879907966E+02  0.91504169835E+02  0.00000000000E+00 0.  1.
         11    1    1    2    0    0  0.32140716797E+02  0.74240378827E+01 -0.26604965773E+01  0.33094112116E+02  0.00000000000E+00 0. -1.
<mgrwt>
<rscale>  0 0.13547721E+03</rscale>
<asrwt>0</asrwt>
<pdfrwt beam="2">  1        2 0.22212379E-01 0.14284362E+03</pdfrwt>
<pdfrwt beam="1">  1       -2 0.19348540E-01 0.14284362E+03</pdfrwt>
<totfact> 0.52388914E+03</totfact>
</mgrwt>
</event>
<event>
 6    1  0.9263730E-006  0.3249593E+03  0.7546771E-02  0.1074901E+00
         -2   -1    0    0    0  501 -0.00000000000E+00  0.00000000000E+00  0.70586089461E+02  0.70586089461E+02  0.00000000000E+00 0.  1.
          2   -1    0    0  501    0  0.00000000000E+00 -0.00000000000E+00 -0.21540278098E+04  0.21540278098E+04  0.00000000000E+00 0. -1.
          5    1    1    2  502    0  0.13362892696E+03  0.21311423127E+03 -0.13793716269E+04  0.14021278618E+04  0.47000000000E+01 0.  1.
         -5    1    1    2    0  502 -0.26304674901E+02  0.66982687903E+02 -0.31863502178E+03  0.32669402123E+03  0.47000000000E+01 0.  1.
        -11    1    1    2    0    0 -0.91453943110E+02 -0.16959986826E+03 -0.29388960374E+03  0.35142429941E+03  0.00000000000E+00 0.  1.
         11    1    1    2    0    0 -0.15870308951E+02 -0.11049705091E+03 -0.91545467869E+02  0.14436771680E+03  0.00000000000E+00 0. -1.
<mgrwt>
<rscale>  0 0.32163080E+03</rscale>
<asrwt>0</asrwt>
<pdfrwt beam="2">  1        2 0.33138887E+00 0.32495927E+03</pdfrwt>
<pdfrwt beam="1">  1       -2 0.10859399E-01 0.32495927E+03</pdfrwt>
<totfact> 0.35511862E+02</totfact>
</mgrwt>
</event>
<event>
 6    1  0.9263730E-006  0.1833582E+03  0.7546771E-02  0.1184693E+00
          2   -1    0    0  501    0  0.00000000000E+00  0.00000000000E+00  0.18376448584E+04  0.18376448584E+04  0.00000000000E+00 0. -1.
         -2   -1    0    0    0  501 -0.00000000000E+00 -0.00000000000E+00 -0.33409835198E+02  0.33409835198E+02  0.00000000000E+00 0.  1.
          5    1    1    2  502    0 -0.32777516002E+02 -0.75465821503E+02  0.16063508884E+04  0.16084634663E+04  0.47000000000E+01 0. -1.
         -5    1    1    2    0  502  0.40377701416E+02  0.79105390426E+01  0.10804406080E+03  0.11570887811E+03  0.47000000000E+01 0.  1.
        -11    1    1    2    0    0 -0.40961520548E+02  0.28818163223E+01  0.47107466109E+02  0.62492114656E+02  0.00000000000E+00 0. -1.
         11    1    1    2    0    0  0.33361335134E+02  0.64673466139E+02  0.42732607871E+02  0.84390234505E+02  0.00000000000E+00 0.  1.
<mgrwt>
<rscale>  0 0.16359868E+03</rscale>
<asrwt>0</asrwt>
<pdfrwt beam="1">  1        2 0.28271452E+00 0.18335821E+03</pdfrwt>
<pdfrwt beam="2">  1       -2 0.51399761E-02 0.18335821E+03</pdfrwt>
<totfact> 0.17076308E+03</totfact>
</mgrwt>
</event>
<event>
 6    1  0.9263730E-006  0.1292258E+03  0.7546771E-02  0.1242366E+00
         -3   -1    0    0    0  501 -0.00000000000E+00  0.00000000000E+00  0.34191329733E+02  0.34191329733E+02  0.00000000000E+00 0.  1.
          3   -1    0    0  501    0  0.00000000000E+00 -0.00000000000E+00 -0.47807795254E+03  0.47807795254E+03  0.00000000000E+00 0. -1.
          5    1    1    2  502    0 -0.13932553717E+02 -0.51621382889E+02 -0.21029101306E+03  0.21703290856E+03  0.47000000000E+01 0. -1.
         -5    1    1    2    0  502 -0.13681802909E+02  0.69277831052E+02 -0.15353544910E+03  0.16906162704E+03  0.47000000000E+01 0. -1.
        -11    1    1    2    0    0 -0.36002284132E+01 -0.50963102576E+02 -0.50217116557E+02  0.71637687456E+02  0.00000000000E+00 0. -1.
         11    1    1    2    0    0  0.31214585039E+02  0.33306654414E+02 -0.29843044086E+02  0.54537059214E+02  0.00000000000E+00 0.  1.
<mgrwt>
<rscale>  0 0.12044447E+03</rscale>
<asrwt>0</asrwt>
<pdfrwt beam="2">  1        3 0.73550449E-01 0.12922576E+03</pdfrwt>
<pdfrwt beam="1">  1       -3 0.52602049E-02 0.12922576E+03</pdfrwt>
<totfact> 0.86323135E+02</totfact>
</mgrwt>
</event>
<event>
 6    1  0.9263730E-006  0.4835900E+03  0.7546771E-02  0.1018153E+00
         -2   -1    0    0    0  501 -0.00000000000E+00  0.00000000000E+00  0.19061963995E+02  0.19061963995E+02  0.00000000000E+00 0.  1.
          2   -1    0    0  501    0  0.00000000000E+00 -0.00000000000E+00 -0.30670932553E+04  0.30670932553E+04  0.00000000000E+00 0. -1.
          5    1    1    2  502    0 -0.40629478515E+02 -0.83284023902E+02 -0.10356569918E+04  0.10398050191E+04  0.47000000000E+01 0.  1.
         -5    1    1    2    0  502  0.16865177142E+02 -0.48870383268E+01 -0.17882083161E+04  0.17883006987E+04  0.47000000000E+01 0.  1.
        -11    1    1    2    0    0 -0.31384409838E+02  0.15539841176E+02 -0.45120599613E+02  0.57116865758E+02  0.00000000000E+00 0.  1.
         11    1    1    2    0    0  0.55148711211E+02  0.72631221054E+02 -0.17904538390E+03  0.20093263577E+03  0.00000000000E+00 0. -1.
<mgrwt>
<rscale>  0 0.48359000E+03</rscale>
<asrwt>0</asrwt>
<pdfrwt beam="2">  1        2 0.47186047E+00 0.48359000E+03</pdfrwt>
<pdfrwt beam="1">  1       -2 0.29326100E-02 0.48359000E+03</pdfrwt>
<totfact> 0.80536733E+02</totfact>
</mgrwt>
</event>
<event>
 6    1  0.9263730E-006  0.1263421E+03  0.7546771E-02  0.1247402E+00
          1   -1    0    0  501    0  0.00000000000E+00  0.00000000000E+00  0.31285953679E+02  0.31285953679E+02  0.00000000000E+00 0. -1.
         -1   -1    0    0    0  501 -0.00000000000E+00 -0.00000000000E+00 -0.39814024054E+03  0.39814024054E+03  0.00000000000E+00 0.  1.
          5    1    1    2  502    0 -0.55297345086E+02 -0.45871574044E+01 -0.37712349239E+02  0.67254365447E+02  0.47000000000E+01 0.  1.
         -5    1    1    2    0  502  0.51235667892E+02  0.22546107518E+02 -0.13948967115E+03  0.15037579255E+03  0.47000000000E+01 0.  1.
        -11    1    1    2    0    0 -0.37694139115E+02 -0.20276300494E+02 -0.49015000812E+02  0.65072627040E+02  0.00000000000E+00 0.  1.
         11    1    1    2    0    0  0.41755816310E+02  0.23173503800E+01 -0.14063726565E+03  0.14672340917E+03  0.00000000000E+00 0. -1.
<mgrwt>
<rscale>  0 0.11742789E+03</rscale>
<asrwt>0</asrwt>
<pdfrwt beam="1">  1        1 0.48132241E-02 0.12634211E+03</pdfrwt>
<pdfrwt beam="2">  1       -1 0.61252338E-01 0.12634211E+03</pdfrwt>
<totfact> 0.46598206E+03</totfact>
</mgrwt>
</event>
<event>
 6    1  0.9263730E-006  0.2541705E+03  0.7546771E-02  0.1110697E+00
         -1   -1    0    0    0  501 -0.00000000000E+00  0.00000000000E+00  0.86742754354E+02  0.86742754354E+02  0.00000000000E+00 0.  1.
          1   -1    0    0  501    0  0.00000000000E+00 -0.00000000000E+00 -0.18619029296E+03  0.18619029296E+03  0.00000000000E+00 0. -1.
          5    1    1    2  502    0 -0.69224687199E+02  0.15300423862E+02 -0.83915080482E+02  0.10995449523E+03  0.47000000000E+01 0.  1.
         -5    1    1    2    0  502  0.57846610481E+01 -0.16225816065E+00  0.37686533583E+02  0.38416838036E+02  0.47000000000E+01 0.  1.
        -11    1    1    2    0    0  0.48899633238E+02 -0.26345611667E+02  0.11984249292E+02  0.56823301699E+02  0.00000000000E+00 0.  1.
         11    1    1    2    0    0  0.14540392913E+02  0.11207445965E+02 -0.65203240997E+02  0.67738412349E+02  0.00000000000E+00 0. -1.
<mgrwt>
<rscale>  0 0.25417048E+03</rscale>
<asrwt>0</asrwt>
<pdfrwt beam="2">  1        1 0.28644660E-01 0.25417048E+03</pdfrwt>
<pdfrwt beam="1">  1       -1 0.13345039E-01 0.25417048E+03</pdfrwt>
<totfact> 0.61480743E+03</totfact>
</mgrwt>
</event>
<event>
 6    1  0.9263730E-006  0.1786842E+03  0.7546771E-02  0.1174644E+00
         -1   -1    0    0    0  501 -0.00000000000E+00  0.00000000000E+00  0.31724071316E+02  0.31724071316E+02  0.00000000000E+00 0.  1.
          1   -1    0    0  501    0  0.00000000000E+00 -0.00000000000E+00 -0.11191380163E+04  0.11191380163E+04  0.00000000000E+00 0. -1.
          5    1    1    2  502    0 -0.58435348422E+02  0.93744969387E+02 -0.51338298009E+03  0.52515424732E+03  0.47000000000E+01 0. -1.
         -5    1    1    2    0  502 -0.56401280237E+02 -0.37905238970E+02 -0.31758138220E+03  0.32480445790E+03  0.47000000000E+01 0. -1.
        -11    1    1    2    0    0  0.34417074027E+02 -0.39979482238E+02 -0.31399912682E+02  0.61390948038E+02  0.00000000000E+00 0.  1.
         11    1    1    2    0    0  0.80419554632E+02 -0.15860248180E+02 -0.22504967004E+03  0.23951243438E+03  0.00000000000E+00 0. -1.
<mgrwt>
<rscale>  0 0.17310892E+03</rscale>
<asrwt>0</asrwt>
<pdfrwt beam="2">  1        1 0.17217504E+00 0.17868416E+03</pdfrwt>
<pdfrwt beam="1">  1       -1 0.48806274E-02 0.17868416E+03</pdfrwt>
<totfact> 0.23738382E+03</totfact>
</mgrwt>
</event>
<event>
 6    1  0.9263730E-006  0.2670426E+03  0.7546771E-02  0.1105074E+00
          2   -1    0    0  501    0  0.00000000000E+00  0.00000000000E+00  0.56680216786E+03  0.56680216786E+03  0.00000000000E+00 0. -1.
         -2   -1    0    0    0  501 -0.00000000000E+00 -0.00000000000E+00 -0.13773261538E+03  0.13773261538E+03  0.00000000000E+00 0.  1.
          5    1    1    2  502    0 -0.39816452261E+02  0.32521869455E+01  0.13339945752E+03  0.13933209198E+03  0.47000000000E+01 0.  1.
         -5    1    1    2    0  502 -0.11854425080E+03  0.17169682787E+03  0.21493990810E+03  0.29958937597E+03  0.47000000000E+01 0.  1.
        -11    1    1    2    0    0  0.82078869450E+02 -0.12829966262E+03  0.88000691106E+02  0.17590300132E+03  0.00000000000E+00 0. -1.
         11    1    1    2    0    0  0.76281833614E+02 -0.46649352191E+02 -0.72705042401E+01  0.89710313962E+02  0.00000000000E+00 0.  1.
<mgrwt>
<rscale>  0 0.26347289E+03</rscale>
<asrwt>0</asrwt>
<pdfrwt beam="1">  1        2 0.87200332E-01 0.26704258E+03</pdfrwt>
<pdfrwt beam="2">  1       -2 0.21189633E-01 0.26704258E+03</pdfrwt>
<totfact> 0.10271370E+03</totfact>
</mgrwt>
</event>
<event>
 6    1  0.9263730E-006  0.2496111E+03  0.7546771E-02  0.1113551E+00
          2   -1    0    0  501    0  0.00000000000E+00  0.00000000000E+00  0.33002199829E+03  0.33002199829E+03  0.00000000000E+00 0.  1.
         -2   -1    0    0    0  501 -0.00000000000E+00 -0.00000000000E+00 -0.47198153417E+02  0.47198153417E+02  0.00000000000E+00 0. -1.
          5    1    1    2  502    0  0.81421949572E+01  0.36670829170E+02 -0.34912149994E+01  0.38017412233E+02  0.47000000000E+01 0. -1.
         -5    1    1    2    0  502 -0.20289237380E+01  0.92697171488E+01  0.19520014669E+03  0.19548716443E+03  0.47000000000E+01 0. -1.
        -11    1    1    2    0    0 -0.52338448756E+02 -0.22322033074E+02  0.32934191715E+02  0.65743800944E+02  0.00000000000E+00 0. -1.
         11    1    1    2    0    0  0.46225177536E+02 -0.23618513245E+02  0.58180721463E+02  0.77971774099E+02  0.00000000000E+00 0.  1.
<mgrwt>
<rscale>  0 0.24961113E+03</rscale>
<asrwt>0</asrwt>
<pdfrwt beam="1">  1        2 0.50772614E-01 0.24961113E+03</pdfrwt>
<pdfrwt beam="2">  1       -2 0.72612546E-02 0.24961113E+03</pdfrwt>
<totfact> 0.10697523E+04</totfact>
</mgrwt>
</event>
<event>
 6    1  0.9263730E-006  0.1349820E+03  0.7546771E-02  0.1232533E+00
          2   -1    0    0  501    0  0.00000000000E+00  0.00000000000E+00  0.44544607487E+03  0.44544607487E+03  0.00000000000E+00 0.  1.
         -2   -1    0    0    0  501 -0.00000000000E+00 -0.00000000000E+00 -0.32586791053E+02  0.32586791053E+02  0.00000000000E+00 0. -1.
          5    1    1    2  502    0 -0.37489765045E+02 -0.13377452300E+02  0.29746807223E+02  0.49913938466E+02  0.47000000000E+01 0. -1.
         -5    1    1    2    0  502  0.86345207399E+02 -0.10580074163E+01  0.17698401471E+03  0.19698234866E+03  0.47000000000E+01 0. -1.
        -11    1    1    2    0    0 -0.29438494356E+02  0.52960660345E+02  0.13451499911E+03  0.14753217100E+03  0.00000000000E+00 0. -1.
         11    1    1    2    0    0 -0.19416947998E+02 -0.38525200628E+02  0.71613462766E+02  0.83604407792E+02  0.00000000000E+00 0.  1.
<mgrwt>
<rscale>  0 0.12663686E+03</rscale>
<asrwt>0</asrwt>
<pdfrwt beam="1">  1        2 0.68530161E-01 0.13498201E+03</pdfrwt>
<pdfrwt beam="2">  1       -2 0.50133528E-02 0.13498201E+03</pdfrwt>
<totfact> 0.13070988E+04</totfact>
</mgrwt>
</event>
<event>
 6    1  0.9263730E-006  0.2799428E+03  0.7546771E-02  0.1095720E+00
         -2   -1    0    0    0  501 -0.00000000000E+00  0.00000000000E+00  0.15871735973E+02  0.15871735973E+02  0.00000000000E+00 0.  1.
          2   -1    0    0  501    0  0.00000000000E+00 -0.00000000000E+00 -0.12343949963E+04  0.12343949963E+04  0.00000000000E+00 0. -1.
          5    1    1    2  502    0  0.19497358970E+02  0.21366148924E+02 -0.23757822140E+03  0.23937869707E+03  0.47000000000E+01 0. -1.
         -5    1    1    2    0  502 -0.78104059305E+02 -0.86866873900E+02 -0.44424575126E+03  0.45937182693E+03  0.47000000000E+01 0. -1.
        -11    1    1    2    0    0 -0.12734938381E+02  0.50258717644E+02 -0.27470369435E+03  0.27955363894E+03  0.00000000000E+00 0. -1.
         11    1    1    2    0    0  0.71341638716E+02  0.15242007331E+02 -0.26199559327E+03  0.27196256929E+03  0.00000000000E+00 0.  1.
<mgrwt>
<rscale>  0 0.27994279E+03</rscale>
<asrwt>0</asrwt>
<pdfrwt beam="2">  1        2 0.18990697E+00 0.27994279E+03</pdfrwt>
<pdfrwt beam="1">  1       -2 0.24418049E-02 0.27994279E+03</pdfrwt>
<totfact> 0.10986382E+04</totfact>
</mgrwt>
</event>
<event>
 6    1  0.9263730E-006  0.1257339E+03  0.7546771E-02  0.1248850E+00
         -1   -1    0    0    0  501 -0.00000000000E+00  0.00000000000E+00  0.12116062623E+03  0.12116062623E+03  0.00000000000E+00 0.  1.
          1   -1    0    0  501    0  0.00000000000E+00 -0.00000000000E+00 -0.98861971522E+02  0.98861971522E+02  0.00000000000E+00 0. -1.
          5    1    1    2  502    0  0.20803205850E+02  0.57540824040E+02  0.10611265258E+02  0.62276871752E+02  0.47000000000E+01 0.  1.
         -5    1    1    2    0  502 -0.83714484192E+01 -0.62908725966E+02 -0.28069254027E+01  0.63698962170E+02  0.47000000000E+01 0.  1.
        -11    1    1    2    0    0  0.39374127636E+02 -0.48798676719E+01  0.10742341594E+02  0.41103928505E+02  0.00000000000E+00 0. -1.
         11    1    1    2    0    0 -0.51805885067E+02  0.10247769598E+02  0.37519732628E+01  0.52942835329E+02  0.00000000000E+00 0.  1.
<mgrwt>
<rscale>  0 0.11657895E+03</rscale>
<asrwt>0</asrwt>
<pdfrwt beam="2">  1        1 0.15209534E-01 0.12573386E+03</pdfrwt>
<pdfrwt beam="1">  1       -1 0.18640096E-01 0.12573386E+03</pdfrwt>
<totfact> 0.77756304E+03</totfact>
</mgrwt>
</event>
<event>
 6    1  0.9263730E-006  0.1387316E+03  0.7546771E-02  0.1225918E+00
          1   -1    0    0  501    0  0.00000000000E+00  0.00000000000E+00  0.21043987446E+04  0.21043987446E+04  0.00000000000E+00 0. -1.
         -1   -1    0    0    0  501 -0.00000000000E+00 -0.00000000000E+00 -0.11497349471E+02  0.11497349471E+02  0.00000000000E+00 0.  1.
          5    1    1    2  502    0 -0.41136538840E+02 -0.97882836889E+01  0.16046421413E+04  0.16052060669E+04  0.47000000000E+01 0. -1.
         -5    1    1    2    0  502  0.45761809140E+01 -0.38006909179E+02  0.14885386886E+03  0.15376940804E+03  0.47000000000E+01 0. -1.
        -11    1    1    2    0    0 -0.23459464318E+02  0.44513981700E+02  0.15225660785E+03  0.16035559131E+03  0.00000000000E+00 0.  1.
         11    1    1    2    0    0  0.60019822244E+02  0.32812111681E+01  0.18714877709E+03  0.19656502785E+03  0.00000000000E+00 0. -1.
<mgrwt>
<rscale>  0 0.13104190E+03</rscale>
<asrwt>0</asrwt>
<pdfrwt beam="1">  1        1 0.32375335E+00 0.13873162E+03</pdfrwt>
<pdfrwt beam="2">  1       -1 0.17688247E-02 0.13873162E+03</pdfrwt>
<totfact> 0.23707642E+03</totfact>
</mgrwt>
</event>
<event>
 6    1  0.9263730E-006  0.1321855E+03  0.7546771E-02  0.1235144E+00
          2   -1    0    0  501    0  0.00000000000E+00  0.00000000000E+00  0.16451429382E+03  0.16451429382E+03  0.00000000000E+00 0. -1.
         -2   -1    0    0    0  501 -0.00000000000E+00 -0.00000000000E+00 -0.86002513875E+02  0.86002513875E+02  0.00000000000E+00 0.  1.
          5    1    1    2  502    0 -0.15519647907E+02  0.65199840048E+02 -0.20782761088E+02  0.70327034431E+02  0.47000000000E+01 0.  1.
         -5    1    1    2    0  502 -0.87992926136E+01 -0.29759998353E+02  0.59733349656E+02  0.67477760140E+02  0.47000000000E+01 0.  1.
        -11    1    1    2    0    0  0.42833946621E+02 -0.22679320498E+02 -0.17381721481E+02  0.51490026248E+02  0.00000000000E+00 0.  1.
         11    1    1    2    0    0 -0.18515006101E+02 -0.12760521198E+02  0.56942912859E+02  0.61221986876E+02  0.00000000000E+00 0. -1.
<mgrwt>
<rscale>  0 0.12495201E+03</rscale>
<asrwt>0</asrwt>
<pdfrwt beam="1">  1        2 0.25309891E-01 0.13218553E+03</pdfrwt>
<pdfrwt beam="2">  1       -2 0.13231156E-01 0.13218553E+03</pdfrwt>
<totfact> 0.84309418E+03</totfact>
</mgrwt>
</event>
<event>
 6    1  0.9263730E-006  0.1401568E+03  0.7546771E-02  0.1223807E+00
         -1   -1    0    0    0  501 -0.00000000000E+00  0.00000000000E+00  0.10749736540E+02  0.10749736540E+02  0.00000000000E+00 0.  1.
          1   -1    0    0  501    0  0.00000000000E+00 -0.00000000000E+00 -0.14924181238E+04  0.14924181238E+04  0.00000000000E+00 0. -1.
          5    1    1    2  502    0  0.96678898221E+01 -0.19908885380E+02 -0.57009895132E+03  0.57054775095E+03  0.47000000000E+01 0. -1.
         -5    1    1    2    0  502 -0.62758466855E+02  0.54519855796E+02 -0.32704471405E+03  0.33747796199E+03  0.47000000000E+01 0. -1.
        -11    1    1    2    0    0 -0.25985931490E+02 -0.13374211366E+01 -0.12551464972E+03  0.12818340230E+03  0.00000000000E+00 0.  1.
         11    1    1    2    0    0  0.79076508523E+02 -0.33273549279E+02 -0.45901007216E+03  0.46695874510E+03  0.00000000000E+00 0. -1.
<mgrwt>
<rscale>  0 0.13248998E+03</rscale>
<asrwt>0</asrwt>
<pdfrwt beam="2">  1        1 0.22960265E+00 0.14015684E+03</pdfrwt>
<pdfrwt beam="1">  1       -1 0.16538066E-02 0.14015684E+03</pdfrwt>
<totfact> 0.64271729E+03</totfact>
</mgrwt>
</event>
<event>
 6    1  0.9263730E-006  0.1359661E+03  0.7546771E-02  0.1230440E+00
         -2   -1    0    0    0  501 -0.00000000000E+00  0.00000000000E+00  0.43761210410E+02  0.43761210410E+02  0.00000000000E+00 0.  1.
          2   -1    0    0  501    0  0.00000000000E+00 -0.00000000000E+00 -0.35322863037E+03  0.35322863037E+03  0.00000000000E+00 0. -1.
          5    1    1    2  502    0  0.17638988920E+01 -0.74481133151E+02 -0.58868646698E+02  0.95069227928E+02  0.47000000000E+01 0. -1.
         -5    1    1    2    0  502 -0.19944987703E+02  0.24170605117E+02 -0.15614159368E+03  0.15932453660E+03  0.47000000000E+01 0. -1.
        -11    1    1    2    0    0  0.18457813389E+02 -0.20690338956E+02 -0.54439852528E+02  0.61094013983E+02  0.00000000000E+00 0. -1.
         11    1    1    2    0    0 -0.27672457798E+00  0.71000866990E+02 -0.40017327059E+02  0.81502062274E+02  0.00000000000E+00 0.  1.
<mgrwt>
<rscale>  0 0.12800908E+03</rscale>
<asrwt>0</asrwt>
<pdfrwt beam="2">  1        2 0.54342866E-01 0.13596611E+03</pdfrwt>
<pdfrwt beam="1">  1       -2 0.67324939E-02 0.13596611E+03</pdfrwt>
<totfact> 0.10726303E+04</totfact>
</mgrwt>
</event>
<event>
 6    1  0.9263730E-006  0.1484675E+03  0.7546771E-02  0.1211039E+00
          3   -1    0    0  501    0  0.00000000000E+00  0.00000000000E+00  0.33004741527E+03  0.33004741527E+03  0.00000000000E+00 0. -1.
         -3   -1    0    0    0  501 -0.00000000000E+00 -0.00000000000E+00 -0.61319230712E+02  0.61319230712E+02  0.00000000000E+00 0.  1.
          5    1    1    2  502    0  0.23033973737E+02 -0.40854843294E+02  0.16172544986E+03  0.16845442499E+03  0.47000000000E+01 0.  1.
         -5    1    1    2    0  502  0.57006058401E+02  0.44156519112E+02  0.41835407681E+02  0.83497186841E+02  0.47000000000E+01 0.  1.
        -11    1    1    2    0    0 -0.75264743279E+02  0.86330067523E+01  0.28777218888E+01  0.75812872718E+02  0.00000000000E+00 0.  1.
         11    1    1    2    0    0 -0.47752888590E+01 -0.11934682570E+02  0.62289605134E+02  0.63602161437E+02  0.00000000000E+00 0. -1.
<mgrwt>
<rscale>  0 0.14171552E+03</rscale>
<asrwt>0</asrwt>
<pdfrwt beam="1">  1        3 0.50776525E-01 0.14846748E+03</pdfrwt>
<pdfrwt beam="2">  1       -3 0.94337280E-02 0.14846748E+03</pdfrwt>
<totfact> 0.73809740E+02</totfact>
</mgrwt>
</event>
<event>
 6    1  0.9263730E-006  0.4400482E+03  0.7546771E-02  0.1030732E+00
         -2   -1    0    0    0  501 -0.00000000000E+00  0.00000000000E+00  0.57304758734E+02  0.57304758734E+02  0.00000000000E+00 0.  1.
          2   -1    0    0  501    0  0.00000000000E+00 -0.00000000000E+00 -0.84479211821E+03  0.84479211821E+03  0.00000000000E+00 0. -1.
          5    1    1    2  502    0  0.22255139799E+02 -0.13814826262E+02 -0.79187352365E+03  0.79232058419E+03  0.47000000000E+01 0. -1.
         -5    1    1    2    0  502  0.33000144725E+00 -0.46234438484E+01  0.87448180443E+01  0.10956595119E+02  0.47000000000E+01 0.  1.
        -11    1    1    2    0    0  0.23570042916E+02  0.39098249886E+02 -0.13113491447E+02  0.47499302365E+02  0.00000000000E+00 0. -1.
         11    1    1    2    0    0 -0.46155184163E+02 -0.20659979776E+02  0.87548375799E+01  0.51320395268E+02  0.00000000000E+00 0.  1.
<mgrwt>
<rscale>  0 0.44004822E+03</rscale>
<asrwt>0</asrwt>
<pdfrwt beam="2">  1        2 0.12996801E+00 0.44004822E+03</pdfrwt>
<pdfrwt beam="1">  1       -2 0.88161174E-02 0.44004822E+03</pdfrwt>
<totfact> 0.26918320E+03</totfact>
</mgrwt>
</event>
<event>
 6    1  0.1925932E-005  0.4060711E+03  0.7546771E-02  0.1041697E+00
         -1   -1    0    0    0  501 -0.00000000000E+00  0.00000000000E+00  0.59476446786E+02  0.59476446786E+02  0.00000000000E+00 0.  1.
          1   -1    0    0  501    0  0.00000000000E+00 -0.00000000000E+00 -0.69310534332E+03  0.69310534332E+03  0.00000000000E+00 0. -1.
          5    1    1    2  502    0  0.19911799936E+01 -0.90467303695E+01  0.64499485240E+01  0.12227017793E+02  0.47000000000E+01 0.  1.
         -5    1    1    2    0  502 -0.14373778802E+03  0.10471849741E+03 -0.32094495768E+03  0.36695268260E+03  0.47000000000E+01 0.  1.
        -11    1    1    2    0    0  0.10281563940E+03 -0.10346711881E+03 -0.28841440373E+03  0.32320174607E+03  0.00000000000E+00 0. -1.
         11    1    1    2    0    0  0.38930968622E+02  0.77953517673E+01 -0.30719483637E+02  0.50200343644E+02  0.00000000000E+00 0.  1.
<mgrwt>
<rscale>  0 0.40607114E+03</rscale>
<asrwt>0</asrwt>
<pdfrwt beam="2">  1        1 0.10663160E+00 0.40607114E+03</pdfrwt>
<pdfrwt beam="1">  1       -1 0.91502219E-02 0.40607114E+03</pdfrwt>
<totfact> 0.20075515E+03</totfact>
</mgrwt>
</event>
<event>
 6    1  0.9263730E-006  0.1401241E+03  0.7546771E-02  0.1222683E+00
         -2   -1    0    0    0  501 -0.00000000000E+00  0.00000000000E+00  0.18504121409E+02  0.18504121409E+02  0.00000000000E+00 0.  1.
          2   -1    0    0  501    0  0.00000000000E+00 -0.00000000000E+00 -0.11845005450E+04  0.11845005450E+04  0.00000000000E+00 0. -1.
          5    1    1    2  502    0  0.67105943270E+02  0.64859815940E+02 -0.84695054976E+03  0.85208997594E+03  0.47000000000E+01 0.  1.
         -5    1    1    2    0  502 -0.23277985463E+02 -0.19173356361E+02 -0.84537720400E+02  0.89878798233E+02  0.47000000000E+01 0.  1.
        -11    1    1    2    0    0 -0.60561273454E+02 -0.16933048123E+02 -0.73971997849E+02  0.97088889307E+02  0.00000000000E+00 0.  1.
         11    1    1    2    0    0  0.16733315647E+02 -0.28753411457E+02 -0.16053615558E+03  0.16394700294E+03  0.00000000000E+00 0. -1.
<mgrwt>
<rscale>  0 0.13327004E+03</rscale>
<asrwt>0</asrwt>
<pdfrwt beam="2">  1        2 0.18223083E+00 0.14012414E+03</pdfrwt>
<pdfrwt beam="1">  1       -2 0.28467882E-02 0.14012414E+03</pdfrwt>
<totfact> 0.90764447E+03</totfact>
</mgrwt>
</event>
<event>
 6    1  0.9263730E-006  0.2662957E+03  0.7546771E-02  0.1106807E+00
          2   -1    0    0  501    0  0.00000000000E+00  0.00000000000E+00  0.17119497195E+04  0.17119497195E+04  0.00000000000E+00 0. -1.
         -2   -1    0    0    0  501 -0.00000000000E+00 -0.00000000000E+00 -0.42290407371E+02  0.42290407371E+02  0.00000000000E+00 0.  1.
          5    1    1    2  502    0 -0.32718699726E+02 -0.69829582790E+01  0.85024899484E+02  0.91490975240E+02  0.47000000000E+01 0. -1.
         -5    1    1    2    0  502  0.97089671034E+01 -0.22701671945E+03  0.10603186786E+04  0.10844024369E+04  0.47000000000E+01 0. -1.
        -11    1    1    2    0    0  0.28207585761E+02  0.67741780187E+02  0.11375150463E+03  0.13536624942E+03  0.00000000000E+00 0. -1.
         11    1    1    2    0    0 -0.51978531390E+01  0.16625789755E+03  0.41056422939E+03  0.44298046529E+03  0.00000000000E+00 0.  1.
<mgrwt>
<rscale>  0 0.26056064E+03</rscale>
<asrwt>0</asrwt>
<pdfrwt beam="1">  1        2 0.26337683E+00 0.26629571E+03</pdfrwt>
<pdfrwt beam="2">  1       -2 0.65062179E-02 0.26629571E+03</pdfrwt>
<totfact> 0.13758310E+03</totfact>
</mgrwt>
</event>
<event>
 6    1  0.9263730E-006  0.1210015E+03  0.7546771E-02  0.1251401E+00
          1   -1    0    0  501    0  0.00000000000E+00  0.00000000000E+00  0.87904523511E+02  0.87904523511E+02  0.00000000000E+00 0. -1.
         -1   -1    0    0    0  501 -0.00000000000E+00 -0.00000000000E+00 -0.30305794273E+03  0.30305794273E+03  0.00000000000E+00 0.  1.
          5    1    1    2  502    0 -0.51652973556E+01  0.30028791676E+02  0.58247368928E+02  0.65903373308E+02  0.47000000000E+01 0. -1.
         -5    1    1    2    0  502  0.39044487618E+02 -0.35254471484E+02 -0.26646682002E+02  0.59156448801E+02  0.47000000000E+01 0.  1.
        -11    1    1    2    0    0 -0.14832905247E+02 -0.42447875793E+02 -0.14685390317E+03  0.15358354766E+03  0.00000000000E+00 0.  1.
         11    1    1    2    0    0 -0.19046285016E+02  0.47673555600E+02 -0.99900202975E+02  0.11231909647E+03  0.00000000000E+00 0. -1.
<mgrwt>
<rscale>  0 0.11510343E+03</rscale>
<asrwt>0</asrwt>
<pdfrwt beam="1">  1        1 0.13523773E-01 0.12100147E+03</pdfrwt>
<pdfrwt beam="2">  1       -1 0.46624300E-01 0.12100147E+03</pdfrwt>
<totfact> 0.19374140E+03</totfact>
</mgrwt>
</event>
<event>
 6    1  0.9263730E-006  0.1453533E+03  0.7546771E-02  0.1216462E+00
         -1   -1    0    0    0  501 -0.00000000000E+00  0.00000000000E+00  0.12553313482E+02  0.12553313482E+02  0.00000000000E+00 0.  1.
          1   -1    0    0  501    0  0.00000000000E+00 -0.00000000000E+00 -0.18375827258E+04  0.18375827258E+04  0.00000000000E+00 0. -1.
          5    1    1    2  502    0  0.30938974276E+02 -0.29647755051E+02 -0.12678037616E+04  0.12685364312E+04  0.47000000000E+01 0. -1.
         -5    1    1    2    0  502  0.42978171556E+02  0.23514085311E+02 -0.18204468121E+03  0.18857993370E+03  0.47000000000E+01 0. -1.
        -11    1    1    2    0    0 -0.46366375143E+02 -0.40760010833E+02 -0.17446951567E+03  0.18506980069E+03  0.00000000000E+00 0.  1.
         11    1    1    2    0    0 -0.27550770688E+02  0.46893680572E+02 -0.20071145385E+03  0.20794987365E+03  0.00000000000E+00 0. -1.
<mgrwt>
<rscale>  0 0.13769669E+03</rscale>
<asrwt>0</asrwt>
<pdfrwt beam="2">  1        1 0.28270495E+00 0.14535334E+03</pdfrwt>
<pdfrwt beam="1">  1       -1 0.19312795E-02 0.14535334E+03</pdfrwt>
<totfact> 0.30895953E+03</totfact>
</mgrwt>
</event>
<event>
 6    1  0.9263730E-006  0.1423787E+03  0.7546771E-02  0.1220482E+00
          2   -1    0    0  501    0  0.00000000000E+00  0.00000000000E+00  0.81607539114E+03  0.81607539114E+03  0.00000000000E+00 0. -1.
         -2   -1    0    0    0  501 -0.00000000000E+00 -0.00000000000E+00 -0.20623374666E+02  0.20623374666E+02  0.00000000000E+00 0.  1.
          5    1    1    2  502    0 -0.22078339656E+02 -0.15159857489E+02  0.15850460993E+02  0.31473822055E+02  0.47000000000E+01 0. -1.
         -5    1    1    2    0  502 -0.33169259837E+02  0.55101010077E+02  0.48339040617E+03  0.48767273441E+03  0.47000000000E+01 0. -1.
        -11    1    1    2    0    0 -0.14962823550E+02 -0.39661227121E+02  0.85124221828E+02  0.95094858784E+02  0.00000000000E+00 0. -1.
         11    1    1    2    0    0  0.70210423043E+02 -0.27992546677E+00  0.21108692748E+03  0.22245735055E+03  0.00000000000E+00 0.  1.
<mgrwt>
<rscale>  0 0.13481430E+03</rscale>
<asrwt>0</asrwt>
<pdfrwt beam="1">  1        2 0.12555004E+00 0.14237873E+03</pdfrwt>
<pdfrwt beam="2">  1       -2 0.31728275E-02 0.14237873E+03</pdfrwt>
<totfact> 0.12917316E+04</totfact>
</mgrwt>
</event>
<event>
 6    1  0.9263730E-006  0.2533410E+03  0.7546771E-02  0.1111211E+00
          2   -1    0    0  501    0  0.00000000000E+00  0.00000000000E+00  0.35353229914E+03  0.35353229914E+03  0.00000000000E+00 0. -1.
         -2   -1    0    0    0  501 -0.00000000000E+00 -0.00000000000E+00 -0.45385986129E+02  0.45385986129E+02  0.00000000000E+00 0.  1.
          5    1    1    2  502    0  0.70659421733E+02 -0.98762860835E+01  0.19354077772E+03  0.20632599823E+03  0.47000000000E+01 0.  1.
         -5    1    1    2    0  502 -0.14782273390E+02 -0.22599117081E+02 -0.60778555958E+01  0.28076075724E+02  0.47000000000E+01 0.  1.
        -11    1    1    2    0    0  0.25615647076E+01  0.50508708655E+02  0.51597726945E+02  0.72249682972E+02  0.00000000000E+00 0. -1.
         11    1    1    2    0    0 -0.58438713050E+02 -0.18033305490E+02  0.69085663949E+02  0.92266528346E+02  0.00000000000E+00 0.  1.
<mgrwt>
<rscale>  0 0.25334097E+03</rscale>
<asrwt>0</asrwt>
<pdfrwt beam="1">  1        2 0.54389583E-01 0.25334097E+03</pdfrwt>
<pdfrwt beam="2">  1       -2 0.69824596E-02 0.25334097E+03</pdfrwt>
<totfact> 0.10561833E+04</totfact>
</mgrwt>
</event>
<event>
 6    1  0.9263730E-006  0.1277974E+03  0.7546771E-02  0.1244314E+00
          2   -1    0    0  501    0  0.00000000000E+00  0.00000000000E+00  0.74140150362E+03  0.74140150362E+03  0.00000000000E+00 0.  1.
         -2   -1    0    0    0  501 -0.00000000000E+00 -0.00000000000E+00 -0.28622538926E+02  0.28622538926E+02  0.00000000000E+00 0. -1.
          5    1    1    2  502    0 -0.59612860864E+02 -0.18503840376E+02  0.22797293036E+03  0.23641030490E+03  0.47000000000E+01 0.  1.
         -5    1    1    2    0  502  0.43971392587E+02  0.40038401987E+02  0.40117591793E+03  0.40558693781E+03  0.47000000000E+01 0.  1.
        -11    1    1    2    0    0  0.40616574108E+02 -0.85731764447E+01  0.18626628417E+01  0.41553278565E+02  0.00000000000E+00 0. -1.
         11    1    1    2    0    0 -0.24975105831E+02 -0.12961385166E+02  0.81767453564E+02  0.86473521260E+02  0.00000000000E+00 0.  1.
<mgrwt>
<rscale>  0 0.11926541E+03</rscale>
<asrwt>0</asrwt>
<pdfrwt beam="1">  1        2 0.11406176E+00 0.12779744E+03</pdfrwt>
<pdfrwt beam="2">  1       -2 0.44034681E-02 0.12779744E+03</pdfrwt>
<totfact> 0.88833120E+03</totfact>
</mgrwt>
</event>
<event>
 6    1  0.9263730E-006  0.1427656E+03  0.7546771E-02  0.1219475E+00
          2   -1    0    0  501    0  0.00000000000E+00  0.00000000000E+00  0.12238598860E+03  0.12238598860E+03  0.00000000000E+00 0. -1.
         -2   -1    0    0    0  501 -0.00000000000E+00 -0.00000000000E+00 -0.13816777763E+03  0.13816777763E+03  0.00000000000E+00 0.  1.
          5    1    1    2  502    0 -0.24819103747E+02 -0.65716490836E+02 -0.65100927579E+02  0.95889863126E+02  0.47000000000E+01 0. -1.
         -5    1    1    2    0  502 -0.18254771466E+02  0.11846582797E+02  0.43148478243E+02  0.48553675247E+02  0.47000000000E+01 0. -1.
        -11    1    1    2    0    0  0.64503039992E+02  0.65136632122E+02  0.64658185190E+01  0.91897931541E+02  0.00000000000E+00 0. -1.
         11    1    1    2    0    0 -0.21429164778E+02 -0.11266724084E+02 -0.29515821254E+00  0.24212296319E+02  0.00000000000E+00 0.  1.
<mgrwt>
<rscale>  0 0.13552887E+03</rscale>
<asrwt>0</asrwt>
<pdfrwt beam="1">  1        2 0.18828614E-01 0.14276563E+03</pdfrwt>
<pdfrwt beam="2">  1       -2 0.21256581E-01 0.14276563E+03</pdfrwt>
<totfact> 0.53821340E+03</totfact>
</mgrwt>
</event>
<event>
 6    1  0.9263730E-006  0.1549506E+03  0.7546771E-02  0.1202996E+00
         -2   -1    0    0    0  501 -0.00000000000E+00  0.00000000000E+00  0.25726096328E+02  0.25726096328E+02  0.00000000000E+00 0.  1.
          2   -1    0    0  501    0  0.00000000000E+00 -0.00000000000E+00 -0.78266570719E+03  0.78266570719E+03  0.00000000000E+00 0. -1.
          5    1    1    2  502    0 -0.17764166471E+02  0.85698075614E+02 -0.19136060702E+03  0.21047730921E+03  0.47000000000E+01 0. -1.
         -5    1    1    2    0  502  0.63430669527E+02 -0.63243273347E+01 -0.22006799624E+03  0.22916251858E+03  0.47000000000E+01 0. -1.
        -11    1    1    2    0    0 -0.66675361185E+02 -0.53453661350E+02 -0.17197068736E+03  0.19203336952E+03  0.00000000000E+00 0.  1.
         11    1    1    2    0    0  0.21008858129E+02 -0.25920086929E+02 -0.17354032025E+03  0.17671860620E+03  0.00000000000E+00 0. -1.
<mgrwt>
<rscale>  0 0.14796498E+03</rscale>
<asrwt>0</asrwt>
<pdfrwt beam="2">  1        2 0.12041007E+00 0.15495058E+03</pdfrwt>
<pdfrwt beam="1">  1       -2 0.39578621E-02 0.15495058E+03</pdfrwt>
<totfact> 0.98578832E+03</totfact>
</mgrwt>
</event>
<event>
 6    1  0.9263730E-006  0.1308355E+03  0.7546771E-02  0.1239707E+00
          2   -1    0    0  501    0  0.00000000000E+00  0.00000000000E+00  0.23914895059E+03  0.23914895059E+03  0.00000000000E+00 0. -1.
         -2   -1    0    0    0  501 -0.00000000000E+00 -0.00000000000E+00 -0.58410879388E+02  0.58410879388E+02  0.00000000000E+00 0.  1.
          5    1    1    2  502    0  0.22940653155E+02  0.44718765657E+02  0.40451584768E+02  0.64687419791E+02  0.47000000000E+01 0. -1.
         -5    1    1    2    0  502 -0.61236920670E+02 -0.49796492009E+02  0.95708059158E+02  0.12414416481E+03  0.47000000000E+01 0. -1.
        -11    1    1    2    0    0 -0.17364634936E+02 -0.22705025929E+02 -0.52015831331E+01  0.29053488878E+02  0.00000000000E+00 0. -1.
         11    1    1    2    0    0  0.55660902452E+02  0.27782752281E+02  0.49780010406E+02  0.79674756492E+02  0.00000000000E+00 0.  1.
<mgrwt>
<rscale>  0 0.12207836E+03</rscale>
<asrwt>0</asrwt>
<pdfrwt beam="1">  1        2 0.36792146E-01 0.13083546E+03</pdfrwt>
<pdfrwt beam="2">  1       -2 0.89862893E-02 0.13083546E+03</pdfrwt>
<totfact> 0.10367038E+04</totfact>
</mgrwt>
</event>
<event>
 6    1  0.9263730E-006  0.1566466E+03  0.7546771E-02  0.1200349E+00
         -2   -1    0    0    0  501 -0.00000000000E+00  0.00000000000E+00  0.13832594713E+02  0.13832594713E+02  0.00000000000E+00 0. -1.
          2   -1    0    0  501    0  0.00000000000E+00 -0.00000000000E+00 -0.16050278325E+04  0.16050278325E+04  0.00000000000E+00 0.  1.
          5    1    1    2  502    0 -0.52454315658E+02  0.10089419425E+03 -0.86567081485E+03  0.87312034872E+03  0.47000000000E+01 0.  1.
         -5    1    1    2    0  502 -0.16254729885E+02 -0.36135949723E+02 -0.19346901076E+03  0.19754080902E+03  0.47000000000E+01 0.  1.
        -11    1    1    2    0    0  0.11679694067E+02  0.23923208457E+02 -0.10789387045E+03  0.11112975496E+03  0.00000000000E+00 0. -1.
         11    1    1    2    0    0  0.57029351476E+02 -0.88681452988E+02 -0.42416154171E+03  0.43706951450E+03  0.00000000000E+00 0.  1.
<mgrwt>
<rscale>  0 0.15010057E+03</rscale>
<asrwt>0</asrwt>
<pdfrwt beam="2">  1        2 0.24692726E+00 0.15664656E+03</pdfrwt>
<pdfrwt beam="1">  1       -2 0.21280924E-02 0.15664656E+03</pdfrwt>
<totfact> 0.83279502E+03</totfact>
</mgrwt>
</event>
<event>
 6    1  0.9263730E-006  0.1725396E+03  0.7546771E-02  0.1181349E+00
          1   -1    0    0  501    0  0.00000000000E+00  0.00000000000E+00  0.69657166117E+03  0.69657166117E+03  0.00000000000E+00 0. -1.
         -1   -1    0    0    0  501 -0.00000000000E+00 -0.00000000000E+00 -0.43345343435E+02  0.43345343435E+02  0.00000000000E+00 0.  1.
          5    1    1    2  502    0  0.98340341660E+02 -0.57178950323E+02  0.22896080271E+03  0.25570567912E+03  0.47000000000E+01 0. -1.
         -5    1    1    2    0  502  0.18567882926E+02  0.35337243815E+02  0.25377183233E+03  0.25693524469E+03  0.47000000000E+01 0. -1.
        -11    1    1    2    0    0 -0.10206274701E+03 -0.17659487608E+02  0.14423789882E+03  0.17757599299E+03  0.00000000000E+00 0.  1.
         11    1    1    2    0    0 -0.14845477573E+02  0.39501194117E+02  0.26255783866E+02  0.49700087802E+02  0.00000000000E+00 0. -1.
<mgrwt>
<rscale>  0 0.16668530E+03</rscale>
<asrwt>0</asrwt>
<pdfrwt beam="1">  1        1 0.10716486E+00 0.17253962E+03</pdfrwt>
<pdfrwt beam="2">  1       -1 0.66685149E-02 0.17253962E+03</pdfrwt>
<totfact> 0.31831286E+03</totfact>
</mgrwt>
</event>
<event>
 6    1  0.9263730E-006  0.1568992E+03  0.7546771E-02  0.1200574E+00
         -1   -1    0    0    0  501 -0.00000000000E+00  0.00000000000E+00  0.64251524154E+02  0.64251524154E+02  0.00000000000E+00 0.  1.
          1   -1    0    0  501    0  0.00000000000E+00 -0.00000000000E+00 -0.32363797566E+03  0.32363797566E+03  0.00000000000E+00 0. -1.
          5    1    1    2  502    0  0.25600473757E+02  0.47454416609E+02 -0.35947272050E+02  0.64973858436E+02  0.47000000000E+01 0. -1.
         -5    1    1    2    0  502  0.64757378409E+02 -0.76247672720E+02 -0.11910982242E+03  0.15561640482E+03  0.47000000000E+01 0. -1.
        -11    1    1    2    0    0 -0.64682422162E+02  0.10379301957E+02 -0.80918194639E+01  0.66007750970E+02  0.00000000000E+00 0.  1.
         11    1    1    2    0    0 -0.25675430003E+02  0.18413954153E+02 -0.96237537571E+02  0.10129148558E+03  0.00000000000E+00 0. -1.
<mgrwt>
<rscale>  0 0.14991811E+03</rscale>
<asrwt>0</asrwt>
<pdfrwt beam="2">  1        1 0.49790457E-01 0.15689921E+03</pdfrwt>
<pdfrwt beam="1">  1       -1 0.98848500E-02 0.15689921E+03</pdfrwt>
<totfact> 0.47799226E+03</totfact>
</mgrwt>
</event>
<event>
 6    1  0.9263730E-006  0.3078403E+03  0.7546771E-02  0.1081386E+00
         -1   -1    0    0    0  501 -0.00000000000E+00  0.00000000000E+00  0.31396483694E+02  0.31396483694E+02  0.00000000000E+00 0.  1.
          1   -1    0    0  501    0  0.00000000000E+00 -0.00000000000E+00 -0.75458789501E+03  0.75458789501E+03  0.00000000000E+00 0. -1.
          5    1    1    2  502    0  0.75753902492E+01  0.41390699812E+01 -0.29063256219E+03  0.29079871844E+03  0.47000000000E+01 0. -1.
         -5    1    1    2    0  502 -0.19498993586E+02 -0.10328726711E+03 -0.21184565011E+03  0.23653570506E+03  0.47000000000E+01 0. -1.
        -11    1    1    2    0    0  0.33678011464E+02  0.10264478701E+03 -0.20454813176E+03  0.23132249991E+03  0.00000000000E+00 0. -1.
         11    1    1    2    0    0 -0.21754408127E+02 -0.34965898803E+01 -0.16165067254E+02  0.27327455299E+02  0.00000000000E+00 0.  1.
<mgrwt>
<rscale>  0 0.30784026E+03</rscale>
<asrwt>0</asrwt>
<pdfrwt beam="2">  1        1 0.11609045E+00 0.30784026E+03</pdfrwt>
<pdfrwt beam="1">  1       -1 0.48302280E-02 0.30784026E+03</pdfrwt>
<totfact> 0.46769003E+03</totfact>
</mgrwt>
</event>
<event>
 6    1  0.9263730E-006  0.1307840E+03  0.7546771E-02  0.1240760E+00
          1   -1    0    0  501    0  0.00000000000E+00  0.00000000000E+00  0.59361463966E+03  0.59361463966E+03  0.00000000000E+00 0. -1.
         -1   -1    0    0    0  501 -0.00000000000E+00 -0.00000000000E+00 -0.21933380128E+02  0.21933380128E+02  0.00000000000E+00 0.  1.
          5    1    1    2  502    0 -0.43077104576E+02  0.33397498753E+02  0.46888480319E+02  0.72053101586E+02  0.47000000000E+01 0.  1.
         -5    1    1    2    0  502  0.22458306029E+02 -0.91298382995E+00  0.26708199842E+03  0.26806732909E+03  0.47000000000E+01 0.  1.
        -11    1    1    2    0    0 -0.21970231657E+02  0.87568355831E+00  0.14655216826E+02  0.26424104166E+02  0.00000000000E+00 0.  1.
         11    1    1    2    0    0  0.42589030203E+02 -0.33360198481E+02  0.24305556397E+03  0.24900348494E+03  0.00000000000E+00 0. -1.
<mgrwt>
<rscale>  0 0.12142806E+03</rscale>
<asrwt>0</asrwt>
<pdfrwt beam="1">  1        1 0.91325317E-01 0.13078397E+03</pdfrwt>
<pdfrwt beam="2">  1       -1 0.33743666E-02 0.13078397E+03</pdfrwt>
<totfact> 0.10761934E+04</totfact>
</mgrwt>
</event>
<event>
 6    1  0.9263730E-006  0.2940841E+03  0.7546771E-02  0.1089945E+00
         -2   -1    0    0    0  501 -0.00000000000E+00  0.00000000000E+00  0.40284815822E+02  0.40284815822E+02  0.00000000000E+00 0.  1.
          2   -1    0    0  501    0  0.00000000000E+00 -0.00000000000E+00 -0.20725173290E+04  0.20725173290E+04  0.00000000000E+00 0. -1.
          5    1    1    2  502    0  0.19133925807E+03 -0.85531492744E+02 -0.80102829005E+03  0.82800649719E+03  0.47000000000E+01 0. -1.
         -5    1    1    2    0  502  0.71643540687E+02  0.44291242334E+02 -0.34055483517E+03  0.35084782574E+03  0.47000000000E+01 0. -1.
        -11    1    1    2    0    0 -0.17227102246E+03  0.67250521979E+02 -0.53832036569E+03  0.56920010014E+03  0.00000000000E+00 0.  1.
         11    1    1    2    0    0 -0.90711776297E+02 -0.26010271569E+02 -0.35232902225E+03  0.36474772172E+03  0.00000000000E+00 0. -1.
<mgrwt>
<rscale>  0 0.29077603E+03</rscale>
<asrwt>0</asrwt>
<pdfrwt beam="2">  1        2 0.31884904E+00 0.29408414E+03</pdfrwt>
<pdfrwt beam="1">  1       -2 0.61976597E-02 0.29408414E+03</pdfrwt>
<totfact> 0.95518184E+02</totfact>
</mgrwt>
</event>
<event>
 6    1  0.9263730E-006  0.1450343E+03  0.7546771E-02  0.1216282E+00
          1   -1    0    0  501    0  0.00000000000E+00  0.00000000000E+00  0.91599285016E+03  0.91599285016E+03  0.00000000000E+00 0. -1.
         -1   -1    0    0    0  501 -0.00000000000E+00 -0.00000000000E+00 -0.28944175175E+02  0.28944175175E+02  0.00000000000E+00 0.  1.
          5    1    1    2  502    0  0.40830161883E+02  0.11134065493E+02  0.71625042068E+03  0.71751503444E+03  0.47000000000E+01 0.  1.
         -5    1    1    2    0  502  0.31317030678E+02  0.31435821673E+01  0.33779259546E+02  0.46408694173E+02  0.47000000000E+01 0.  1.
        -11    1    1    2    0    0 -0.40030981448E+02  0.13156929004E+02  0.13189788729E+03  0.13846529142E+03  0.00000000000E+00 0.  1.
         11    1    1    2    0    0 -0.32116211113E+02 -0.27434576664E+02  0.51211074716E+01  0.42548005297E+02  0.00000000000E+00 0. -1.
<mgrwt>
<rscale>  0 0.13782768E+03</rscale>
<asrwt>0</asrwt>
<pdfrwt beam="1">  1        1 0.14092196E+00 0.14503428E+03</pdfrwt>
<pdfrwt beam="2">  1       -1 0.44529507E-02 0.14503428E+03</pdfrwt>
<totfact> 0.38126558E+03</totfact>
</mgrwt>
</event>
<event>
 6    1  0.9263730E-006  0.1353269E+03  0.7546771E-02  0.1231867E+00
         -2   -1    0    0    0  501 -0.00000000000E+00  0.00000000000E+00  0.47885638470E+03  0.47885638470E+03  0.00000000000E+00 0.  1.
          2   -1    0    0  501    0  0.00000000000E+00 -0.00000000000E+00 -0.33326427789E+02  0.33326427789E+02  0.00000000000E+00 0. -1.
          5    1    1    2  502    0  0.50181580998E+02  0.13696409670E+02  0.24784919575E+02  0.57811460349E+02  0.47000000000E+01 0. -1.
         -5    1    1    2    0  502 -0.26742030578E+02 -0.59982745328E+02  0.14545147309E+03  0.15965991031E+03  0.47000000000E+01 0. -1.
        -11    1    1    2    0    0 -0.11401845845E+02 -0.23946804065E+02  0.13246802434E+03  0.13509710947E+03  0.00000000000E+00 0.  1.
         11    1    1    2    0    0 -0.12037704574E+02  0.70233139723E+02  0.14282553991E+03  0.15961433237E+03  0.00000000000E+00 0. -1.
<mgrwt>
<rscale>  0 0.12707149E+03</rscale>
<asrwt>0</asrwt>
<pdfrwt beam="2">  1        2 0.51271431E-02 0.13532689E+03</pdfrwt>
<pdfrwt beam="1">  1       -2 0.73670208E-01 0.13532689E+03</pdfrwt>
<totfact> 0.24877205E+03</totfact>
</mgrwt>
</event>
<event>
 6    1  0.9263730E-006  0.2650345E+03  0.7546771E-02  0.1104156E+00
         -2   -1    0    0    0  501 -0.00000000000E+00  0.00000000000E+00  0.17240987790E+02  0.17240987790E+02  0.00000000000E+00 0.  1.
          2   -1    0    0  501    0  0.00000000000E+00 -0.00000000000E+00 -0.10185509096E+04  0.10185509096E+04  0.00000000000E+00 0. -1.
          5    1    1    2  502    0 -0.10603052515E+02 -0.59380416464E+02 -0.12682844319E+03  0.14052047034E+03  0.47000000000E+01 0. -1.
         -5    1    1    2    0  502 -0.70950795104E+01  0.26231325033E+02 -0.45211583631E+03  0.45295611488E+03  0.47000000000E+01 0. -1.
        -11    1    1    2    0    0  0.31613163690E+02 -0.39824137063E+02 -0.24136728415E+03  0.24666479252E+03  0.00000000000E+00 0.  1.
         11    1    1    2    0    0 -0.13915031665E+02  0.72973228495E+02 -0.18099835817E+03  0.19565051966E+03  0.00000000000E+00 0. -1.
<mgrwt>
<rscale>  0 0.26503452E+03</rscale>
<asrwt>0</asrwt>
<pdfrwt beam="2">  1        2 0.15670012E+00 0.26503452E+03</pdfrwt>
<pdfrwt beam="1">  1       -2 0.26524601E-02 0.26503452E+03</pdfrwt>
<totfact> 0.12963214E+04</totfact>
</mgrwt>
</event>
<event>
 6    1  0.9263730E-006  0.1413223E+03  0.7546771E-02  0.1232311E+00
          2   -1    0    0  501    0  0.00000000000E+00  0.00000000000E+00  0.25210541423E+04  0.25210541423E+04  0.00000000000E+00 0.  1.
         -2   -1    0    0    0  501 -0.00000000000E+00 -0.00000000000E+00 -0.88599591068E+01  0.88599591068E+01  0.00000000000E+00 0. -1.
          5    1    1    2  502    0 -0.12317060927E+02  0.24514644377E+01  0.17702908887E+04  0.17703416733E+04  0.47000000000E+01 0. -1.
         -5    1    1    2    0  502 -0.24770631090E+02 -0.56971481322E+02  0.43082444200E+03  0.43530578180E+03  0.47000000000E+01 0. -1.
        -11    1    1    2    0    0  0.14519620308E+02 -0.86552677411E+01  0.23384420914E+02  0.28854188171E+02  0.00000000000E+00 0. -1.
         11    1    1    2    0    0  0.22568071709E+02  0.63175284625E+02  0.28769443166E+03  0.29541245820E+03  0.00000000000E+00 0.  1.
<mgrwt>
<rscale>  0 0.12678148E+03</rscale>
<asrwt>0</asrwt>
<pdfrwt beam="1">  1        2 0.38785391E+00 0.14132232E+03</pdfrwt>
<pdfrwt beam="2">  1       -2 0.13630726E-02 0.14132232E+03</pdfrwt>
<totfact> 0.53030514E+03</totfact>
</mgrwt>
</event>
<event>
 6    1  0.9263730E-006  0.1273136E+03  0.7546771E-02  0.1247936E+00
          1   -1    0    0  501    0  0.00000000000E+00  0.00000000000E+00  0.83524131201E+03  0.83524131201E+03  0.00000000000E+00 0. -1.
         -1   -1    0    0    0  501 -0.00000000000E+00 -0.00000000000E+00 -0.19549461928E+02  0.19549461928E+02  0.00000000000E+00 0.  1.
          5    1    1    2  502    0  0.46616794307E+02 -0.24443831849E+00  0.14712354447E+03  0.15440405629E+03  0.47000000000E+01 0.  1.
         -5    1    1    2    0  502 -0.69140904353E+02  0.90469050435E+01  0.52957147046E+03  0.53416321801E+03  0.47000000000E+01 0.  1.
        -11    1    1    2    0    0 -0.23878423827E+02 -0.95010603094E+01  0.74900928258E+01  0.26768465813E+02  0.00000000000E+00 0.  1.
         11    1    1    2    0    0  0.46402533873E+02  0.69859358439E+00  0.13150674232E+03  0.13945503382E+03  0.00000000000E+00 0. -1.
<mgrwt>
<rscale>  0 0.11711352E+03</rscale>
<asrwt>0</asrwt>
<pdfrwt beam="1">  1        1 0.12849864E+00 0.12731358E+03</pdfrwt>
<pdfrwt beam="2">  1       -1 0.30076102E-02 0.12731358E+03</pdfrwt>
<totfact> 0.77844106E+03</totfact>
</mgrwt>
</event>
<event>
 6    1  0.9263730E-006  0.2317363E+03  0.7546771E-02  0.1128565E+00
         -1   -1    0    0    0  501 -0.00000000000E+00  0.00000000000E+00  0.56828070189E+02  0.56828070189E+02  0.00000000000E+00 0.  1.
          1   -1    0    0  501    0  0.00000000000E+00 -0.00000000000E+00 -0.10584544312E+04  0.10584544312E+04  0.00000000000E+00 0. -1.
          5    1    1    2  502    0 -0.21287212148E+02 -0.33023157796E+01 -0.29905961944E+03  0.29987130017E+03  0.47000000000E+01 0.  1.
         -5    1    1    2    0  502 -0.14887347719E+03  0.98807252635E+02 -0.44935206852E+03  0.48359648145E+03  0.47000000000E+01 0.  1.
        -11    1    1    2    0    0  0.82839930814E+02 -0.59219081556E+02 -0.63957282020E+02  0.12024927310E+03  0.00000000000E+00 0.  1.
         11    1    1    2    0    0  0.87320758526E+02 -0.36285855300E+02 -0.18925739107E+03  0.21156544670E+03  0.00000000000E+00 0. -1.
<mgrwt>
<rscale>  0 0.22728491E+03</rscale>
<asrwt>0</asrwt>
<pdfrwt beam="2">  1        1 0.16283914E+00 0.23173629E+03</pdfrwt>
<pdfrwt beam="1">  1       -1 0.87427803E-02 0.23173629E+03</pdfrwt>
<totfact> 0.10888678E+03</totfact>
</mgrwt>
</event>
<event>
 6    1  0.2185687E-005  0.3521028E+03  0.7546771E-02  0.1061755E+00
          1   -1    0    0  501    0  0.00000000000E+00  0.00000000000E+00  0.41147653048E+03  0.41147653048E+03  0.00000000000E+00 0. -1.
         -1   -1    0    0    0  501 -0.00000000000E+00 -0.00000000000E+00 -0.75324085670E+02  0.75324085670E+02  0.00000000000E+00 0.  1.
          5    1    1    2  502    0 -0.11114919593E+02  0.13860509518E+02 -0.33317102847E+01  0.18677404934E+02  0.47000000000E+01 0.  1.
         -5    1    1    2    0  502  0.13854453227E+03 -0.47023709337E+01  0.25064611392E+03  0.28646511854E+03  0.47000000000E+01 0.  1.
        -11    1    1    2    0    0 -0.67127322454E+02  0.15171577641E+02 -0.32834656463E+01  0.68898732460E+02  0.00000000000E+00 0.  1.
         11    1    1    2    0    0 -0.60302290226E+02 -0.24329716225E+02  0.92121506821E+02  0.11275936022E+03  0.00000000000E+00 0. -1.
<mgrwt>
<rscale>  0 0.35210279E+03</rscale>
<asrwt>0</asrwt>
<pdfrwt beam="1">  1        1 0.63304080E-01 0.35210279E+03</pdfrwt>
<pdfrwt beam="2">  1       -1 0.11588321E-01 0.35210279E+03</pdfrwt>
<totfact> 0.28351149E+03</totfact>
</mgrwt>
</event>
<event>
 6    1  0.9263730E-006  0.2989940E+03  0.7546771E-02  0.1085745E+00
          1   -1    0    0  501    0  0.00000000000E+00  0.00000000000E+00  0.94264765994E+02  0.94264765994E+02  0.00000000000E+00 0. -1.
         -1   -1    0    0    0  501 -0.00000000000E+00 -0.00000000000E+00 -0.23709124899E+03  0.23709124899E+03  0.00000000000E+00 0.  1.
          5    1    1    2  502    0 -0.42260710921E+01 -0.21690585264E+02 -0.46141835190E+02  0.51376065640E+02  0.47000000000E+01 0. -1.
         -5    1    1    2    0  502  0.77819601670E+02  0.91632195538E+02 -0.16609042495E+02  0.12145081291E+03  0.47000000000E+01 0. -1.
        -11    1    1    2    0    0 -0.64903153599E+02 -0.89841186441E+00 -0.53222982843E+02  0.83939933248E+02  0.00000000000E+00 0.  1.
         11    1    1    2    0    0 -0.86903769785E+01 -0.69043198410E+02 -0.26852622465E+02  0.74589203187E+02  0.00000000000E+00 0. -1.
<mgrwt>
<rscale>  0 0.29899399E+03</rscale>
<asrwt>0</asrwt>
<pdfrwt beam="1">  1        1 0.14502272E-01 0.29899399E+03</pdfrwt>
<pdfrwt beam="2">  1       -1 0.36475577E-01 0.29899399E+03</pdfrwt>
<totfact> 0.28310069E+03</totfact>
</mgrwt>
</event>
<event>
 6    1  0.9263730E-006  0.1295309E+03  0.7546771E-02  0.1241807E+00
          1   -1    0    0  501    0  0.00000000000E+00  0.00000000000E+00  0.17759319960E+03  0.17759319960E+03  0.00000000000E+00 0. -1.
         -1   -1    0    0    0  501 -0.00000000000E+00 -0.00000000000E+00 -0.12376675635E+03  0.12376675635E+03  0.00000000000E+00 0.  1.
          5    1    1    2  502    0  0.82428019036E+01 -0.75722595407E+02  0.79982811784E+02  0.11054951569E+03  0.47000000000E+01 0. -1.
         -5    1    1    2    0  502  0.14644745471E+02  0.50625421491E+02  0.45239134356E+02  0.69613728160E+02  0.47000000000E+01 0. -1.
        -11    1    1    2    0    0 -0.85946174898E+01  0.44050789994E+02 -0.83314122115E+02  0.94633939433E+02  0.00000000000E+00 0.  1.
         11    1    1    2    0    0 -0.14292929885E+02 -0.18953616077E+02  0.11918619227E+02  0.26562772660E+02  0.00000000000E+00 0. -1.
<mgrwt>
<rscale>  0 0.12078553E+03</rscale>
<asrwt>0</asrwt>
<pdfrwt beam="1">  1        1 0.27322031E-01 0.12953092E+03</pdfrwt>
<pdfrwt beam="2">  1       -1 0.19041039E-01 0.12953092E+03</pdfrwt>
<totfact> 0.35833778E+03</totfact>
</mgrwt>
</event>
<event>
 6    1  0.9263730E-006  0.1270541E+03  0.7546771E-02  0.1247013E+00
         -1   -1    0    0    0  501 -0.00000000000E+00  0.00000000000E+00  0.79867320006E+02  0.79867320006E+02  0.00000000000E+00 0.  1.
          1   -1    0    0  501    0  0.00000000000E+00 -0.00000000000E+00 -0.15613366380E+03  0.15613366380E+03  0.00000000000E+00 0. -1.
          5    1    1    2  502    0  0.32299770728E+02 -0.40666346184E+02 -0.27389887228E+02  0.58900957746E+02  0.47000000000E+01 0.  1.
         -5    1    1    2    0  502 -0.46503541260E+02  0.58484923972E+02 -0.34988143238E+02  0.82639735291E+02  0.47000000000E+01 0.  1.
        -11    1    1    2    0    0  0.38412235582E+02  0.64037280252E+01  0.22104707743E+02  0.44778629718E+02  0.00000000000E+00 0.  1.
         11    1    1    2    0    0 -0.24208465049E+02 -0.24222305814E+02 -0.35993021070E+02  0.49681661050E+02  0.00000000000E+00 0. -1.
<mgrwt>
<rscale>  0 0.11765692E+03</rscale>
<asrwt>0</asrwt>
<pdfrwt beam="2">  1        1 0.24020564E-01 0.12705412E+03</pdfrwt>
<pdfrwt beam="1">  1       -1 0.12287280E-01 0.12705412E+03</pdfrwt>
<totfact> 0.83557763E+03</totfact>
</mgrwt>
</event>
<event>
 6    1  0.9263730E-006  0.1270767E+03  0.7546771E-02  0.1247268E+00
         -1   -1    0    0    0  501 -0.00000000000E+00  0.00000000000E+00  0.50987176954E+02  0.50987176954E+02  0.00000000000E+00 0.  1.
          1   -1    0    0  501    0  0.00000000000E+00 -0.00000000000E+00 -0.23955446633E+03  0.23955446633E+03  0.00000000000E+00 0. -1.
          5    1    1    2  502    0 -0.38406126649E+02  0.29172781173E+02 -0.86629015370E+02  0.99261059986E+02  0.47000000000E+01 0.  1.
         -5    1    1    2    0  502  0.61206464138E+02 -0.30360001842E+02 -0.36148883492E+02  0.77438961395E+02  0.47000000000E+01 0.  1.
        -11    1    1    2    0    0  0.30888850021E+02  0.42946114474E+00 -0.27199758212E+01  0.31011348906E+02  0.00000000000E+00 0. -1.
         11    1    1    2    0    0 -0.53689187510E+02  0.75775952418E+00 -0.63069414689E+02  0.82830272993E+02  0.00000000000E+00 0.  1.
<mgrwt>
<rscale>  0 0.11750633E+03</rscale>
<asrwt>0</asrwt>
<pdfrwt beam="2">  1        1 0.36854533E-01 0.12707669E+03</pdfrwt>
<pdfrwt beam="1">  1       -1 0.78441811E-02 0.12707669E+03</pdfrwt>
<totfact> 0.97200977E+03</totfact>
</mgrwt>
</event>
<event>
 6    1  0.9263730E-006  0.1336194E+03  0.7546771E-02  0.1234782E+00
          3   -1    0    0  501    0  0.00000000000E+00  0.00000000000E+00  0.80785390120E+02  0.80785390120E+02  0.00000000000E+00 0. -1.
         -3   -1    0    0    0  501 -0.00000000000E+00 -0.00000000000E+00 -0.21560723441E+03  0.21560723441E+03  0.00000000000E+00 0.  1.
          5    1    1    2  502    0 -0.65379224580E+02 -0.30946345289E+02  0.30772587794E+02  0.78747453629E+02  0.47000000000E+01 0. -1.
         -5    1    1    2    0  502  0.18209748516E+02  0.33150183034E+02 -0.39907867659E+02  0.55183851599E+02  0.47000000000E+01 0. -1.
        -11    1    1    2    0    0  0.49292269389E+02  0.33224611441E+02 -0.10687015889E+03  0.12228995661E+03  0.00000000000E+00 0.  1.
         11    1    1    2    0    0 -0.21227933243E+01 -0.35428449186E+02 -0.18816405538E+02  0.40171362693E+02  0.00000000000E+00 0. -1.
<mgrwt>
<rscale>  0 0.12518369E+03</rscale>
<asrwt>0</asrwt>
<pdfrwt beam="1">  1        3 0.12428522E-01 0.13361939E+03</pdfrwt>
<pdfrwt beam="2">  1       -3 0.33170344E-01 0.13361939E+03</pdfrwt>
<totfact> 0.10466126E+03</totfact>
</mgrwt>
</event>
<event>
 6    1  0.9263730E-006  0.1535947E+03  0.7546771E-02  0.1200749E+00
         -1   -1    0    0    0  501 -0.00000000000E+00  0.00000000000E+00  0.51824441370E+02  0.51824441370E+02  0.00000000000E+00 0.  1.
          1   -1    0    0  501    0  0.00000000000E+00 -0.00000000000E+00 -0.42585762567E+03  0.42585762567E+03  0.00000000000E+00 0. -1.
          5    1    1    2  502    0  0.51314993972E+02 -0.33908339459E+01 -0.98480370609E+02  0.11119891976E+03  0.47000000000E+01 0.  1.
         -5    1    1    2    0  502 -0.33616744388E+02 -0.84086710439E+02 -0.55639430486E+02  0.10638842324E+03  0.47000000000E+01 0.  1.
        -11    1    1    2    0    0  0.36091217512E+02  0.70853854174E+02 -0.10115312620E+03  0.12866545602E+03  0.00000000000E+00 0.  1.
         11    1    1    2    0    0 -0.53789467096E+02  0.16623690211E+02 -0.11876025700E+03  0.13142926801E+03  0.00000000000E+00 0. -1.
<mgrwt>
<rscale>  0 0.14977570E+03</rscale>
<asrwt>0</asrwt>
<pdfrwt beam="2">  1        1 0.65516558E-01 0.15359472E+03</pdfrwt>
<pdfrwt beam="1">  1       -1 0.79729909E-02 0.15359472E+03</pdfrwt>
<totfact> 0.46869268E+03</totfact>
</mgrwt>
</event>
<event>
 6    1  0.9263730E-006  0.1334101E+03  0.7546771E-02  0.1235612E+00
         -1   -1    0    0    0  501 -0.00000000000E+00  0.00000000000E+00  0.15856560744E+02  0.15856560744E+02  0.00000000000E+00 0.  1.
          1   -1    0    0  501    0  0.00000000000E+00 -0.00000000000E+00 -0.19659949317E+04  0.19659949317E+04  0.00000000000E+00 0. -1.
          5    1    1    2  502    0  0.21658851345E+02 -0.72372399371E+02 -0.16260147604E+04  0.16277754640E+04  0.47000000000E+01 0.  1.
         -5    1    1    2    0  502 -0.13693948581E+01  0.30402337850E+02 -0.14378781267E+03  0.14704829975E+03  0.47000000000E+01 0.  1.
        -11    1    1    2    0    0  0.12343136288E+02  0.51433966064E+02 -0.51639791456E+02  0.73922080193E+02  0.00000000000E+00 0.  1.
         11    1    1    2    0    0 -0.32632592775E+02 -0.94639045430E+01 -0.12869600639E+03  0.13310564850E+03  0.00000000000E+00 0. -1.
<mgrwt>
<rscale>  0 0.12465330E+03</rscale>
<asrwt>0</asrwt>
<pdfrwt beam="2">  1        1 0.30246064E+00 0.13341006E+03</pdfrwt>
<pdfrwt beam="1">  1       -1 0.24394719E-02 0.13341006E+03</pdfrwt>
<totfact> 0.18254329E+03</totfact>
</mgrwt>
</event>
<event>
 6    1  0.9263730E-006  0.2931585E+03  0.7546771E-02  0.1088711E+00
         -2   -1    0    0    0  501 -0.00000000000E+00  0.00000000000E+00  0.55996699795E+02  0.55996699795E+02  0.00000000000E+00 0.  1.
          2   -1    0    0  501    0  0.00000000000E+00 -0.00000000000E+00 -0.38369181314E+03  0.38369181314E+03  0.00000000000E+00 0. -1.
          5    1    1    2  502    0  0.38640474101E+02  0.97911521528E+01 -0.27002180839E+02  0.48375207175E+02  0.47000000000E+01 0. -1.
         -5    1    1    2    0  502 -0.62935606602E+02  0.89369667966E+02 -0.15679278381E+03  0.19119072987E+03  0.47000000000E+01 0.  1.
        -11    1    1    2    0    0  0.33892520484E+02 -0.56045438304E+02 -0.19842820621E+02  0.68436332672E+02  0.00000000000E+00 0.  1.
         11    1    1    2    0    0 -0.95973879820E+01 -0.43115381815E+02 -0.12405732807E+03  0.13168624322E+03  0.00000000000E+00 0. -1.
<mgrwt>
<rscale>  0 0.29315849E+03</rscale>
<asrwt>0</asrwt>
<pdfrwt beam="2">  1        2 0.59029510E-01 0.29315849E+03</pdfrwt>
<pdfrwt beam="1">  1       -2 0.86148768E-02 0.29315849E+03</pdfrwt>
<totfact> 0.70066107E+03</totfact>
</mgrwt>
</event>
<event>
 6    1  0.9263730E-006  0.3171587E+03  0.7546771E-02  0.1076964E+00
         -2   -1    0    0    0  501 -0.00000000000E+00  0.00000000000E+00  0.73474369633E+03  0.73474369633E+03  0.00000000000E+00 0.  1.
          2   -1    0    0  501    0  0.00000000000E+00 -0.00000000000E+00 -0.34226100630E+02  0.34226100630E+02  0.00000000000E+00 0. -1.
          5    1    1    2  502    0 -0.79030029048E+02 -0.61598255504E+02  0.24613449354E+03  0.26579008537E+03  0.47000000000E+01 0.  1.
         -5    1    1    2    0  502  0.38702066009E+01  0.49914840438E+01 -0.12868501286E+02  0.15085812455E+02  0.47000000000E+01 0.  1.
        -11    1    1    2    0    0 -0.16740707502E+02  0.43885916936E+02  0.19050325790E+03  0.19620834911E+03  0.00000000000E+00 0.  1.
         11    1    1    2    0    0  0.91900529949E+02  0.12720854524E+02  0.27674834555E+03  0.29188555002E+03  0.00000000000E+00 0. -1.
<mgrwt>
<rscale>  0 0.31715871E+03</rscale>
<asrwt>0</asrwt>
<pdfrwt beam="2">  1        2 0.52655545E-02 0.31715871E+03</pdfrwt>
<pdfrwt beam="1">  1       -2 0.11303748E+00 0.31715871E+03</pdfrwt>
<totfact> 0.94508158E+02</totfact>
</mgrwt>
</event>
<event>
 6    1  0.9263730E-006  0.1251382E+03  0.7546771E-02  0.1250667E+00
         -1   -1    0    0    0  501 -0.00000000000E+00  0.00000000000E+00  0.22004143908E+02  0.22004143908E+02  0.00000000000E+00 0.  1.
          1   -1    0    0  501    0  0.00000000000E+00 -0.00000000000E+00 -0.56178668249E+03  0.56178668249E+03  0.00000000000E+00 0. -1.
          5    1    1    2  502    0 -0.35908806316E+02  0.44157910506E+02 -0.29369019896E+03  0.29919122045E+03  0.47000000000E+01 0. -1.
         -5    1    1    2    0  502  0.34440986514E+02 -0.38643748803E+02 -0.84927413318E+02  0.99570459508E+02  0.47000000000E+01 0. -1.
        -11    1    1    2    0    0  0.25994230263E+02 -0.39514693978E+02 -0.10289205386E+03  0.11324259709E+03  0.00000000000E+00 0. -1.
         11    1    1    2    0    0 -0.24526410460E+02  0.34000532274E+02 -0.58272872445E+02  0.71786549353E+02  0.00000000000E+00 0.  1.
<mgrwt>
<rscale>  0 0.11552498E+03</rscale>
<asrwt>0</asrwt>
<pdfrwt beam="2">  1        1 0.86428714E-01 0.12513825E+03</pdfrwt>
<pdfrwt beam="1">  1       -1 0.33852531E-02 0.12513825E+03</pdfrwt>
<totfact> 0.11498088E+04</totfact>
</mgrwt>
</event>
<event>
 6    1  0.9263730E-006  0.1407268E+03  0.7546771E-02  0.1223485E+00
         -3   -1    0    0    0  501 -0.00000000000E+00  0.00000000000E+00  0.32104470228E+03  0.32104470228E+03  0.00000000000E+00 0.  1.
          3   -1    0    0  501    0  0.00000000000E+00 -0.00000000000E+00 -0.57512644744E+02  0.57512644744E+02  0.00000000000E+00 0. -1.
          5    1    1    2  502    0 -0.32572754257E+00 -0.68071039818E+02  0.10048428910E+03  0.12146174260E+03  0.47000000000E+01 0. -1.
         -5    1    1    2    0  502 -0.25664411905E+02  0.89181917980E+01 -0.25881089932E+02  0.37816887754E+02  0.47000000000E+01 0. -1.
        -11    1    1    2    0    0 -0.26899313317E+02  0.33232643771E+02  0.12613641945E+03  0.13318550214E+03  0.00000000000E+00 0.  1.
         11    1    1    2    0    0  0.52889452764E+02  0.25920204250E+02  0.62792438918E+02  0.86093214525E+02  0.00000000000E+00 0. -1.
<mgrwt>
<rscale>  0 0.13271268E+03</rscale>
<asrwt>0</asrwt>
<pdfrwt beam="2">  1        3 0.88480994E-02 0.14072684E+03</pdfrwt>
<pdfrwt beam="1">  1       -3 0.49391492E-01 0.14072684E+03</pdfrwt>
<totfact> 0.85935532E+02</totfact>
</mgrwt>
</event>
<event>
 6    1  0.9263730E-006  0.2151308E+03  0.7546771E-02  0.1141091E+00
          1   -1    0    0  501    0  0.00000000000E+00  0.00000000000E+00  0.12142654476E+04  0.12142654476E+04  0.00000000000E+00 0. -1.
         -1   -1    0    0    0  501 -0.00000000000E+00 -0.00000000000E+00 -0.39367777009E+02  0.39367777009E+02  0.00000000000E+00 0.  1.
          5    1    1    2  502    0  0.17770855740E+03  0.22685621468E+02  0.56667582593E+03  0.59433875062E+03  0.47000000000E+01 0.  1.
         -5    1    1    2    0  502 -0.32235976308E+01 -0.80972521076E+01  0.25003077703E+03  0.25022677022E+03  0.47000000000E+01 0.  1.
        -11    1    1    2    0    0 -0.87533480537E+02  0.29323670924E+02  0.23171800258E+03  0.24942979095E+03  0.00000000000E+00 0.  1.
         11    1    1    2    0    0 -0.86951479236E+02 -0.43912040285E+02  0.12647306500E+03  0.15963791277E+03  0.00000000000E+00 0. -1.
<mgrwt>
<rscale>  0 0.21060051E+03</rscale>
<asrwt>0</asrwt>
<pdfrwt beam="1">  1        1 0.18681004E+00 0.21513076E+03</pdfrwt>
<pdfrwt beam="2">  1       -1 0.60565820E-02 0.21513076E+03</pdfrwt>
<totfact> 0.14754335E+03</totfact>
</mgrwt>
</event>
<event>
 6    1  0.9263730E-006  0.1262600E+03  0.7546771E-02  0.1248361E+00
          1   -1    0    0  501    0  0.00000000000E+00  0.00000000000E+00  0.31490177923E+03  0.31490177923E+03  0.00000000000E+00 0. -1.
         -1   -1    0    0    0  501 -0.00000000000E+00 -0.00000000000E+00 -0.42595963150E+02  0.42595963150E+02  0.00000000000E+00 0.  1.
          5    1    1    2  502    0 -0.31636783856E+02  0.43681824155E+02  0.10732271804E+03  0.12020500681E+03  0.47000000000E+01 0. -1.
         -5    1    1    2    0  502  0.28671290448E+02 -0.64937254741E+02  0.10525894323E+03  0.12704497267E+03  0.47000000000E+01 0.  1.
        -11    1    1    2    0    0  0.38152470916E+02  0.64526749301E+01  0.60788634616E+02  0.72059046269E+02  0.00000000000E+00 0.  1.
         11    1    1    2    0    0 -0.35186977508E+02  0.14802755656E+02 -0.10644798064E+01  0.38188716637E+02  0.00000000000E+00 0. -1.
<mgrwt>
<rscale>  0 0.11686469E+03</rscale>
<asrwt>0</asrwt>
<pdfrwt beam="1">  1        1 0.48446426E-01 0.12626001E+03</pdfrwt>
<pdfrwt beam="2">  1       -1 0.65532253E-02 0.12626001E+03</pdfrwt>
<totfact> 0.90760811E+03</totfact>
</mgrwt>
</event>
<event>
 6    1  0.9263730E-006  0.1834360E+03  0.7546771E-02  0.1169985E+00
          4   -1    0    0  501    0  0.00000000000E+00  0.00000000000E+00  0.18247615330E+04  0.18247615330E+04  0.00000000000E+00 0. -1.
         -4   -1    0    0    0  501 -0.00000000000E+00 -0.00000000000E+00 -0.16651817378E+02  0.16651817378E+02  0.00000000000E+00 0.  1.
          5    1    1    2  502    0 -0.32764173552E+02 -0.57132012906E+02  0.33596938038E+03  0.34239607550E+03  0.47000000000E+01 0.  1.
         -5    1    1    2    0  502  0.99980464056E+02 -0.59081049679E+02  0.75204245499E+03  0.76097083238E+03  0.47000000000E+01 0.  1.
        -11    1    1    2    0    0 -0.36085549219E+02  0.66468213930E+01  0.81623590879E+02  0.89491662657E+02  0.00000000000E+00 0. -1.
         11    1    1    2    0    0 -0.31130741285E+02  0.10956624119E+03  0.63847428933E+03  0.64855477980E+03  0.00000000000E+00 0.  1.
<mgrwt>
<rscale>  0 0.17776337E+03</rscale>
<asrwt>0</asrwt>
<pdfrwt beam="1">  1        4 0.28073239E+00 0.18343604E+03</pdfrwt>
<pdfrwt beam="2">  1       -4 0.25618195E-02 0.18343604E+03</pdfrwt>
<totfact> 0.58639363E+01</totfact>
</mgrwt>
</event>
<event>
 6    1  0.9263730E-006  0.1602395E+03  0.7546771E-02  0.1198338E+00
         -3   -1    0    0    0  501 -0.00000000000E+00  0.00000000000E+00  0.57541983010E+02  0.57541983010E+02  0.00000000000E+00 0.  1.
          3   -1    0    0  501    0  0.00000000000E+00 -0.00000000000E+00 -0.36364203510E+03  0.36364203510E+03  0.00000000000E+00 0. -1.
          5    1    1    2  502    0 -0.42769851072E+02  0.11676697934E+03 -0.16510256796E+03  0.20674800017E+03  0.47000000000E+01 0.  1.
         -5    1    1    2    0  502 -0.53957765684E+01 -0.28838635826E+02 -0.11886340910E+02  0.32002443989E+02  0.47000000000E+01 0.  1.
        -11    1    1    2    0    0  0.79186279062E+01 -0.84266868767E+02 -0.10679808621E+03  0.13626973640E+03  0.00000000000E+00 0.  1.
         11    1    1    2    0    0  0.40246999734E+02 -0.36614747475E+01 -0.22313057005E+02  0.46163837555E+02  0.00000000000E+00 0. -1.
<mgrwt>
<rscale>  0 0.15175080E+03</rscale>
<asrwt>0</asrwt>
<pdfrwt beam="2">  1        3 0.55944928E-01 0.16023951E+03</pdfrwt>
<pdfrwt beam="1">  1       -3 0.88526128E-02 0.16023951E+03</pdfrwt>
<totfact> 0.68123357E+02</totfact>
</mgrwt>
</event>
<event>
 6    1  0.9263730E-006  0.1254270E+03  0.7546771E-02  0.1249361E+00
          2   -1    0    0  501    0  0.00000000000E+00  0.00000000000E+00  0.16117593308E+03  0.16117593308E+03  0.00000000000E+00 0.  1.
         -2   -1    0    0    0  501 -0.00000000000E+00 -0.00000000000E+00 -0.73777367678E+02  0.73777367678E+02  0.00000000000E+00 0. -1.
          5    1    1    2  502    0 -0.65910309833E+02 -0.13850555390E+02  0.34765420484E+02  0.75938997151E+02  0.47000000000E+01 0.  1.
         -5    1    1    2    0  502  0.55757803888E+02  0.12112093479E+02  0.16712115007E+02  0.59640760314E+02  0.47000000000E+01 0.  1.
        -11    1    1    2    0    0  0.26571584532E+02 -0.14915572846E+02 -0.21552900865E+02  0.37323597811E+02  0.00000000000E+00 0. -1.
         11    1    1    2    0    0 -0.16419078587E+02  0.16654034757E+02  0.57473930778E+02  0.62049945483E+02  0.00000000000E+00 0.  1.
<mgrwt>
<rscale>  0 0.11628118E+03</rscale>
<asrwt>0</asrwt>
<pdfrwt beam="1">  1        2 0.24796297E-01 0.12542701E+03</pdfrwt>
<pdfrwt beam="2">  1       -2 0.11350364E-01 0.12542701E+03</pdfrwt>
<totfact> 0.10970854E+04</totfact>
</mgrwt>
</event>
<event>
 6    1  0.9263730E-006  0.1244257E+03  0.7546771E-02  0.1248634E+00
          2   -1    0    0  501    0  0.00000000000E+00  0.00000000000E+00  0.10146862923E+04  0.10146862923E+04  0.00000000000E+00 0. -1.
         -2   -1    0    0    0  501 -0.00000000000E+00 -0.00000000000E+00 -0.16855321468E+02  0.16855321468E+02  0.00000000000E+00 0.  1.
          5    1    1    2  502    0 -0.16119270615E+02 -0.73126008016E+01  0.76420581325E+03  0.76442522200E+03  0.47000000000E+01 0. -1.
         -5    1    1    2    0  502  0.24112847426E+02 -0.22173713239E+02  0.55097025428E+02  0.64271884840E+02  0.47000000000E+01 0.  1.
        -11    1    1    2    0    0 -0.38981383807E+02  0.10703519503E+02  0.15367932221E+03  0.15890704102E+03  0.00000000000E+00 0. -1.
         11    1    1    2    0    0  0.30987806997E+02  0.18782794538E+02  0.24848809902E+02  0.43937465866E+02  0.00000000000E+00 0.  1.
<mgrwt>
<rscale>  0 0.11670477E+03</rscale>
<asrwt>0</asrwt>
<pdfrwt beam="1">  1        2 0.15610554E+00 0.12442569E+03</pdfrwt>
<pdfrwt beam="2">  1       -2 0.25931272E-02 0.12442569E+03</pdfrwt>
<totfact> 0.12929908E+04</totfact>
</mgrwt>
</event>
<event>
 6    1  0.9263730E-006  0.1326300E+03  0.7546771E-02  0.1237039E+00
         -1   -1    0    0    0  501 -0.00000000000E+00  0.00000000000E+00  0.43389283103E+02  0.43389283103E+02  0.00000000000E+00 0.  1.
          1   -1    0    0  501    0  0.00000000000E+00 -0.00000000000E+00 -0.31798720179E+03  0.31798720179E+03  0.00000000000E+00 0. -1.
          5    1    1    2  502    0 -0.31991433623E+02 -0.22861637827E+02 -0.91650100928E+01  0.40647185873E+02  0.47000000000E+01 0.  1.
         -5    1    1    2    0  502  0.76318960793E+02  0.21068627272E+02 -0.12477071116E+03  0.14784549771E+03  0.47000000000E+01 0.  1.
        -11    1    1    2    0    0 -0.29943885774E+02  0.32379808275E+02 -0.21584003139E+02  0.49101501715E+02  0.00000000000E+00 0.  1.
         11    1    1    2    0    0 -0.14383641397E+02 -0.30586797720E+02 -0.11907819430E+03  0.12378229959E+03  0.00000000000E+00 0. -1.
<mgrwt>
<rscale>  0 0.12374776E+03</rscale>
<asrwt>0</asrwt>
<pdfrwt beam="2">  1        1 0.48921107E-01 0.13262999E+03</pdfrwt>
<pdfrwt beam="1">  1       -1 0.66752745E-02 0.13262999E+03</pdfrwt>
<totfact> 0.87553694E+03</totfact>
</mgrwt>
</event>
<event>
 6    1  0.9263730E-006  0.1332312E+03  0.7546771E-02  0.1240004E+00
          1   -1    0    0  501    0  0.00000000000E+00  0.00000000000E+00  0.15313853833E+03  0.15313853833E+03  0.00000000000E+00 0. -1.
         -1   -1    0    0    0  501 -0.00000000000E+00 -0.00000000000E+00 -0.87475059285E+02  0.87475059285E+02  0.00000000000E+00 0.  1.
          5    1    1    2  502    0 -0.63498634024E+02 -0.14493059748E+02  0.58321374527E+02  0.87553401022E+02  0.47000000000E+01 0. -1.
         -5    1    1    2    0  502  0.38567353043E+02  0.45069992649E+02  0.42983296411E+01  0.59659958061E+02  0.47000000000E+01 0.  1.
        -11    1    1    2    0    0  0.49412633891E+02  0.50126582011E+01  0.63826779541E+01  0.50074681308E+02  0.00000000000E+00 0.  1.
         11    1    1    2    0    0 -0.24481352910E+02 -0.35589591103E+02 -0.33389030747E+01  0.43325557226E+02  0.00000000000E+00 0. -1.
<mgrwt>
<rscale>  0 0.12189439E+03</rscale>
<asrwt>0</asrwt>
<pdfrwt beam="1">  1        1 0.23559775E-01 0.13323117E+03</pdfrwt>
<pdfrwt beam="2">  1       -1 0.13457701E-01 0.13323117E+03</pdfrwt>
<totfact> 0.74634944E+03</totfact>
</mgrwt>
</event>
<event>
 6    1  0.9263730E-006  0.3362290E+03  0.7546771E-02  0.1069520E+00
         -1   -1    0    0    0  501 -0.00000000000E+00  0.00000000000E+00  0.49123171199E+03  0.49123171199E+03  0.00000000000E+00 0.  1.
          1   -1    0    0  501    0  0.00000000000E+00 -0.00000000000E+00 -0.26270734810E+03  0.26270734810E+03  0.00000000000E+00 0. -1.
          5    1    1    2  502    0  0.10566472073E+03  0.19711623877E+03 -0.25861585321E+02  0.22519048912E+03  0.47000000000E+01 0. -1.
         -5    1    1    2    0  502  0.10801698940E+03  0.30401266036E+02 -0.44118544637E+01  0.11239867186E+03  0.47000000000E+01 0. -1.
        -11    1    1    2    0    0 -0.15371657108E+03 -0.11879079084E+03  0.20050265922E+03  0.27917978539E+03  0.00000000000E+00 0.  1.
         11    1    1    2    0    0 -0.59965139046E+02 -0.10872671396E+03  0.58295144458E+02  0.13717011372E+03  0.00000000000E+00 0. -1.
<mgrwt>
<rscale>  0 0.33367931E+03</rscale>
<asrwt>0</asrwt>
<pdfrwt beam="2">  1        1 0.40416515E-01 0.33622903E+03</pdfrwt>
<pdfrwt beam="1">  1       -1 0.75574110E-01 0.33622903E+03</pdfrwt>
<totfact> 0.19060294E+02</totfact>
</mgrwt>
</event>
<event>
 6    1  0.9263730E-006  0.1283456E+03  0.7546771E-02  0.1244668E+00
         -4   -1    0    0    0  501 -0.00000000000E+00  0.00000000000E+00  0.77719714929E+02  0.77719714929E+02  0.00000000000E+00 0.  1.
          4   -1    0    0  501    0  0.00000000000E+00 -0.00000000000E+00 -0.19380256661E+03  0.19380256661E+03  0.00000000000E+00 0. -1.
          5    1    1    2  502    0  0.27492726654E+02  0.37726866538E+02 -0.72958775479E+02  0.86742373712E+02  0.47000000000E+01 0.  1.
         -5    1    1    2    0  502 -0.48328778930E+02 -0.58055949783E+02 -0.48020305871E+02  0.89633721077E+02  0.47000000000E+01 0.  1.
        -11    1    1    2    0    0  0.44983910635E+02  0.36570624307E+02  0.21272310997E+02  0.61753331840E+02  0.00000000000E+00 0.  1.
         11    1    1    2    0    0 -0.24147858359E+02 -0.16241541062E+02 -0.16376081329E+02  0.33392854911E+02  0.00000000000E+00 0. -1.
<mgrwt>
<rscale>  0 0.11905279E+03</rscale>
<asrwt>0</asrwt>
<pdfrwt beam="2">  1        4 0.29815779E-01 0.12834558E+03</pdfrwt>
<pdfrwt beam="1">  1       -4 0.11956879E-01 0.12834558E+03</pdfrwt>
<totfact> 0.98146487E+02</totfact>
</mgrwt>
</event>
<event>
 6    1  0.9263730E-006  0.1284471E+03  0.7546771E-02  0.1244158E+00
         -2   -1    0    0    0  501 -0.00000000000E+00  0.00000000000E+00  0.22121731546E+02  0.22121731546E+02  0.00000000000E+00 0.  1.
          2   -1    0    0  501    0  0.00000000000E+00 -0.00000000000E+00 -0.64129214324E+03  0.64129214324E+03  0.00000000000E+00 0. -1.
          5    1    1    2  502    0  0.10590445950E+02 -0.47638697770E+02 -0.28416618697E+03  0.28836455207E+03  0.47000000000E+01 0.  1.
         -5    1    1    2    0  502 -0.38038323700E+02  0.58555699819E+02 -0.17633841064E+03  0.18971823613E+03  0.47000000000E+01 0.  1.
        -11    1    1    2    0    0  0.32676431159E+02  0.22486222900E+02 -0.14238221983E+03  0.14780418092E+03  0.00000000000E+00 0. -1.
         11    1    1    2    0    0 -0.52285534097E+01 -0.33403224949E+02 -0.16283594252E+02  0.37526905674E+02  0.00000000000E+00 0.  1.
<mgrwt>
<rscale>  0 0.11935920E+03</rscale>
<asrwt>0</asrwt>
<pdfrwt beam="2">  1        2 0.98660330E-01 0.12844714E+03</pdfrwt>
<pdfrwt beam="1">  1       -2 0.34033433E-02 0.12844714E+03</pdfrwt>
<totfact> 0.15446849E+04</totfact>
</mgrwt>
</event>
<event>
 6    1  0.9263730E-006  0.1654740E+03  0.7546771E-02  0.1189966E+00
          1   -1    0    0  501    0  0.00000000000E+00  0.00000000000E+00  0.17020990587E+03  0.17020990587E+03  0.00000000000E+00 0. -1.
         -1   -1    0    0    0  501 -0.00000000000E+00 -0.00000000000E+00 -0.14039729311E+03  0.14039729311E+03  0.00000000000E+00 0.  1.
          5    1    1    2  502    0  0.13647088871E+02  0.76135431101E+02 -0.27617079334E+02  0.82265667046E+02  0.47000000000E+01 0.  1.
         -5    1    1    2    0  502  0.57584744840E+02  0.56085351328E+01  0.65441091962E+02  0.87476196887E+02  0.47000000000E+01 0.  1.
        -11    1    1    2    0    0 -0.87412271637E+02 -0.52485908904E+02 -0.22523807200E+02  0.10441742075E+03  0.00000000000E+00 0.  1.
         11    1    1    2    0    0  0.16180437926E+02 -0.29258057330E+02  0.14512407331E+02  0.36447914299E+02  0.00000000000E+00 0. -1.
<mgrwt>
<rscale>  0 0.15888119E+03</rscale>
<asrwt>0</asrwt>
<pdfrwt beam="1">  1        1 0.26186139E-01 0.16547400E+03</pdfrwt>
<pdfrwt beam="2">  1       -1 0.21599584E-01 0.16547400E+03</pdfrwt>
<totfact> 0.31219781E+03</totfact>
</mgrwt>
</event>
<event>
 6    1  0.9263730E-006  0.1300366E+03  0.7546771E-02  0.1240471E+00
          1   -1    0    0  501    0  0.00000000000E+00  0.00000000000E+00  0.62272251060E+02  0.62272251060E+02  0.00000000000E+00 0. -1.
         -1   -1    0    0    0  501 -0.00000000000E+00 -0.00000000000E+00 -0.22827497946E+03  0.22827497946E+03  0.00000000000E+00 0.  1.
          5    1    1    2  502    0  0.53323200963E+02  0.46281649532E+02 -0.23583546770E+02  0.74589734699E+02  0.47000000000E+01 0.  1.
         -5    1    1    2    0  502 -0.18700208366E+02 -0.55552778571E+02 -0.30531103345E+02  0.66257431820E+02  0.47000000000E+01 0.  1.
        -11    1    1    2    0    0 -0.32466233090E+02  0.34844403928E+02 -0.15699175796E+02  0.50146314888E+02  0.00000000000E+00 0. -1.
         11    1    1    2    0    0 -0.21567595059E+01 -0.25573274888E+02 -0.96188902491E+02  0.99553749113E+02  0.00000000000E+00 0.  1.
<mgrwt>
<rscale>  0 0.12160607E+03</rscale>
<asrwt>0</asrwt>
<pdfrwt beam="1">  1        1 0.95803466E-02 0.13003664E+03</pdfrwt>
<pdfrwt beam="2">  1       -1 0.35119227E-01 0.13003664E+03</pdfrwt>
<totfact> 0.50274062E+03</totfact>
</mgrwt>
</event>
<event>
 6    1  0.9263730E-006  0.1273382E+03  0.7546771E-02  0.1245636E+00
         -2   -1    0    0    0  501 -0.00000000000E+00  0.00000000000E+00  0.17985231611E+03  0.17985231611E+03  0.00000000000E+00 0.  1.
          2   -1    0    0  501    0  0.00000000000E+00 -0.00000000000E+00 -0.78574763390E+02  0.78574763390E+02  0.00000000000E+00 0. -1.
          5    1    1    2  502    0  0.51910050623E+02 -0.17588774143E+02 -0.34912913453E+02  0.65153816905E+02  0.47000000000E+01 0.  1.
         -5    1    1    2    0  502 -0.30034543754E+02  0.28145417303E+02  0.47159131987E+02  0.62771905048E+02  0.47000000000E+01 0.  1.
        -11    1    1    2    0    0 -0.39827892119E+02  0.23961144240E+02  0.76704392490E+02  0.89688133280E+02  0.00000000000E+00 0.  1.
         11    1    1    2    0    0  0.17952385250E+02 -0.34517787400E+02  0.12326941691E+02  0.40813224261E+02  0.00000000000E+00 0. -1.
<mgrwt>
<rscale>  0 0.11847405E+03</rscale>
<asrwt>0</asrwt>
<pdfrwt beam="2">  1        2 0.12088425E-01 0.12733821E+03</pdfrwt>
<pdfrwt beam="1">  1       -2 0.27669587E-01 0.12733821E+03</pdfrwt>
<totfact> 0.56696170E+03</totfact>
</mgrwt>
</event>
<event>
 6    1  0.9263730E-006  0.2697311E+03  0.7546771E-02  0.1101434E+00
         -3   -1    0    0    0  501 -0.00000000000E+00  0.00000000000E+00  0.35073579521E+03  0.35073579521E+03  0.00000000000E+00 0.  1.
          3   -1    0    0  501    0  0.00000000000E+00 -0.00000000000E+00 -0.51858756634E+02  0.51858756634E+02  0.00000000000E+00 0. -1.
          5    1    1    2  502    0  0.64940146634E+02 -0.45218895489E+02  0.17359978485E+03  0.19084272702E+03  0.47000000000E+01 0.  1.
         -5    1    1    2    0  502 -0.53345503119E+01 -0.91789121276E+01 -0.19921551279E+02  0.23057928360E+02  0.47000000000E+01 0.  1.
        -11    1    1    2    0    0 -0.46308707420E+02  0.12787275297E+02  0.13574997037E+03  0.14400022656E+03  0.00000000000E+00 0.  1.
         11    1    1    2    0    0 -0.13296888902E+02  0.41610532320E+02  0.94488346318E+01  0.44693669913E+02  0.00000000000E+00 0. -1.
<mgrwt>
<rscale>  0 0.26973114E+03</rscale>
<asrwt>0</asrwt>
<pdfrwt beam="2">  1        3 0.79782705E-02 0.26973114E+03</pdfrwt>
<pdfrwt beam="1">  1       -3 0.53959352E-01 0.26973114E+03</pdfrwt>
<totfact> 0.93074940E+02</totfact>
</mgrwt>
</event>
<event>
 6    1  0.9263730E-006  0.1944668E+03  0.7546771E-02  0.1159398E+00
         -1   -1    0    0    0  501 -0.00000000000E+00  0.00000000000E+00  0.23260005238E+03  0.23260005238E+03  0.00000000000E+00 0.  1.
          1   -1    0    0  501    0  0.00000000000E+00 -0.00000000000E+00 -0.21470820197E+03  0.21470820197E+03  0.00000000000E+00 0. -1.
          5    1    1    2  502    0 -0.54243111411E+02 -0.92511978231E+01 -0.40441857344E+02  0.68450957788E+02  0.47000000000E+01 0. -1.
         -5    1    1    2    0  502 -0.22598815087E+02  0.13687299157E+03 -0.77165589584E+02  0.15881291031E+03  0.47000000000E+01 0. -1.
        -11    1    1    2    0    0  0.23176694616E+02 -0.11087799998E+03  0.67674009301E+02  0.13195022390E+03  0.00000000000E+00 0. -1.
         11    1    1    2    0    0  0.53665231882E+02 -0.16743793768E+02  0.67825288039E+02  0.88094162351E+02  0.00000000000E+00 0.  1.
<mgrwt>
<rscale>  0 0.18896521E+03</rscale>
<asrwt>0</asrwt>
<pdfrwt beam="2">  1        1 0.33032031E-01 0.19446685E+03</pdfrwt>
<pdfrwt beam="1">  1       -1 0.35784624E-01 0.19446685E+03</pdfrwt>
<totfact> 0.10049862E+03</totfact>
</mgrwt>
</event>
<event>
 6    1  0.9263730E-006  0.1303027E+03  0.7546771E-02  0.1243889E+00
         -2   -1    0    0    0  501 -0.00000000000E+00  0.00000000000E+00  0.41463314528E+02  0.41463314528E+02  0.00000000000E+00 0.  1.
          2   -1    0    0  501    0  0.00000000000E+00 -0.00000000000E+00 -0.30732643663E+03  0.30732643663E+03  0.00000000000E+00 0. -1.
          5    1    1    2  502    0  0.21807560760E+02  0.47281846538E+02 -0.17148917340E+02  0.55021069458E+02  0.47000000000E+01 0. -1.
         -5    1    1    2    0  502 -0.32361624940E+02 -0.12013669351E+02 -0.16682242957E+03  0.17042128983E+03  0.47000000000E+01 0. -1.
        -11    1    1    2    0    0  0.11231296614E+02  0.12521557128E+02 -0.72771862155E+02  0.74690530444E+02  0.00000000000E+00 0. -1.
         11    1    1    2    0    0 -0.67723243369E+00 -0.47789734316E+02 -0.91199130343E+01  0.48656861422E+02  0.00000000000E+00 0.  1.
<mgrwt>
<rscale>  0 0.11952138E+03</rscale>
<asrwt>0</asrwt>
<pdfrwt beam="2">  1        2 0.47280991E-01 0.13030273E+03</pdfrwt>
<pdfrwt beam="1">  1       -2 0.63789714E-02 0.13030273E+03</pdfrwt>
<totfact> 0.13451489E+04</totfact>
</mgrwt>
</event>
<event>
 6    1  0.9263730E-006  0.1456392E+03  0.7546771E-02  0.1215249E+00
         -2   -1    0    0    0  501 -0.00000000000E+00  0.00000000000E+00  0.61083560078E+03  0.61083560078E+03  0.00000000000E+00 0.  1.
          2   -1    0    0  501    0  0.00000000000E+00 -0.00000000000E+00 -0.29146094492E+02  0.29146094492E+02  0.00000000000E+00 0. -1.
          5    1    1    2  502    0  0.54347536006E+01 -0.19020240940E+02  0.22783042605E+03  0.22873587202E+03  0.47000000000E+01 0.  1.
         -5    1    1    2    0  502 -0.65006838968E+02 -0.26107288698E+02  0.54267398805E+02  0.88738493388E+02  0.47000000000E+01 0.  1.
        -11    1    1    2    0    0 -0.21825235031E+02 -0.13599820375E+01  0.30293711343E+02  0.37361736874E+02  0.00000000000E+00 0.  1.
         11    1    1    2    0    0  0.81397320398E+02  0.46487511675E+02  0.26929797009E+03  0.28514559300E+03  0.00000000000E+00 0. -1.
<mgrwt>
<rscale>  0 0.13858230E+03</rscale>
<asrwt>0</asrwt>
<pdfrwt beam="2">  1        2 0.44840150E-02 0.14563925E+03</pdfrwt>
<pdfrwt beam="1">  1       -2 0.93974698E-01 0.14563925E+03</pdfrwt>
<totfact> 0.17403062E+03</totfact>
</mgrwt>
</event>
<event>
 6    1  0.9263730E-006  0.1464635E+03  0.7546771E-02  0.1215730E+00
         -1   -1    0    0    0  501 -0.00000000000E+00  0.00000000000E+00  0.27327159906E+02  0.27327159906E+02  0.00000000000E+00 0.  1.
          1   -1    0    0  501    0  0.00000000000E+00 -0.00000000000E+00 -0.65367745922E+03  0.65367745922E+03  0.00000000000E+00 0. -1.
          5    1    1    2  502    0 -0.28010137379E+02  0.44436701384E+02 -0.78722119013E+02  0.94754684569E+02  0.47000000000E+01 0. -1.
         -5    1    1    2    0  502  0.77857148073E+02  0.13334045025E+02 -0.33202337724E+03  0.34132264105E+03  0.47000000000E+01 0. -1.
        -11    1    1    2    0    0 -0.70318646179E+02 -0.27879332282E+02 -0.11183629654E+03  0.13501602273E+03  0.00000000000E+00 0.  1.
         11    1    1    2    0    0  0.20471635485E+02 -0.29891414127E+02 -0.10376850652E+03  0.10991127077E+03  0.00000000000E+00 0. -1.
<mgrwt>
<rscale>  0 0.13823078E+03</rscale>
<asrwt>0</asrwt>
<pdfrwt beam="2">  1        1 0.10056575E+00 0.14646355E+03</pdfrwt>
<pdfrwt beam="1">  1       -1 0.42041788E-02 0.14646355E+03</pdfrwt>
<totfact> 0.68751333E+03</totfact>
</mgrwt>
</event>
<event>
 6    1  0.9263730E-006  0.1795586E+03  0.7546771E-02  0.1173893E+00
         -1   -1    0    0    0  501 -0.00000000000E+00  0.00000000000E+00  0.20992257684E+03  0.20992257684E+03  0.00000000000E+00 0. -1.
          1   -1    0    0  501    0  0.00000000000E+00 -0.00000000000E+00 -0.13962772872E+03  0.13962772872E+03  0.00000000000E+00 0.  1.
          5    1    1    2  502    0  0.34575581529E+02  0.25176304697E+01  0.29584368370E+02  0.45816308812E+02  0.47000000000E+01 0. -1.
         -5    1    1    2    0  502 -0.54712914733E+02 -0.12984228029E+03  0.37660440499E+02  0.14592093602E+03  0.47000000000E+01 0. -1.
        -11    1    1    2    0    0  0.34023212463E+02  0.10038653555E+02  0.16163395241E+02  0.38982161269E+02  0.00000000000E+00 0. -1.
         11    1    1    2    0    0 -0.13885879260E+02  0.11728599626E+03 -0.13113355987E+02  0.11883089947E+03  0.00000000000E+00 0.  1.
<mgrwt>
<rscale>  0 0.17384820E+03</rscale>
<asrwt>0</asrwt>
<pdfrwt beam="2">  1        1 0.21481189E-01 0.17955864E+03</pdfrwt>
<pdfrwt beam="1">  1       -1 0.32295781E-01 0.17955864E+03</pdfrwt>
<totfact> 0.20610017E+03</totfact>
</mgrwt>
</event>
<event>
 6    1  0.9263730E-006  0.1248107E+03  0.7546771E-02  0.1246892E+00
         -1   -1    0    0    0  501 -0.00000000000E+00  0.00000000000E+00  0.13758565025E+03  0.13758565025E+03  0.00000000000E+00 0.  1.
          1   -1    0    0  501    0  0.00000000000E+00 -0.00000000000E+00 -0.21420033099E+04  0.21420033099E+04  0.00000000000E+00 0. -1.
          5    1    1    2  502    0  0.42883110378E+02  0.13720350383E+02 -0.11686059929E+04  0.11694824778E+04  0.47000000000E+01 0. -1.
         -5    1    1    2    0  502 -0.70223586359E+02 -0.19400796512E+02 -0.95358631327E+03  0.95637685555E+03  0.47000000000E+01 0.  1.
        -11    1    1    2    0    0  0.15662545064E+02  0.15440448652E+02  0.13144486989E+03  0.13327218987E+03  0.00000000000E+00 0.  1.
         11    1    1    2    0    0  0.11677930918E+02 -0.97600025230E+01 -0.13670223355E+02  0.20457436945E+02  0.00000000000E+00 0. -1.
<mgrwt>
<rscale>  0 0.11772832E+03</rscale>
<asrwt>0</asrwt>
<pdfrwt beam="2">  1        1 0.32953895E+00 0.12481074E+03</pdfrwt>
<pdfrwt beam="1">  1       -1 0.21167025E-01 0.12481074E+03</pdfrwt>
<totfact> 0.54352480E+01</totfact>
</mgrwt>
</event>
<event>
 6    1  0.9263730E-006  0.1410825E+03  0.7546771E-02  0.1222374E+00
         -3   -1    0    0    0  501 -0.00000000000E+00  0.00000000000E+00  0.10928347259E+03  0.10928347259E+03  0.00000000000E+00 0.  1.
          3   -1    0    0  501    0  0.00000000000E+00 -0.00000000000E+00 -0.14857926224E+03  0.14857926224E+03  0.00000000000E+00 0. -1.
          5    1    1    2  502    0 -0.46607785289E+02 -0.45633991467E+02 -0.62981529737E+02  0.90793776851E+02  0.47000000000E+01 0.  1.
         -5    1    1    2    0  502 -0.18471406721E+02  0.39020591216E+02  0.31636831908E+02  0.53728749644E+02  0.47000000000E+01 0.  1.
        -11    1    1    2    0    0  0.42346455496E+02  0.11122543983E+02 -0.49302686141E+02  0.65937001285E+02  0.00000000000E+00 0. -1.
         11    1    1    2    0    0  0.22732736514E+02 -0.45091437326E+01  0.41351594312E+02  0.47403207051E+02  0.00000000000E+00 0.  1.
<mgrwt>
<rscale>  0 0.13348517E+03</rscale>
<asrwt>0</asrwt>
<pdfrwt beam="2">  1        3 0.22858348E-01 0.14108250E+03</pdfrwt>
<pdfrwt beam="1">  1       -3 0.16812842E-01 0.14108250E+03</pdfrwt>
<totfact> 0.12464780E+03</totfact>
</mgrwt>
</event>
<event>
 6    1  0.9263730E-006  0.1290165E+03  0.7546771E-02  0.1237655E+00
         -2   -1    0    0    0  501 -0.00000000000E+00  0.00000000000E+00  0.35862076340E+02  0.35862076340E+02  0.00000000000E+00 0.  1.
          2   -1    0    0  501    0  0.00000000000E+00 -0.00000000000E+00 -0.58659674115E+03  0.58659674115E+03  0.00000000000E+00 0. -1.
          5    1    1    2  502    0 -0.32990610843E+02 -0.73645504533E+02 -0.43267492553E+03  0.44016101818E+03  0.47000000000E+01 0. -1.
         -5    1    1    2    0  502 -0.13632917501E+01  0.28798296619E+02 -0.38317230972E+02  0.48181953488E+02  0.47000000000E+01 0.  1.
        -11    1    1    2    0    0 -0.17784272112E+01 -0.25968281077E+02 -0.85489833410E+01  0.27397071771E+02  0.00000000000E+00 0. -1.
         11    1    1    2    0    0  0.36132329804E+02  0.70815488992E+02 -0.71193524968E+02  0.10671877405E+03  0.00000000000E+00 0.  1.
<mgrwt>
<rscale>  0 0.12335957E+03</rscale>
<asrwt>0</asrwt>
<pdfrwt beam="2">  1        2 0.90245653E-01 0.12901646E+03</pdfrwt>
<pdfrwt beam="1">  1       -2 0.55172425E-02 0.12901646E+03</pdfrwt>
<totfact> 0.83292652E+03</totfact>
</mgrwt>
</event>
<event>
 6    1  0.9263730E-006  0.2207264E+03  0.7546771E-02  0.1136712E+00
          2   -1    0    0  501    0  0.00000000000E+00  0.00000000000E+00  0.59661705116E+03  0.59661705116E+03  0.00000000000E+00 0. -1.
         -2   -1    0    0    0  501 -0.00000000000E+00 -0.00000000000E+00 -0.75380921018E+02  0.75380921018E+02  0.00000000000E+00 0.  1.
          5    1    1    2  502    0  0.11686118794E+03  0.12567852091E+03  0.17711357726E+03  0.24666361125E+03  0.47000000000E+01 0. -1.
         -5    1    1    2    0  502 -0.24393654247E+02  0.31001431412E+02  0.10007525798E+03  0.10767212442E+03  0.47000000000E+01 0. -1.
        -11    1    1    2    0    0 -0.98107252078E+02 -0.11702810186E+03  0.22821513636E+03  0.27459562633E+03  0.00000000000E+00 0. -1.
         11    1    1    2    0    0  0.56397183829E+01 -0.39651850462E+02  0.15832158542E+02  0.43066610182E+02  0.00000000000E+00 0.  1.
<mgrwt>
<rscale>  0 0.21624720E+03</rscale>
<asrwt>0</asrwt>
<pdfrwt beam="1">  1        2 0.91787235E-01 0.22072644E+03</pdfrwt>
<pdfrwt beam="2">  1       -2 0.11597065E-01 0.22072644E+03</pdfrwt>
<totfact> 0.26348941E+03</totfact>
</mgrwt>
</event>
<event>
 6    1  0.9263730E-006  0.1256672E+03  0.7546771E-02  0.1249212E+00
         -1   -1    0    0    0  501 -0.00000000000E+00  0.00000000000E+00  0.12328071363E+03  0.12328071363E+03  0.00000000000E+00 0.  1.
          1   -1    0    0  501    0  0.00000000000E+00 -0.00000000000E+00 -0.11347088218E+03  0.11347088218E+03  0.00000000000E+00 0. -1.
          5    1    1    2  502    0 -0.26546343181E+02 -0.48384254165E+02 -0.60879371716E+02  0.82305117022E+02  0.47000000000E+01 0.  1.
         -5    1    1    2    0  502  0.15579193090E+02  0.41807737730E+02  0.21004492414E+02  0.49536621736E+02  0.47000000000E+01 0.  1.
        -11    1    1    2    0    0  0.26920852131E+02  0.19235998728E+02 -0.15557914388E+02  0.36562338911E+02  0.00000000000E+00 0. -1.
         11    1    1    2    0    0 -0.15953702040E+02 -0.12659482293E+02  0.65242625146E+02  0.68347518145E+02  0.00000000000E+00 0.  1.
<mgrwt>
<rscale>  0 0.11636779E+03</rscale>
<asrwt>0</asrwt>
<pdfrwt beam="2">  1        1 0.17457059E-01 0.12566717E+03</pdfrwt>
<pdfrwt beam="1">  1       -1 0.18966264E-01 0.12566717E+03</pdfrwt>
<totfact> 0.63359663E+03</totfact>
</mgrwt>
</event>
<event>
 6    1  0.9263730E-006  0.4741313E+03  0.7546771E-02  0.1020761E+00
         -2   -1    0    0    0  501 -0.00000000000E+00  0.00000000000E+00  0.83582696012E+02  0.83582696012E+02  0.00000000000E+00 0. -1.
          2   -1    0    0  501    0  0.00000000000E+00 -0.00000000000E+00 -0.67238933340E+03  0.67238933340E+03  0.00000000000E+00 0.  1.
          5    1    1    2  502    0 -0.16697275744E+02  0.12399559510E+02 -0.30312014676E+02  0.37060171708E+02  0.47000000000E+01 0.  1.
         -5    1    1    2    0  502  0.20933467471E+03  0.26649926076E+02 -0.39647939836E+03  0.44916503417E+03  0.47000000000E+01 0.  1.
        -11    1    1    2    0    0 -0.15393349866E+02 -0.34988260140E+02 -0.32740282759E+02  0.50329511053E+02  0.00000000000E+00 0. -1.
         11    1    1    2    0    0 -0.17724404910E+03 -0.40612254465E+01 -0.12927494159E+03  0.21941731248E+03  0.00000000000E+00 0.  1.
<mgrwt>
<rscale>  0 0.47413126E+03</rscale>
<asrwt>0</asrwt>
<pdfrwt beam="2">  1        2 0.10344451E+00 0.47413126E+03</pdfrwt>
<pdfrwt beam="1">  1       -2 0.12858876E-01 0.47413126E+03</pdfrwt>
<totfact> 0.19536345E+03</totfact>
</mgrwt>
</event>
<event>
 6    1  0.9263730E-006  0.1289204E+03  0.7546771E-02  0.1245127E+00
         -2   -1    0    0    0  501 -0.00000000000E+00  0.00000000000E+00  0.10769455660E+02  0.10769455660E+02  0.00000000000E+00 0.  1.
          2   -1    0    0  501    0  0.00000000000E+00 -0.00000000000E+00 -0.11562578601E+04  0.11562578601E+04  0.00000000000E+00 0. -1.
          5    1    1    2  502    0  0.38436459105E+02  0.29564562523E+02 -0.11993910133E+03  0.12945618090E+03  0.47000000000E+01 0.  1.
         -5    1    1    2    0  502 -0.46656073910E+02  0.92082077191E+00 -0.60837127261E+03  0.61017647651E+03  0.47000000000E+01 0.  1.
        -11    1    1    2    0    0  0.47796653230E+02 -0.13114177261E+02 -0.21262714562E+03  0.21832728817E+03  0.00000000000E+00 0.  1.
         11    1    1    2    0    0 -0.39577038425E+02 -0.17371206034E+02 -0.20455088487E+03  0.20906737017E+03  0.00000000000E+00 0. -1.
<mgrwt>
<rscale>  0 0.11877753E+03</rscale>
<asrwt>0</asrwt>
<pdfrwt beam="2">  1        2 0.17788594E+00 0.12892039E+03</pdfrwt>
<pdfrwt beam="1">  1       -2 0.16568383E-02 0.12892039E+03</pdfrwt>
<totfact> 0.20586694E+04</totfact>
</mgrwt>
</event>
<event>
 6    1  0.9263730E-006  0.1167598E+03  0.7546771E-02  0.1256634E+00
          1   -1    0    0  501    0  0.00000000000E+00  0.00000000000E+00  0.26588868982E+03  0.26588868982E+03  0.00000000000E+00 0. -1.
         -1   -1    0    0    0  501 -0.00000000000E+00 -0.00000000000E+00 -0.49272476916E+02  0.49272476916E+02  0.00000000000E+00 0.  1.
          5    1    1    2  502    0  0.68737999246E+02 -0.11119141297E+02  0.14146356877E+03  0.15774212859E+03  0.47000000000E+01 0. -1.
         -5    1    1    2    0  502 -0.37218576283E+02 -0.88576246410E+01  0.26338946853E+02  0.46685223103E+02  0.47000000000E+01 0.  1.
        -11    1    1    2    0    0 -0.47410299232E+02  0.39072188169E+01 -0.92187897558E+01  0.48456051394E+02  0.00000000000E+00 0.  1.
         11    1    1    2    0    0  0.15890876269E+02  0.16069547121E+02  0.58032487036E+02  0.62277763647E+02  0.00000000000E+00 0. -1.
<mgrwt>
<rscale>  0 0.11215285E+03</rscale>
<asrwt>0</asrwt>
<pdfrwt beam="1">  1        1 0.40905951E-01 0.11675983E+03</pdfrwt>
<pdfrwt beam="2">  1       -1 0.75803812E-02 0.11675983E+03</pdfrwt>
<totfact> 0.89393505E+03</totfact>
</mgrwt>
</event>
<event>
 6    1  0.9263730E-006  0.1269547E+03  0.7546771E-02  0.1247110E+00
         -2   -1    0    0    0  501 -0.00000000000E+00  0.00000000000E+00  0.43818324339E+02  0.43818324339E+02  0.00000000000E+00 0. -1.
          2   -1    0    0  501    0  0.00000000000E+00 -0.00000000000E+00 -0.28975925206E+03  0.28975925206E+03  0.00000000000E+00 0.  1.
          5    1    1    2  502    0 -0.40269432634E+02  0.32141294330E+02 -0.33275202280E+02  0.61514381186E+02  0.47000000000E+01 0. -1.
         -5    1    1    2    0  502  0.31985659190E+02 -0.52831497718E+02 -0.14188885353E+03  0.15481855929E+03  0.47000000000E+01 0. -1.
        -11    1    1    2    0    0 -0.34476124824E+02 -0.12209033280E+02 -0.14669539359E+02  0.39406332760E+02  0.00000000000E+00 0. -1.
         11    1    1    2    0    0  0.42759898268E+02  0.32899236668E+02 -0.56107332557E+02  0.77838303167E+02  0.00000000000E+00 0.  1.
<mgrwt>
<rscale>  0 0.11759977E+03</rscale>
<asrwt>0</asrwt>
<pdfrwt beam="2">  1        2 0.44578346E-01 0.12695470E+03</pdfrwt>
<pdfrwt beam="1">  1       -2 0.67412808E-02 0.12695470E+03</pdfrwt>
<totfact> 0.13131793E+04</totfact>
</mgrwt>
</event>
<event>
 6    1  0.9263730E-006  0.1401850E+03  0.7546771E-02  0.1226493E+00
         -2   -1    0    0    0  501 -0.00000000000E+00  0.00000000000E+00  0.13763655071E+03  0.13763655071E+03  0.00000000000E+00 0.  1.
          2   -1    0    0  501    0  0.00000000000E+00 -0.00000000000E+00 -0.11948479038E+03  0.11948479038E+03  0.00000000000E+00 0. -1.
          5    1    1    2  502    0  0.65878302574E+02  0.55725028090E+01 -0.75313053376E+01  0.66706926909E+02  0.47000000000E+01 0.  1.
         -5    1    1    2    0  502 -0.38283220752E+02 -0.62676627062E+02 -0.18351409920E+02  0.75847404814E+02  0.47000000000E+01 0.  1.
        -11    1    1    2    0    0 -0.57408851006E+02  0.30749455051E+02  0.34280817505E+02  0.73596736399E+02  0.00000000000E+00 0.  1.
         11    1    1    2    0    0  0.29813769185E+02  0.26354669201E+02  0.97536580822E+01  0.40970272976E+02  0.00000000000E+00 0. -1.
<mgrwt>
<rscale>  0 0.13065113E+03</rscale>
<asrwt>0</asrwt>
<pdfrwt beam="2">  1        2 0.18382276E-01 0.14018496E+03</pdfrwt>
<pdfrwt beam="1">  1       -2 0.21174854E-01 0.14018496E+03</pdfrwt>
<totfact> 0.55615286E+03</totfact>
</mgrwt>
</event>
<event>
 6    1  0.9263730E-006  0.1328351E+03  0.7546771E-02  0.1234903E+00
          2   -1    0    0  501    0  0.00000000000E+00  0.00000000000E+00  0.44802466365E+03  0.44802466365E+03  0.00000000000E+00 0. -1.
         -2   -1    0    0    0  501 -0.00000000000E+00 -0.00000000000E+00 -0.41193439107E+02  0.41193439107E+02  0.00000000000E+00 0.  1.
          5    1    1    2  502    0 -0.51817579255E+02 -0.53195880260E+02  0.11529425740E+03  0.13722142321E+03  0.47000000000E+01 0. -1.
         -5    1    1    2    0  502  0.35255498205E+02  0.11376385906E+02  0.22504632181E+03  0.22812345182E+03  0.47000000000E+01 0. -1.
        -11    1    1    2    0    0  0.49814058175E+02  0.19833539438E+02  0.96987588845E+01  0.54487389389E+02  0.00000000000E+00 0.  1.
         11    1    1    2    0    0 -0.33251977125E+02  0.21985954916E+02  0.56791886439E+02  0.69385838336E+02  0.00000000000E+00 0. -1.
<mgrwt>
<rscale>  0 0.12510661E+03</rscale>
<asrwt>0</asrwt>
<pdfrwt beam="1">  1        2 0.68926868E-01 0.13283512E+03</pdfrwt>
<pdfrwt beam="2">  1       -2 0.63374525E-02 0.13283512E+03</pdfrwt>
<totfact> 0.91065553E+03</totfact>
</mgrwt>
</event>
<event>
 6    1  0.9263730E-006  0.1585308E+03  0.7546771E-02  0.1198922E+00
         -2   -1    0    0    0  501 -0.00000000000E+00  0.00000000000E+00  0.19222432063E+03  0.19222432063E+03  0.00000000000E+00 0.  1.
          2   -1    0    0  501    0  0.00000000000E+00 -0.00000000000E+00 -0.11264912092E+03  0.11264912092E+03  0.00000000000E+00 0. -1.
          5    1    1    2  502    0  0.22805169611E+01  0.39625186117E+02 -0.43783915899E+02  0.59283028127E+02  0.47000000000E+01 0.  1.
         -5    1    1    2    0  502  0.77501220118E+02  0.16428768247E+02  0.61165030575E+02  0.10019777698E+03  0.47000000000E+01 0.  1.
        -11    1    1    2    0    0 -0.79371500145E+02 -0.18087919634E+02  0.69126804783E+02  0.10679664326E+03  0.00000000000E+00 0.  1.
         11    1    1    2    0    0 -0.41023693493E+00 -0.37966034730E+02 -0.69327197504E+01  0.38595993193E+02  0.00000000000E+00 0. -1.
<mgrwt>
<rscale>  0 0.15126892E+03</rscale>
<asrwt>0</asrwt>
<pdfrwt beam="2">  1        2 0.17330634E-01 0.15853083E+03</pdfrwt>
<pdfrwt beam="1">  1       -2 0.29572972E-01 0.15853083E+03</pdfrwt>
<totfact> 0.33402179E+03</totfact>
</mgrwt>
</event>
<event>
 6    1  0.9263730E-006  0.1257923E+03  0.7546771E-02  0.1245400E+00
         -2   -1    0    0    0  501 -0.00000000000E+00  0.00000000000E+00  0.70385517336E+02  0.70385517336E+02  0.00000000000E+00 0.  1.
          2   -1    0    0  501    0  0.00000000000E+00 -0.00000000000E+00 -0.23173094727E+03  0.23173094727E+03  0.00000000000E+00 0. -1.
          5    1    1    2  502    0 -0.44049450305E+02 -0.20054404598E+02 -0.69251021970E+02  0.84618716960E+02  0.47000000000E+01 0. -1.
         -5    1    1    2    0  502  0.33991932256E+02  0.68703198956E+02 -0.89614698756E+02  0.11801891898E+03  0.47000000000E+01 0.  1.
        -11    1    1    2    0    0  0.11891000246E+02 -0.71446075188E+02 -0.14156816754E+02  0.73799410616E+02  0.00000000000E+00 0.  1.
         11    1    1    2    0    0 -0.18334821968E+01  0.22797280830E+02  0.11677107550E+02  0.25679418041E+02  0.00000000000E+00 0. -1.
<mgrwt>
<rscale>  0 0.11861494E+03</rscale>
<asrwt>0</asrwt>
<pdfrwt beam="2">  1        2 0.35650914E-01 0.12579227E+03</pdfrwt>
<pdfrwt beam="1">  1       -2 0.10828541E-01 0.12579227E+03</pdfrwt>
<totfact> 0.79798937E+03</totfact>
</mgrwt>
</event>
<event>
 6    1  0.9263730E-006  0.1350865E+03  0.7546771E-02  0.1238840E+00
         -4   -1    0    0    0  501 -0.00000000000E+00  0.00000000000E+00  0.82702646754E+02  0.82702646754E+02  0.00000000000E+00 0.  1.
          4   -1    0    0  501    0  0.00000000000E+00 -0.00000000000E+00 -0.17984442245E+03  0.17984442245E+03  0.00000000000E+00 0. -1.
          5    1    1    2  502    0  0.76341788103E+01 -0.19306423187E+02 -0.98145640839E+02  0.10042746376E+03  0.47000000000E+01 0. -1.
         -5    1    1    2    0  502  0.11465255364E+01  0.69725311357E+02 -0.60110746883E+01  0.70150955685E+02  0.47000000000E+01 0. -1.
        -11    1    1    2    0    0  0.29001842048E+01 -0.59149951072E+02 -0.18958123469E+02  0.62181494238E+02  0.00000000000E+00 0. -1.
         11    1    1    2    0    0 -0.11680888551E+02  0.87310629020E+01  0.25973063299E+02  0.29787155518E+02  0.00000000000E+00 0.  1.
<mgrwt>
<rscale>  0 0.12261745E+03</rscale>
<asrwt>0</asrwt>
<pdfrwt beam="2">  1        4 0.27668372E-01 0.13508655E+03</pdfrwt>
<pdfrwt beam="1">  1       -4 0.12723484E-01 0.13508655E+03</pdfrwt>
<totfact> 0.10264458E+03</totfact>
</mgrwt>
</event>
<event>
 6    1  0.9263730E-006  0.1303709E+03  0.7546771E-02  0.1244705E+00
         -2   -1    0    0    0  501 -0.00000000000E+00  0.00000000000E+00  0.26735575716E+02  0.26735575716E+02  0.00000000000E+00 0.  1.
          2   -1    0    0  501    0  0.00000000000E+00 -0.00000000000E+00 -0.45666782030E+03  0.45666782030E+03  0.00000000000E+00 0. -1.
          5    1    1    2  502    0  0.26932446267E+02 -0.58730615266E+02 -0.10400726450E+03  0.12253261974E+03  0.47000000000E+01 0. -1.
         -5    1    1    2    0  502  0.99155898353E+01  0.62496265314E+02 -0.15345191618E+03  0.16605325254E+03  0.47000000000E+01 0. -1.
        -11    1    1    2    0    0 -0.86467841031E+01 -0.12618291148E+02  0.40605752549E+01  0.15826446797E+02  0.00000000000E+00 0.  1.
         11    1    1    2    0    0 -0.28201251999E+02  0.88526411007E+01 -0.17653363916E+03  0.17899107694E+03  0.00000000000E+00 0. -1.
<mgrwt>
<rscale>  0 0.11903043E+03</rscale>
<asrwt>0</asrwt>
<pdfrwt beam="2">  1        2 0.70256583E-01 0.13037092E+03</pdfrwt>
<pdfrwt beam="1">  1       -2 0.41131658E-02 0.13037092E+03</pdfrwt>
<totfact> 0.17052777E+04</totfact>
</mgrwt>
</event>
<event>
 6    1  0.9263730E-006  0.1344540E+03  0.7546771E-02  0.1234368E+00
          1   -1    0    0  501    0  0.00000000000E+00  0.00000000000E+00  0.68146145510E+03  0.68146145510E+03  0.00000000000E+00 0. -1.
         -1   -1    0    0    0  501 -0.00000000000E+00 -0.00000000000E+00 -0.26813792534E+02  0.26813792534E+02  0.00000000000E+00 0.  1.
          5    1    1    2  502    0 -0.71002986773E+02 -0.37175619633E+02  0.21864542942E+03  0.23291922341E+03  0.47000000000E+01 0.  1.
         -5    1    1    2    0  502  0.21715663759E+02  0.32301710403E+02  0.31382297350E+03  0.31626242148E+03  0.47000000000E+01 0.  1.
        -11    1    1    2    0    0  0.29307210022E+02 -0.32711500221E+01 -0.51617747915E+01  0.29937550013E+02  0.00000000000E+00 0.  1.
         11    1    1    2    0    0  0.19980112992E+02  0.81450592519E+01  0.12734103444E+03  0.12915605273E+03  0.00000000000E+00 0. -1.
<mgrwt>
<rscale>  0 0.12545000E+03</rscale>
<asrwt>0</asrwt>
<pdfrwt beam="1">  1        1 0.10484021E+00 0.13445400E+03</pdfrwt>
<pdfrwt beam="2">  1       -1 0.41251994E-02 0.13445400E+03</pdfrwt>
<totfact> 0.66363052E+03</totfact>
</mgrwt>
</event>
<event>
 6    1  0.9263730E-006  0.1699981E+03  0.7546771E-02  0.1184663E+00
         -2   -1    0    0    0  501 -0.00000000000E+00  0.00000000000E+00  0.40144591916E+02  0.40144591916E+02  0.00000000000E+00 0.  1.
          2   -1    0    0  501    0  0.00000000000E+00 -0.00000000000E+00 -0.70274840617E+03  0.70274840617E+03  0.00000000000E+00 0. -1.
          5    1    1    2  502    0  0.59535537645E+02 -0.98322664421E+02 -0.48386566319E+03  0.49735288940E+03  0.47000000000E+01 0. -1.
         -5    1    1    2    0  502  0.81603875694E+01  0.50994980657E+01  0.42329123118E+01  0.11515396322E+02  0.47000000000E+01 0. -1.
        -11    1    1    2    0    0  0.10707726265E+01  0.16656117962E+02  0.68965759024E+01  0.18059224201E+02  0.00000000000E+00 0.  1.
         11    1    1    2    0    0 -0.68766697841E+02  0.76567048393E+02 -0.18986763927E+03  0.21596548815E+03  0.00000000000E+00 0. -1.
<mgrwt>
<rscale>  0 0.16362621E+03</rscale>
<asrwt>0</asrwt>
<pdfrwt beam="2">  1        2 0.10811514E+00 0.16999811E+03</pdfrwt>
<pdfrwt beam="1">  1       -2 0.61760911E-02 0.16999811E+03</pdfrwt>
<totfact> 0.57740112E+03</totfact>
</mgrwt>
</event>
<event>
 6    1  0.9263730E-006  0.1167038E+03  0.7546771E-02  0.1335991E+00
         -2   -1    0    0    0  501 -0.00000000000E+00  0.00000000000E+00  0.18081078365E+02  0.18081078365E+02  0.00000000000E+00 0.  1.
          2   -1    0    0  501    0  0.00000000000E+00 -0.00000000000E+00 -0.34409696792E+03  0.34409696792E+03  0.00000000000E+00 0. -1.
          5    1    1    2  502    0  0.31361504150E+02  0.22336836753E+02 -0.25776389454E+03  0.26066605752E+03  0.47000000000E+01 0. -1.
         -5    1    1    2    0  502 -0.28478301819E+02 -0.40003992023E+02 -0.58959043309E+02  0.76873869684E+02  0.47000000000E+01 0.  1.
        -11    1    1    2    0    0 -0.75416092158E+01  0.67960439468E+01 -0.10165383157E+01  0.10202716944E+02  0.00000000000E+00 0. -1.
         11    1    1    2    0    0  0.46584068843E+01  0.10871111323E+02 -0.82764133940E+01  0.14435402134E+02  0.00000000000E+00 0.  1.
<mgrwt>
<rscale>  0 0.77604154E+02</rscale>
<asrwt>0</asrwt>
<pdfrwt beam="2">  1        2 0.52937994E-01 0.11670383E+03</pdfrwt>
<pdfrwt beam="1">  1       -2 0.27817044E-02 0.11670383E+03</pdfrwt>
<totfact> 0.40570615E+04</totfact>
</mgrwt>
</event>
<event>
 6    1  0.9263730E-006  0.1402600E+03  0.7546771E-02  0.1223796E+00
          1   -1    0    0  501    0  0.00000000000E+00  0.00000000000E+00  0.21015296014E+03  0.21015296014E+03  0.00000000000E+00 0. -1.
         -1   -1    0    0    0  501 -0.00000000000E+00 -0.00000000000E+00 -0.77209032646E+02  0.77209032646E+02  0.00000000000E+00 0.  1.
          5    1    1    2  502    0  0.10597883874E+01  0.63772687481E+02  0.35906639741E+02  0.73344772121E+02  0.47000000000E+01 0. -1.
         -5    1    1    2    0  502 -0.61532204073E+02 -0.43902423958E+02  0.59065600777E+02  0.96044105299E+02  0.47000000000E+01 0. -1.
        -11    1    1    2    0    0  0.73266545941E+02 -0.42665531163E+02  0.34773038807E+02  0.91637866253E+02  0.00000000000E+00 0. -1.
         11    1    1    2    0    0 -0.12794130255E+02  0.22795267640E+02  0.31986481686E+01  0.26335249113E+02  0.00000000000E+00 0.  1.
<mgrwt>
<rscale>  0 0.13249788E+03</rscale>
<asrwt>0</asrwt>
<pdfrwt beam="1">  1        1 0.32331224E-01 0.14025999E+03</pdfrwt>
<pdfrwt beam="2">  1       -1 0.11878313E-01 0.14025999E+03</pdfrwt>
<totfact> 0.61189881E+03</totfact>
</mgrwt>
</event>
<event>
 6    1  0.9263730E-006  0.1398315E+03  0.7546771E-02  0.1232233E+00
          2   -1    0    0  501    0  0.00000000000E+00  0.00000000000E+00  0.74712940580E+03  0.74712940580E+03  0.00000000000E+00 0. -1.
         -2   -1    0    0    0  501 -0.00000000000E+00 -0.00000000000E+00 -0.18576973306E+02  0.18576973306E+02  0.00000000000E+00 0.  1.
          5    1    1    2  502    0 -0.30279054236E+02 -0.47769577892E+02  0.24048267249E+03  0.24708856604E+03  0.47000000000E+01 0. -1.
         -5    1    1    2    0  502  0.42750797954E+02  0.68254318526E+02  0.23029088403E+03  0.24401283571E+03  0.47000000000E+01 0.  1.
        -11    1    1    2    0    0  0.15903370679E+02 -0.48079668014E+02  0.10204446591E+03  0.11391946584E+03  0.00000000000E+00 0. -1.
         11    1    1    2    0    0 -0.28375114397E+02  0.27594927380E+02  0.15573441007E+03  0.16068551152E+03  0.00000000000E+00 0.  1.
<mgrwt>
<rscale>  0 0.12683228E+03</rscale>
<asrwt>0</asrwt>
<pdfrwt beam="1">  1        2 0.11494296E+00 0.13983149E+03</pdfrwt>
<pdfrwt beam="2">  1       -2 0.28579965E-02 0.13983149E+03</pdfrwt>
<totfact> 0.16777841E+04</totfact>
</mgrwt>
</event>
<event>
 6    1  0.9263730E-006  0.2541284E+03  0.7546771E-02  0.1110723E+00
          2   -1    0    0  501    0  0.00000000000E+00  0.00000000000E+00  0.10312146312E+04  0.10312146312E+04  0.00000000000E+00 0. -1.
         -2   -1    0    0    0  501 -0.00000000000E+00 -0.00000000000E+00 -0.15656600843E+02  0.15656600843E+02  0.00000000000E+00 0.  1.
          5    1    1    2  502    0 -0.57008600938E+01  0.27504633824E+02  0.57579901424E+03  0.57650290502E+03  0.47000000000E+01 0. -1.
         -5    1    1    2    0  502 -0.13417552588E+02 -0.63307871886E+02  0.19762368980E+03  0.20800271664E+03  0.47000000000E+01 0. -1.
        -11    1    1    2    0    0  0.44263162095E+02  0.27107267633E+01  0.54901786790E+02  0.70574653743E+02  0.00000000000E+00 0.  1.
         11    1    1    2    0    0 -0.25144749413E+02  0.33092511299E+02  0.18723353951E+03  0.19179095663E+03  0.00000000000E+00 0. -1.
<mgrwt>
<rscale>  0 0.25412844E+03</rscale>
<asrwt>0</asrwt>
<pdfrwt beam="1">  1        2 0.15864835E+00 0.25412844E+03</pdfrwt>
<pdfrwt beam="2">  1       -2 0.24087086E-02 0.25412844E+03</pdfrwt>
<totfact> 0.14665359E+04</totfact>
</mgrwt>
</event>
<event>
 6    1  0.9263730E-006  0.1296630E+03  0.7546771E-02  0.1242555E+00
          1   -1    0    0  501    0  0.00000000000E+00  0.00000000000E+00  0.17235612992E+02  0.17235612992E+02  0.00000000000E+00 0. -1.
         -1   -1    0    0    0  501 -0.00000000000E+00 -0.00000000000E+00 -0.75283090254E+03  0.75283090254E+03  0.00000000000E+00 0.  1.
          5    1    1    2  502    0 -0.68371597887E+02 -0.31043838882E+02 -0.25007077064E+03  0.26114340056E+03  0.47000000000E+01 0.  1.
         -5    1    1    2    0  502  0.53544304194E+02 -0.59884251856E-01 -0.22153883602E+03  0.22796609828E+03  0.47000000000E+01 0.  1.
        -11    1    1    2    0    0  0.25726911911E+02 -0.23380750105E+02 -0.15224773719E+03  0.15616627982E+03  0.00000000000E+00 0.  1.
         11    1    1    2    0    0 -0.10899618218E+02  0.54484473239E+02 -0.11173794570E+03  0.12479073688E+03  0.00000000000E+00 0. -1.
<mgrwt>
<rscale>  0 0.12032899E+03</rscale>
<asrwt>0</asrwt>
<pdfrwt beam="1">  1        1 0.26516327E-02 0.12966295E+03</pdfrwt>
<pdfrwt beam="2">  1       -1 0.11582014E+00 0.12966295E+03</pdfrwt>
<totfact> 0.28070222E+03</totfact>
</mgrwt>
</event>
<event>
 6    1  0.9263730E-006  0.3236030E+03  0.7546771E-02  0.1074003E+00
         -1   -1    0    0    0  501 -0.00000000000E+00  0.00000000000E+00  0.54063081827E+02  0.54063081827E+02  0.00000000000E+00 0. -1.
          1   -1    0    0  501    0  0.00000000000E+00 -0.00000000000E+00 -0.48424417599E+03  0.48424417599E+03  0.00000000000E+00 0.  1.
          5    1    1    2  502    0  0.84622708644E+02 -0.81297445246E+02 -0.11012166870E+03  0.16099425251E+03  0.47000000000E+01 0.  1.
         -5    1    1    2    0  502  0.15046372459E+02  0.17200295355E+02 -0.14475550188E+03  0.14662362978E+03  0.47000000000E+01 0.  1.
        -11    1    1    2    0    0 -0.48177637831E+02  0.37880478628E+01 -0.12993433269E+02  0.50042615856E+02  0.00000000000E+00 0. -1.
         11    1    1    2    0    0 -0.51491443272E+02  0.60309102028E+02 -0.16231049032E+03  0.18064675968E+03  0.00000000000E+00 0.  1.
<mgrwt>
<rscale>  0 0.32360304E+03</rscale>
<asrwt>0</asrwt>
<pdfrwt beam="2">  1        1 0.74499102E-01 0.32360304E+03</pdfrwt>
<pdfrwt beam="1">  1       -1 0.83173974E-02 0.32360304E+03</pdfrwt>
<totfact> 0.38265308E+03</totfact>
</mgrwt>
</event>
<event>
 6    1  0.9263730E-006  0.2308658E+03  0.7546771E-02  0.1128571E+00
          1   -1    0    0  501    0  0.00000000000E+00  0.00000000000E+00  0.54487544194E+03  0.54487544194E+03  0.00000000000E+00 0. -1.
         -1   -1    0    0    0  501 -0.00000000000E+00 -0.00000000000E+00 -0.12131343175E+03  0.12131343175E+03  0.00000000000E+00 0.  1.
          5    1    1    2  502    0 -0.13301087228E+03  0.87381604195E+02  0.23035241815E+03  0.28002100536E+03  0.47000000000E+01 0.  1.
         -5    1    1    2    0  502 -0.55269044101E+02 -0.40196735212E+02  0.15022230638E+03  0.16510383427E+03  0.47000000000E+01 0.  1.
        -11    1    1    2    0    0  0.73592369603E+02  0.15399379217E+02 -0.17334555160E+02  0.77158697155E+02  0.00000000000E+00 0.  1.
         11    1    1    2    0    0  0.11468754678E+03 -0.62584248201E+02  0.60321840824E+02  0.14390533690E+03  0.00000000000E+00 0. -1.
<mgrwt>
<rscale>  0 0.22727758E+03</rscale>
<asrwt>0</asrwt>
<pdfrwt beam="1">  1        1 0.83826990E-01 0.23086577E+03</pdfrwt>
<pdfrwt beam="2">  1       -1 0.18663605E-01 0.23086577E+03</pdfrwt>
<totfact> 0.90965708E+02</totfact>
</mgrwt>
</event>
<event>
 6    1  0.9263730E-006  0.2465259E+03  0.7546771E-02  0.1115520E+00
         -1   -1    0    0    0  501 -0.00000000000E+00  0.00000000000E+00  0.50773646582E+02  0.50773646582E+02  0.00000000000E+00 0.  1.
          1   -1    0    0  501    0  0.00000000000E+00 -0.00000000000E+00 -0.29924483256E+03  0.29924483256E+03  0.00000000000E+00 0. -1.
          5    1    1    2  502    0 -0.44802381661E+02  0.29959118353E+02 -0.37835903395E+01  0.54232902659E+02  0.47000000000E+01 0.  1.
         -5    1    1    2    0  502 -0.24459638115E+01 -0.10255926982E+02 -0.14999148542E+03  0.15043504404E+03  0.47000000000E+01 0.  1.
        -11    1    1    2    0    0 -0.27840415887E+02  0.33410281115E+01 -0.98261924127E+01  0.29712039360E+02  0.00000000000E+00 0.  1.
         11    1    1    2    0    0  0.75088761359E+02 -0.23044219482E+02 -0.84869917810E+02  0.11563849309E+03  0.00000000000E+00 0. -1.
<mgrwt>
<rscale>  0 0.24652587E+03</rscale>
<asrwt>0</asrwt>
<pdfrwt beam="2">  1        1 0.46037668E-01 0.24652587E+03</pdfrwt>
<pdfrwt beam="1">  1       -1 0.78113300E-02 0.24652587E+03</pdfrwt>
<totfact> 0.77453099E+03</totfact>
</mgrwt>
</event>
<event>
 6    1  0.9263730E-006  0.2267238E+03  0.7546771E-02  0.1128967E+00
          1   -1    0    0  501    0  0.00000000000E+00  0.00000000000E+00  0.86970864551E+03  0.86970864551E+03  0.00000000000E+00 0. -1.
         -1   -1    0    0    0  501 -0.00000000000E+00 -0.00000000000E+00 -0.14776118123E+02  0.14776118123E+02  0.00000000000E+00 0.  1.
          5    1    1    2  502    0  0.30293263281E+02  0.45440812894E+02  0.14448461196E+03  0.15453298150E+03  0.47000000000E+01 0. -1.
         -5    1    1    2    0  502 -0.15656535395E+02 -0.22887949891E+02  0.43782077850E+03  0.43872327205E+03  0.47000000000E+01 0.  1.
        -11    1    1    2    0    0  0.25810299744E+02 -0.42486357482E+02  0.86981592804E+02  0.10018512680E+03  0.00000000000E+00 0. -1.
         11    1    1    2    0    0 -0.40447027630E+02  0.19933494478E+02  0.18564554412E+03  0.19104338329E+03  0.00000000000E+00 0.  1.
<mgrwt>
<rscale>  0 0.22672378E+03</rscale>
<asrwt>0</asrwt>
<pdfrwt beam="1">  1        1 0.13380129E+00 0.22672378E+03</pdfrwt>
<pdfrwt beam="2">  1       -1 0.22732496E-02 0.22672378E+03</pdfrwt>
<totfact> 0.11344033E+04</totfact>
</mgrwt>
</event>
<event>
 6    1  0.9263730E-006  0.3234139E+03  0.7546771E-02  0.1074089E+00
          2   -1    0    0  501    0  0.00000000000E+00  0.00000000000E+00  0.83068116311E+03  0.83068116311E+03  0.00000000000E+00 0. -1.
         -2   -1    0    0    0  501 -0.00000000000E+00 -0.00000000000E+00 -0.31479149230E+02  0.31479149230E+02  0.00000000000E+00 0.  1.
          5    1    1    2  502    0 -0.11591766483E+03 -0.22855145305E+02  0.54498544479E+03  0.55766521114E+03  0.47000000000E+01 0.  1.
         -5    1    1    2    0  502  0.60763211115E+01  0.17811372147E+02  0.10279660828E+02  0.21952860468E+02  0.47000000000E+01 0.  1.
        -11    1    1    2    0    0  0.39538117508E+02 -0.30666154988E+02  0.15881089060E+03  0.16650698115E+03  0.00000000000E+00 0. -1.
         11    1    1    2    0    0  0.70303226206E+02  0.35709928147E+02  0.85126017664E+02  0.11603525958E+03  0.00000000000E+00 0.  1.
<mgrwt>
<rscale>  0 0.32341389E+03</rscale>
<asrwt>0</asrwt>
<pdfrwt beam="1">  1        2 0.12779709E+00 0.32341389E+03</pdfrwt>
<pdfrwt beam="2">  1       -2 0.48429467E-02 0.32341389E+03</pdfrwt>
<totfact> 0.69647191E+03</totfact>
</mgrwt>
</event>
<event>
 6    1  0.9263730E-006  0.2347337E+03  0.7546771E-02  0.1126246E+00
         -1   -1    0    0    0  501 -0.00000000000E+00  0.00000000000E+00  0.19644535721E+03  0.19644535721E+03  0.00000000000E+00 0.  1.
          1   -1    0    0  501    0  0.00000000000E+00 -0.00000000000E+00 -0.26558708194E+03  0.26558708194E+03  0.00000000000E+00 0. -1.
          5    1    1    2  502    0  0.93678522268E+01 -0.17805605891E+02 -0.20988694517E+02  0.29451851453E+02  0.47000000000E+01 0. -1.
         -5    1    1    2    0  502 -0.20320058691E+03 -0.25829626942E+02  0.14189284154E+02  0.20538031535E+03  0.47000000000E+01 0. -1.
        -11    1    1    2    0    0  0.11376005596E+03  0.49039894582E+02 -0.76655769267E+02  0.14567899147E+03  0.00000000000E+00 0.  1.
         11    1    1    2    0    0  0.80072678720E+02 -0.54046617477E+01  0.14313454902E+02  0.81521280885E+02  0.00000000000E+00 0. -1.
<mgrwt>
<rscale>  0 0.23056023E+03</rscale>
<asrwt>0</asrwt>
<pdfrwt beam="2">  1        1 0.40859551E-01 0.23473371E+03</pdfrwt>
<pdfrwt beam="1">  1       -1 0.30222363E-01 0.23473371E+03</pdfrwt>
<totfact> 0.10315456E+03</totfact>
</mgrwt>
</event>
<event>
 6    1  0.9263730E-006  0.1360974E+03  0.7546771E-02  0.1230679E+00
          2   -1    0    0  501    0  0.00000000000E+00  0.00000000000E+00  0.68342305316E+03  0.68342305316E+03  0.00000000000E+00 0.  1.
         -2   -1    0    0    0  501 -0.00000000000E+00 -0.00000000000E+00 -0.23538477607E+02  0.23538477607E+02  0.00000000000E+00 0. -1.
          5    1    1    2  502    0 -0.34296048356E+02  0.47353429055E+02  0.30789357317E+03  0.31343118635E+03  0.47000000000E+01 0. -1.
         -5    1    1    2    0  502  0.68057347599E+02 -0.54192336250E+01  0.16424803180E+03  0.17793447279E+03  0.47000000000E+01 0. -1.
        -11    1    1    2    0    0 -0.67359673349E+01 -0.23712430043E+02 -0.39653503895E+00  0.24653799596E+02  0.00000000000E+00 0. -1.
         11    1    1    2    0    0 -0.27025331908E+02 -0.18221765388E+02  0.18813950562E+03  0.19094207204E+03  0.00000000000E+00 0.  1.
<mgrwt>
<rscale>  0 0.12785127E+03</rscale>
<asrwt>0</asrwt>
<pdfrwt beam="1">  1        2 0.10514199E+00 0.13609745E+03</pdfrwt>
<pdfrwt beam="2">  1       -2 0.36213048E-02 0.13609745E+03</pdfrwt>
<totfact> 0.13141445E+04</totfact>
</mgrwt>
</event>
<event>
 6    1  0.9263730E-006  0.5525126E+03  0.7546771E-02  0.1000914E+00
         -1   -1    0    0    0  501 -0.00000000000E+00  0.00000000000E+00  0.67106667395E+02  0.67106667395E+02  0.00000000000E+00 0.  1.
          1   -1    0    0  501    0  0.00000000000E+00 -0.00000000000E+00 -0.11372572973E+04  0.11372572973E+04  0.00000000000E+00 0. -1.
          5    1    1    2  502    0 -0.18544305390E+03  0.13675176735E+02 -0.45610635487E+03  0.49257611965E+03  0.47000000000E+01 0. -1.
         -5    1    1    2    0  502  0.10200319311E+02  0.23266124672E+02 -0.44425210178E+03  0.44500267304E+03  0.47000000000E+01 0.  1.
        -11    1    1    2    0    0  0.70331556844E+02  0.12367963023E+02 -0.12207337439E+03  0.14142631698E+03  0.00000000000E+00 0.  1.
         11    1    1    2    0    0  0.10491117774E+03 -0.49309264430E+02 -0.47718798882E+02  0.12535885505E+03  0.00000000000E+00 0. -1.
<mgrwt>
<rscale>  0 0.55251261E+03</rscale>
<asrwt>0</asrwt>
<pdfrwt beam="2">  1        1 0.17496266E+00 0.55251261E+03</pdfrwt>
<pdfrwt beam="1">  1       -1 0.10324103E-01 0.55251261E+03</pdfrwt>
<totfact> 0.72611437E+02</totfact>
</mgrwt>
</event>
<event>
 6    1  0.9263730E-006  0.1205376E+03  0.7546771E-02  0.1254069E+00
          1   -1    0    0  501    0  0.00000000000E+00  0.00000000000E+00  0.48069166496E+03  0.48069166496E+03  0.00000000000E+00 0. -1.
         -1   -1    0    0    0  501 -0.00000000000E+00 -0.00000000000E+00 -0.32677948072E+02  0.32677948072E+02  0.00000000000E+00 0.  1.
          5    1    1    2  502    0 -0.31568724462E+02 -0.29073860175E+00  0.30629882271E+03  0.30795734719E+03  0.47000000000E+01 0. -1.
         -5    1    1    2    0  502  0.47024616828E+02 -0.20071249430E+02  0.67583969222E+02  0.84875512001E+02  0.47000000000E+01 0.  1.
        -11    1    1    2    0    0  0.23309265149E+02  0.11455529556E+02 -0.97191299238E+01  0.27731074369E+02  0.00000000000E+00 0.  1.
         11    1    1    2    0    0 -0.38765157515E+02  0.89064584762E+01  0.83850054884E+02  0.92805679480E+02  0.00000000000E+00 0. -1.
<mgrwt>
<rscale>  0 0.11358610E+03</rscale>
<asrwt>0</asrwt>
<pdfrwt beam="1">  1        1 0.73952559E-01 0.12053760E+03</pdfrwt>
<pdfrwt beam="2">  1       -1 0.50273770E-02 0.12053760E+03</pdfrwt>
<totfact> 0.78773915E+03</totfact>
</mgrwt>
</event>
<event>
 6    1  0.9263730E-006  0.2996778E+03  0.7546771E-02  0.1085402E+00
         -2   -1    0    0    0  501 -0.00000000000E+00  0.00000000000E+00  0.11414427827E+03  0.11414427827E+03  0.00000000000E+00 0. -1.
          2   -1    0    0  501    0  0.00000000000E+00 -0.00000000000E+00 -0.19669575639E+03  0.19669575639E+03  0.00000000000E+00 0.  1.
          5    1    1    2  502    0  0.96394920540E+02 -0.54123509069E+02 -0.48838724849E+02  0.12094893958E+03  0.47000000000E+01 0. -1.
         -5    1    1    2    0  502 -0.32184055895E+02 -0.61018991677E+01 -0.54272714500E+02  0.63566218752E+02  0.47000000000E+01 0. -1.
        -11    1    1    2    0    0 -0.21213623544E+02  0.50962181619E+02  0.49112316234E+02  0.73886273319E+02  0.00000000000E+00 0. -1.
         11    1    1    2    0    0 -0.42997241101E+02  0.92632266176E+01 -0.28552354998E+02  0.52438603010E+02  0.00000000000E+00 0.  1.
<mgrwt>
<rscale>  0 0.29967779E+03</rscale>
<asrwt>0</asrwt>
<pdfrwt beam="2">  1        2 0.30260886E-01 0.29967779E+03</pdfrwt>
<pdfrwt beam="1">  1       -2 0.17560658E-01 0.29967779E+03</pdfrwt>
<totfact> 0.45499155E+03</totfact>
</mgrwt>
</event>
<event>
 6    1  0.9263730E-006  0.3086633E+03  0.7546771E-02  0.1080988E+00
          2   -1    0    0  501    0  0.00000000000E+00  0.00000000000E+00  0.31614219150E+03  0.31614219150E+03  0.00000000000E+00 0. -1.
         -2   -1    0    0    0  501 -0.00000000000E+00 -0.00000000000E+00 -0.75340323353E+02  0.75340323353E+02  0.00000000000E+00 0.  1.
          5    1    1    2  502    0  0.28556735557E+02  0.37802946333E+02  0.89412115330E+02  0.10129741490E+03  0.47000000000E+01 0.  1.
         -5    1    1    2    0  502  0.52672947684E+02 -0.92304278547E+02  0.10230170562E+03  0.14758810328E+03  0.47000000000E+01 0.  1.
        -11    1    1    2    0    0 -0.62112912273E+02 -0.12034811430E+02  0.33683454968E+02  0.71675837601E+02  0.00000000000E+00 0. -1.
         11    1    1    2    0    0 -0.19116770967E+02  0.66536143645E+02  0.15404592227E+02  0.70921159078E+02  0.00000000000E+00 0.  1.
<mgrwt>
<rscale>  0 0.30866328E+03</rscale>
<asrwt>0</asrwt>
<pdfrwt beam="1">  1        2 0.48637260E-01 0.30866328E+03</pdfrwt>
<pdfrwt beam="2">  1       -2 0.11590819E-01 0.30866328E+03</pdfrwt>
<totfact> 0.53944271E+03</totfact>
</mgrwt>
</event>
<event>
 6    1  0.9263730E-006  0.2939276E+03  0.7546771E-02  0.1089936E+00
          2   -1    0    0  501    0  0.00000000000E+00  0.00000000000E+00  0.10520199799E+04  0.10520199799E+04  0.00000000000E+00 0. -1.
         -2   -1    0    0    0  501 -0.00000000000E+00 -0.00000000000E+00 -0.79593961435E+02  0.79593961435E+02  0.00000000000E+00 0.  1.
          5    1    1    2  502    0 -0.17472985841E+03  0.13118808988E+03  0.42585832203E+03  0.47866296993E+03  0.47000000000E+01 0.  1.
         -5    1    1    2    0  502  0.62478043154E+01  0.74681873239E+02  0.13029000200E+03  0.15037949285E+03  0.47000000000E+01 0.  1.
        -11    1    1    2    0    0  0.39202675202E+02 -0.11553567510E+03  0.21058218531E+03  0.24337255131E+03  0.00000000000E+00 0. -1.
         11    1    1    2    0    0  0.12927937889E+03 -0.90334288024E+02  0.20569550910E+03  0.25919892720E+03  0.00000000000E+00 0.  1.
<mgrwt>
<rscale>  0 0.29079256E+03</rscale>
<asrwt>0</asrwt>
<pdfrwt beam="1">  1        2 0.16184922E+00 0.29392765E+03</pdfrwt>
<pdfrwt beam="2">  1       -2 0.12245226E-01 0.29392765E+03</pdfrwt>
<totfact> 0.11679958E+03</totfact>
</mgrwt>
</event>
<event>
 6    1  0.9263730E-006  0.2084588E+03  0.7546771E-02  0.1173515E+00
          1   -1    0    0  501    0  0.00000000000E+00  0.00000000000E+00  0.68348670222E+02  0.68348670222E+02  0.00000000000E+00 0. -1.
         -1   -1    0    0    0  501 -0.00000000000E+00 -0.00000000000E+00 -0.38256779090E+03  0.38256779090E+03  0.00000000000E+00 0.  1.
          5    1    1    2  502    0  0.42715040652E+02 -0.80667608087E+02  0.11606584797E+02  0.92133818454E+02  0.47000000000E+01 0. -1.
         -5    1    1    2    0  502 -0.16042368592E+02  0.34202730126E+02 -0.15818146787E+03  0.16269803661E+03  0.47000000000E+01 0.  1.
        -11    1    1    2    0    0  0.16761166732E+02 -0.16563311832E+02 -0.55629651532E+02  0.60414717897E+02  0.00000000000E+00 0. -1.
         11    1    1    2    0    0 -0.43433838792E+02  0.63028189793E+02 -0.11201458607E+03  0.13566988816E+03  0.00000000000E+00 0.  1.
<mgrwt>
<rscale>  0 0.17422253E+03</rscale>
<asrwt>0</asrwt>
<pdfrwt beam="1">  1        1 0.10515180E-01 0.20845882E+03</pdfrwt>
<pdfrwt beam="2">  1       -1 0.58856585E-01 0.20845882E+03</pdfrwt>
<totfact> 0.17896839E+03</totfact>
</mgrwt>
</event>
<event>
 6    1  0.9263730E-006  0.1972959E+03  0.7546771E-02  0.1175520E+00
          2   -1    0    0  501    0  0.00000000000E+00  0.00000000000E+00  0.93192826850E+03  0.93192826850E+03  0.00000000000E+00 0. -1.
         -2   -1    0    0    0  501 -0.00000000000E+00 -0.00000000000E+00 -0.26195664377E+02  0.26195664377E+02  0.00000000000E+00 0.  1.
          5    1    1    2  502    0  0.79227587659E+02 -0.29971648939E+02  0.59604334664E+03  0.60205072167E+03  0.47000000000E+01 0. -1.
         -5    1    1    2    0  502 -0.93490456676E+01  0.27536042408E+02  0.41617797305E+01  0.29749768014E+02  0.47000000000E+01 0.  1.
        -11    1    1    2    0    0 -0.39508102752E+02 -0.32788075015E+02  0.73347007670E+02  0.89530618117E+02  0.00000000000E+00 0.  1.
         11    1    1    2    0    0 -0.30370439239E+02  0.35223681545E+02  0.23218047007E+03  0.23679282507E+03  0.00000000000E+00 0. -1.
<mgrwt>
<rscale>  0 0.17225139E+03</rscale>
<asrwt>0</asrwt>
<pdfrwt beam="1">  1        2 0.14337355E+00 0.19729588E+03</pdfrwt>
<pdfrwt beam="2">  1       -2 0.40301029E-02 0.19729588E+03</pdfrwt>
<totfact> 0.77506246E+03</totfact>
</mgrwt>
</event>
<event>
 6    1  0.9263730E-006  0.2487104E+03  0.7546771E-02  0.1152563E+00
          2   -1    0    0  501    0  0.00000000000E+00  0.00000000000E+00  0.13641255868E+03  0.13641255868E+03  0.00000000000E+00 0. -1.
         -2   -1    0    0    0  501 -0.00000000000E+00 -0.00000000000E+00 -0.39698555129E+03  0.39698555129E+03  0.00000000000E+00 0.  1.
          5    1    1    2  502    0 -0.78581952367E+02 -0.55735246550E+02  0.95818162029E+02  0.13595863754E+03  0.47000000000E+01 0. -1.
         -5    1    1    2    0  502  0.59472414176E+02  0.35562438563E+02 -0.88941918552E+02  0.11284684293E+03  0.47000000000E+01 0.  1.
        -11    1    1    2    0    0  0.41707120277E+02  0.43698070939E+02 -0.21013937471E+03  0.21864940450E+03  0.00000000000E+00 0.  1.
         11    1    1    2    0    0 -0.22597582086E+02 -0.23525262953E+02 -0.57309861378E+02  0.65943225007E+02  0.00000000000E+00 0. -1.
<mgrwt>
<rscale>  0 0.19668857E+03</rscale>
<asrwt>0</asrwt>
<pdfrwt beam="1">  1        2 0.20986548E-01 0.24871044E+03</pdfrwt>
<pdfrwt beam="2">  1       -2 0.61074699E-01 0.24871044E+03</pdfrwt>
<totfact> 0.66954722E+02</totfact>
</mgrwt>
</event>
<event>
 6    1  0.9263730E-006  0.1396257E+03  0.7546771E-02  0.1231808E+00
         -1   -1    0    0    0  501 -0.00000000000E+00  0.00000000000E+00  0.55689525219E+03  0.55689525219E+03  0.00000000000E+00 0.  1.
          1   -1    0    0  501    0  0.00000000000E+00 -0.00000000000E+00 -0.24918729000E+02  0.24918729000E+02  0.00000000000E+00 0. -1.
          5    1    1    2  502    0 -0.23107008246E+02  0.59465756498E+02  0.20418860599E+03  0.21397473412E+03  0.47000000000E+01 0.  1.
         -5    1    1    2    0  502 -0.38987335823E+02 -0.55752061300E+02  0.10395103758E+03  0.12432301842E+03  0.47000000000E+01 0.  1.
        -11    1    1    2    0    0  0.44896587769E+02 -0.35497595400E+02  0.16298688396E+03  0.17274405117E+03  0.00000000000E+00 0.  1.
         11    1    1    2    0    0  0.17197756300E+02  0.31783900202E+02  0.60849995660E+02  0.70772177483E+02  0.00000000000E+00 0. -1.
<mgrwt>
<rscale>  0 0.12711036E+03</rscale>
<asrwt>0</asrwt>
<pdfrwt beam="2">  1        1 0.38336510E-02 0.13962568E+03</pdfrwt>
<pdfrwt beam="1">  1       -1 0.85676183E-01 0.13962568E+03</pdfrwt>
<totfact> 0.32840736E+03</totfact>
</mgrwt>
</event>
<event>
 6    1  0.9263730E-006  0.1327217E+03  0.7546771E-02  0.1235463E+00
         -2   -1    0    0    0  501 -0.00000000000E+00  0.00000000000E+00  0.15982021371E+02  0.15982021371E+02  0.00000000000E+00 0.  1.
          2   -1    0    0  501    0  0.00000000000E+00 -0.00000000000E+00 -0.11573778574E+04  0.11573778574E+04  0.00000000000E+00 0. -1.
          5    1    1    2  502    0 -0.74453505822E+02 -0.98542341119E+00 -0.32290816684E+03  0.33141525281E+03  0.47000000000E+01 0.  1.
         -5    1    1    2    0  502  0.32565644583E+02 -0.14403611458E+02 -0.58976184471E+03  0.59085455799E+03  0.47000000000E+01 0.  1.
        -11    1    1    2    0    0  0.68532625003E+02 -0.32774121484E+01 -0.12783270917E+03  0.14508157586E+03  0.00000000000E+00 0.  1.
         11    1    1    2    0    0 -0.26644763764E+02  0.18666447017E+02 -0.10089311535E+03  0.10600849214E+03  0.00000000000E+00 0. -1.
<mgrwt>
<rscale>  0 0.12474843E+03</rscale>
<asrwt>0</asrwt>
<pdfrwt beam="2">  1        2 0.17805813E+00 0.13272172E+03</pdfrwt>
<pdfrwt beam="1">  1       -2 0.24587725E-02 0.13272172E+03</pdfrwt>
<totfact> 0.11614815E+04</totfact>
</mgrwt>
</event>
<event>
 6    1  0.9263730E-006  0.3094609E+03  0.7546771E-02  0.1080605E+00
          1   -1    0    0  501    0  0.00000000000E+00  0.00000000000E+00  0.75314781575E+03  0.75314781575E+03  0.00000000000E+00 0. -1.
         -1   -1    0    0    0  501 -0.00000000000E+00 -0.00000000000E+00 -0.31788588140E+02  0.31788588140E+02  0.00000000000E+00 0.  1.
          5    1    1    2  502    0 -0.54255362710E+02  0.27061576504E+02  0.62932168884E+03  0.63225299631E+03  0.47000000000E+01 0. -1.
         -5    1    1    2    0  502 -0.24550809883E+01 -0.14688141239E+02  0.77842974027E+01  0.17448616042E+02  0.47000000000E+01 0.  1.
        -11    1    1    2    0    0  0.10093685172E+02 -0.38103236854E+02  0.69636954840E+02  0.80019026604E+02  0.00000000000E+00 0. -1.
         11    1    1    2    0    0  0.46616758526E+02  0.25729801589E+02  0.14616286531E+02  0.55215764934E+02  0.00000000000E+00 0.  1.
<mgrwt>
<rscale>  0 0.30946086E+03</rscale>
<asrwt>0</asrwt>
<pdfrwt beam="1">  1        1 0.11586888E+00 0.30946086E+03</pdfrwt>
<pdfrwt beam="2">  1       -1 0.48905526E-02 0.30946086E+03</pdfrwt>
<totfact> 0.46042005E+03</totfact>
</mgrwt>
</event>
<event>
 6    1  0.9263730E-006  0.2643728E+03  0.7546771E-02  0.1104544E+00
         -2   -1    0    0    0  501 -0.00000000000E+00  0.00000000000E+00  0.19113661339E+02  0.19113661339E+02  0.00000000000E+00 0. -1.
          2   -1    0    0  501    0  0.00000000000E+00 -0.00000000000E+00 -0.91417557916E+03  0.91417557916E+03  0.00000000000E+00 0.  1.
          5    1    1    2  502    0  0.45116405420E+02  0.26391896268E+01 -0.16286434519E+03  0.16908382624E+03  0.47000000000E+01 0.  1.
         -5    1    1    2    0  502 -0.77884129397E+02  0.48970925057E+02 -0.45954955014E+03  0.46869176241E+03  0.47000000000E+01 0.  1.
        -11    1    1    2    0    0 -0.23402693163E+02 -0.52832551607E+02 -0.14040074129E+03  0.15182665350E+03  0.00000000000E+00 0.  1.
         11    1    1    2    0    0  0.56170417139E+02  0.12224369229E+01 -0.13224728119E+03  0.14368699835E+03  0.00000000000E+00 0. -1.
<mgrwt>
<rscale>  0 0.26437279E+03</rscale>
<asrwt>0</asrwt>
<pdfrwt beam="2">  1        2 0.14064240E+00 0.26437279E+03</pdfrwt>
<pdfrwt beam="1">  1       -2 0.29405632E-02 0.26437279E+03</pdfrwt>
<totfact> 0.12918010E+04</totfact>
</mgrwt>
</event>
<event>
 6    1  0.9263730E-006  0.2098064E+03  0.7546771E-02  0.1144311E+00
          2   -1    0    0  501    0  0.00000000000E+00  0.00000000000E+00  0.55698160782E+03  0.55698160782E+03  0.00000000000E+00 0. -1.
         -2   -1    0    0    0  501 -0.00000000000E+00 -0.00000000000E+00 -0.88887867214E+02  0.88887867214E+02  0.00000000000E+00 0.  1.
          5    1    1    2  502    0  0.71138350481E+02  0.60118742893E+02  0.28890823887E+03  0.30358687166E+03  0.47000000000E+01 0.  1.
         -5    1    1    2    0  502  0.38315210078E+01  0.90822515347E+02  0.81823401338E+02  0.12239513411E+03  0.47000000000E+01 0.  1.
        -11    1    1    2    0    0 -0.49157274321E+02 -0.12520832509E+02  0.50265911408E+02  0.71413379104E+02  0.00000000000E+00 0. -1.
         11    1    1    2    0    0 -0.25812597168E+02 -0.13842042573E+03  0.47096188990E+02  0.14847409016E+03  0.00000000000E+00 0.  1.
<mgrwt>
<rscale>  0 0.20657008E+03</rscale>
<asrwt>0</asrwt>
<pdfrwt beam="1">  1        2 0.85689476E-01 0.20980639E+03</pdfrwt>
<pdfrwt beam="2">  1       -2 0.13675057E-01 0.20980639E+03</pdfrwt>
<totfact> 0.21798578E+03</totfact>
</mgrwt>
</event>
<event>
 6    1  0.9263730E-006  0.1306093E+03  0.7546771E-02  0.1243669E+00
         -2   -1    0    0    0  501 -0.00000000000E+00  0.00000000000E+00  0.15068103070E+03  0.15068103070E+03  0.00000000000E+00 0.  1.
          2   -1    0    0  501    0  0.00000000000E+00 -0.00000000000E+00 -0.83331803413E+02  0.83331803413E+02  0.00000000000E+00 0. -1.
          5    1    1    2  502    0  0.49496113137E+02 -0.66861169119E+02  0.26981466912E+02  0.87580652591E+02  0.47000000000E+01 0. -1.
         -5    1    1    2    0  502 -0.27747427920E+02  0.35885934800E+02 -0.86987605719E+00  0.45613230065E+02  0.47000000000E+01 0. -1.
        -11    1    1    2    0    0 -0.40505684560E+02 -0.28300918968E+01 -0.45891819629E+01  0.40862947678E+02  0.00000000000E+00 0. -1.
         11    1    1    2    0    0  0.18756999343E+02  0.33805326216E+02  0.45826818390E+02  0.59956003775E+02  0.00000000000E+00 0.  1.
<mgrwt>
<rscale>  0 0.11965396E+03</rscale>
<asrwt>0</asrwt>
<pdfrwt beam="2">  1        2 0.12820277E-01 0.13060932E+03</pdfrwt>
<pdfrwt beam="1">  1       -2 0.23181697E-01 0.13060932E+03</pdfrwt>
<totfact> 0.72148514E+03</totfact>
</mgrwt>
</event>
<event>
 6    1  0.9263730E-006  0.1364129E+03  0.7546771E-02  0.1228936E+00
         -2   -1    0    0    0  501 -0.00000000000E+00  0.00000000000E+00  0.11975978062E+03  0.11975978062E+03  0.00000000000E+00 0.  1.
          2   -1    0    0  501    0  0.00000000000E+00 -0.00000000000E+00 -0.12791860930E+03  0.12791860930E+03  0.00000000000E+00 0. -1.
          5    1    1    2  502    0 -0.53010308647E+02 -0.51937084848E+02 -0.17750247346E+02  0.76450735027E+02  0.47000000000E+01 0.  1.
         -5    1    1    2    0  502  0.52784816948E+02 -0.26788176459E+01  0.28889717036E+02  0.60416212349E+02  0.47000000000E+01 0.  1.
        -11    1    1    2    0    0 -0.14653887813E+01  0.76500551055E+02  0.66752769584E+01  0.76805214657E+02  0.00000000000E+00 0.  1.
         11    1    1    2    0    0  0.16908804797E+01 -0.21884648561E+02 -0.25973575331E+02  0.34006227884E+02  0.00000000000E+00 0. -1.
<mgrwt>
<rscale>  0 0.12900772E+03</rscale>
<asrwt>0</asrwt>
<pdfrwt beam="2">  1        2 0.19679786E-01 0.13641288E+03</pdfrwt>
<pdfrwt beam="1">  1       -2 0.18424582E-01 0.13641288E+03</pdfrwt>
<totfact> 0.64985476E+03</totfact>
</mgrwt>
</event>
<event>
 6    1  0.9263730E-006  0.2279635E+03  0.7546771E-02  0.1128081E+00
         -3   -1    0    0    0  501 -0.00000000000E+00  0.00000000000E+00  0.14092824456E+03  0.14092824456E+03  0.00000000000E+00 0.  1.
          3   -1    0    0  501    0  0.00000000000E+00 -0.00000000000E+00 -0.92187609943E+02  0.92187609943E+02  0.00000000000E+00 0. -1.
          5    1    1    2  502    0 -0.77119014376E+01 -0.11833701462E+01  0.64946583559E+02  0.65582181304E+02  0.47000000000E+01 0.  1.
         -5    1    1    2    0  502  0.30053451715E+02  0.30243865537E+02 -0.49600451058E+02  0.65575880534E+02  0.47000000000E+01 0.  1.
        -11    1    1    2    0    0 -0.11744609080E+02 -0.14114637515E+01 -0.29858986526E+02  0.32116773636E+02  0.00000000000E+00 0. -1.
         11    1    1    2    0    0 -0.10596941197E+02 -0.27649031639E+02  0.63253488639E+02  0.69841019024E+02  0.00000000000E+00 0.  1.
<mgrwt>
<rscale>  0 0.22796349E+03</rscale>
<asrwt>0</asrwt>
<pdfrwt beam="2">  1        3 0.14182709E-01 0.22796349E+03</pdfrwt>
<pdfrwt beam="1">  1       -3 0.21681268E-01 0.22796349E+03</pdfrwt>
<totfact> 0.19764484E+03</totfact>
</mgrwt>
</event>
<event>
 6    1  0.9263730E-006  0.1254889E+03  0.7546771E-02  0.1247384E+00
          1   -1    0    0  501    0  0.00000000000E+00  0.00000000000E+00  0.10861851819E+03  0.10861851819E+03  0.00000000000E+00 0. -1.
         -1   -1    0    0    0  501 -0.00000000000E+00 -0.00000000000E+00 -0.12672339251E+03  0.12672339251E+03  0.00000000000E+00 0.  1.
          5    1    1    2  502    0 -0.26145988802E+02  0.39731353181E+02  0.46839078859E+02  0.66919223429E+02  0.47000000000E+01 0. -1.
         -5    1    1    2    0  502  0.31106657859E+02 -0.49606115698E+02 -0.18777236836E+02  0.61668999514E+02  0.47000000000E+01 0. -1.
        -11    1    1    2    0    0 -0.35027342172E+02 -0.13565410007E+02 -0.55954524757E+02  0.67393203583E+02  0.00000000000E+00 0.  1.
         11    1    1    2    0    0  0.30066673115E+02  0.23440172525E+02  0.97878084143E+01  0.39360484165E+02  0.00000000000E+00 0. -1.
<mgrwt>
<rscale>  0 0.11743825E+03</rscale>
<asrwt>0</asrwt>
<pdfrwt beam="1">  1        1 0.16710541E-01 0.12548890E+03</pdfrwt>
<pdfrwt beam="2">  1       -1 0.19495906E-01 0.12548890E+03</pdfrwt>
<totfact> 0.64118665E+03</totfact>
</mgrwt>
</event>
<event>
 6    1  0.9263730E-006  0.1339242E+03  0.7546771E-02  0.1228368E+00
         -1   -1    0    0    0  501 -0.00000000000E+00  0.00000000000E+00  0.27993447805E+02  0.27993447805E+02  0.00000000000E+00 0.  1.
          1   -1    0    0  501    0  0.00000000000E+00 -0.00000000000E+00 -0.74776930085E+03  0.74776930085E+03  0.00000000000E+00 0. -1.
          5    1    1    2  502    0  0.91787825393E+02 -0.27170407990E+02 -0.53650455892E+03  0.54499767679E+03  0.47000000000E+01 0. -1.
         -5    1    1    2    0  502 -0.22567783251E+02  0.36044164471E+01 -0.35538958333E+02  0.42513576869E+02  0.47000000000E+01 0.  1.
        -11    1    1    2    0    0 -0.91601369270E+02  0.16515344807E+02 -0.11426363768E+03  0.14737620690E+03  0.00000000000E+00 0.  1.
         11    1    1    2    0    0  0.22381327127E+02  0.70506467354E+01 -0.33468698111E+02  0.40875288092E+02  0.00000000000E+00 0. -1.
<mgrwt>
<rscale>  0 0.12938729E+03</rscale>
<asrwt>0</asrwt>
<pdfrwt beam="2">  1        1 0.11504142E+00 0.13392419E+03</pdfrwt>
<pdfrwt beam="1">  1       -1 0.43066847E-02 0.13392419E+03</pdfrwt>
<totfact> 0.54490530E+03</totfact>
</mgrwt>
</event>
<event>
 6    1  0.9263730E-006  0.3491130E+03  0.7546771E-02  0.1062980E+00
         -1   -1    0    0    0  501 -0.00000000000E+00  0.00000000000E+00  0.81197385559E+02  0.81197385559E+02  0.00000000000E+00 0.  1.
          1   -1    0    0  501    0  0.00000000000E+00 -0.00000000000E+00 -0.37525803773E+03  0.37525803773E+03  0.00000000000E+00 0. -1.
          5    1    1    2  502    0  0.57446705269E+02 -0.23491433043E+02 -0.30981340496E+03  0.31600380894E+03  0.47000000000E+01 0. -1.
         -5    1    1    2    0  502  0.14798300642E+02 -0.75846042715E+01  0.87228305476E+01  0.19357006396E+02  0.47000000000E+01 0. -1.
        -11    1    1    2    0    0 -0.40110616539E+02 -0.22078842376E+02 -0.23963916758E+02  0.51677907719E+02  0.00000000000E+00 0. -1.
         11    1    1    2    0    0 -0.32134389372E+02  0.53154879691E+02  0.30993838999E+02  0.69416700232E+02  0.00000000000E+00 0.  1.
<mgrwt>
<rscale>  0 0.34911300E+03</rscale>
<asrwt>0</asrwt>
<pdfrwt beam="2">  1        1 0.57732007E-01 0.34911300E+03</pdfrwt>
<pdfrwt beam="1">  1       -1 0.12491905E-01 0.34911300E+03</pdfrwt>
<totfact> 0.28373672E+03</totfact>
</mgrwt>
</event>
<event>
 6    1  0.9263730E-006  0.1337602E+03  0.7546771E-02  0.1235014E+00
         -3   -1    0    0    0  501 -0.00000000000E+00  0.00000000000E+00  0.27619286201E+03  0.27619286201E+03  0.00000000000E+00 0.  1.
          3   -1    0    0  501    0  0.00000000000E+00 -0.00000000000E+00 -0.80906122150E+02  0.80906122150E+02  0.00000000000E+00 0. -1.
          5    1    1    2  502    0 -0.92461328446E+01 -0.21398513546E+02 -0.63641278834E+02  0.67938867566E+02  0.47000000000E+01 0.  1.
         -5    1    1    2    0  502  0.28649349571E+01 -0.25785407598E+02  0.60353798111E+02  0.65861719107E+02  0.47000000000E+01 0.  1.
        -11    1    1    2    0    0 -0.16667913899E+02 -0.19806572906E+02  0.90051113668E+02  0.93698040304E+02  0.00000000000E+00 0.  1.
         11    1    1    2    0    0  0.23049111787E+02  0.66990494050E+02  0.10852310691E+03  0.12960035718E+03  0.00000000000E+00 0. -1.
<mgrwt>
<rscale>  0 0.12503542E+03</rscale>
<asrwt>0</asrwt>
<pdfrwt beam="2">  1        3 0.12447096E-01 0.13376019E+03</pdfrwt>
<pdfrwt beam="1">  1       -3 0.42491209E-01 0.13376019E+03</pdfrwt>
<totfact> 0.65097175E+02</totfact>
</mgrwt>
</event>
<event>
 6    1  0.9263730E-006  0.1400405E+03  0.7546771E-02  0.1224047E+00
          4   -1    0    0  501    0  0.00000000000E+00  0.00000000000E+00  0.23380662326E+03  0.23380662326E+03  0.00000000000E+00 0. -1.
         -4   -1    0    0    0  501 -0.00000000000E+00 -0.00000000000E+00 -0.12828948763E+03  0.12828948763E+03  0.00000000000E+00 0.  1.
          5    1    1    2  502    0 -0.25448537951E+02 -0.60646363830E+01 -0.43789277943E+01  0.26938316706E+02  0.47000000000E+01 0.  1.
         -5    1    1    2    0  502  0.45939604392E+02  0.65788430626E+02  0.18425565489E+03  0.20102437965E+03  0.47000000000E+01 0.  1.
        -11    1    1    2    0    0  0.14648950464E+02  0.15979172906E+02 -0.36577631762E+02  0.42518805977E+02  0.00000000000E+00 0.  1.
         11    1    1    2    0    0 -0.35140016905E+02 -0.75702967148E+02 -0.37781959697E+02  0.91614608560E+02  0.00000000000E+00 0. -1.
<mgrwt>
<rscale>  0 0.13232462E+03</rscale>
<asrwt>0</asrwt>
<pdfrwt beam="1">  1        4 0.35970250E-01 0.14004054E+03</pdfrwt>
<pdfrwt beam="2">  1       -4 0.19736844E-01 0.14004054E+03</pdfrwt>
<totfact> 0.29004211E+02</totfact>
</mgrwt>
</event>
<event>
 6    1  0.1019542E-005  0.1565333E+03  0.7546771E-02  0.1200737E+00
         -3   -1    0    0    0  501 -0.00000000000E+00  0.00000000000E+00  0.92732281328E+02  0.92732281328E+02  0.00000000000E+00 0. -1.
          3   -1    0    0  501    0  0.00000000000E+00 -0.00000000000E+00 -0.22347992924E+03  0.22347992924E+03  0.00000000000E+00 0.  1.
          5    1    1    2  502    0  0.72047071591E+02  0.49505258381E+00 -0.53339512310E+01  0.72398664612E+02  0.47000000000E+01 0.  1.
         -5    1    1    2    0  502 -0.15140148966E+02  0.74602778959E+02 -0.60776683421E+02  0.97522787013E+02  0.47000000000E+01 0.  1.
        -11    1    1    2    0    0  0.19341914676E+02 -0.19904073110E+02 -0.40533564221E+02  0.49124857436E+02  0.00000000000E+00 0.  1.
         11    1    1    2    0    0 -0.76248837300E+02 -0.55193758433E+02 -0.24103449038E+02  0.97165901504E+02  0.00000000000E+00 0. -1.
<mgrwt>
<rscale>  0 0.14978518E+03</rscale>
<asrwt>0</asrwt>
<pdfrwt beam="2">  1        3 0.34381528E-01 0.15653333E+03</pdfrwt>
<pdfrwt beam="1">  1       -3 0.14266505E-01 0.15653333E+03</pdfrwt>
<totfact> 0.79343808E+02</totfact>
</mgrwt>
</event>
<event>
 6    1  0.9263730E-006  0.1360704E+03  0.7546771E-02  0.1231623E+00
          2   -1    0    0  501    0  0.00000000000E+00  0.00000000000E+00  0.51528644187E+03  0.51528644187E+03  0.00000000000E+00 0. -1.
         -2   -1    0    0    0  501 -0.00000000000E+00 -0.00000000000E+00 -0.29828898114E+02  0.29828898114E+02  0.00000000000E+00 0.  1.
          5    1    1    2  502    0 -0.56793656460E+01 -0.55774966391E+02  0.17854226241E+03  0.18719650514E+03  0.47000000000E+01 0. -1.
         -5    1    1    2    0  502 -0.47851240376E+02  0.60617144823E+02  0.16213625969E+03  0.17965087297E+03  0.47000000000E+01 0. -1.
        -11    1    1    2    0    0  0.42093752240E+02 -0.31490530297E+02  0.31386786621E+02  0.61226365648E+02  0.00000000000E+00 0.  1.
         11    1    1    2    0    0  0.11436853782E+02  0.26648351864E+02  0.11339223502E+03  0.11704159622E+03  0.00000000000E+00 0. -1.
<mgrwt>
<rscale>  0 0.12723118E+03</rscale>
<asrwt>0</asrwt>
<pdfrwt beam="1">  1        2 0.79274831E-01 0.13607036E+03</pdfrwt>
<pdfrwt beam="2">  1       -2 0.45890616E-02 0.13607036E+03</pdfrwt>
<totfact> 0.12737689E+04</totfact>
</mgrwt>
</event>
<event>
 6    1  0.9263730E-006  0.1314608E+03  0.7546771E-02  0.1238582E+00
         -1   -1    0    0    0  501 -0.00000000000E+00  0.00000000000E+00  0.58812784712E+03  0.58812784712E+03  0.00000000000E+00 0.  1.
          1   -1    0    0  501    0  0.00000000000E+00 -0.00000000000E+00 -0.23310097888E+02  0.23310097888E+02  0.00000000000E+00 0. -1.
          5    1    1    2  502    0  0.70238209993E+02 -0.41095263869E+02  0.14789003357E+03  0.16886615672E+03  0.47000000000E+01 0.  1.
         -5    1    1    2    0  502 -0.47497763645E+02  0.72520418243E+01  0.12621375244E+03  0.13513190211E+03  0.47000000000E+01 0.  1.
        -11    1    1    2    0    0 -0.37953145545E+02  0.41783886994E+02  0.28308857235E+03  0.28866152197E+03  0.00000000000E+00 0.  1.
         11    1    1    2    0    0  0.15212699197E+02 -0.79406649495E+01  0.76253908706E+01  0.18778364216E+02  0.00000000000E+00 0. -1.
<mgrwt>
<rscale>  0 0.12277855E+03</rscale>
<asrwt>0</asrwt>
<pdfrwt beam="2">  1        1 0.35861694E-02 0.13146077E+03</pdfrwt>
<pdfrwt beam="1">  1       -1 0.90481196E-01 0.13146077E+03</pdfrwt>
<totfact> 0.31980485E+03</totfact>
</mgrwt>
</event>
<event>
 6    1  0.9263730E-006  0.1466162E+03  0.7546771E-02  0.1213990E+00
          2   -1    0    0  501    0  0.00000000000E+00  0.00000000000E+00  0.63409545091E+03  0.63409545091E+03  0.00000000000E+00 0.  1.
         -2   -1    0    0    0  501 -0.00000000000E+00 -0.00000000000E+00 -0.47494341906E+02  0.47494341906E+02  0.00000000000E+00 0. -1.
          5    1    1    2  502    0  0.54559251985E+02  0.40936498001E+02  0.47390633778E+03  0.47881292363E+03  0.47000000000E+01 0. -1.
         -5    1    1    2    0  502 -0.29121876928E+02  0.31345738131E+02  0.53894256270E+02  0.68973327262E+02  0.47000000000E+01 0. -1.
        -11    1    1    2    0    0 -0.21072796131E+02 -0.32950349443E+02  0.79897964455E+02  0.88957703372E+02  0.00000000000E+00 0.  1.
         11    1    1    2    0    0 -0.43645789266E+01 -0.39331886690E+02 -0.21097449503E+02  0.44845838550E+02  0.00000000000E+00 0. -1.
<mgrwt>
<rscale>  0 0.13950973E+03</rscale>
<asrwt>0</asrwt>
<pdfrwt beam="1">  1        2 0.97553141E-01 0.14661620E+03</pdfrwt>
<pdfrwt beam="2">  1       -2 0.73068223E-02 0.14661620E+03</pdfrwt>
<totfact> 0.50033829E+03</totfact>
</mgrwt>
</event>
<event>
 6    1  0.9263730E-006  0.2039059E+03  0.7546771E-02  0.1151559E+00
          1   -1    0    0  501    0  0.00000000000E+00  0.00000000000E+00  0.25679996841E+03  0.25679996841E+03  0.00000000000E+00 0. -1.
         -1   -1    0    0    0  501 -0.00000000000E+00 -0.00000000000E+00 -0.16411275843E+03  0.16411275843E+03  0.00000000000E+00 0.  1.
          5    1    1    2  502    0 -0.55957337339E+02  0.12732068403E+02  0.63024813007E+02  0.85367126123E+02  0.47000000000E+01 0. -1.
         -5    1    1    2    0  502  0.53605720493E+01  0.14021521529E+03  0.59218212895E+02  0.15237430580E+03  0.47000000000E+01 0. -1.
        -11    1    1    2    0    0 -0.22183609646E+02 -0.49930409050E+02 -0.93038428386E+01  0.55423097860E+02  0.00000000000E+00 0.  1.
         11    1    1    2    0    0  0.72780374936E+02 -0.10301687464E+03 -0.20251973090E+02  0.12774819705E+03  0.00000000000E+00 0. -1.
<mgrwt>
<rscale>  0 0.19785846E+03</rscale>
<asrwt>0</asrwt>
<pdfrwt beam="1">  1        1 0.39507687E-01 0.20390594E+03</pdfrwt>
<pdfrwt beam="2">  1       -1 0.25248117E-01 0.20390594E+03</pdfrwt>
<totfact> 0.14527463E+03</totfact>
</mgrwt>
</event>
<event>
 6    1  0.9263730E-006  0.1958914E+03  0.7546771E-02  0.1157626E+00
         -1   -1    0    0    0  501 -0.00000000000E+00  0.00000000000E+00  0.87807871674E+02  0.87807871674E+02  0.00000000000E+00 0.  1.
          1   -1    0    0  501    0  0.00000000000E+00 -0.00000000000E+00 -0.58499672873E+03  0.58499672873E+03  0.00000000000E+00 0. -1.
          5    1    1    2  502    0 -0.12913580791E+02 -0.15369886334E+02 -0.12920100806E+03  0.13083571553E+03  0.47000000000E+01 0. -1.
         -5    1    1    2    0  502  0.16310275742E+03  0.15346116953E+01 -0.31933614892E+03  0.35861194977E+03  0.47000000000E+01 0. -1.
        -11    1    1    2    0    0 -0.21591347391E+02  0.12755136895E+02 -0.48674252841E+02  0.54754567745E+02  0.00000000000E+00 0. -1.
         11    1    1    2    0    0 -0.12859782924E+03  0.10801377439E+01  0.22552762050E-01  0.12860236736E+03  0.00000000000E+00 0.  1.
<mgrwt>
<rscale>  0 0.19092930E+03</rscale>
<asrwt>0</asrwt>
<pdfrwt beam="2">  1        1 0.89999496E-01 0.19589139E+03</pdfrwt>
<pdfrwt beam="1">  1       -1 0.13508903E-01 0.19589139E+03</pdfrwt>
<totfact> 0.13799954E+03</totfact>
</mgrwt>
</event>
<event>
 6    1  0.9263730E-006  0.1447357E+03  0.7546771E-02  0.1214223E+00
         -2   -1    0    0    0  501 -0.00000000000E+00  0.00000000000E+00  0.42438621508E+02  0.42438621508E+02  0.00000000000E+00 0.  1.
          2   -1    0    0  501    0  0.00000000000E+00 -0.00000000000E+00 -0.43808925319E+03  0.43808925319E+03  0.00000000000E+00 0. -1.
          5    1    1    2  502    0 -0.44359559534E+02  0.88778153799E+01 -0.30788146541E+02  0.54923456696E+02  0.47000000000E+01 0. -1.
         -5    1    1    2    0  502  0.50286866522E+02  0.63861844635E+02 -0.22070201008E+03  0.23524151716E+03  0.47000000000E+01 0. -1.
        -11    1    1    2    0    0  0.29733399432E+02 -0.64008054162E+02 -0.42758429610E+02  0.82519024122E+02  0.00000000000E+00 0.  1.
         11    1    1    2    0    0 -0.35660706420E+02 -0.87316058529E+01 -0.10140204546E+03  0.10784387672E+03  0.00000000000E+00 0. -1.
<mgrwt>
<rscale>  0 0.13933752E+03</rscale>
<asrwt>0</asrwt>
<pdfrwt beam="2">  1        2 0.67398349E-01 0.14473567E+03</pdfrwt>
<pdfrwt beam="1">  1       -2 0.65290184E-02 0.14473567E+03</pdfrwt>
<totfact> 0.89671295E+03</totfact>
</mgrwt>
</event>
<event>
 6    1  0.9263730E-006  0.4148973E+03  0.7546771E-02  0.1038740E+00
         -1   -1    0    0    0  501 -0.00000000000E+00  0.00000000000E+00  0.26603051729E+02  0.26603051729E+02  0.00000000000E+00 0.  1.
          1   -1    0    0  501    0  0.00000000000E+00 -0.00000000000E+00 -0.16176695516E+04  0.16176695516E+04  0.00000000000E+00 0. -1.
          5    1    1    2  502    0 -0.44572411692E+01  0.13711089380E+02 -0.20357416169E+03  0.20413816468E+03  0.47000000000E+01 0.  1.
         -5    1    1    2    0  502 -0.26905423286E+02 -0.18577814189E+03 -0.71829693704E+03  0.74243518206E+03  0.47000000000E+01 0.  1.
        -11    1    1    2    0    0  0.27835533792E+02  0.10049466533E+03 -0.53985975527E+03  0.54983865821E+03  0.00000000000E+00 0. -1.
         11    1    1    2    0    0  0.35271306632E+01  0.71572387182E+02 -0.12933564583E+03  0.14786059834E+03  0.00000000000E+00 0.  1.
<mgrwt>
<rscale>  0 0.41489732E+03</rscale>
<asrwt>0</asrwt>
<pdfrwt beam="2">  1        1 0.24887229E+00 0.41489732E+03</pdfrwt>
<pdfrwt beam="1">  1       -1 0.40927764E-02 0.41489732E+03</pdfrwt>
<totfact> 0.14133761E+03</totfact>
</mgrwt>
</event>
<event>
 6    1  0.9263730E-006  0.2819624E+03  0.7546771E-02  0.1095890E+00
         -2   -1    0    0    0  501 -0.00000000000E+00  0.00000000000E+00  0.43277093705E+03  0.43277093705E+03  0.00000000000E+00 0.  1.
          2   -1    0    0  501    0  0.00000000000E+00 -0.00000000000E+00 -0.18085351416E+03  0.18085351416E+03  0.00000000000E+00 0. -1.
          5    1    1    2  502    0 -0.74599085719E+01 -0.10560983990E+02  0.52995539538E+01  0.14743130293E+02  0.47000000000E+01 0. -1.
         -5    1    1    2    0  502  0.25968034964E+03  0.66776445373E+02  0.82585577699E+02  0.28059837008E+03  0.47000000000E+01 0.  1.
        -11    1    1    2    0    0 -0.47449765112E+02  0.18378086966E+02  0.11204829258E+02  0.52103574622E+02  0.00000000000E+00 0.  1.
         11    1    1    2    0    0 -0.20477067596E+03 -0.74593548349E+02  0.15282746199E+03  0.26617937622E+03  0.00000000000E+00 0. -1.
<mgrwt>
<rscale>  0 0.27963284E+03</rscale>
<asrwt>0</asrwt>
<pdfrwt beam="2">  1        2 0.27823618E-01 0.28196242E+03</pdfrwt>
<pdfrwt beam="1">  1       -2 0.66580144E-01 0.28196242E+03</pdfrwt>
<totfact> 0.40655220E+02</totfact>
</mgrwt>
</event>
<event>
 6    1  0.9263730E-006  0.1622536E+03  0.7546771E-02  0.1193702E+00
          1   -1    0    0  501    0  0.00000000000E+00  0.00000000000E+00  0.82259646828E+03  0.82259646828E+03  0.00000000000E+00 0. -1.
         -1   -1    0    0    0  501 -0.00000000000E+00 -0.00000000000E+00 -0.34798302591E+02  0.34798302591E+02  0.00000000000E+00 0.  1.
          5    1    1    2  502    0 -0.35184155982E+01  0.70230356315E+02  0.11951648728E+03  0.13874783937E+03  0.47000000000E+01 0. -1.
         -5    1    1    2    0  502  0.27588888863E+02  0.30387968143E+02  0.49863174370E+03  0.50034016551E+03  0.47000000000E+01 0. -1.
        -11    1    1    2    0    0 -0.46822766933E+02 -0.74451087447E+02  0.15955811673E+03  0.18219255896E+03  0.00000000000E+00 0. -1.
         11    1    1    2    0    0  0.22752293668E+02 -0.26167237012E+02  0.10091817980E+02  0.36114207040E+02  0.00000000000E+00 0.  1.
<mgrwt>
<rscale>  0 0.15564555E+03</rscale>
<asrwt>0</asrwt>
<pdfrwt beam="1">  1        1 0.12655329E+00 0.16225364E+03</pdfrwt>
<pdfrwt beam="2">  1       -1 0.53535857E-02 0.16225364E+03</pdfrwt>
<totfact> 0.34483209E+03</totfact>
</mgrwt>
</event>
<event>
 6    1  0.9263730E-006  0.1446730E+03  0.7546771E-02  0.1216878E+00
          1   -1    0    0  501    0  0.00000000000E+00  0.00000000000E+00  0.16267489985E+03  0.16267489985E+03  0.00000000000E+00 0.  1.
         -1   -1    0    0    0  501 -0.00000000000E+00 -0.00000000000E+00 -0.10817915894E+03  0.10817915894E+03  0.00000000000E+00 0. -1.
          5    1    1    2  502    0  0.74372755026E+01 -0.87206959019E+02 -0.10443756980E+02  0.88269637068E+02  0.47000000000E+01 0.  1.
         -5    1    1    2    0  502 -0.17145221202E+02  0.15031637864E+02  0.60489312072E+02  0.64814779348E+02  0.47000000000E+01 0.  1.
        -11    1    1    2    0    0  0.62454746814E+01  0.98189747013E+01 -0.39645963798E+02  0.41318526881E+02  0.00000000000E+00 0. -1.
         11    1    1    2    0    0  0.34624710176E+01  0.62356346453E+02  0.44096149618E+02  0.76451115490E+02  0.00000000000E+00 0.  1.
<mgrwt>
<rscale>  0 0.13739515E+03</rscale>
<asrwt>0</asrwt>
<pdfrwt beam="1">  1        1 0.25026908E-01 0.14467301E+03</pdfrwt>
<pdfrwt beam="2">  1       -1 0.16642948E-01 0.14467301E+03</pdfrwt>
<totfact> 0.49844822E+03</totfact>
</mgrwt>
</event>
<event>
 6    1  0.9263730E-006  0.1511030E+03  0.7546771E-02  0.1207726E+00
         -2   -1    0    0    0  501 -0.00000000000E+00  0.00000000000E+00  0.21371953836E+03  0.21371953836E+03  0.00000000000E+00 0.  1.
          2   -1    0    0  501    0  0.00000000000E+00 -0.00000000000E+00 -0.90053021510E+02  0.90053021510E+02  0.00000000000E+00 0. -1.
          5    1    1    2  502    0 -0.30666121003E+02  0.12306624333E+02  0.19148765114E+02  0.38478944700E+02  0.47000000000E+01 0.  1.
         -5    1    1    2    0  502  0.11298399807E+03 -0.32609234778E+02  0.60327054436E+02  0.13225048018E+03  0.47000000000E+01 0.  1.
        -11    1    1    2    0    0 -0.82542529177E+02  0.36782370594E+02  0.61370352089E+02  0.10923612967E+03  0.00000000000E+00 0.  1.
         11    1    1    2    0    0  0.22465211159E+00 -0.16479760149E+02 -0.17179654793E+02  0.23807005313E+02  0.00000000000E+00 0. -1.
<mgrwt>
<rscale>  0 0.14424704E+03</rscale>
<asrwt>0</asrwt>
<pdfrwt beam="2">  1        2 0.13854311E-01 0.15110305E+03</pdfrwt>
<pdfrwt beam="1">  1       -2 0.32879929E-01 0.15110305E+03</pdfrwt>
<totfact> 0.35715517E+03</totfact>
</mgrwt>
</event>
<event>
 6    1  0.9263730E-006  0.3094958E+03  0.7546771E-02  0.1080588E+00
         -2   -1    0    0    0  501 -0.00000000000E+00  0.00000000000E+00  0.37195011816E+02  0.37195011816E+02  0.00000000000E+00 0.  1.
          2   -1    0    0  501    0  0.00000000000E+00 -0.00000000000E+00 -0.64382040063E+03  0.64382040063E+03  0.00000000000E+00 0. -1.
          5    1    1    2  502    0  0.10399810609E+02 -0.13679755619E+03 -0.27002579449E+03  0.30291541250E+03  0.47000000000E+01 0. -1.
         -5    1    1    2    0  502 -0.76527807305E+01  0.27169319787E+02 -0.45592977644E+02  0.53828864014E+02  0.47000000000E+01 0. -1.
        -11    1    1    2    0    0  0.37091063045E+02  0.40498617912E+02 -0.17546335494E+03  0.18385666683E+03  0.00000000000E+00 0. -1.
         11    1    1    2    0    0 -0.39838092923E+02  0.69129618490E+02 -0.11554326174E+03  0.14041446911E+03  0.00000000000E+00 0.  1.
<mgrwt>
<rscale>  0 0.30949577E+03</rscale>
<asrwt>0</asrwt>
<pdfrwt beam="2">  1        2 0.99049295E-01 0.30949577E+03</pdfrwt>
<pdfrwt beam="1">  1       -2 0.57223093E-02 0.30949577E+03</pdfrwt>
<totfact> 0.73945576E+03</totfact>
</mgrwt>
</event>
<event>
 6    1  0.9263730E-006  0.1809374E+03  0.7546771E-02  0.1172302E+00
         -3   -1    0    0    0  501 -0.00000000000E+00  0.00000000000E+00  0.37526561821E+02  0.37526561821E+02  0.00000000000E+00 0.  1.
          3   -1    0    0  501    0  0.00000000000E+00 -0.00000000000E+00 -0.78394382073E+03  0.78394382073E+03  0.00000000000E+00 0. -1.
          5    1    1    2  502    0  0.72702084152E+02  0.19588528391E+01 -0.82977578919E+02  0.11043911783E+03  0.47000000000E+01 0. -1.
         -5    1    1    2    0  502  0.39131995061E+02  0.65884319026E+02 -0.35944630118E+03  0.36755379193E+03  0.47000000000E+01 0. -1.
        -11    1    1    2    0    0 -0.68103241866E+01 -0.42394958317E+02 -0.14509630307E+03  0.15131639095E+03  0.00000000000E+00 0. -1.
         11    1    1    2    0    0 -0.10502375503E+03 -0.25448213548E+02 -0.15889707574E+03  0.19216108183E+03  0.00000000000E+00 0.  1.
<mgrwt>
<rscale>  0 0.17542905E+03</rscale>
<asrwt>0</asrwt>
<pdfrwt beam="2">  1        3 0.12060674E+00 0.18093737E+03</pdfrwt>
<pdfrwt beam="1">  1       -3 0.57733171E-02 0.18093737E+03</pdfrwt>
<totfact> 0.25637993E+02</totfact>
</mgrwt>
</event>
<event>
 6    1  0.9263730E-006  0.3579223E+03  0.7546771E-02  0.1082950E+00
         -2   -1    0    0    0  501 -0.00000000000E+00  0.00000000000E+00  0.98612437517E+02  0.98612437517E+02  0.00000000000E+00 0.  1.
          2   -1    0    0  501    0  0.00000000000E+00 -0.00000000000E+00 -0.77659111324E+03  0.77659111324E+03  0.00000000000E+00 0. -1.
          5    1    1    2  502    0 -0.20136162679E+03 -0.75361897646E+01 -0.53319481623E+03  0.57001938647E+03  0.47000000000E+01 0. -1.
         -5    1    1    2    0  502  0.40095661879E+02 -0.28194312122E+02  0.22073810955E+02  0.53962250394E+02  0.47000000000E+01 0.  1.
        -11    1    1    2    0    0  0.60376441700E+02 -0.29930242824E+02 -0.62480327700E+02  0.91896275754E+02  0.00000000000E+00 0.  1.
         11    1    1    2    0    0  0.10088952321E+03  0.65660744711E+02 -0.10437734275E+03  0.15932563814E+03  0.00000000000E+00 0. -1.
<mgrwt>
<rscale>  0 0.30462727E+03</rscale>
<asrwt>0</asrwt>
<pdfrwt beam="2">  1        2 0.11947556E+00 0.35792234E+03</pdfrwt>
<pdfrwt beam="1">  1       -2 0.15171144E-01 0.35792234E+03</pdfrwt>
<totfact> 0.12386427E+03</totfact>
</mgrwt>
</event>
<event>
 6    1  0.9263730E-006  0.3923851E+03  0.7546771E-02  0.1046449E+00
          2   -1    0    0  501    0  0.00000000000E+00  0.00000000000E+00  0.13613904058E+04  0.13613904058E+04  0.00000000000E+00 0. -1.
         -2   -1    0    0    0  501 -0.00000000000E+00 -0.00000000000E+00 -0.28273684620E+02  0.28273684620E+02  0.00000000000E+00 0.  1.
          5    1    1    2  502    0  0.36153420421E+01  0.30492534673E+02  0.14181025136E+03  0.14517266533E+03  0.47000000000E+01 0.  1.
         -5    1    1    2    0  502 -0.15241720681E+03 -0.67511531317E+02  0.74994236268E+03  0.76826066484E+03  0.47000000000E+01 0.  1.
        -11    1    1    2    0    0  0.74461846125E+02  0.12651853698E+01  0.32606154563E+03  0.33445821677E+03  0.00000000000E+00 0.  1.
         11    1    1    2    0    0  0.74340018647E+02  0.35753811274E+02  0.11530256146E+03  0.14177254344E+03  0.00000000000E+00 0. -1.
<mgrwt>
<rscale>  0 0.39238513E+03</rscale>
<asrwt>0</asrwt>
<pdfrwt beam="1">  1        2 0.20944463E+00 0.39238513E+03</pdfrwt>
<pdfrwt beam="2">  1       -2 0.43497987E-02 0.39238513E+03</pdfrwt>
<totfact> 0.39378183E+03</totfact>
</mgrwt>
</event>
<event>
 6    1  0.9263730E-006  0.1303861E+03  0.7546771E-02  0.1242640E+00
         -2   -1    0    0    0  501 -0.00000000000E+00  0.00000000000E+00  0.63823212288E+02  0.63823212288E+02  0.00000000000E+00 0. -1.
          2   -1    0    0  501    0  0.00000000000E+00 -0.00000000000E+00 -0.22713871066E+03  0.22713871066E+03  0.00000000000E+00 0.  1.
          5    1    1    2  502    0  0.22283760029E+02 -0.42232042823E+01  0.18150551211E+02  0.29426755253E+02  0.47000000000E+01 0. -1.
         -5    1    1    2    0  502 -0.40791804119E+01 -0.28095888565E+02 -0.16276001163E+03  0.16528439144E+03  0.47000000000E+01 0. -1.
        -11    1    1    2    0    0 -0.33690661158E+02  0.51091443171E+02 -0.31420209868E+02  0.68794082614E+02  0.00000000000E+00 0.  1.
         11    1    1    2    0    0  0.15486081542E+02 -0.18772350324E+02  0.12714171917E+02  0.27456693642E+02  0.00000000000E+00 0. -1.
<mgrwt>
<rscale>  0 0.12027749E+03</rscale>
<asrwt>0</asrwt>
<pdfrwt beam="2">  1        2 0.34944418E-01 0.13038610E+03</pdfrwt>
<pdfrwt beam="1">  1       -2 0.98189556E-02 0.13038610E+03</pdfrwt>
<totfact> 0.95353058E+03</totfact>
</mgrwt>
</event>
<event>
 6    1  0.9263730E-006  0.1501132E+03  0.7546771E-02  0.1209581E+00
         -1   -1    0    0    0  501 -0.00000000000E+00  0.00000000000E+00  0.75373908601E+02  0.75373908601E+02  0.00000000000E+00 0.  1.
          1   -1    0    0  501    0  0.00000000000E+00 -0.00000000000E+00 -0.33391440674E+03  0.33391440674E+03  0.00000000000E+00 0. -1.
          5    1    1    2  502    0 -0.14527158870E+02  0.60781065344E+02 -0.35816743342E+02  0.72182444907E+02  0.47000000000E+01 0. -1.
         -5    1    1    2    0  502 -0.50526504442E+02 -0.90406800600E+01 -0.20673493829E+03  0.21306357328E+03  0.47000000000E+01 0. -1.
        -11    1    1    2    0    0  0.59929182345E+02 -0.73161612054E+00 -0.34953405673E+02  0.69381429265E+02  0.00000000000E+00 0. -1.
         11    1    1    2    0    0  0.51244809664E+01 -0.51008769163E+02  0.18964589165E+02  0.54660867894E+02  0.00000000000E+00 0.  1.
<mgrwt>
<rscale>  0 0.14282265E+03</rscale>
<asrwt>0</asrwt>
<pdfrwt beam="2">  1        1 0.51371447E-01 0.15011320E+03</pdfrwt>
<pdfrwt beam="1">  1       -1 0.11595986E-01 0.15011320E+03</pdfrwt>
<totfact> 0.35888119E+03</totfact>
</mgrwt>
</event>
<event>
 6    1  0.1482052E-005  0.3979565E+03  0.7546771E-02  0.1045343E+00
          1   -1    0    0  501    0  0.00000000000E+00  0.00000000000E+00  0.29824218539E+03  0.29824218539E+03  0.00000000000E+00 0. -1.
         -1   -1    0    0    0  501 -0.00000000000E+00 -0.00000000000E+00 -0.52315714553E+03  0.52315714553E+03  0.00000000000E+00 0.  1.
          5    1    1    2  502    0 -0.30842089045E+03  0.45353303035E+02 -0.94325571358E+02  0.32572959825E+03  0.47000000000E+01 0.  1.
         -5    1    1    2    0  502 -0.69153915493E+02 -0.31885486154E+02  0.20533830069E+02  0.79010609621E+02  0.47000000000E+01 0.  1.
        -11    1    1    2    0    0  0.13997360880E+03 -0.47477363528E+02 -0.67458550454E+02  0.16247266612E+03  0.00000000000E+00 0.  1.
         11    1    1    2    0    0  0.23760119715E+03  0.34009546647E+02 -0.83664668394E+02  0.25418645693E+03  0.00000000000E+00 0. -1.
<mgrwt>
<rscale>  0 0.39551675E+03</rscale>
<asrwt>0</asrwt>
<pdfrwt beam="1">  1        1 0.45883414E-01 0.39795655E+03</pdfrwt>
<pdfrwt beam="2">  1       -1 0.80485714E-01 0.39795655E+03</pdfrwt>
<totfact> 0.14150022E+02</totfact>
</mgrwt>
</event>
<event>
 6    1  0.9263730E-006  0.1318031E+03  0.7546771E-02  0.1238120E+00
         -1   -1    0    0    0  501 -0.00000000000E+00  0.00000000000E+00  0.18566629078E+02  0.18566629078E+02  0.00000000000E+00 0.  1.
          1   -1    0    0  501    0  0.00000000000E+00 -0.00000000000E+00 -0.76281282522E+03  0.76281282522E+03  0.00000000000E+00 0. -1.
          5    1    1    2  502    0  0.72572779964E+02 -0.26910341399E+02 -0.24874342264E+03  0.26055010108E+03  0.47000000000E+01 0. -1.
         -5    1    1    2    0  502 -0.50356749059E+02 -0.86181408089E+01 -0.25816031779E+03  0.26320887942E+03  0.47000000000E+01 0. -1.
        -11    1    1    2    0    0 -0.24419945625E+02 -0.27685397262E+02 -0.89670325104E+02  0.96972069020E+02  0.00000000000E+00 0.  1.
         11    1    1    2    0    0  0.22039147209E+01  0.63213879470E+02 -0.14767213061E+03  0.16064840478E+03  0.00000000000E+00 0. -1.
<mgrwt>
<rscale>  0 0.12306770E+03</rscale>
<asrwt>0</asrwt>
<pdfrwt beam="2">  1        1 0.11735579E+00 0.13180314E+03</pdfrwt>
<pdfrwt beam="1">  1       -1 0.28564052E-02 0.13180314E+03</pdfrwt>
<totfact> 0.96361864E+03</totfact>
</mgrwt>
</event>
<event>
 6    1  0.9263730E-006  0.3549377E+03  0.7546771E-02  0.1060606E+00
          2   -1    0    0  501    0  0.00000000000E+00  0.00000000000E+00  0.13552732752E+03  0.13552732752E+03  0.00000000000E+00 0.  1.
         -2   -1    0    0    0  501 -0.00000000000E+00 -0.00000000000E+00 -0.23238991417E+03  0.23238991417E+03  0.00000000000E+00 0. -1.
          5    1    1    2  502    0 -0.10744353693E+02 -0.16896108734E+02  0.23642312396E+02  0.31336377615E+02  0.47000000000E+01 0. -1.
         -5    1    1    2    0  502  0.30318389441E+02  0.14390047778E+03 -0.16588229113E+02  0.14806691592E+03  0.47000000000E+01 0. -1.
        -11    1    1    2    0    0 -0.32741760284E+02 -0.83223513439E+02 -0.11068205567E+03  0.14229790407E+03  0.00000000000E+00 0. -1.
         11    1    1    2    0    0  0.13167724535E+02 -0.43780855611E+02  0.67653857349E+01  0.46216044093E+02  0.00000000000E+00 0.  1.
<mgrwt>
<rscale>  0 0.35493765E+03</rscale>
<asrwt>0</asrwt>
<pdfrwt beam="1">  1        2 0.20850358E-01 0.35493765E+03</pdfrwt>
<pdfrwt beam="2">  1       -2 0.35752295E-01 0.35493765E+03</pdfrwt>
<totfact> 0.19629272E+03</totfact>
</mgrwt>
</event>
<event>
 6    1  0.9263730E-006  0.2640309E+03  0.7546771E-02  0.1104745E+00
          1   -1    0    0  501    0  0.00000000000E+00  0.00000000000E+00  0.40737521665E+02  0.40737521665E+02  0.00000000000E+00 0. -1.
         -1   -1    0    0    0  501 -0.00000000000E+00 -0.00000000000E+00 -0.42781397468E+03  0.42781397468E+03  0.00000000000E+00 0.  1.
          5    1    1    2  502    0  0.37552092890E+02 -0.13251619342E+01 -0.25402592441E+02  0.45599314000E+02  0.47000000000E+01 0.  1.
         -5    1    1    2    0  502 -0.97350819691E+02 -0.22666620126E+02 -0.12874786106E+03  0.16306152057E+03  0.47000000000E+01 0.  1.
        -11    1    1    2    0    0  0.33887632114E+02 -0.20831112590E+02 -0.18537335854E+03  0.18959321960E+03  0.00000000000E+00 0.  1.
         11    1    1    2    0    0  0.25911094688E+02  0.44822894651E+02 -0.47552640974E+02  0.70297442175E+02  0.00000000000E+00 0. -1.
<mgrwt>
<rscale>  0 0.26403092E+03</rscale>
<asrwt>0</asrwt>
<pdfrwt beam="1">  1        1 0.62673111E-02 0.26403092E+03</pdfrwt>
<pdfrwt beam="2">  1       -1 0.65817534E-01 0.26403092E+03</pdfrwt>
<totfact> 0.29364517E+03</totfact>
</mgrwt>
</event>
<event>
 6    1  0.9263730E-006  0.1852354E+03  0.7546771E-02  0.1168146E+00
          1   -1    0    0  501    0  0.00000000000E+00  0.00000000000E+00  0.69312432273E+03  0.69312432273E+03  0.00000000000E+00 0. -1.
         -1   -1    0    0    0  501 -0.00000000000E+00 -0.00000000000E+00 -0.46541727382E+02  0.46541727382E+02  0.00000000000E+00 0.  1.
          5    1    1    2  502    0 -0.32103043503E+02  0.63313793437E+02  0.68834991887E+02  0.98992868175E+02  0.47000000000E+01 0.  1.
         -5    1    1    2    0  502 -0.72857968244E+02  0.24285005325E+02  0.36012984446E+03  0.36825757275E+03  0.47000000000E+01 0.  1.
        -11    1    1    2    0    0  0.29563215729E+02 -0.80163097371E+02  0.13954755076E+03  0.16362647960E+03  0.00000000000E+00 0.  1.
         11    1    1    2    0    0  0.75397796019E+02 -0.74357013903E+01  0.78070208242E+02  0.10878912958E+03  0.00000000000E+00 0. -1.
<mgrwt>
<rscale>  0 0.17964560E+03</rscale>
<asrwt>0</asrwt>
<pdfrwt beam="1">  1        1 0.10663450E+00 0.18523537E+03</pdfrwt>
<pdfrwt beam="2">  1       -1 0.71602662E-02 0.18523537E+03</pdfrwt>
<totfact> 0.28855883E+03</totfact>
</mgrwt>
</event>
<event>
 6    1  0.9263730E-006  0.1382008E+03  0.7546771E-02  0.1227219E+00
         -4   -1    0    0    0  501 -0.00000000000E+00  0.00000000000E+00  0.21788694909E+02  0.21788694909E+02  0.00000000000E+00 0.  1.
          4   -1    0    0  501    0  0.00000000000E+00 -0.00000000000E+00 -0.88119879791E+03  0.88119879791E+03  0.00000000000E+00 0. -1.
          5    1    1    2  502    0 -0.70273846994E+02  0.16586229197E+02 -0.45687098958E+03  0.46256535505E+03  0.47000000000E+01 0.  1.
         -5    1    1    2    0  502  0.47349455235E+02  0.37727967528E+02 -0.21731429609E+03  0.22563901199E+03  0.47000000000E+01 0.  1.
        -11    1    1    2    0    0 -0.12078396282E+02  0.34712673245E+00  0.55291903225E+01  0.13288344492E+02  0.00000000000E+00 0.  1.
         11    1    1    2    0    0  0.35002788042E+02 -0.54661323457E+02 -0.19075400765E+03  0.20149478129E+03  0.00000000000E+00 0. -1.
<mgrwt>
<rscale>  0 0.13015965E+03</rscale>
<asrwt>0</asrwt>
<pdfrwt beam="2">  1        4 0.13556908E+00 0.13820076E+03</pdfrwt>
<pdfrwt beam="1">  1       -4 0.33521062E-02 0.13820076E+03</pdfrwt>
<totfact> 0.31176756E+02</totfact>
</mgrwt>
</event>
<event>
 6    1  0.9263730E-006  0.1482728E+03  0.7546771E-02  0.1202615E+00
          2   -1    0    0  501    0  0.00000000000E+00  0.00000000000E+00  0.57713079321E+03  0.57713079321E+03  0.00000000000E+00 0. -1.
         -2   -1    0    0    0  501 -0.00000000000E+00 -0.00000000000E+00 -0.38092317587E+02  0.38092317587E+02  0.00000000000E+00 0.  1.
          5    1    1    2  502    0 -0.64190976022E+02  0.62753585729E+01  0.41173065756E+02  0.76662721525E+02  0.47000000000E+01 0. -1.
         -5    1    1    2    0  502 -0.56179345055E+01  0.32247415754E+02  0.23026756728E+03  0.23262996271E+03  0.47000000000E+01 0. -1.
        -11    1    1    2    0    0 -0.29713356008E+02 -0.11194165422E+02  0.19599117081E+02  0.37313781034E+02  0.00000000000E+00 0.  1.
         11    1    1    2    0    0  0.99522266535E+02 -0.27328608905E+02  0.24799872551E+03  0.26861664553E+03  0.00000000000E+00 0. -1.
<mgrwt>
<rscale>  0 0.14827037E+03</rscale>
<asrwt>0</asrwt>
<pdfrwt beam="1">  1        2 0.88789347E-01 0.14827279E+03</pdfrwt>
<pdfrwt beam="2">  1       -2 0.58603570E-02 0.14827279E+03</pdfrwt>
<totfact> 0.78094605E+03</totfact>
</mgrwt>
</event>
<event>
 6    1  0.9263730E-006  0.1276693E+03  0.7546771E-02  0.1244970E+00
          2   -1    0    0  501    0  0.00000000000E+00  0.00000000000E+00  0.40908579214E+03  0.40908579214E+03  0.00000000000E+00 0. -1.
         -2   -1    0    0    0  501 -0.00000000000E+00 -0.00000000000E+00 -0.35664672532E+02  0.35664672532E+02  0.00000000000E+00 0.  1.
          5    1    1    2  502    0  0.48355641117E+02  0.16627466632E+02  0.11324092345E+03  0.12433960519E+03  0.47000000000E+01 0. -1.
         -5    1    1    2    0  502 -0.68960813175E+02 -0.32226146139E+02  0.17956252583E+03  0.19508692660E+03  0.47000000000E+01 0. -1.
        -11    1    1    2    0    0  0.47839118756E+02  0.26808900437E+02  0.20803166279E+02  0.58652111242E+02  0.00000000000E+00 0.  1.
         11    1    1    2    0    0 -0.27233946697E+02 -0.11210220930E+02  0.59814504052E+02  0.66671821642E+02  0.00000000000E+00 0. -1.
<mgrwt>
<rscale>  0 0.11887182E+03</rscale>
<asrwt>0</asrwt>
<pdfrwt beam="1">  1        2 0.62936272E-01 0.12766930E+03</pdfrwt>
<pdfrwt beam="2">  1       -2 0.54868730E-02 0.12766930E+03</pdfrwt>
<totfact> 0.12450491E+04</totfact>
</mgrwt>
</event>
<event>
 6    1  0.9263730E-006  0.1320768E+03  0.7546771E-02  0.1237401E+00
          1   -1    0    0  501    0  0.00000000000E+00  0.00000000000E+00  0.38676374270E+03  0.38676374270E+03  0.00000000000E+00 0. -1.
         -1   -1    0    0    0  501 -0.00000000000E+00 -0.00000000000E+00 -0.35408338131E+02  0.35408338131E+02  0.00000000000E+00 0.  1.
          5    1    1    2  502    0 -0.13236228305E+02 -0.27301848589E+02  0.47706195965E+01  0.31071489946E+02  0.47000000000E+01 0. -1.
         -5    1    1    2    0  502  0.43085915401E+00  0.67986911262E+02  0.21283727089E+03  0.22348198948E+03  0.47000000000E+01 0. -1.
        -11    1    1    2    0    0 -0.34914073046E+02 -0.87926893332E+01  0.22552683183E+02  0.42484437164E+02  0.00000000000E+00 0.  1.
         11    1    1    2    0    0  0.47719442198E+02 -0.31892373340E+02  0.11119483089E+03  0.12513416423E+03  0.00000000000E+00 0. -1.
<mgrwt>
<rscale>  0 0.12351945E+03</rscale>
<asrwt>0</asrwt>
<pdfrwt beam="1">  1        1 0.59502111E-01 0.13207680E+03</pdfrwt>
<pdfrwt beam="2">  1       -1 0.54474369E-02 0.13207680E+03</pdfrwt>
<totfact> 0.92802710E+03</totfact>
</mgrwt>
</event>
<event>
 6    1  0.9263730E-006  0.1295274E+03  0.7546771E-02  0.1242198E+00
         -2   -1    0    0    0  501 -0.00000000000E+00  0.00000000000E+00  0.43442755914E+02  0.43442755914E+02  0.00000000000E+00 0.  1.
          2   -1    0    0  501    0  0.00000000000E+00 -0.00000000000E+00 -0.31428828047E+03  0.31428828047E+03  0.00000000000E+00 0. -1.
          5    1    1    2  502    0 -0.43465409115E+02 -0.14066909365E+02 -0.13326070864E+03  0.14095256719E+03  0.47000000000E+01 0.  1.
         -5    1    1    2    0  502  0.69533238661E+02 -0.76839246134E+01 -0.63379089927E+02  0.94514088982E+02  0.47000000000E+01 0.  1.
        -11    1    1    2    0    0  0.10762874612E+02  0.11706646453E+02 -0.81807816339E+02  0.83339089600E+02  0.00000000000E+00 0. -1.
         11    1    1    2    0    0 -0.36830704158E+02  0.10044187525E+02  0.76020903526E+01  0.38925290616E+02  0.00000000000E+00 0.  1.
<mgrwt>
<rscale>  0 0.12054651E+03</rscale>
<asrwt>0</asrwt>
<pdfrwt beam="2">  1        2 0.48352042E-01 0.12952736E+03</pdfrwt>
<pdfrwt beam="1">  1       -2 0.66835011E-02 0.12952736E+03</pdfrwt>
<totfact> 0.12230146E+04</totfact>
</mgrwt>
</event>
<event>
 6    1  0.9263730E-006  0.3199476E+03  0.7546771E-02  0.1077249E+00
         -2   -1    0    0    0  501 -0.00000000000E+00  0.00000000000E+00  0.12865342029E+03  0.12865342029E+03  0.00000000000E+00 0.  1.
          2   -1    0    0  501    0  0.00000000000E+00 -0.00000000000E+00 -0.77395587867E+03  0.77395587867E+03  0.00000000000E+00 0. -1.
          5    1    1    2  502    0 -0.58140770336E+02 -0.18369421478E+03 -0.22597708931E+03  0.29700445891E+03  0.47000000000E+01 0. -1.
         -5    1    1    2    0  502 -0.11460773513E+03 -0.54844056586E+02 -0.15779247574E+03  0.20264096055E+03  0.47000000000E+01 0. -1.
        -11    1    1    2    0    0  0.16633945288E+03  0.21812591211E+03 -0.20480147574E+03  0.34233225320E+03  0.00000000000E+00 0.  1.
         11    1    1    2    0    0  0.64090525853E+01  0.20412359260E+02 -0.56731417583E+02  0.60631626290E+02  0.00000000000E+00 0. -1.
<mgrwt>
<rscale>  0 0.31654745E+03</rscale>
<asrwt>0</asrwt>
<pdfrwt beam="2">  1        2 0.11907014E+00 0.31994760E+03</pdfrwt>
<pdfrwt beam="1">  1       -2 0.19792834E-01 0.31994760E+03</pdfrwt>
<totfact> 0.79323960E+02</totfact>
</mgrwt>
</event>
<event>
 6    1  0.9263730E-006  0.1683568E+03  0.7546771E-02  0.1186406E+00
         -4   -1    0    0    0  501 -0.00000000000E+00  0.00000000000E+00  0.30400565611E+02  0.30400565611E+02  0.00000000000E+00 0.  1.
          4   -1    0    0  501    0  0.00000000000E+00 -0.00000000000E+00 -0.10776858331E+04  0.10776858331E+04  0.00000000000E+00 0. -1.
          5    1    1    2  502    0  0.69484581305E+02 -0.55545888237E+02 -0.75685188223E+03  0.76207631794E+03  0.47000000000E+01 0.  1.
         -5    1    1    2    0  502 -0.11864881886E+02 -0.41400778320E+02 -0.74757020702E+02  0.86403136586E+02  0.47000000000E+01 0.  1.
        -11    1    1    2    0    0 -0.15917354769E+02  0.39524023071E+02 -0.12517514423E+02  0.44409444377E+02  0.00000000000E+00 0.  1.
         11    1    1    2    0    0 -0.41702344651E+02  0.57422643487E+02 -0.20315885017E+03  0.21519749984E+03  0.00000000000E+00 0. -1.
<mgrwt>
<rscale>  0 0.16204587E+03</rscale>
<asrwt>0</asrwt>
<pdfrwt beam="2">  1        4 0.16579782E+00 0.16835682E+03</pdfrwt>
<pdfrwt beam="1">  1       -4 0.46770101E-02 0.16835682E+03</pdfrwt>
<totfact> 0.11304000E+02</totfact>
</mgrwt>
</event>
<event>
 6    1  0.9263730E-006  0.1157193E+03  0.7546771E-02  0.1262146E+00
         -1   -1    0    0    0  501 -0.00000000000E+00  0.00000000000E+00  0.30106699909E+03  0.30106699909E+03  0.00000000000E+00 0.  1.
          1   -1    0    0  501    0  0.00000000000E+00 -0.00000000000E+00 -0.21581988036E+03  0.21581988036E+03  0.00000000000E+00 0. -1.
          5    1    1    2  502    0 -0.95755742146E+01  0.57686663393E+02 -0.12464255913E+03  0.13775812245E+03  0.47000000000E+01 0.  1.
         -5    1    1    2    0  502  0.19946960899E+02 -0.50163478352E+02 -0.67756734784E+02  0.86760134383E+02  0.47000000000E+01 0. -1.
        -11    1    1    2    0    0  0.13813292533E+02 -0.44910391341E+02  0.14912791412E+03  0.15635499695E+03  0.00000000000E+00 0. -1.
         11    1    1    2    0    0 -0.24184679217E+02  0.37387206301E+02  0.12851849853E+03  0.13601362567E+03  0.00000000000E+00 0.  1.
<mgrwt>
<rscale>  0 0.10915328E+03</rscale>
<asrwt>0</asrwt>
<pdfrwt beam="2">  1        1 0.33203058E-01 0.11571931E+03</pdfrwt>
<pdfrwt beam="1">  1       -1 0.46318000E-01 0.11571931E+03</pdfrwt>
<totfact> 0.62982379E+02</totfact>
</mgrwt>
</event>
<event>
 6    1  0.9263730E-006  0.2637423E+03  0.7546771E-02  0.1106993E+00
          2   -1    0    0  501    0  0.00000000000E+00  0.00000000000E+00  0.53719610741E+03  0.53719610741E+03  0.00000000000E+00 0. -1.
         -2   -1    0    0    0  501 -0.00000000000E+00 -0.00000000000E+00 -0.12973023288E+03  0.12973023288E+03  0.00000000000E+00 0.  1.
          5    1    1    2  502    0 -0.19201015609E+03  0.20848845289E+02  0.23637796385E+03  0.30528545033E+03  0.47000000000E+01 0.  1.
         -5    1    1    2    0  502 -0.37591028163E+02 -0.55760588853E+02  0.49251796582E+02  0.83487472918E+02  0.47000000000E+01 0.  1.
        -11    1    1    2    0    0  0.77482845916E+02  0.49896052302E+02  0.73373727243E+02  0.11780030261E+03  0.00000000000E+00 0. -1.
         11    1    1    2    0    0  0.15211833833E+03 -0.14984308738E+02  0.48462386854E+02  0.16035311442E+03  0.00000000000E+00 0.  1.
<mgrwt>
<rscale>  0 0.26025067E+03</rscale>
<asrwt>0</asrwt>
<pdfrwt beam="1">  1        2 0.82645554E-01 0.26374235E+03</pdfrwt>
<pdfrwt beam="2">  1       -2 0.19958498E-01 0.26374235E+03</pdfrwt>
<totfact> 0.12107994E+03</totfact>
</mgrwt>
</event>
<event>
 6    1  0.9263730E-006  0.2655342E+03  0.7546771E-02  0.1103863E+00
          1   -1    0    0  501    0  0.00000000000E+00  0.00000000000E+00  0.24277427918E+03  0.24277427918E+03  0.00000000000E+00 0. -1.
         -1   -1    0    0    0  501 -0.00000000000E+00 -0.00000000000E+00 -0.72606959556E+02  0.72606959556E+02  0.00000000000E+00 0.  1.
          5    1    1    2  502    0  0.47599592793E+01  0.34931859471E+02  0.12346560255E+02  0.37648633024E+02  0.47000000000E+01 0. -1.
         -5    1    1    2    0  502 -0.38530228938E+02 -0.93050007746E+02  0.11580313210E+03  0.15354262564E+03  0.47000000000E+01 0. -1.
        -11    1    1    2    0    0  0.36544063014E+02  0.21796436411E+02  0.67459118983E+02  0.79757669949E+02  0.00000000000E+00 0. -1.
         11    1    1    2    0    0 -0.27737933562E+01  0.36321711864E+02 -0.25441491715E+02  0.44432310125E+02  0.00000000000E+00 0.  1.
<mgrwt>
<rscale>  0 0.26553420E+03</rscale>
<asrwt>0</asrwt>
<pdfrwt beam="1">  1        1 0.37349889E-01 0.26553420E+03</pdfrwt>
<pdfrwt beam="2">  1       -1 0.11170302E-01 0.26553420E+03</pdfrwt>
<totfact> 0.58241949E+03</totfact>
</mgrwt>
</event>
<event>
 6    1  0.9263730E-006  0.1155121E+03  0.7546771E-02  0.1259199E+00
         -1   -1    0    0    0  501 -0.00000000000E+00  0.00000000000E+00  0.87804046665E+02  0.87804046665E+02  0.00000000000E+00 0.  1.
          1   -1    0    0  501    0  0.00000000000E+00 -0.00000000000E+00 -0.13521676772E+03  0.13521676772E+03  0.00000000000E+00 0. -1.
          5    1    1    2  502    0  0.36202123468E+02  0.46332387562E+02 -0.59437428770E+02  0.83738771304E+02  0.47000000000E+01 0. -1.
         -5    1    1    2    0  502 -0.20054204089E+01 -0.39997024341E+02  0.10570392856E+02  0.41684611936E+02  0.47000000000E+01 0.  1.
        -11    1    1    2    0    0  0.19626515957E+01 -0.43268000585E+02  0.11787686126E+02  0.44887876093E+02  0.00000000000E+00 0.  1.
         11    1    1    2    0    0 -0.36159354655E+02  0.36932637363E+02 -0.10333371265E+02  0.52709555048E+02  0.00000000000E+00 0. -1.
<mgrwt>
<rscale>  0 0.11074345E+03</rscale>
<asrwt>0</asrwt>
<pdfrwt beam="2">  1        1 0.20802580E-01 0.11551207E+03</pdfrwt>
<pdfrwt beam="1">  1       -1 0.13508315E-01 0.11551207E+03</pdfrwt>
<totfact> 0.85852358E+03</totfact>
</mgrwt>
</event>
<event>
 6    1  0.9263730E-006  0.1620021E+03  0.7546771E-02  0.1194041E+00
         -3   -1    0    0    0  501 -0.00000000000E+00  0.00000000000E+00  0.30725845362E+03  0.30725845362E+03  0.00000000000E+00 0.  1.
          3   -1    0    0  501    0  0.00000000000E+00 -0.00000000000E+00 -0.10218833797E+03  0.10218833797E+03  0.00000000000E+00 0. -1.
          5    1    1    2  502    0  0.11384606104E+03  0.35762356998E+02  0.23307379246E+02  0.12167660301E+03  0.47000000000E+01 0.  1.
         -5    1    1    2    0  502 -0.10951906434E+02 -0.29910130276E+02 -0.24284433271E+02  0.40328449598E+02  0.47000000000E+01 0.  1.
        -11    1    1    2    0    0 -0.96964438433E+02 -0.37010821955E+02  0.14106588288E+03  0.17513276842E+03  0.00000000000E+00 0. -1.
         11    1    1    2    0    0 -0.59297161695E+01  0.31158595233E+02  0.64981286798E+02  0.72308970569E+02  0.00000000000E+00 0.  1.
<mgrwt>
<rscale>  0 0.15535644E+03</rscale>
<asrwt>0</asrwt>
<pdfrwt beam="2">  1        3 0.15721283E-01 0.16200211E+03</pdfrwt>
<pdfrwt beam="1">  1       -3 0.47270531E-01 0.16200211E+03</pdfrwt>
<totfact> 0.36424827E+02</totfact>
</mgrwt>
</event>
<event>
 6    1  0.9263730E-006  0.1459175E+03  0.7546771E-02  0.1220472E+00
         -1   -1    0    0    0  501 -0.00000000000E+00  0.00000000000E+00  0.29004948122E+02  0.29004948122E+02  0.00000000000E+00 0.  1.
          1   -1    0    0  501    0  0.00000000000E+00 -0.00000000000E+00 -0.64237509320E+03  0.64237509320E+03  0.00000000000E+00 0. -1.
          5    1    1    2  502    0  0.10221365814E+02  0.62915826247E+02 -0.24977689305E+03  0.25782448257E+03  0.47000000000E+01 0. -1.
         -5    1    1    2    0  502  0.42034614809E+02 -0.68150116823E+02 -0.22496263325E+03  0.23883388290E+03  0.47000000000E+01 0.  1.
        -11    1    1    2    0    0 -0.50833703854E+02  0.26320659826E+02 -0.14219868224E+03  0.15328831596E+03  0.00000000000E+00 0. -1.
         11    1    1    2    0    0 -0.14222767686E+01 -0.21086369250E+02  0.35680634512E+01  0.21433359890E+02  0.00000000000E+00 0.  1.
<mgrwt>
<rscale>  0 0.13482163E+03</rscale>
<asrwt>0</asrwt>
<pdfrwt beam="2">  1        1 0.98826945E-01 0.14591749E+03</pdfrwt>
<pdfrwt beam="1">  1       -1 0.44622994E-02 0.14591749E+03</pdfrwt>
<totfact> 0.64506768E+03</totfact>
</mgrwt>
</event>
<event>
 6    1  0.9263730E-006  0.1900026E+03  0.7546771E-02  0.1163057E+00
          1   -1    0    0  501    0  0.00000000000E+00  0.00000000000E+00  0.31884999005E+03  0.31884999005E+03  0.00000000000E+00 0. -1.
         -1   -1    0    0    0  501 -0.00000000000E+00 -0.00000000000E+00 -0.15189674554E+03  0.15189674554E+03  0.00000000000E+00 0.  1.
          5    1    1    2  502    0 -0.20260807875E+02  0.27045884042E+02  0.29538651287E+02  0.45128728092E+02  0.47000000000E+01 0. -1.
         -5    1    1    2    0  502 -0.69693081719E+02 -0.13832835758E+03  0.19165637437E+03  0.24646727164E+03  0.47000000000E+01 0. -1.
        -11    1    1    2    0    0  0.35090802250E+02  0.55128054307E+01  0.17987305701E+02  0.39815808326E+02  0.00000000000E+00 0. -1.
         11    1    1    2    0    0  0.54863087344E+02  0.10576966811E+03 -0.72229086851E+02  0.13933492754E+03  0.00000000000E+00 0.  1.
<mgrwt>
<rscale>  0 0.18499275E+03</rscale>
<asrwt>0</asrwt>
<pdfrwt beam="1">  1        1 0.49053845E-01 0.19000260E+03</pdfrwt>
<pdfrwt beam="2">  1       -1 0.23368730E-01 0.19000260E+03</pdfrwt>
<totfact> 0.12576109E+03</totfact>
</mgrwt>
</event>
<event>
 6    1  0.9263730E-006  0.1668268E+03  0.7546771E-02  0.1193194E+00
         -2   -1    0    0    0  501 -0.00000000000E+00  0.00000000000E+00  0.70876919224E+02  0.70876919224E+02  0.00000000000E+00 0.  1.
          2   -1    0    0  501    0  0.00000000000E+00 -0.00000000000E+00 -0.32050049968E+03  0.32050049968E+03  0.00000000000E+00 0. -1.
          5    1    1    2  502    0 -0.49121171901E+02  0.11940091450E+01 -0.13876692689E+03  0.14728430054E+03  0.47000000000E+01 0. -1.
         -5    1    1    2    0  502 -0.16078445045E+02  0.88002682630E+02 -0.42781436733E+02  0.99274014093E+02  0.47000000000E+01 0. -1.
        -11    1    1    2    0    0  0.43905220439E+02 -0.79626492403E+02 -0.22590808880E+02  0.93693069754E+02  0.00000000000E+00 0.  1.
         11    1    1    2    0    0  0.21294396506E+02 -0.95701993727E+01 -0.45484407951E+02  0.51126034515E+02  0.00000000000E+00 0. -1.
<mgrwt>
<rscale>  0 0.15608114E+03</rscale>
<asrwt>0</asrwt>
<pdfrwt beam="2">  1        2 0.49307769E-01 0.16682684E+03</pdfrwt>
<pdfrwt beam="1">  1       -2 0.10904141E-01 0.16682684E+03</pdfrwt>
<totfact> 0.56901988E+03</totfact>
</mgrwt>
</event>
<event>
 6    1  0.9263730E-006  0.1453557E+03  0.7546771E-02  0.1235001E+00
          2   -1    0    0  501    0  0.00000000000E+00  0.00000000000E+00  0.31476804102E+03  0.31476804102E+03  0.00000000000E+00 0. -1.
         -2   -1    0    0    0  501 -0.00000000000E+00 -0.00000000000E+00 -0.43658700291E+02  0.43658700291E+02  0.00000000000E+00 0.  1.
          5    1    1    2  502    0  0.47475913263E+02 -0.51012896137E+02  0.39549403576E+02  0.80265330222E+02  0.47000000000E+01 0. -1.
         -5    1    1    2    0  502  0.21541465400E+02  0.23806896382E+02  0.18093211032E+03  0.18381871938E+03  0.47000000000E+01 0. -1.
        -11    1    1    2    0    0 -0.45637388411E+02  0.30213925350E+02  0.42879715076E+02  0.69529292180E+02  0.00000000000E+00 0. -1.
         11    1    1    2    0    0 -0.23379990252E+02 -0.30079255944E+01  0.77481117527E+01  0.24813399532E+02  0.00000000000E+00 0.  1.
<mgrwt>
<rscale>  0 0.12504396E+03</rscale>
<asrwt>0</asrwt>
<pdfrwt beam="1">  1        2 0.48425851E-01 0.14535573E+03</pdfrwt>
<pdfrwt beam="2">  1       -2 0.67167233E-02 0.14535573E+03</pdfrwt>
<totfact> 0.12228401E+04</totfact>
</mgrwt>
</event>
<event>
 6    1  0.9263730E-006  0.1277217E+03  0.7546771E-02  0.1245706E+00
          1   -1    0    0  501    0  0.00000000000E+00  0.00000000000E+00  0.75629268760E+03  0.75629268760E+03  0.00000000000E+00 0. -1.
         -1   -1    0    0    0  501 -0.00000000000E+00 -0.00000000000E+00 -0.16377039634E+02  0.16377039634E+02  0.00000000000E+00 0.  1.
          5    1    1    2  502    0  0.46680969297E+02 -0.10059236832E+02  0.26006092602E+03  0.26445051783E+03  0.47000000000E+01 0. -1.
         -5    1    1    2    0  502 -0.58950418193E+02  0.33225916176E+02  0.14122124597E+03  0.15666730235E+03  0.47000000000E+01 0. -1.
        -11    1    1    2    0    0  0.44467625010E+02  0.12556954586E+02  0.17501423768E+03  0.18101113273E+03  0.00000000000E+00 0. -1.
         11    1    1    2    0    0 -0.32198176113E+02 -0.35723633930E+02  0.16361923830E+03  0.17054077433E+03  0.00000000000E+00 0.  1.
<mgrwt>
<rscale>  0 0.11843239E+03</rscale>
<asrwt>0</asrwt>
<pdfrwt beam="1">  1        1 0.11635269E+00 0.12772172E+03</pdfrwt>
<pdfrwt beam="2">  1       -1 0.25195451E-02 0.12772172E+03</pdfrwt>
<totfact> 0.11681839E+04</totfact>
</mgrwt>
</event>
<event>
 6    1  0.9263730E-006  0.4049242E+03  0.7546771E-02  0.1042088E+00
          2   -1    0    0  501    0  0.00000000000E+00  0.00000000000E+00  0.38271426945E+03  0.38271426945E+03  0.00000000000E+00 0. -1.
         -2   -1    0    0    0  501 -0.00000000000E+00 -0.00000000000E+00 -0.10710576773E+03  0.10710576773E+03  0.00000000000E+00 0.  1.
          5    1    1    2  502    0 -0.25384565534E+02 -0.14076972136E+01  0.31842614953E+02  0.41017068470E+02  0.47000000000E+01 0.  1.
         -5    1    1    2    0  502  0.13174243184E+03 -0.11799956098E+03  0.18344743014E+03  0.25486273632E+03  0.47000000000E+01 0.  1.
        -11    1    1    2    0    0 -0.68411845285E+02  0.26829577636E+02  0.58407625032E+02  0.93869363870E+02  0.00000000000E+00 0. -1.
         11    1    1    2    0    0 -0.37946021021E+02  0.92577680557E+02  0.19108316011E+01  0.10007086852E+03  0.00000000000E+00 0.  1.
<mgrwt>
<rscale>  0 0.40492422E+03</rscale>
<asrwt>0</asrwt>
<pdfrwt beam="1">  1        2 0.58879118E-01 0.40492422E+03</pdfrwt>
<pdfrwt beam="2">  1       -2 0.16477811E-01 0.40492422E+03</pdfrwt>
<totfact> 0.24663508E+03</totfact>
</mgrwt>
</event>
<event>
 6    1  0.9263730E-006  0.1686065E+03  0.7546771E-02  0.1184551E+00
         -2   -1    0    0    0  501 -0.00000000000E+00  0.00000000000E+00  0.17951169800E+02  0.17951169800E+02  0.00000000000E+00 0.  1.
          2   -1    0    0  501    0  0.00000000000E+00 -0.00000000000E+00 -0.15087365180E+04  0.15087365180E+04  0.00000000000E+00 0. -1.
          5    1    1    2  502    0 -0.36594694507E+01  0.47147340824E+02 -0.59555916651E+03  0.59745215230E+03  0.47000000000E+01 0.  1.
         -5    1    1    2    0  502  0.97309734594E+02  0.16042116390E+02 -0.38274714398E+03  0.39527711820E+03  0.47000000000E+01 0.  1.
        -11    1    1    2    0    0  0.19884139716E+02 -0.20658606526E+02 -0.95580820969E+02  0.99789029321E+02  0.00000000000E+00 0.  1.
         11    1    1    2    0    0 -0.11353440486E+03 -0.42530850687E+02 -0.41689821674E+03  0.43416938799E+03  0.00000000000E+00 0. -1.
<mgrwt>
<rscale>  0 0.16372790E+03</rscale>
<asrwt>0</asrwt>
<pdfrwt beam="2">  1        2 0.23211331E+00 0.16860655E+03</pdfrwt>
<pdfrwt beam="1">  1       -2 0.27617184E-02 0.16860655E+03</pdfrwt>
<totfact> 0.63937511E+03</totfact>
</mgrwt>
</event>
<event>
 6    1  0.9263730E-006  0.1278872E+03  0.7546771E-02  0.1247117E+00
          1   -1    0    0  501    0  0.00000000000E+00  0.00000000000E+00  0.37495089704E+02  0.37495089704E+02  0.00000000000E+00 0. -1.
         -1   -1    0    0    0  501 -0.00000000000E+00 -0.00000000000E+00 -0.49841825736E+03  0.49841825736E+03  0.00000000000E+00 0.  1.
          5    1    1    2  502    0  0.43073934724E+02  0.10160000210E+02  0.15221241283E+02  0.47035791085E+02  0.47000000000E+01 0. -1.
         -5    1    1    2    0  502 -0.16568400554E+02 -0.51784189866E+01 -0.11176077529E+03  0.11319844882E+03  0.47000000000E+01 0. -1.
        -11    1    1    2    0    0  0.31939669834E+02  0.42004537824E+01 -0.13462168919E+03  0.13842248922E+03  0.00000000000E+00 0.  1.
         11    1    1    2    0    0 -0.58445204004E+02 -0.91820350057E+01 -0.22976194445E+03  0.23725661794E+03  0.00000000000E+00 0. -1.
<mgrwt>
<rscale>  0 0.11759582E+03</rscale>
<asrwt>0</asrwt>
<pdfrwt beam="1">  1        1 0.57684752E-02 0.12788718E+03</pdfrwt>
<pdfrwt beam="2">  1       -1 0.76679734E-01 0.12788718E+03</pdfrwt>
<totfact> 0.23464361E+03</totfact>
</mgrwt>
</event>
<event>
 6    1  0.9263730E-006  0.1600649E+03  0.7546771E-02  0.1200063E+00
          1   -1    0    0  501    0  0.00000000000E+00  0.00000000000E+00  0.31314148148E+03  0.31314148148E+03  0.00000000000E+00 0. -1.
         -1   -1    0    0    0  501 -0.00000000000E+00 -0.00000000000E+00 -0.10496714517E+03  0.10496714517E+03  0.00000000000E+00 0.  1.
          5    1    1    2  502    0  0.30675044491E+02  0.87083560731E+01  0.13034954196E+03  0.13427541439E+03  0.47000000000E+01 0. -1.
         -5    1    1    2    0  502 -0.10366556596E+03  0.32002293915E+02  0.11064485838E+03  0.15503248391E+03  0.47000000000E+01 0.  1.
        -11    1    1    2    0    0  0.93995181310E+02 -0.42363983261E+02 -0.23410119125E+02  0.10572528016E+03  0.00000000000E+00 0.  1.
         11    1    1    2    0    0 -0.21004659838E+02  0.16533332729E+01 -0.94099449025E+01  0.23075448184E+02  0.00000000000E+00 0. -1.
<mgrwt>
<rscale>  0 0.15033397E+03</rscale>
<asrwt>0</asrwt>
<pdfrwt beam="1">  1        1 0.48175612E-01 0.16006486E+03</pdfrwt>
<pdfrwt beam="2">  1       -1 0.16148792E-01 0.16006486E+03</pdfrwt>
<totfact> 0.23237024E+03</totfact>
</mgrwt>
</event>
<event>
 6    1  0.9263730E-006  0.1353013E+03  0.7546771E-02  0.1232764E+00
          4   -1    0    0  501    0  0.00000000000E+00  0.00000000000E+00  0.11786924767E+04  0.11786924767E+04  0.00000000000E+00 0. -1.
         -4   -1    0    0    0  501 -0.00000000000E+00 -0.00000000000E+00 -0.16014926813E+02  0.16014926813E+02  0.00000000000E+00 0.  1.
          5    1    1    2  502    0  0.27485863022E+01  0.37457832111E+02  0.13235545717E+03  0.13766154494E+03  0.47000000000E+01 0.  1.
         -5    1    1    2    0  502 -0.38365696425E+02 -0.75151880295E+02  0.80182670689E+03  0.80626787710E+03  0.47000000000E+01 0.  1.
        -11    1    1    2    0    0 -0.23831241172E+02  0.28376056318E+02  0.13160522110E+03  0.13672257622E+03  0.00000000000E+00 0.  1.
         11    1    1    2    0    0  0.59448351294E+02  0.93179918659E+01  0.96890164732E+02  0.11405540525E+03  0.00000000000E+00 0. -1.
<mgrwt>
<rscale>  0 0.12648676E+03</rscale>
<asrwt>0</asrwt>
<pdfrwt beam="1">  1        4 0.18133724E+00 0.13530129E+03</pdfrwt>
<pdfrwt beam="2">  1       -4 0.24638358E-02 0.13530129E+03</pdfrwt>
<totfact> 0.23653654E+02</totfact>
</mgrwt>
</event>
<event>
 6    1  0.9263730E-006  0.1258878E+03  0.7546771E-02  0.1246792E+00
         -1   -1    0    0    0  501 -0.00000000000E+00  0.00000000000E+00  0.43845583411E+02  0.43845583411E+02  0.00000000000E+00 0.  1.
          1   -1    0    0  501    0  0.00000000000E+00 -0.00000000000E+00 -0.30407352308E+03  0.30407352308E+03  0.00000000000E+00 0. -1.
          5    1    1    2  502    0  0.29592942315E+02 -0.48913296797E+02 -0.35984857430E+02  0.67714494775E+02  0.47000000000E+01 0. -1.
         -5    1    1    2    0  502 -0.22918490316E+02  0.35924126936E+02 -0.15662442208E+03  0.16238565111E+03  0.47000000000E+01 0. -1.
        -11    1    1    2    0    0 -0.40607217628E+02 -0.33689117956E+01 -0.68989728647E+02  0.80124143359E+02  0.00000000000E+00 0. -1.
         11    1    1    2    0    0  0.33932765628E+02  0.16358081657E+02  0.13710684866E+01  0.37694817250E+02  0.00000000000E+00 0.  1.
<mgrwt>
<rscale>  0 0.11778793E+03</rscale>
<asrwt>0</asrwt>
<pdfrwt beam="2">  1        1 0.46780541E-01 0.12588782E+03</pdfrwt>
<pdfrwt beam="1">  1       -1 0.67454745E-02 0.12588782E+03</pdfrwt>
<totfact> 0.90748124E+03</totfact>
</mgrwt>
</event>
<event>
 6    1  0.9263730E-006  0.2598241E+03  0.7546771E-02  0.1107249E+00
         -2   -1    0    0    0  501 -0.00000000000E+00  0.00000000000E+00  0.26870931836E+02  0.26870931836E+02  0.00000000000E+00 0.  1.
          2   -1    0    0  501    0  0.00000000000E+00 -0.00000000000E+00 -0.62808174027E+03  0.62808174027E+03  0.00000000000E+00 0. -1.
          5    1    1    2  502    0  0.15945311284E+02 -0.32050657226E+02 -0.15996693177E+03  0.16399087426E+03  0.47000000000E+01 0.  1.
         -5    1    1    2    0  502 -0.78490144193E+02  0.65296791195E+02 -0.23353912022E+03  0.25492544861E+03  0.47000000000E+01 0.  1.
        -11    1    1    2    0    0  0.38059018678E+01 -0.50439571365E+02 -0.84930236586E+02  0.98852315780E+02  0.00000000000E+00 0.  1.
         11    1    1    2    0    0  0.58738931041E+02  0.17193437396E+02 -0.12277451986E+03  0.13718403346E+03  0.00000000000E+00 0. -1.
<mgrwt>
<rscale>  0 0.25982411E+03</rscale>
<asrwt>0</asrwt>
<pdfrwt beam="2">  1        2 0.96627949E-01 0.25982411E+03</pdfrwt>
<pdfrwt beam="1">  1       -2 0.41339900E-02 0.25982411E+03</pdfrwt>
<totfact> 0.12402280E+04</totfact>
</mgrwt>
</event>
<event>
 6    1  0.9263730E-006  0.1518655E+03  0.7546771E-02  0.1207184E+00
         -1   -1    0    0    0  501 -0.00000000000E+00  0.00000000000E+00  0.71310170939E+02  0.71310170939E+02  0.00000000000E+00 0.  1.
          1   -1    0    0  501    0  0.00000000000E+00 -0.00000000000E+00 -0.28289095463E+03  0.28289095463E+03  0.00000000000E+00 0. -1.
          5    1    1    2  502    0 -0.39138889443E+02  0.12374903466E+02 -0.36627232518E+02  0.55214446159E+02  0.47000000000E+01 0. -1.
         -5    1    1    2    0  502  0.97701545393E+02  0.50942604345E+02 -0.11818944827E+03  0.16165264177E+03  0.47000000000E+01 0. -1.
        -11    1    1    2    0    0 -0.36615618337E+02  0.76301163984E+01  0.86260579313E+01  0.38383994814E+02  0.00000000000E+00 0.  1.
         11    1    1    2    0    0 -0.21947037612E+02 -0.70947624209E+02 -0.65390160837E+02  0.98950042826E+02  0.00000000000E+00 0. -1.
<mgrwt>
<rscale>  0 0.14466672E+03</rscale>
<asrwt>0</asrwt>
<pdfrwt beam="2">  1        1 0.43521685E-01 0.15186550E+03</pdfrwt>
<pdfrwt beam="1">  1       -1 0.10970796E-01 0.15186550E+03</pdfrwt>
<totfact> 0.48066976E+03</totfact>
</mgrwt>
</event>
<event>
 6    1  0.9263730E-006  0.1377323E+03  0.7546771E-02  0.1227047E+00
          2   -1    0    0  501    0  0.00000000000E+00  0.00000000000E+00  0.68407613787E+03  0.68407613787E+03  0.00000000000E+00 0. -1.
         -2   -1    0    0    0  501 -0.00000000000E+00 -0.00000000000E+00 -0.25837591025E+02  0.25837591025E+02  0.00000000000E+00 0.  1.
          5    1    1    2  502    0  0.57168696114E+02 -0.12675681137E+02  0.10058931322E+03  0.11648704924E+03  0.47000000000E+01 0. -1.
         -5    1    1    2    0  502 -0.11378815347E+02  0.48017625000E+02  0.38768283373E+03  0.39083914763E+03  0.47000000000E+01 0. -1.
        -11    1    1    2    0    0 -0.20094097240E+01 -0.30274955001E+02  0.15199124094E+03  0.15499015436E+03  0.00000000000E+00 0. -1.
         11    1    1    2    0    0 -0.43780471043E+02 -0.50669888624E+01  0.17975158965E+02  0.47597377666E+02  0.00000000000E+00 0.  1.
<mgrwt>
<rscale>  0 0.13027552E+03</rscale>
<asrwt>0</asrwt>
<pdfrwt beam="1">  1        2 0.10524247E+00 0.13773228E+03</pdfrwt>
<pdfrwt beam="2">  1       -2 0.39750145E-02 0.13773228E+03</pdfrwt>
<totfact> 0.11441451E+04</totfact>
</mgrwt>
</event>
<event>
 6    1  0.9263730E-006  0.1466831E+03  0.7546771E-02  0.1213987E+00
         -2   -1    0    0    0  501 -0.00000000000E+00  0.00000000000E+00  0.86567020821E+02  0.86567020821E+02  0.00000000000E+00 0.  1.
          2   -1    0    0  501    0  0.00000000000E+00 -0.00000000000E+00 -0.29612988692E+03  0.29612988692E+03  0.00000000000E+00 0. -1.
          5    1    1    2  502    0  0.33567635847E+02 -0.77224922583E+01 -0.41765809010E+02  0.54340554518E+02  0.47000000000E+01 0.  1.
         -5    1    1    2    0  502 -0.10747194801E+03  0.28433035731E+02 -0.17580145933E+03  0.20805504135E+03  0.47000000000E+01 0.  1.
        -11    1    1    2    0    0  0.93627242685E+02 -0.17825244750E+02  0.19511135675E+02  0.97285581349E+02  0.00000000000E+00 0.  1.
         11    1    1    2    0    0 -0.19722930521E+02 -0.28852987226E+01 -0.11506733436E+02  0.23015730521E+02  0.00000000000E+00 0. -1.
<mgrwt>
<rscale>  0 0.13951207E+03</rscale>
<asrwt>0</asrwt>
<pdfrwt beam="2">  1        2 0.45558443E-01 0.14668310E+03</pdfrwt>
<pdfrwt beam="1">  1       -2 0.13318004E-01 0.14668310E+03</pdfrwt>
<totfact> 0.44609342E+03</totfact>
</mgrwt>
</event>
<event>
 6    1  0.9263730E-006  0.4834606E+03  0.7546771E-02  0.1018188E+00
          3   -1    0    0  501    0  0.00000000000E+00  0.00000000000E+00  0.24772419745E+03  0.24772419745E+03  0.00000000000E+00 0. -1.
         -3   -1    0    0    0  501 -0.00000000000E+00 -0.00000000000E+00 -0.23588139211E+03  0.23588139211E+03  0.00000000000E+00 0.  1.
          5    1    1    2  502    0  0.16230785601E+03 -0.43401521321E+02  0.15758506609E+03  0.23039677782E+03  0.47000000000E+01 0.  1.
         -5    1    1    2    0  502 -0.13319688442E+02 -0.15496639905E+02 -0.74528047786E+01  0.22252960424E+02  0.47000000000E+01 0.  1.
        -11    1    1    2    0    0 -0.90594349803E+02  0.58969680437E+02 -0.13433845483E+03  0.17242847756E+03  0.00000000000E+00 0.  1.
         11    1    1    2    0    0 -0.58393817766E+02 -0.71519210748E-01 -0.39510011424E+01  0.58527373752E+02  0.00000000000E+00 0. -1.
<mgrwt>
<rscale>  0 0.48346056E+03</rscale>
<asrwt>0</asrwt>
<pdfrwt beam="1">  1        3 0.38111415E-01 0.48346056E+03</pdfrwt>
<pdfrwt beam="2">  1       -3 0.36289445E-01 0.48346056E+03</pdfrwt>
<totfact> 0.13363943E+02</totfact>
</mgrwt>
</event>
<event>
 6    1  0.9263730E-006  0.1386365E+03  0.7546771E-02  0.1226587E+00
          1   -1    0    0  501    0  0.00000000000E+00  0.00000000000E+00  0.95137410870E+02  0.95137410870E+02  0.00000000000E+00 0. -1.
         -1   -1    0    0    0  501 -0.00000000000E+00 -0.00000000000E+00 -0.17703455095E+03  0.17703455095E+03  0.00000000000E+00 0.  1.
          5    1    1    2  502    0 -0.66075519087E+02  0.42364266314E+02 -0.55810094556E+01  0.78828566836E+02  0.47000000000E+01 0.  1.
         -5    1    1    2    0  502  0.85145338642E+01 -0.59105481033E+02  0.46927253245E+00  0.59902131780E+02  0.47000000000E+01 0.  1.
        -11    1    1    2    0    0  0.36280072163E+02  0.47083637495E+02 -0.14854475105E+02  0.61268001327E+02  0.00000000000E+00 0. -1.
         11    1    1    2    0    0  0.21280913060E+02 -0.30342422777E+02 -0.61930928054E+02  0.72173261879E+02  0.00000000000E+00 0.  1.
<mgrwt>
<rscale>  0 0.13058694E+03</rscale>
<asrwt>0</asrwt>
<pdfrwt beam="1">  1        1 0.14636525E-01 0.13863649E+03</pdfrwt>
<pdfrwt beam="2">  1       -1 0.27236085E-01 0.13863649E+03</pdfrwt>
<totfact> 0.44435678E+03</totfact>
</mgrwt>
</event>
<event>
 6    1  0.9263730E-006  0.1351098E+03  0.7546771E-02  0.1235032E+00
         -2   -1    0    0    0  501 -0.00000000000E+00  0.00000000000E+00  0.34571438348E+02  0.34571438348E+02  0.00000000000E+00 0.  1.
          2   -1    0    0  501    0  0.00000000000E+00 -0.00000000000E+00 -0.48360481263E+03  0.48360481263E+03  0.00000000000E+00 0. -1.
          5    1    1    2  502    0 -0.37186547320E+02 -0.17497976893E+02 -0.34263850114E+02  0.53713312331E+02  0.47000000000E+01 0.  1.
         -5    1    1    2    0  502  0.43163288273E+01  0.56855649333E+02 -0.32744767085E+03  0.33240827712E+03  0.47000000000E+01 0.  1.
        -11    1    1    2    0    0  0.18236542553E+02 -0.16112487043E+02  0.13313074238E+02  0.27738451086E+02  0.00000000000E+00 0.  1.
         11    1    1    2    0    0  0.14633675940E+02 -0.23245185397E+02 -0.10063492756E+03  0.10431621044E+03  0.00000000000E+00 0. -1.
<mgrwt>
<rscale>  0 0.12502365E+03</rscale>
<asrwt>0</asrwt>
<pdfrwt beam="2">  1        2 0.74400735E-01 0.13510980E+03</pdfrwt>
<pdfrwt beam="1">  1       -2 0.53186832E-02 0.13510980E+03</pdfrwt>
<totfact> 0.10938678E+04</totfact>
</mgrwt>
</event>
<event>
 6    1  0.9263730E-006  0.1325657E+03  0.7546771E-02  0.1236914E+00
          4   -1    0    0  501    0  0.00000000000E+00  0.00000000000E+00  0.16633393403E+03  0.16633393403E+03  0.00000000000E+00 0. -1.
         -4   -1    0    0    0  501 -0.00000000000E+00 -0.00000000000E+00 -0.82462809326E+02  0.82462809326E+02  0.00000000000E+00 0.  1.
          5    1    1    2  502    0 -0.69836289244E+01 -0.34241782478E+02 -0.13608588099E+02  0.37796222169E+02  0.47000000000E+01 0.  1.
         -5    1    1    2    0  502  0.17032852604E+02  0.77590022830E+02  0.71049087115E+02  0.10667892243E+03  0.47000000000E+01 0.  1.
        -11    1    1    2    0    0  0.20337625471E+02  0.10810307247E+02 -0.16926417301E+02  0.28582955676E+02  0.00000000000E+00 0.  1.
         11    1    1    2    0    0 -0.30386849151E+02 -0.54158547598E+02  0.43357042991E+02  0.75738643084E+02  0.00000000000E+00 0. -1.
<mgrwt>
<rscale>  0 0.12382699E+03</rscale>
<asrwt>0</asrwt>
<pdfrwt beam="1">  1        4 0.25589836E-01 0.13256567E+03</pdfrwt>
<pdfrwt beam="2">  1       -4 0.12686586E-01 0.13256567E+03</pdfrwt>
<totfact> 0.11881895E+03</totfact>
</mgrwt>
</event>
<event>
 6    1  0.9263730E-006  0.1299562E+03  0.7546771E-02  0.1241968E+00
          1   -1    0    0  501    0  0.00000000000E+00  0.00000000000E+00  0.47713956525E+02  0.47713956525E+02  0.00000000000E+00 0. -1.
         -1   -1    0    0    0  501 -0.00000000000E+00 -0.00000000000E+00 -0.28933256457E+03  0.28933256457E+03  0.00000000000E+00 0.  1.
          5    1    1    2  502    0 -0.55950922222E+02 -0.31655414881E+02 -0.44133386485E+02  0.78117967149E+02  0.47000000000E+01 0. -1.
         -5    1    1    2    0  502  0.31340131940E+02  0.57271653657E+02 -0.49043795357E+02  0.81790158611E+02  0.47000000000E+01 0. -1.
        -11    1    1    2    0    0  0.55368145137E+02 -0.27619474947E+01 -0.10817698274E+03  0.12155459450E+03  0.00000000000E+00 0.  1.
         11    1    1    2    0    0 -0.30757354854E+02 -0.22854291281E+02 -0.40264443465E+02  0.55583800834E+02  0.00000000000E+00 0. -1.
<mgrwt>
<rscale>  0 0.12068673E+03</rscale>
<asrwt>0</asrwt>
<pdfrwt beam="1">  1        1 0.73406087E-02 0.12995623E+03</pdfrwt>
<pdfrwt beam="2">  1       -1 0.44512702E-01 0.12995623E+03</pdfrwt>
<totfact> 0.47414203E+03</totfact>
</mgrwt>
</event>
<event>
 6    1  0.9263730E-006  0.1327830E+03  0.7546771E-02  0.1236090E+00
          1   -1    0    0  501    0  0.00000000000E+00  0.00000000000E+00  0.83741836152E+02  0.83741836152E+02  0.00000000000E+00 0. -1.
         -1   -1    0    0    0  501 -0.00000000000E+00 -0.00000000000E+00 -0.17241229168E+03  0.17241229168E+03  0.00000000000E+00 0.  1.
          5    1    1    2  502    0 -0.48607363607E+01  0.59712494906E+02  0.23573999370E+02  0.64552554187E+02  0.47000000000E+01 0.  1.
         -5    1    1    2    0  502  0.40725973009E+02 -0.32779729782E+02 -0.46643044580E+02  0.70219507047E+02  0.47000000000E+01 0.  1.
        -11    1    1    2    0    0 -0.33822991802E+02 -0.40458892920E+02 -0.83558811166E+02  0.98807852492E+02  0.00000000000E+00 0. -1.
         11    1    1    2    0    0 -0.20422448468E+01  0.13526127796E+02  0.17957400849E+02  0.22574214105E+02  0.00000000000E+00 0.  1.
<mgrwt>
<rscale>  0 0.12434913E+03</rscale>
<asrwt>0</asrwt>
<pdfrwt beam="1">  1        1 0.12883360E-01 0.13278301E+03</pdfrwt>
<pdfrwt beam="2">  1       -1 0.26524968E-01 0.13278301E+03</pdfrwt>
<totfact> 0.54663861E+03</totfact>
</mgrwt>
</event>
<event>
 6    1  0.9263730E-006  0.1644102E+03  0.7546771E-02  0.1190736E+00
         -2   -1    0    0    0  501 -0.00000000000E+00  0.00000000000E+00  0.31674556140E+02  0.31674556140E+02  0.00000000000E+00 0.  1.
          2   -1    0    0  501    0  0.00000000000E+00 -0.00000000000E+00 -0.81376780679E+03  0.81376780679E+03  0.00000000000E+00 0. -1.
          5    1    1    2  502    0  0.12110905319E+02 -0.60063220407E+02 -0.13497314342E+03  0.14830409272E+03  0.47000000000E+01 0. -1.
         -5    1    1    2    0  502 -0.94599948581E+02 -0.77771611261E+01 -0.41351804294E+03  0.42429812201E+03  0.47000000000E+01 0. -1.
        -11    1    1    2    0    0  0.33639110867E+02  0.55685779635E+02 -0.20470913852E+03  0.21479834084E+03  0.00000000000E+00 0. -1.
         11    1    1    2    0    0  0.48849932396E+02  0.12154601898E+02 -0.28892925781E+02  0.58041807368E+02  0.00000000000E+00 0.  1.
<mgrwt>
<rscale>  0 0.15820721E+03</rscale>
<asrwt>0</asrwt>
<pdfrwt beam="2">  1        2 0.12519505E+00 0.16441020E+03</pdfrwt>
<pdfrwt beam="1">  1       -2 0.48730087E-02 0.16441020E+03</pdfrwt>
<totfact> 0.68959144E+03</totfact>
</mgrwt>
</event>
<event>
 6    1  0.9263730E-006  0.1460963E+03  0.7546771E-02  0.1212520E+00
          2   -1    0    0  501    0  0.00000000000E+00  0.00000000000E+00  0.54023929121E+03  0.54023929121E+03  0.00000000000E+00 0. -1.
         -2   -1    0    0    0  501 -0.00000000000E+00 -0.00000000000E+00 -0.65314669289E+02  0.65314669289E+02  0.00000000000E+00 0.  1.
          5    1    1    2  502    0  0.85270187652E+02  0.19518909977E+02  0.42803424216E+03  0.43690662070E+03  0.47000000000E+01 0. -1.
         -5    1    1    2    0  502  0.17327320732E+00 -0.30864402422E+02  0.27927013875E+02  0.41888536194E+02  0.47000000000E+01 0.  1.
        -11    1    1    2    0    0 -0.61854811334E+01 -0.17080715618E+02  0.36481592070E+02  0.40754356611E+02  0.00000000000E+00 0. -1.
         11    1    1    2    0    0 -0.79257979726E+02  0.28426208063E+02 -0.17518226180E+02  0.86004446999E+02  0.00000000000E+00 0.  1.
<mgrwt>
<rscale>  0 0.14060320E+03</rscale>
<asrwt>0</asrwt>
<pdfrwt beam="1">  1        2 0.83113734E-01 0.14609632E+03</pdfrwt>
<pdfrwt beam="2">  1       -2 0.10048411E-01 0.14609632E+03</pdfrwt>
<totfact> 0.36556132E+03</totfact>
</mgrwt>
</event>
<event>
 6    1  0.9263730E-006  0.1297933E+03  0.7546771E-02  0.1241683E+00
          2   -1    0    0  501    0  0.00000000000E+00  0.00000000000E+00  0.22772903575E+03  0.22772903575E+03  0.00000000000E+00 0. -1.
         -2   -1    0    0    0  501 -0.00000000000E+00 -0.00000000000E+00 -0.56761038746E+02  0.56761038746E+02  0.00000000000E+00 0.  1.
          5    1    1    2  502    0 -0.41969942155E+02  0.58421979153E+01  0.67157099564E+02  0.79547302549E+02  0.47000000000E+01 0.  1.
         -5    1    1    2    0  502  0.76627271772E+02 -0.14301271425E+01  0.29390811696E+02  0.82217357383E+02  0.47000000000E+01 0.  1.
        -11    1    1    2    0    0  0.29148787043E+02  0.79318792872E+01  0.36880861574E+02  0.47673519332E+02  0.00000000000E+00 0.  1.
         11    1    1    2    0    0 -0.63806116659E+02 -0.12343950060E+02  0.37539224165E+02  0.75051895227E+02  0.00000000000E+00 0. -1.
<mgrwt>
<rscale>  0 0.12086123E+03</rscale>
<asrwt>0</asrwt>
<pdfrwt beam="1">  1        2 0.35035236E-01 0.12979332E+03</pdfrwt>
<pdfrwt beam="2">  1       -2 0.87324676E-02 0.12979332E+03</pdfrwt>
<totfact> 0.11413332E+04</totfact>
</mgrwt>
</event>
<event>
 6    1  0.9263730E-006  0.1868973E+03  0.7546771E-02  0.1167064E+00
          2   -1    0    0  501    0  0.00000000000E+00  0.00000000000E+00  0.58930212796E+02  0.58930212796E+02  0.00000000000E+00 0. -1.
         -2   -1    0    0    0  501 -0.00000000000E+00 -0.00000000000E+00 -0.57665463273E+03  0.57665463273E+03  0.00000000000E+00 0.  1.
          5    1    1    2  502    0  0.14610059252E+03  0.18305883393E+01 -0.12215757095E+03  0.19050799544E+03  0.47000000000E+01 0.  1.
         -5    1    1    2    0  502 -0.11546535892E+02 -0.36485485258E+02 -0.53770857096E+02  0.66165763039E+02  0.47000000000E+01 0.  1.
        -11    1    1    2    0    0 -0.93664980093E+02  0.61659230426E+02 -0.26580080174E+03  0.28848753075E+03  0.00000000000E+00 0.  1.
         11    1    1    2    0    0 -0.40889076530E+02 -0.27004333508E+02 -0.75995190147E+02  0.90423556296E+02  0.00000000000E+00 0. -1.
<mgrwt>
<rscale>  0 0.18076568E+03</rscale>
<asrwt>0</asrwt>
<pdfrwt beam="1">  1        2 0.90661863E-02 0.18689732E+03</pdfrwt>
<pdfrwt beam="2">  1       -2 0.88716100E-01 0.18689732E+03</pdfrwt>
<totfact> 0.80997752E+02</totfact>
</mgrwt>
</event>
<event>
 6    1  0.9263730E-006  0.1859390E+03  0.7546771E-02  0.1167372E+00
          2   -1    0    0  501    0  0.00000000000E+00  0.00000000000E+00  0.69410747120E+02  0.69410747120E+02  0.00000000000E+00 0. -1.
         -2   -1    0    0    0  501 -0.00000000000E+00 -0.00000000000E+00 -0.74602855269E+03  0.74602855269E+03  0.00000000000E+00 0.  1.
          5    1    1    2  502    0  0.62282965485E+02  0.20331075013E+01  0.18983265383E+02  0.65312752815E+02  0.47000000000E+01 0.  1.
         -5    1    1    2    0  502  0.54681714714E+02  0.70538933543E+02 -0.10992747408E+03  0.14167558232E+03  0.47000000000E+01 0.  1.
        -11    1    1    2    0    0 -0.13158832908E+03 -0.72349014600E+02 -0.52644214604E+03  0.54744059165E+03  0.00000000000E+00 0.  1.
         11    1    1    2    0    0  0.14623648885E+02 -0.22302644466E+00 -0.59231450842E+02  0.61010373022E+02  0.00000000000E+00 0. -1.
<mgrwt>
<rscale>  0 0.18044592E+03</rscale>
<asrwt>0</asrwt>
<pdfrwt beam="1">  1        2 0.10678577E-01 0.18593903E+03</pdfrwt>
<pdfrwt beam="2">  1       -2 0.11477362E+00 0.18593903E+03</pdfrwt>
<totfact> 0.36374877E+02</totfact>
</mgrwt>
</event>
<event>
 6    1  0.9263730E-006  0.1422735E+03  0.7546771E-02  0.1227619E+00
          4   -1    0    0  501    0  0.00000000000E+00  0.00000000000E+00  0.19807244684E+03  0.19807244684E+03  0.00000000000E+00 0. -1.
         -4   -1    0    0    0  501 -0.00000000000E+00 -0.00000000000E+00 -0.11672395598E+03  0.11672395598E+03  0.00000000000E+00 0.  1.
          5    1    1    2  502    0 -0.61822535472E+02 -0.33623100824E+02  0.15328023741E+03  0.16872895419E+03  0.47000000000E+01 0. -1.
         -5    1    1    2    0  502 -0.58079857888E+01  0.27130962826E+02 -0.13065152167E+02  0.31025957583E+02  0.47000000000E+01 0. -1.
        -11    1    1    2    0    0  0.48021923467E+02  0.26938273549E+02 -0.65877048317E+02  0.85857796444E+02  0.00000000000E+00 0.  1.
         11    1    1    2    0    0  0.19608597793E+02 -0.20446135551E+02  0.70104539340E+01  0.29183694604E+02  0.00000000000E+00 0. -1.
<mgrwt>
<rscale>  0 0.12989003E+03</rscale>
<asrwt>0</asrwt>
<pdfrwt beam="1">  1        4 0.30472684E-01 0.14227352E+03</pdfrwt>
<pdfrwt beam="2">  1       -4 0.17957532E-01 0.14227352E+03</pdfrwt>
<totfact> 0.47335474E+02</totfact>
</mgrwt>
</event>
<event>
 6    1  0.9263730E-006  0.2819914E+03  0.7546771E-02  0.1094606E+00
         -1   -1    0    0    0  501 -0.00000000000E+00  0.00000000000E+00  0.23392084329E+02  0.23392084329E+02  0.00000000000E+00 0.  1.
          1   -1    0    0  501    0  0.00000000000E+00 -0.00000000000E+00 -0.84985124737E+03  0.84985124737E+03  0.00000000000E+00 0. -1.
          5    1    1    2  502    0 -0.11273026078E+03  0.40656506324E+01 -0.32592087619E+03  0.34492194588E+03  0.47000000000E+01 0. -1.
         -5    1    1    2    0  502  0.22065184872E+02  0.19882303235E+02 -0.43224963338E+02  0.52656109056E+02  0.47000000000E+01 0.  1.
        -11    1    1    2    0    0  0.52326553318E+02  0.26201223605E+02 -0.13359868540E+03  0.14585328601E+03  0.00000000000E+00 0.  1.
         11    1    1    2    0    0  0.38338522592E+02 -0.50149177472E+02 -0.32371463812E+03  0.32981199076E+03  0.00000000000E+00 0. -1.
<mgrwt>
<rscale>  0 0.28199143E+03</rscale>
<asrwt>0</asrwt>
<pdfrwt beam="2">  1        1 0.13074635E+00 0.28199143E+03</pdfrwt>
<pdfrwt beam="1">  1       -1 0.35987820E-02 0.28199143E+03</pdfrwt>
<totfact> 0.60278025E+03</totfact>
</mgrwt>
</event>
<event>
 6    1  0.9263730E-006  0.1281879E+03  0.7546771E-02  0.1243385E+00
          4   -1    0    0  501    0  0.00000000000E+00  0.00000000000E+00  0.36693322388E+02  0.36693322388E+02  0.00000000000E+00 0. -1.
         -4   -1    0    0    0  501 -0.00000000000E+00 -0.00000000000E+00 -0.35127346854E+03  0.35127346854E+03  0.00000000000E+00 0.  1.
          5    1    1    2  502    0 -0.47728330905E+02 -0.47857255112E+02 -0.14922689248E+03  0.16388735728E+03  0.47000000000E+01 0.  1.
         -5    1    1    2    0  502  0.30062931162E+02  0.25607994061E+02 -0.10914386577E+02  0.41240308246E+02  0.47000000000E+01 0.  1.
        -11    1    1    2    0    0  0.46462069999E+02  0.23104626802E+02 -0.41968389209E+02  0.66737496365E+02  0.00000000000E+00 0. -1.
         11    1    1    2    0    0 -0.28796670257E+02 -0.85536575103E+00 -0.11247047789E+03  0.11610162904E+03  0.00000000000E+00 0.  1.
<mgrwt>
<rscale>  0 0.11982543E+03</rscale>
<asrwt>0</asrwt>
<pdfrwt beam="1">  1        4 0.56451265E-02 0.12818787E+03</pdfrwt>
<pdfrwt beam="2">  1       -4 0.54042072E-01 0.12818787E+03</pdfrwt>
<totfact> 0.10572125E+03</totfact>
</mgrwt>
</event>
<event>
 6    1  0.9263730E-006  0.1759548E+03  0.7546771E-02  0.1177328E+00
          2   -1    0    0  501    0  0.00000000000E+00  0.00000000000E+00  0.10633917467E+03  0.10633917467E+03  0.00000000000E+00 0. -1.
         -2   -1    0    0    0  501 -0.00000000000E+00 -0.00000000000E+00 -0.25794206440E+03  0.25794206440E+03  0.00000000000E+00 0.  1.
          5    1    1    2  502    0 -0.65818553920E+02 -0.10511875375E+03 -0.51192637808E+02  0.13425651044E+03  0.47000000000E+01 0.  1.
         -5    1    1    2    0  502  0.48531592679E+02 -0.17510011523E+02 -0.23809900100E+02  0.57016816241E+02  0.47000000000E+01 0.  1.
        -11    1    1    2    0    0  0.38784655164E+02  0.11445083474E+03 -0.85831704582E+02  0.14822390010E+03  0.00000000000E+00 0.  1.
         11    1    1    2    0    0 -0.21497693922E+02  0.81779305244E+01  0.92313527579E+01  0.24784012294E+02  0.00000000000E+00 0. -1.
<mgrwt>
<rscale>  0 0.17049913E+03</rscale>
<asrwt>0</asrwt>
<pdfrwt beam="1">  1        2 0.16359873E-01 0.17595484E+03</pdfrwt>
<pdfrwt beam="2">  1       -2 0.39683394E-01 0.17595484E+03</pdfrwt>
<totfact> 0.20843260E+03</totfact>
</mgrwt>
</event>
<event>
 6    1  0.9263730E-006  0.1292709E+03  0.7546771E-02  0.1244565E+00
          1   -1    0    0  501    0  0.00000000000E+00  0.00000000000E+00  0.79424142033E+03  0.79424142033E+03  0.00000000000E+00 0. -1.
         -1   -1    0    0    0  501 -0.00000000000E+00 -0.00000000000E+00 -0.17311742847E+02  0.17311742847E+02  0.00000000000E+00 0.  1.
          5    1    1    2  502    0  0.42320501479E+02  0.29089451177E+02  0.98753696994E+02  0.11140737716E+03  0.47000000000E+01 0. -1.
         -5    1    1    2    0  502 -0.10926978131E+02 -0.39206334361E+02  0.47332704500E+03  0.47509695540E+03  0.47000000000E+01 0. -1.
        -11    1    1    2    0    0 -0.32134341076E+02  0.46450966696E+02  0.11478887162E+03  0.12793276840E+03  0.00000000000E+00 0.  1.
         11    1    1    2    0    0  0.74081772741E+00 -0.36334083512E+02  0.90060063872E+02  0.97116062215E+02  0.00000000000E+00 0. -1.
<mgrwt>
<rscale>  0 0.11911454E+03</rscale>
<asrwt>0</asrwt>
<pdfrwt beam="1">  1        1 0.12219096E+00 0.12927087E+03</pdfrwt>
<pdfrwt beam="2">  1       -1 0.26633457E-02 0.12927087E+03</pdfrwt>
<totfact> 0.10032313E+04</totfact>
</mgrwt>
</event>
<event>
 6    1  0.9263730E-006  0.3362708E+03  0.7546771E-02  0.1068395E+00
          2   -1    0    0  501    0  0.00000000000E+00  0.00000000000E+00  0.16209855541E+04  0.16209855541E+04  0.00000000000E+00 0.  1.
         -2   -1    0    0    0  501 -0.00000000000E+00 -0.00000000000E+00 -0.17439704689E+02  0.17439704689E+02  0.00000000000E+00 0. -1.
          5    1    1    2  502    0  0.87358095657E+02  0.67544199319E+02  0.58723600775E+03  0.59754654592E+03  0.47000000000E+01 0.  1.
         -5    1    1    2    0  502  0.12156417223E+02 -0.28606145284E+02  0.62538660732E+03  0.62617616423E+03  0.47000000000E+01 0.  1.
        -11    1    1    2    0    0 -0.70338637943E+02  0.15729895613E+02  0.26082679101E+03  0.27060223301E+03  0.00000000000E+00 0.  1.
         11    1    1    2    0    0 -0.29175874937E+02 -0.54667949648E+02  0.13009644328E+03  0.14410031558E+03  0.00000000000E+00 0. -1.
<mgrwt>
<rscale>  0 0.33627078E+03</rscale>
<asrwt>0</asrwt>
<pdfrwt beam="1">  1        2 0.24938227E+00 0.33627078E+03</pdfrwt>
<pdfrwt beam="2">  1       -2 0.26830328E-02 0.33627078E+03</pdfrwt>
<totfact> 0.58959129E+03</totfact>
</mgrwt>
</event>
<event>
 6    1  0.9263730E-006  0.1315577E+03  0.7546771E-02  0.1273652E+00
         -1   -1    0    0    0  501 -0.00000000000E+00  0.00000000000E+00  0.22508557428E+03  0.22508557428E+03  0.00000000000E+00 0.  1.
          1   -1    0    0  501    0  0.00000000000E+00 -0.00000000000E+00 -0.36569677393E+02  0.36569677393E+02  0.00000000000E+00 0. -1.
          5    1    1    2  502    0  0.49768769582E+01 -0.52604888916E+01 -0.22449096294E+02  0.24051901631E+02  0.47000000000E+01 0.  1.
         -5    1    1    2    0  502 -0.44853581368E+02  0.15596655265E+02  0.15714562105E+03  0.16423134790E+03  0.47000000000E+01 0.  1.
        -11    1    1    2    0    0  0.34413223876E+02  0.32891456242E+01  0.32224524041E+02  0.47260008529E+02  0.00000000000E+00 0.  1.
         11    1    1    2    0    0  0.54634805337E+01 -0.13625311997E+02  0.21594848090E+02  0.26111993616E+02  0.00000000000E+00 0. -1.
<mgrwt>
<rscale>  0 0.10322742E+03</rscale>
<asrwt>0</asrwt>
<pdfrwt beam="2">  1        1 0.56261043E-02 0.13155770E+03</pdfrwt>
<pdfrwt beam="1">  1       -1 0.34628549E-01 0.13155770E+03</pdfrwt>
<totfact> 0.10544370E+04</totfact>
</mgrwt>
</event>
<event>
 6    1  0.9263730E-006  0.1346521E+03  0.7546771E-02  0.1233136E+00
         -1   -1    0    0    0  501 -0.00000000000E+00  0.00000000000E+00  0.25017493175E+02  0.25017493175E+02  0.00000000000E+00 0. -1.
          1   -1    0    0  501    0  0.00000000000E+00 -0.00000000000E+00 -0.57083997173E+03  0.57083997173E+03  0.00000000000E+00 0.  1.
          5    1    1    2  502    0  0.17776421612E+02  0.23541174888E+02 -0.22701757384E+03  0.22897435864E+03  0.47000000000E+01 0.  1.
         -5    1    1    2    0  502 -0.91157431912E+01 -0.72869176470E+02 -0.95800364621E+02  0.12080071819E+03  0.47000000000E+01 0.  1.
        -11    1    1    2    0    0  0.30271087980E+02  0.19249750230E+02 -0.17008474659E+03  0.17382667423E+03  0.00000000000E+00 0.  1.
         11    1    1    2    0    0 -0.38931766401E+02  0.30078251352E+02 -0.52919793503E+02  0.72255713849E+02  0.00000000000E+00 0. -1.
<mgrwt>
<rscale>  0 0.12624549E+03</rscale>
<asrwt>0</asrwt>
<pdfrwt beam="2">  1        1 0.87821526E-01 0.13465208E+03</pdfrwt>
<pdfrwt beam="1">  1       -1 0.38488455E-02 0.13465208E+03</pdfrwt>
<totfact> 0.93777820E+03</totfact>
</mgrwt>
</event>
<event>
 6    1  0.9263730E-006  0.1283376E+03  0.7546771E-02  0.1244254E+00
          2   -1    0    0  501    0  0.00000000000E+00  0.00000000000E+00  0.74997040406E+03  0.74997040406E+03  0.00000000000E+00 0. -1.
         -2   -1    0    0    0  501 -0.00000000000E+00 -0.00000000000E+00 -0.19229572089E+02  0.19229572089E+02  0.00000000000E+00 0.  1.
          5    1    1    2  502    0  0.24518010572E+02  0.45229048773E+02  0.42040791936E+03  0.42357019295E+03  0.47000000000E+01 0. -1.
         -5    1    1    2    0  502  0.26388661179E+01 -0.55575760229E+02  0.12789997817E+03  0.13955688143E+03  0.47000000000E+01 0. -1.
        -11    1    1    2    0    0  0.18437744794E+02 -0.29281352099E+02  0.53889382821E+02  0.64042279743E+02  0.00000000000E+00 0.  1.
         11    1    1    2    0    0 -0.45594621484E+02  0.39628063555E+02  0.12854355162E+03  0.14203062203E+03  0.00000000000E+00 0. -1.
<mgrwt>
<rscale>  0 0.11930156E+03</rscale>
<asrwt>0</asrwt>
<pdfrwt beam="1">  1        2 0.11538004E+00 0.12833765E+03</pdfrwt>
<pdfrwt beam="2">  1       -2 0.29583963E-02 0.12833765E+03</pdfrwt>
<totfact> 0.15774456E+04</totfact>
</mgrwt>
</event>
<event>
 6    1  0.9263730E-006  0.1693746E+03  0.7546771E-02  0.1184940E+00
         -2   -1    0    0    0  501 -0.00000000000E+00  0.00000000000E+00  0.52023555521E+02  0.52023555521E+02  0.00000000000E+00 0.  1.
          2   -1    0    0  501    0  0.00000000000E+00 -0.00000000000E+00 -0.48345217074E+03  0.48345217074E+03  0.00000000000E+00 0. -1.
          5    1    1    2  502    0 -0.29508791589E+02 -0.16404827141E+01 -0.13705302765E+03  0.14028215265E+03  0.47000000000E+01 0. -1.
         -5    1    1    2    0  502  0.29163260540E+02 -0.11264560572E+03 -0.11718454624E+03  0.16520846265E+03  0.47000000000E+01 0. -1.
        -11    1    1    2    0    0 -0.17465225388E+01  0.80350454284E+02 -0.42193650668E+02  0.90771967046E+02  0.00000000000E+00 0.  1.
         11    1    1    2    0    0  0.20920535882E+01  0.33935634152E+02 -0.13499739066E+03  0.13921314392E+03  0.00000000000E+00 0. -1.
<mgrwt>
<rscale>  0 0.16337374E+03</rscale>
<asrwt>0</asrwt>
<pdfrwt beam="2">  1        2 0.74377262E-01 0.16937465E+03</pdfrwt>
<pdfrwt beam="1">  1       -2 0.80036233E-02 0.16937465E+03</pdfrwt>
<totfact> 0.59411337E+03</totfact>
</mgrwt>
</event>
<event>
 6    1  0.9263730E-006  0.1393123E+03  0.7546771E-02  0.1225672E+00
         -1   -1    0    0    0  501 -0.00000000000E+00  0.00000000000E+00  0.16346955175E+02  0.16346955175E+02  0.00000000000E+00 0.  1.
          1   -1    0    0  501    0  0.00000000000E+00 -0.00000000000E+00 -0.95117859505E+03  0.95117859505E+03  0.00000000000E+00 0. -1.
          5    1    1    2  502    0 -0.78901264274E+02 -0.15583332643E+02 -0.48231795841E+03  0.48899995170E+03  0.47000000000E+01 0.  1.
         -5    1    1    2    0  502  0.17574428618E+02  0.10927007161E+02 -0.11591583106E+02  0.24180877272E+02  0.47000000000E+01 0.  1.
        -11    1    1    2    0    0 -0.15472677435E+02 -0.18148198575E+02 -0.51315095713E+02  0.56586216577E+02  0.00000000000E+00 0. -1.
         11    1    1    2    0    0  0.76799513092E+02  0.22804524057E+02 -0.38960700264E+03  0.39775850467E+03  0.00000000000E+00 0.  1.
<mgrwt>
<rscale>  0 0.13120969E+03</rscale>
<asrwt>0</asrwt>
<pdfrwt beam="2">  1        1 0.14633512E+00 0.13931234E+03</pdfrwt>
<pdfrwt beam="1">  1       -1 0.25149170E-02 0.13931234E+03</pdfrwt>
<totfact> 0.82558706E+03</totfact>
</mgrwt>
</event>
<event>
 6    1  0.9263730E-006  0.1300429E+03  0.7546771E-02  0.1240989E+00
         -1   -1    0    0    0  501 -0.00000000000E+00  0.00000000000E+00  0.49762544311E+02  0.49762544311E+02  0.00000000000E+00 0.  1.
          1   -1    0    0  501    0  0.00000000000E+00 -0.00000000000E+00 -0.27585507738E+03  0.27585507738E+03  0.00000000000E+00 0. -1.
          5    1    1    2  502    0 -0.72859315596E+02 -0.31210855737E+02 -0.13324471389E+03  0.15510912663E+03  0.47000000000E+01 0. -1.
         -5    1    1    2    0  502  0.42779012864E+02  0.11631571356E+02 -0.30605612105E+02  0.54075233575E+02  0.47000000000E+01 0. -1.
        -11    1    1    2    0    0 -0.16349909569E+02  0.36286302289E+02 -0.52919896488E+02  0.66215789061E+02  0.00000000000E+00 0. -1.
         11    1    1    2    0    0  0.46430212301E+02 -0.16707017908E+02 -0.93223105840E+01  0.50217472421E+02  0.00000000000E+00 0.  1.
<mgrwt>
<rscale>  0 0.12128697E+03</rscale>
<asrwt>0</asrwt>
<pdfrwt beam="2">  1        1 0.42439242E-01 0.13004294E+03</pdfrwt>
<pdfrwt beam="1">  1       -1 0.76557761E-02 0.13004294E+03</pdfrwt>
<totfact> 0.84860940E+03</totfact>
</mgrwt>
</event>
<event>
 6    1  0.9263730E-006  0.3575418E+03  0.7546771E-02  0.1059561E+00
         -2   -1    0    0    0  501 -0.00000000000E+00  0.00000000000E+00  0.32339279756E+02  0.32339279756E+02  0.00000000000E+00 0.  1.
          2   -1    0    0  501    0  0.00000000000E+00 -0.00000000000E+00 -0.98824187629E+03  0.98824187629E+03  0.00000000000E+00 0. -1.
          5    1    1    2  502    0 -0.25488465974E+02 -0.11739082642E+02 -0.18486417658E+03  0.18704096273E+03  0.47000000000E+01 0.  1.
         -5    1    1    2    0  502  0.25106912751E+02  0.14605988260E+03 -0.44932147480E+03  0.47315507403E+03  0.47000000000E+01 0.  1.
        -11    1    1    2    0    0 -0.38386282559E+02 -0.54176053926E+02 -0.19115509842E+03  0.20235815566E+03  0.00000000000E+00 0. -1.
         11    1    1    2    0    0  0.38767835782E+02 -0.80144746031E+02 -0.13056184674E+03  0.15802696363E+03  0.00000000000E+00 0.  1.
<mgrwt>
<rscale>  0 0.35754178E+03</rscale>
<asrwt>0</asrwt>
<pdfrwt beam="2">  1        2 0.15203720E+00 0.35754178E+03</pdfrwt>
<pdfrwt beam="1">  1       -2 0.49752743E-02 0.35754178E+03</pdfrwt>
<totfact> 0.52901636E+03</totfact>
</mgrwt>
</event>
<event>
 6    1  0.9263730E-006  0.2977592E+03  0.7546771E-02  0.1086366E+00
         -1   -1    0    0    0  501 -0.00000000000E+00  0.00000000000E+00  0.36884530130E+02  0.36884530130E+02  0.00000000000E+00 0.  1.
          1   -1    0    0  501    0  0.00000000000E+00 -0.00000000000E+00 -0.60093301911E+03  0.60093301911E+03  0.00000000000E+00 0. -1.
          5    1    1    2  502    0  0.10771980511E+03 -0.49931839826E+02 -0.35010635223E+03  0.36972056058E+03  0.47000000000E+01 0. -1.
         -5    1    1    2    0  502 -0.21468610816E+02  0.24387820723E+02 -0.60808698829E+02  0.69104666292E+02  0.47000000000E+01 0. -1.
        -11    1    1    2    0    0 -0.30591668726E+02  0.25386900579E+02 -0.13456929307E+03  0.14031835074E+03  0.00000000000E+00 0. -1.
         11    1    1    2    0    0 -0.55659525568E+02  0.15711852401E+00 -0.18564144844E+02  0.58673971627E+02  0.00000000000E+00 0.  1.
<mgrwt>
<rscale>  0 0.29775918E+03</rscale>
<asrwt>0</asrwt>
<pdfrwt beam="2">  1        1 0.92451227E-01 0.29775918E+03</pdfrwt>
<pdfrwt beam="1">  1       -1 0.56745435E-02 0.29775918E+03</pdfrwt>
<totfact> 0.50988987E+03</totfact>
</mgrwt>
</event>
<event>
 6    1  0.9263730E-006  0.2567658E+03  0.7546771E-02  0.1109102E+00
          1   -1    0    0  501    0  0.00000000000E+00  0.00000000000E+00  0.43014141213E+03  0.43014141213E+03  0.00000000000E+00 0. -1.
         -1   -1    0    0    0  501 -0.00000000000E+00 -0.00000000000E+00 -0.38318038211E+02  0.38318038211E+02  0.00000000000E+00 0.  1.
          5    1    1    2  502    0 -0.39824319134E+02  0.61361161804E+02  0.25395896756E+03  0.26432634333E+03  0.47000000000E+01 0.  1.
         -5    1    1    2    0  502 -0.10245706721E+02 -0.14843940590E+02 -0.77057354145E+01  0.20168922548E+02  0.47000000000E+01 0.  1.
        -11    1    1    2    0    0  0.15649181476E+02 -0.59459358427E+02  0.13043104108E+03  0.14419628519E+03  0.00000000000E+00 0. -1.
         11    1    1    2    0    0  0.34420844380E+02  0.12942137213E+02  0.15139100702E+02  0.39767899285E+02  0.00000000000E+00 0.  1.
<mgrwt>
<rscale>  0 0.25676585E+03</rscale>
<asrwt>0</asrwt>
<pdfrwt beam="1">  1        1 0.66175598E-01 0.25676585E+03</pdfrwt>
<pdfrwt beam="2">  1       -1 0.58950831E-02 0.25676585E+03</pdfrwt>
<totfact> 0.74944889E+03</totfact>
</mgrwt>
</event>
<event>
 6    1  0.9263730E-006  0.1419320E+03  0.7546771E-02  0.1221036E+00
         -4   -1    0    0    0  501 -0.00000000000E+00  0.00000000000E+00  0.57375230048E+02  0.57375230048E+02  0.00000000000E+00 0.  1.
          4   -1    0    0  501    0  0.00000000000E+00 -0.00000000000E+00 -0.32243518603E+03  0.32243518603E+03  0.00000000000E+00 0. -1.
          5    1    1    2  502    0 -0.57758257826E+02  0.23929962451E+02 -0.10866580196E+03  0.12545519505E+03  0.47000000000E+01 0. -1.
         -5    1    1    2    0  502  0.65161600680E+02  0.42885683166E+02 -0.10022441750E+03  0.12709146268E+03  0.47000000000E+01 0. -1.
        -11    1    1    2    0    0 -0.39595295216E+02 -0.10526043202E+02  0.75544988752E+00  0.40977502282E+02  0.00000000000E+00 0.  1.
         11    1    1    2    0    0  0.32191952363E+02 -0.56289602415E+02 -0.56925186405E+02  0.86286256056E+02  0.00000000000E+00 0. -1.
<mgrwt>
<rscale>  0 0.13442319E+03</rscale>
<asrwt>0</asrwt>
<pdfrwt beam="2">  1        4 0.49605412E-01 0.14193199E+03</pdfrwt>
<pdfrwt beam="1">  1       -4 0.88269587E-02 0.14193199E+03</pdfrwt>
<totfact> 0.61733360E+02</totfact>
</mgrwt>
</event>
<event>
 6    1  0.9263730E-006  0.1269225E+03  0.7546771E-02  0.1246652E+00
          2   -1    0    0  501    0  0.00000000000E+00  0.00000000000E+00  0.12433515864E+04  0.12433515864E+04  0.00000000000E+00 0. -1.
         -2   -1    0    0    0  501 -0.00000000000E+00 -0.00000000000E+00 -0.11189759237E+02  0.11189759237E+02  0.00000000000E+00 0.  1.
          5    1    1    2  502    0  0.10394681748E+02 -0.39332479373E+02  0.88537196678E+03  0.88631862380E+03  0.47000000000E+01 0.  1.
         -5    1    1    2    0  502  0.15217989847E+01  0.20876570927E+02  0.25368767168E+02  0.33223657737E+02  0.47000000000E+01 0.  1.
        -11    1    1    2    0    0  0.33654611231E+02 -0.46374692478E+01  0.62996897631E+02  0.71573375562E+02  0.00000000000E+00 0.  1.
         11    1    1    2    0    0 -0.45571091964E+02  0.23093377693E+02  0.25842419561E+03  0.26342568856E+03  0.00000000000E+00 0. -1.
<mgrwt>
<rscale>  0 0.11787076E+03</rscale>
<asrwt>0</asrwt>
<pdfrwt beam="1">  1        2 0.19128475E+00 0.12692251E+03</pdfrwt>
<pdfrwt beam="2">  1       -2 0.17215024E-02 0.12692251E+03</pdfrwt>
<totfact> 0.17419618E+04</totfact>
</mgrwt>
</event>
<event>
 6    1  0.9263730E-006  0.1420205E+03  0.7546771E-02  0.1222852E+00
         -1   -1    0    0    0  501 -0.00000000000E+00  0.00000000000E+00  0.63698378138E+02  0.63698378138E+02  0.00000000000E+00 0.  1.
          1   -1    0    0  501    0  0.00000000000E+00 -0.00000000000E+00 -0.25176338777E+03  0.25176338777E+03  0.00000000000E+00 0. -1.
          5    1    1    2  502    0  0.15764601841E+02 -0.44571392359E+02 -0.28996562148E+02  0.55659880564E+02  0.47000000000E+01 0.  1.
         -5    1    1    2    0  502 -0.83111532426E+02  0.41411911597E+02 -0.94063645619E+02  0.13225933869E+03  0.47000000000E+01 0.  1.
        -11    1    1    2    0    0 -0.20120369872E+02  0.89836293249E+01 -0.14412762986E+02  0.26329880679E+02  0.00000000000E+00 0. -1.
         11    1    1    2    0    0  0.87467300457E+02 -0.58241485630E+01 -0.50592038881E+02  0.10121266598E+03  0.00000000000E+00 0.  1.
<mgrwt>
<rscale>  0 0.13315216E+03</rscale>
<asrwt>0</asrwt>
<pdfrwt beam="2">  1        1 0.38732829E-01 0.14202049E+03</pdfrwt>
<pdfrwt beam="1">  1       -1 0.97997505E-02 0.14202049E+03</pdfrwt>
<totfact> 0.65757509E+03</totfact>
</mgrwt>
</event>
<event>
 6    1  0.9263730E-006  0.2615373E+03  0.7546771E-02  0.1106223E+00
          3   -1    0    0  501    0  0.00000000000E+00  0.00000000000E+00  0.34672250976E+03  0.34672250976E+03  0.00000000000E+00 0. -1.
         -3   -1    0    0    0  501 -0.00000000000E+00 -0.00000000000E+00 -0.49320245017E+02  0.49320245017E+02  0.00000000000E+00 0.  1.
          5    1    1    2  502    0 -0.43133766337E+02 -0.62498832806E+02  0.47719292258E+02  0.89810059315E+02  0.47000000000E+01 0.  1.
         -5    1    1    2    0  502  0.50745889101E+01  0.82538316228E+01  0.16689753156E+03  0.16724459103E+03  0.47000000000E+01 0.  1.
        -11    1    1    2    0    0 -0.23640672616E+01  0.53485856390E+02  0.82178464608E+01  0.54165105449E+02  0.00000000000E+00 0.  1.
         11    1    1    2    0    0  0.40423244688E+02  0.75914479343E+00  0.74567594464E+02  0.84822998980E+02  0.00000000000E+00 0. -1.
<mgrwt>
<rscale>  0 0.26153729E+03</rscale>
<asrwt>0</asrwt>
<pdfrwt beam="1">  1        3 0.53341923E-01 0.26153729E+03</pdfrwt>
<pdfrwt beam="2">  1       -3 0.75877302E-02 0.26153729E+03</pdfrwt>
<totfact> 0.10317341E+03</totfact>
</mgrwt>
</event>
<event>
 6    1  0.9263730E-006  0.1326790E+03  0.7546771E-02  0.1236767E+00
          1   -1    0    0  501    0  0.00000000000E+00  0.00000000000E+00  0.14870766221E+03  0.14870766221E+03  0.00000000000E+00 0. -1.
         -1   -1    0    0    0  501 -0.00000000000E+00 -0.00000000000E+00 -0.93030894884E+02  0.93030894884E+02  0.00000000000E+00 0.  1.
          5    1    1    2  502    0 -0.71077387000E+02  0.18367341272E+02  0.13850797023E+02  0.74855118371E+02  0.47000000000E+01 0. -1.
         -5    1    1    2    0  502  0.35311526254E+02 -0.44805125733E+02  0.31656284815E+02  0.65411111798E+02  0.47000000000E+01 0. -1.
        -11    1    1    2    0    0  0.47718122708E+02  0.27296089934E+02 -0.27838124898E+02  0.61620264185E+02  0.00000000000E+00 0.  1.
         11    1    1    2    0    0 -0.11952261961E+02 -0.85830547304E+00  0.38007810385E+02  0.39852062739E+02  0.00000000000E+00 0. -1.
<mgrwt>
<rscale>  0 0.12391976E+03</rscale>
<asrwt>0</asrwt>
<pdfrwt beam="1">  1        1 0.22878102E-01 0.13267901E+03</pdfrwt>
<pdfrwt beam="2">  1       -1 0.14312445E-01 0.13267901E+03</pdfrwt>
<totfact> 0.70343623E+03</totfact>
</mgrwt>
</event>
<event>
 6    1  0.9263730E-006  0.1424398E+03  0.7546771E-02  0.1221265E+00
          3   -1    0    0  501    0  0.00000000000E+00  0.00000000000E+00  0.11222042894E+03  0.11222042894E+03  0.00000000000E+00 0. -1.
         -3   -1    0    0    0  501 -0.00000000000E+00 -0.00000000000E+00 -0.15748645945E+03  0.15748645945E+03  0.00000000000E+00 0.  1.
          5    1    1    2  502    0 -0.54612121031E+02 -0.14747174799E+02 -0.38237354399E+02  0.68440837221E+02  0.47000000000E+01 0. -1.
         -5    1    1    2    0  502 -0.13573122989E+01  0.53935912637E+02  0.51299548754E+02  0.74596639810E+02  0.47000000000E+01 0. -1.
        -11    1    1    2    0    0  0.49484198197E+02 -0.59345885042E+02 -0.15380827113E+02  0.78785720694E+02  0.00000000000E+00 0. -1.
         11    1    1    2    0    0  0.64852351327E+01  0.20157147204E+02 -0.42947397753E+02  0.47883690667E+02  0.00000000000E+00 0.  1.
<mgrwt>
<rscale>  0 0.13426247E+03</rscale>
<asrwt>0</asrwt>
<pdfrwt beam="1">  1        3 0.17264681E-01 0.14243981E+03</pdfrwt>
<pdfrwt beam="2">  1       -3 0.24228686E-01 0.14243981E+03</pdfrwt>
<totfact> 0.10739046E+03</totfact>
</mgrwt>
</event>
<event>
 6    1  0.9263730E-006  0.2639134E+03  0.7546771E-02  0.1104815E+00
         -2   -1    0    0    0  501 -0.00000000000E+00  0.00000000000E+00  0.37651948015E+02  0.37651948015E+02  0.00000000000E+00 0.  1.
          2   -1    0    0  501    0  0.00000000000E+00 -0.00000000000E+00 -0.46246122578E+03  0.46246122578E+03  0.00000000000E+00 0. -1.
          5    1    1    2  502    0  0.11270364980E+02  0.16585695690E+02  0.90204898172E+00  0.20615773589E+02  0.47000000000E+01 0. -1.
         -5    1    1    2    0  502 -0.61067215894E+02 -0.72102640702E+02 -0.25844173585E+03  0.27521303836E+03  0.47000000000E+01 0. -1.
        -11    1    1    2    0    0  0.88454008309E+01  0.62079016102E+02 -0.50961496478E+02  0.80802967021E+02  0.00000000000E+00 0.  1.
         11    1    1    2    0    0  0.40951450083E+02 -0.65620710904E+01 -0.11630809442E+03  0.12348139483E+03  0.00000000000E+00 0. -1.
<mgrwt>
<rscale>  0 0.26391336E+03</rscale>
<asrwt>0</asrwt>
<pdfrwt beam="2">  1        2 0.71147884E-01 0.26391336E+03</pdfrwt>
<pdfrwt beam="1">  1       -2 0.57926071E-02 0.26391336E+03</pdfrwt>
<totfact> 0.10529159E+04</totfact>
</mgrwt>
</event>
<event>
 6    1  0.9263730E-006  0.1434315E+03  0.7546771E-02  0.1219194E+00
         -1   -1    0    0    0  501 -0.00000000000E+00  0.00000000000E+00  0.50551490844E+02  0.50551490844E+02  0.00000000000E+00 0.  1.
          1   -1    0    0  501    0  0.00000000000E+00 -0.00000000000E+00 -0.34670992976E+03  0.34670992976E+03  0.00000000000E+00 0. -1.
          5    1    1    2  502    0 -0.44265016647E+02 -0.24713796084E+01 -0.12385159915E+03  0.13163133376E+03  0.47000000000E+01 0. -1.
         -5    1    1    2    0  502  0.46934215381E+02  0.72768354606E+02 -0.82655755458E+02  0.11980032519E+03  0.47000000000E+01 0. -1.
        -11    1    1    2    0    0 -0.16938024432E+02  0.13619079550E+02  0.63671938126E+00  0.21743537224E+02  0.00000000000E+00 0.  1.
         11    1    1    2    0    0  0.14268825698E+02 -0.83916054548E+02 -0.90287803687E+02  0.12408622443E+03  0.00000000000E+00 0. -1.
<mgrwt>
<rscale>  0 0.13572950E+03</rscale>
<asrwt>0</asrwt>
<pdfrwt beam="2">  1        1 0.53339989E-01 0.14343149E+03</pdfrwt>
<pdfrwt beam="1">  1       -1 0.77771525E-02 0.14343149E+03</pdfrwt>
<totfact> 0.62823366E+03</totfact>
</mgrwt>
</event>
<event>
 6    1  0.9263730E-006  0.1333493E+03  0.7546771E-02  0.1236028E+00
          3   -1    0    0  501    0  0.00000000000E+00  0.00000000000E+00  0.25460883670E+03  0.25460883670E+03  0.00000000000E+00 0. -1.
         -3   -1    0    0    0  501 -0.00000000000E+00 -0.00000000000E+00 -0.58565053376E+02  0.58565053376E+02  0.00000000000E+00 0.  1.
          5    1    1    2  502    0  0.22755643242E+02 -0.35802069294E+02  0.26539378723E+00  0.42682173082E+02  0.47000000000E+01 0. -1.
         -5    1    1    2    0  502  0.23346604917E+02  0.41374906081E+02  0.15399706109E+03  0.16122695692E+03  0.47000000000E+01 0. -1.
        -11    1    1    2    0    0 -0.49800318491E+02  0.27819910971E+02  0.18419871102E+01  0.57073742516E+02  0.00000000000E+00 0.  1.
         11    1    1    2    0    0  0.36980703318E+01 -0.33392747758E+02  0.39939341336E+02  0.52191017555E+02  0.00000000000E+00 0. -1.
<mgrwt>
<rscale>  0 0.12438881E+03</rscale>
<asrwt>0</asrwt>
<pdfrwt beam="1">  1        3 0.39170590E-01 0.13334927E+03</pdfrwt>
<pdfrwt beam="2">  1       -3 0.90100083E-02 0.13334927E+03</pdfrwt>
<totfact> 0.13021610E+03</totfact>
</mgrwt>
</event>
<event>
 6    1  0.9263730E-006  0.2409210E+03  0.7546771E-02  0.1119181E+00
          2   -1    0    0  501    0  0.00000000000E+00  0.00000000000E+00  0.10673167737E+03  0.10673167737E+03  0.00000000000E+00 0. -1.
         -2   -1    0    0    0  501 -0.00000000000E+00 -0.00000000000E+00 -0.13595522795E+03  0.13595522795E+03  0.00000000000E+00 0.  1.
          5    1    1    2  502    0 -0.45971065285E+02  0.75565236506E+02  0.11722090985E+02  0.89347306780E+02  0.47000000000E+01 0. -1.
         -5    1    1    2    0  502  0.85270468238E+01 -0.40340527362E+02 -0.19994595448E+02  0.46064547349E+02  0.47000000000E+01 0. -1.
        -11    1    1    2    0    0  0.43531377367E+02  0.26503054799E+01 -0.44463457014E+02  0.62281650140E+02  0.00000000000E+00 0.  1.
         11    1    1    2    0    0 -0.60873589057E+01 -0.37875014625E+02  0.23512410901E+02  0.44993401046E+02  0.00000000000E+00 0. -1.
<mgrwt>
<rscale>  0 0.24092098E+03</rscale>
<asrwt>0</asrwt>
<pdfrwt beam="1">  1        2 0.16420258E-01 0.24092098E+03</pdfrwt>
<pdfrwt beam="2">  1       -2 0.20916189E-01 0.24092098E+03</pdfrwt>
<totfact> 0.66982750E+03</totfact>
</mgrwt>
</event>
<event>
 6    1  0.9263730E-006  0.3658118E+03  0.7546771E-02  0.1056306E+00
          2   -1    0    0  501    0  0.00000000000E+00  0.00000000000E+00  0.59212518524E+03  0.59212518524E+03  0.00000000000E+00 0. -1.
         -2   -1    0    0    0  501 -0.00000000000E+00 -0.00000000000E+00 -0.56499151955E+02  0.56499151955E+02  0.00000000000E+00 0.  1.
          5    1    1    2  502    0 -0.19957210228E+02  0.76216367853E+01  0.15213567231E+02  0.26644365544E+02  0.47000000000E+01 0.  1.
         -5    1    1    2    0  502  0.16449254262E+03  0.87366449496E+01  0.30206823301E+03  0.34409509287E+03  0.47000000000E+01 0.  1.
        -11    1    1    2    0    0 -0.26434505441E+02  0.30174108286E+02  0.83825036115E+02  0.92929524741E+02  0.00000000000E+00 0.  1.
         11    1    1    2    0    0 -0.11810082695E+03 -0.46532390021E+02  0.13451919693E+03  0.18495535404E+03  0.00000000000E+00 0. -1.
<mgrwt>
<rscale>  0 0.36581181E+03</rscale>
<asrwt>0</asrwt>
<pdfrwt beam="1">  1        2 0.91096178E-01 0.36581181E+03</pdfrwt>
<pdfrwt beam="2">  1       -2 0.86921777E-02 0.36581181E+03</pdfrwt>
<totfact> 0.42710094E+03</totfact>
</mgrwt>
</event>
<event>
 6    1  0.9263730E-006  0.1261782E+03  0.7546771E-02  0.1249455E+00
          1   -1    0    0  501    0  0.00000000000E+00  0.00000000000E+00  0.32284910454E+02  0.32284910454E+02  0.00000000000E+00 0. -1.
         -1   -1    0    0    0  501 -0.00000000000E+00 -0.00000000000E+00 -0.39616597814E+03  0.39616597814E+03  0.00000000000E+00 0.  1.
          5    1    1    2  502    0 -0.28737123621E+02 -0.56331705363E+02 -0.36778930713E+02  0.73306637132E+02  0.47000000000E+01 0. -1.
         -5    1    1    2    0  502  0.16388429056E+02  0.44312191488E+02 -0.11279353384E+03  0.12237901044E+03  0.47000000000E+01 0. -1.
        -11    1    1    2    0    0 -0.28912904917E+02  0.30703140930E+02 -0.72225440906E+02  0.83637032753E+02  0.00000000000E+00 0. -1.
         11    1    1    2    0    0  0.41261599481E+02 -0.18683627055E+02 -0.14208316222E+03  0.14912820826E+03  0.00000000000E+00 0.  1.
<mgrwt>
<rscale>  0 0.11622642E+03</rscale>
<asrwt>0</asrwt>
<pdfrwt beam="1">  1        1 0.49669091E-02 0.12617825E+03</pdfrwt>
<pdfrwt beam="2">  1       -1 0.60948615E-01 0.12617825E+03</pdfrwt>
<totfact> 0.45061833E+03</totfact>
</mgrwt>
</event>
<event>
 6    1  0.9263730E-006  0.1580903E+03  0.7546771E-02  0.1198875E+00
         -2   -1    0    0    0  501 -0.00000000000E+00  0.00000000000E+00  0.19580432193E+02  0.19580432193E+02  0.00000000000E+00 0.  1.
          2   -1    0    0  501    0  0.00000000000E+00 -0.00000000000E+00 -0.11914787916E+04  0.11914787916E+04  0.00000000000E+00 0. -1.
          5    1    1    2  502    0 -0.64164314381E+02  0.86250943987E+02 -0.49676079423E+03  0.50828108490E+03  0.47000000000E+01 0. -1.
         -5    1    1    2    0  502  0.47272730447E+02  0.90440959345E+01 -0.32076987041E+03  0.32439467702E+03  0.47000000000E+01 0. -1.
        -11    1    1    2    0    0  0.50084014071E+02 -0.83296319221E+02 -0.26815644607E+03  0.28522721615E+03  0.00000000000E+00 0. -1.
         11    1    1    2    0    0 -0.33192430137E+02 -0.11998720701E+02 -0.86211248672E+02  0.93156245708E+02  0.00000000000E+00 0.  1.
<mgrwt>
<rscale>  0 0.15130752E+03</rscale>
<asrwt>0</asrwt>
<pdfrwt beam="2">  1        2 0.18330447E+00 0.15809028E+03</pdfrwt>
<pdfrwt beam="1">  1       -2 0.30123734E-02 0.15809028E+03</pdfrwt>
<totfact> 0.83220150E+03</totfact>
</mgrwt>
</event>
<event>
 6    1  0.9263730E-006  0.1316380E+03  0.7546771E-02  0.1238351E+00
          1   -1    0    0  501    0  0.00000000000E+00  0.00000000000E+00  0.55257400158E+02  0.55257400158E+02  0.00000000000E+00 0. -1.
         -1   -1    0    0    0  501 -0.00000000000E+00 -0.00000000000E+00 -0.24901381969E+03  0.24901381969E+03  0.00000000000E+00 0.  1.
          5    1    1    2  502    0  0.46441048817E+02 -0.47181828112E+01 -0.40276610739E+01  0.47088685668E+02  0.47000000000E+01 0.  1.
         -5    1    1    2    0  502 -0.58601983663E+02  0.44140174396E+02 -0.82186378236E+02  0.11026893603E+03  0.47000000000E+01 0.  1.
        -11    1    1    2    0    0 -0.20318329659E+02  0.14115290536E+02 -0.28238060463E+01  0.24900799738E+02  0.00000000000E+00 0. -1.
         11    1    1    2    0    0  0.32479264505E+02 -0.53537282120E+02 -0.10471857417E+03  0.12201279841E+03  0.00000000000E+00 0.  1.
<mgrwt>
<rscale>  0 0.12292349E+03</rscale>
<asrwt>0</asrwt>
<pdfrwt beam="1">  1        1 0.85011384E-02 0.13163799E+03</pdfrwt>
<pdfrwt beam="2">  1       -1 0.38309819E-01 0.13163799E+03</pdfrwt>
<totfact> 0.50771676E+03</totfact>
</mgrwt>
</event>
<event>
 6    1  0.9263730E-006  0.1525057E+03  0.7546771E-02  0.1214141E+00
          2   -1    0    0  501    0  0.00000000000E+00  0.00000000000E+00  0.14921762591E+04  0.14921762591E+04  0.00000000000E+00 0.  1.
         -2   -1    0    0    0  501 -0.00000000000E+00 -0.00000000000E+00 -0.11405754176E+02  0.11405754176E+02  0.00000000000E+00 0. -1.
          5    1    1    2  502    0  0.10626235163E+03 -0.41399085844E+02  0.88390139971E+03  0.89124034138E+03  0.47000000000E+01 0.  1.
         -5    1    1    2    0  502 -0.23995140939E+02  0.11955481960E+02  0.76574614287E+02  0.81267840446E+02  0.47000000000E+01 0.  1.
        -11    1    1    2    0    0 -0.41308025417E+02  0.45720862141E+02  0.33403160824E+03  0.33966728647E+03  0.00000000000E+00 0.  1.
         11    1    1    2    0    0 -0.40959185276E+02 -0.16277258257E+02  0.18626288274E+03  0.19140654503E+03  0.00000000000E+00 0. -1.
<mgrwt>
<rscale>  0 0.13939845E+03</rscale>
<asrwt>0</asrwt>
<pdfrwt beam="1">  1        2 0.22956542E+00 0.15250571E+03</pdfrwt>
<pdfrwt beam="2">  1       -2 0.17547326E-02 0.15250571E+03</pdfrwt>
<totfact> 0.12612892E+04</totfact>
</mgrwt>
</event>
<event>
 6    1  0.9263730E-006  0.1383523E+03  0.7546771E-02  0.1227252E+00
         -1   -1    0    0    0  501 -0.00000000000E+00  0.00000000000E+00  0.20210983332E+02  0.20210983332E+02  0.00000000000E+00 0.  1.
          1   -1    0    0  501    0  0.00000000000E+00 -0.00000000000E+00 -0.82033864435E+03  0.82033864435E+03  0.00000000000E+00 0. -1.
          5    1    1    2  502    0  0.29449955514E+02 -0.24743461943E+02 -0.11543837129E+03  0.12176882341E+03  0.47000000000E+01 0. -1.
         -5    1    1    2    0  502 -0.83059220575E+02  0.50047419125E+02 -0.44931889628E+03  0.45968808864E+03  0.47000000000E+01 0. -1.
        -11    1    1    2    0    0  0.23428706336E+02  0.28609284530E+02 -0.41353514496E+02  0.55475297233E+02  0.00000000000E+00 0.  1.
         11    1    1    2    0    0  0.30180558725E+02 -0.53913241712E+02 -0.19401687894E+03  0.20361741839E+03  0.00000000000E+00 0. -1.
<mgrwt>
<rscale>  0 0.13013714E+03</rscale>
<asrwt>0</asrwt>
<pdfrwt beam="2">  1        1 0.12620593E+00 0.13835234E+03</pdfrwt>
<pdfrwt beam="1">  1       -1 0.31093825E-02 0.13835234E+03</pdfrwt>
<totfact> 0.76583323E+03</totfact>
</mgrwt>
</event>
<event>
 6    1  0.9263730E-006  0.2181624E+03  0.7546771E-02  0.1138748E+00
         -1   -1    0    0    0  501 -0.00000000000E+00  0.00000000000E+00  0.28751887988E+03  0.28751887988E+03  0.00000000000E+00 0.  1.
          1   -1    0    0  501    0  0.00000000000E+00 -0.00000000000E+00 -0.34103198975E+03  0.34103198975E+03  0.00000000000E+00 0. -1.
          5    1    1    2  502    0 -0.54418772679E+01  0.10791525073E+03 -0.15196420637E+03  0.18652218470E+03  0.47000000000E+01 0. -1.
         -5    1    1    2    0  502  0.98386452771E+02  0.44892848969E+02 -0.10894648628E+03  0.15357958475E+03  0.47000000000E+01 0. -1.
        -11    1    1    2    0    0 -0.61241495151E+02 -0.10209597671E+03  0.68814985803E+02  0.13751222294E+03  0.00000000000E+00 0. -1.
         11    1    1    2    0    0 -0.31703080352E+02 -0.50712122996E+02  0.13858259698E+03  0.15093687724E+03  0.00000000000E+00 0.  1.
<mgrwt>
<rscale>  0 0.21359863E+03</rscale>
<asrwt>0</asrwt>
<pdfrwt beam="2">  1        1 0.52466460E-01 0.21816238E+03</pdfrwt>
<pdfrwt beam="1">  1       -1 0.44233674E-01 0.21816238E+03</pdfrwt>
<totfact> 0.38660847E+02</totfact>
</mgrwt>
</event>
<event>
 6    1  0.9263730E-006  0.1548332E+03  0.7546771E-02  0.1209722E+00
         -2   -1    0    0    0  501 -0.00000000000E+00  0.00000000000E+00  0.27737535111E+03  0.27737535111E+03  0.00000000000E+00 0.  1.
          2   -1    0    0  501    0  0.00000000000E+00 -0.00000000000E+00 -0.16219735399E+03  0.16219735399E+03  0.00000000000E+00 0. -1.
          5    1    1    2  502    0 -0.54734425302E+02  0.42435838705E+02  0.21269292288E+01  0.69449777161E+02  0.47000000000E+01 0.  1.
         -5    1    1    2    0  502  0.17973749415E+02  0.41204307007E+02 -0.11094275324E+03  0.11979664053E+03  0.47000000000E+01 0.  1.
        -11    1    1    2    0    0  0.40126645407E+02 -0.20619779914E+02  0.12535222531E+03  0.13322350913E+03  0.00000000000E+00 0.  1.
         11    1    1    2    0    0 -0.33659695195E+01 -0.63020365797E+02  0.98641595822E+02  0.11710277829E+03  0.00000000000E+00 0. -1.
<mgrwt>
<rscale>  0 0.14271462E+03</rscale>
<asrwt>0</asrwt>
<pdfrwt beam="2">  1        2 0.24953439E-01 0.15483321E+03</pdfrwt>
<pdfrwt beam="1">  1       -2 0.42673131E-01 0.15483321E+03</pdfrwt>
<totfact> 0.11179821E+03</totfact>
</mgrwt>
</event>
<event>
 6    1  0.9263730E-006  0.1450906E+03  0.7546771E-02  0.1216673E+00
          3   -1    0    0  501    0  0.00000000000E+00  0.00000000000E+00  0.90098271363E+02  0.90098271363E+02  0.00000000000E+00 0. -1.
         -3   -1    0    0    0  501 -0.00000000000E+00 -0.00000000000E+00 -0.21536359738E+03  0.21536359738E+03  0.00000000000E+00 0.  1.
          5    1    1    2  502    0 -0.83506666554E+02  0.45407420015E+02 -0.16454913510E+02  0.96581837475E+02  0.47000000000E+01 0. -1.
         -5    1    1    2    0  502  0.45923180545E+02  0.17942989594E+02 -0.82784477994E+00  0.49534480051E+02  0.47000000000E+01 0. -1.
        -11    1    1    2    0    0 -0.18508713696E+02 -0.85973725455E+01  0.57637228846E+01  0.21206315070E+02  0.00000000000E+00 0. -1.
         11    1    1    2    0    0  0.56092199705E+02 -0.54753037064E+02 -0.11374629061E+03  0.13813923615E+03  0.00000000000E+00 0.  1.
<mgrwt>
<rscale>  0 0.13754390E+03</rscale>
<asrwt>0</asrwt>
<pdfrwt beam="1">  1        3 0.13861273E-01 0.14509061E+03</pdfrwt>
<pdfrwt beam="2">  1       -3 0.33132861E-01 0.14509061E+03</pdfrwt>
<totfact> 0.88326061E+02</totfact>
</mgrwt>
</event>
<event>
 6    1  0.9263730E-006  0.1343377E+03  0.7546771E-02  0.1233001E+00
          1   -1    0    0  501    0  0.00000000000E+00  0.00000000000E+00  0.16166620845E+03  0.16166620845E+03  0.00000000000E+00 0. -1.
         -1   -1    0    0    0  501 -0.00000000000E+00 -0.00000000000E+00 -0.99358686073E+02  0.99358686073E+02  0.00000000000E+00 0.  1.
          5    1    1    2  502    0  0.31341272319E+02 -0.28297609559E+02 -0.77850552460E+01  0.43194063742E+02  0.47000000000E+01 0. -1.
         -5    1    1    2    0  502 -0.85669519015E+01  0.71918436894E+02  0.84933827401E+02  0.11172063045E+03  0.47000000000E+01 0. -1.
        -11    1    1    2    0    0  0.14519260702E+02 -0.61867603572E+02 -0.88076239526E+01  0.64155931470E+02  0.00000000000E+00 0. -1.
         11    1    1    2    0    0 -0.37293581119E+02  0.18246776237E+02 -0.60336258227E+01  0.41954268869E+02  0.00000000000E+00 0.  1.
<mgrwt>
<rscale>  0 0.12633256E+03</rscale>
<asrwt>0</asrwt>
<pdfrwt beam="1">  1        1 0.24871724E-01 0.13433774E+03</pdfrwt>
<pdfrwt beam="2">  1       -1 0.15285952E-01 0.13433774E+03</pdfrwt>
<totfact> 0.57177938E+03</totfact>
</mgrwt>
</event>
<event>
 6    1  0.9263730E-006  0.1722315E+03  0.7546771E-02  0.1194814E+00
          1   -1    0    0  501    0  0.00000000000E+00  0.00000000000E+00  0.55428860305E+03  0.55428860305E+03  0.00000000000E+00 0. -1.
         -1   -1    0    0    0  501 -0.00000000000E+00 -0.00000000000E+00 -0.13330202120E+03  0.13330202120E+03  0.00000000000E+00 0.  1.
          5    1    1    2  502    0 -0.67820484831E+02 -0.96206569627E+02  0.38733394648E+03  0.40485182265E+03  0.47000000000E+01 0. -1.
         -5    1    1    2    0  502  0.29934172453E+02  0.43251525464E+02  0.12656255824E+03  0.13713832537E+03  0.47000000000E+01 0.  1.
        -11    1    1    2    0    0 -0.16350942664E+02  0.44967337177E+01  0.99216614575E+01  0.19647221336E+02  0.00000000000E+00 0. -1.
         11    1    1    2    0    0  0.54237255042E+02  0.48458310446E+02 -0.10283158433E+03  0.12595325491E+03  0.00000000000E+00 0.  1.
<mgrwt>
<rscale>  0 0.15469972E+03</rscale>
<asrwt>0</asrwt>
<pdfrwt beam="1">  1        1 0.85275169E-01 0.17223154E+03</pdfrwt>
<pdfrwt beam="2">  1       -1 0.20508004E-01 0.17223154E+03</pdfrwt>
<totfact> 0.76314006E+02</totfact>
</mgrwt>
</event>
<event>
 6    1  0.9263730E-006  0.2639371E+03  0.7546771E-02  0.1105400E+00
          2   -1    0    0  501    0  0.00000000000E+00  0.00000000000E+00  0.58789006845E+03  0.58789006845E+03  0.00000000000E+00 0. -1.
         -2   -1    0    0    0  501 -0.00000000000E+00 -0.00000000000E+00 -0.11975190530E+03  0.11975190530E+03  0.00000000000E+00 0.  1.
          5    1    1    2  502    0  0.15139099467E+03 -0.96664485154E+02  0.84005627497E+02  0.19834891330E+03  0.47000000000E+01 0. -1.
         -5    1    1    2    0  502  0.69696566074E+02  0.24830893686E+02  0.95265532363E+02  0.12071369541E+03  0.47000000000E+01 0. -1.
        -11    1    1    2    0    0 -0.15046054006E+03 -0.92396913086E+01  0.14683194229E+03  0.21043613114E+03  0.00000000000E+00 0. -1.
         11    1    1    2    0    0 -0.70627020678E+02  0.81073282777E+02  0.14203506101E+03  0.17814323390E+03  0.00000000000E+00 0.  1.
<mgrwt>
<rscale>  0 0.26292285E+03</rscale>
<asrwt>0</asrwt>
<pdfrwt beam="1">  1        2 0.90444625E-01 0.26393711E+03</pdfrwt>
<pdfrwt beam="2">  1       -2 0.18423370E-01 0.26393711E+03</pdfrwt>
<totfact> 0.12514094E+03</totfact>
</mgrwt>
</event>
<event>
 6    1  0.9263730E-006  0.1761442E+03  0.7546771E-02  0.1177447E+00
          3   -1    0    0  501    0  0.00000000000E+00  0.00000000000E+00  0.66750545601E+03  0.66750545601E+03  0.00000000000E+00 0. -1.
         -3   -1    0    0    0  501 -0.00000000000E+00 -0.00000000000E+00 -0.43104071537E+02  0.43104071537E+02  0.00000000000E+00 0.  1.
          5    1    1    2  502    0 -0.24920237753E+02  0.73247385626E+02  0.38684262584E+03  0.39453200747E+03  0.47000000000E+01 0.  1.
         -5    1    1    2    0  502 -0.23550611043E+02  0.41002457638E+02  0.25656814776E+02  0.54001805130E+02  0.47000000000E+01 0.  1.
        -11    1    1    2    0    0  0.30302995823E+01 -0.70342496809E+02  0.17563018482E+03  0.18921736547E+03  0.00000000000E+00 0. -1.
         11    1    1    2    0    0  0.45440549214E+02 -0.43907346456E+02  0.36271759032E+02  0.72858349480E+02  0.00000000000E+00 0.  1.
<mgrwt>
<rscale>  0 0.17038472E+03</rscale>
<asrwt>0</asrwt>
<pdfrwt beam="1">  1        3 0.10269314E+00 0.17614424E+03</pdfrwt>
<pdfrwt beam="2">  1       -3 0.66313961E-02 0.17614424E+03</pdfrwt>
<totfact> 0.29745039E+02</totfact>
</mgrwt>
</event>
<event>
 6    1  0.9263730E-006  0.1283932E+03  0.7546771E-02  0.1243358E+00
         -3   -1    0    0    0  501 -0.00000000000E+00  0.00000000000E+00  0.49878634141E+02  0.49878634141E+02  0.00000000000E+00 0.  1.
          3   -1    0    0  501    0  0.00000000000E+00 -0.00000000000E+00 -0.26086004259E+03  0.26086004259E+03  0.00000000000E+00 0. -1.
          5    1    1    2  502    0  0.27633742678E+02 -0.20868967849E+02  0.49432691169E+01  0.35293957883E+02  0.47000000000E+01 0.  1.
         -5    1    1    2    0  502 -0.52663939044E+02  0.56303275001E+01 -0.14632586444E+03  0.15568731377E+03  0.47000000000E+01 0.  1.
        -11    1    1    2    0    0  0.52181522974E+02  0.34151862850E+02 -0.33516279981E+02  0.70799732342E+02  0.00000000000E+00 0.  1.
         11    1    1    2    0    0 -0.27151326608E+02 -0.18913222501E+02 -0.36082533139E+02  0.48957672735E+02  0.00000000000E+00 0. -1.
<mgrwt>
<rscale>  0 0.11984214E+03</rscale>
<asrwt>0</asrwt>
<pdfrwt beam="2">  1        3 0.40132313E-01 0.12839318E+03</pdfrwt>
<pdfrwt beam="1">  1       -3 0.76736363E-02 0.12839318E+03</pdfrwt>
<totfact> 0.16040295E+03</totfact>
</mgrwt>
</event>
<event>
 6    1  0.9263730E-006  0.3753405E+03  0.7546771E-02  0.1052670E+00
          2   -1    0    0  501    0  0.00000000000E+00  0.00000000000E+00  0.77310707801E+03  0.77310707801E+03  0.00000000000E+00 0. -1.
         -2   -1    0    0    0  501 -0.00000000000E+00 -0.00000000000E+00 -0.45556578588E+02  0.45556578588E+02  0.00000000000E+00 0.  1.
          5    1    1    2  502    0  0.12901873749E+02 -0.11811992614E+02  0.14893405116E+03  0.15003140708E+03  0.47000000000E+01 0. -1.
         -5    1    1    2    0  502  0.26801074654E+02  0.15413156993E+03  0.28617032335E+03  0.32617538598E+03  0.47000000000E+01 0. -1.
        -11    1    1    2    0    0 -0.22374027965E+02 -0.34727874553E+02  0.14287785897E+02  0.43712277729E+02  0.00000000000E+00 0.  1.
         11    1    1    2    0    0 -0.17328920437E+02 -0.10759170276E+03  0.27815833901E+03  0.29874458581E+03  0.00000000000E+00 0. -1.
<mgrwt>
<rscale>  0 0.37534045E+03</rscale>
<asrwt>0</asrwt>
<pdfrwt beam="1">  1        2 0.11893954E+00 0.37534045E+03</pdfrwt>
<pdfrwt beam="2">  1       -2 0.70087050E-02 0.37534045E+03</pdfrwt>
<totfact> 0.43316640E+03</totfact>
</mgrwt>
</event>
<event>
 6    1  0.9263730E-006  0.1322104E+03  0.7546771E-02  0.1227158E+00
          1   -1    0    0  501    0  0.00000000000E+00  0.00000000000E+00  0.18438029990E+03  0.18438029990E+03  0.00000000000E+00 0. -1.
         -1   -1    0    0    0  501 -0.00000000000E+00 -0.00000000000E+00 -0.13560382213E+03  0.13560382213E+03  0.00000000000E+00 0.  1.
          5    1    1    2  502    0 -0.68128206937E+02  0.48185232240E+02  0.43663349394E+02  0.94296592021E+02  0.47000000000E+01 0. -1.
         -5    1    1    2    0  502  0.35782138474E+02  0.55972195615E+01  0.74727846498E+02  0.83174703744E+02  0.47000000000E+01 0.  1.
        -11    1    1    2    0    0  0.54880101672E+02 -0.71415946268E+02 -0.69720779042E+02  0.11389929750E+03  0.00000000000E+00 0.  1.
         11    1    1    2    0    0 -0.22534033209E+02  0.17633494467E+02  0.10606092255E+00  0.28613528770E+02  0.00000000000E+00 0. -1.
<mgrwt>
<rscale>  0 0.13020071E+03</rscale>
<asrwt>0</asrwt>
<pdfrwt beam="1">  1        1 0.28366200E-01 0.13221038E+03</pdfrwt>
<pdfrwt beam="2">  1       -1 0.20862126E-01 0.13221038E+03</pdfrwt>
<totfact> 0.29569516E+03</totfact>
</mgrwt>
</event>
<event>
 6    1  0.9263730E-006  0.1756272E+03  0.7546771E-02  0.1177553E+00
          3   -1    0    0  501    0  0.00000000000E+00  0.00000000000E+00  0.61846559075E+03  0.61846559075E+03  0.00000000000E+00 0. -1.
         -3   -1    0    0    0  501 -0.00000000000E+00 -0.00000000000E+00 -0.70437950546E+02  0.70437950546E+02  0.00000000000E+00 0.  1.
          5    1    1    2  502    0  0.16168043885E+02 -0.13661567266E+02  0.24303432002E+01  0.21818355376E+02  0.47000000000E+01 0. -1.
         -5    1    1    2    0  502  0.10049315347E+03 -0.26473265680E+02  0.49201330820E+03  0.50289053793E+03  0.47000000000E+01 0. -1.
        -11    1    1    2    0    0 -0.11583894751E+03  0.55777058603E+01  0.23413579360E+02  0.11831300969E+03  0.00000000000E+00 0.  1.
         11    1    1    2    0    0 -0.82224984841E+00  0.34557127086E+02  0.30170409442E+02  0.45881638301E+02  0.00000000000E+00 0. -1.
<mgrwt>
<rscale>  0 0.17028261E+03</rscale>
<asrwt>0</asrwt>
<pdfrwt beam="1">  1        3 0.95148549E-01 0.17562716E+03</pdfrwt>
<pdfrwt beam="2">  1       -3 0.10836608E-01 0.17562716E+03</pdfrwt>
<totfact> 0.15785964E+02</totfact>
</mgrwt>
</event>
<event>
 6    1  0.9263730E-006  0.1275759E+03  0.7546771E-02  0.1246597E+00
          2   -1    0    0  501    0  0.00000000000E+00  0.00000000000E+00  0.83688447943E+02  0.83688447943E+02  0.00000000000E+00 0. -1.
         -2   -1    0    0    0  501 -0.00000000000E+00 -0.00000000000E+00 -0.14545135679E+03  0.14545135679E+03  0.00000000000E+00 0.  1.
          5    1    1    2  502    0 -0.62525209854E+01 -0.32969687697E+01 -0.81786253836E+02  0.82225575938E+02  0.47000000000E+01 0.  1.
         -5    1    1    2    0  502 -0.14159036320E+02  0.18443753254E+02  0.44723112882E+02  0.50625064637E+02  0.47000000000E+01 0.  1.
        -11    1    1    2    0    0  0.40679864990E+02 -0.40768039867E+02 -0.26862074181E+02  0.63548843574E+02  0.00000000000E+00 0.  1.
         11    1    1    2    0    0 -0.20268307685E+02  0.25621255383E+02  0.21623062837E+01  0.32740320589E+02  0.00000000000E+00 0. -1.
<mgrwt>
<rscale>  0 0.11790327E+03</rscale>
<asrwt>0</asrwt>
<pdfrwt beam="1">  1        2 0.12875146E-01 0.12757592E+03</pdfrwt>
<pdfrwt beam="2">  1       -2 0.22377131E-01 0.12757592E+03</pdfrwt>
<totfact> 0.76138451E+03</totfact>
</mgrwt>
</event>
<event>
 6    1  0.9263730E-006  0.1582111E+03  0.7546771E-02  0.1208845E+00
          1   -1    0    0  501    0  0.00000000000E+00  0.00000000000E+00  0.71475510455E+03  0.71475510455E+03  0.00000000000E+00 0. -1.
         -1   -1    0    0    0  501 -0.00000000000E+00 -0.00000000000E+00 -0.24618013273E+02  0.24618013273E+02  0.00000000000E+00 0.  1.
          5    1    1    2  502    0  0.56047913687E+02  0.32115377721E+02  0.61180103792E+02  0.89094675569E+02  0.47000000000E+01 0. -1.
         -5    1    1    2    0  502 -0.86046229456E+01 -0.85804293993E+01  0.36943439205E+03  0.36966406822E+03  0.47000000000E+01 0.  1.
        -11    1    1    2    0    0  0.21784912191E+02  0.14174301687E+02  0.89646946459E+02  0.93338460652E+02  0.00000000000E+00 0. -1.
         11    1    1    2    0    0 -0.69228202932E+02 -0.37709250008E+02  0.16987564898E+03  0.18727591338E+03  0.00000000000E+00 0.  1.
<mgrwt>
<rscale>  0 0.14338535E+03</rscale>
<asrwt>0</asrwt>
<pdfrwt beam="1">  1        1 0.10996231E+00 0.15821106E+03</pdfrwt>
<pdfrwt beam="2">  1       -1 0.37873872E-02 0.15821106E+03</pdfrwt>
<totfact> 0.70892048E+03</totfact>
</mgrwt>
</event>
<event>
 6    1  0.9263730E-006  0.1259568E+03  0.7546771E-02  0.1250153E+00
         -2   -1    0    0    0  501 -0.00000000000E+00  0.00000000000E+00  0.31839058107E+02  0.31839058107E+02  0.00000000000E+00 0.  1.
          2   -1    0    0  501    0  0.00000000000E+00 -0.00000000000E+00 -0.41690229916E+03  0.41690229916E+03  0.00000000000E+00 0. -1.
          5    1    1    2  502    0  0.53731205542E+02  0.39886398964E+02 -0.21722282450E+03  0.22734514016E+03  0.47000000000E+01 0. -1.
         -5    1    1    2    0  502 -0.39329334758E+02 -0.33970329156E+02 -0.80588981857E+02  0.96007571744E+02  0.47000000000E+01 0. -1.
        -11    1    1    2    0    0  0.21114591743E+01 -0.28220135844E+02 -0.92859537256E+02  0.97075887770E+02  0.00000000000E+00 0. -1.
         11    1    1    2    0    0 -0.16513329959E+02  0.22304066036E+02  0.56081025600E+01  0.28312757591E+02  0.00000000000E+00 0.  1.
<mgrwt>
<rscale>  0 0.11582181E+03</rscale>
<asrwt>0</asrwt>
<pdfrwt beam="2">  1        2 0.64138813E-01 0.12595676E+03</pdfrwt>
<pdfrwt beam="1">  1       -2 0.48983168E-02 0.12595676E+03</pdfrwt>
<totfact> 0.14451674E+04</totfact>
</mgrwt>
</event>
<event>
 6    1  0.9263730E-006  0.1441737E+03  0.7546771E-02  0.1221140E+00
          1   -1    0    0  501    0  0.00000000000E+00  0.00000000000E+00  0.81890855479E+02  0.81890855479E+02  0.00000000000E+00 0. -1.
         -1   -1    0    0    0  501 -0.00000000000E+00 -0.00000000000E+00 -0.28589472540E+03  0.28589472540E+03  0.00000000000E+00 0.  1.
          5    1    1    2  502    0  0.97249430765E+01  0.34415261142E+02  0.94313272440E+01  0.37283034357E+02  0.47000000000E+01 0.  1.
         -5    1    1    2    0  502  0.94382361843E+00 -0.10547519507E+03 -0.18345384765E+02  0.10716599610E+03  0.47000000000E+01 0.  1.
        -11    1    1    2    0    0  0.14160617520E+02  0.80690489283E+02 -0.15230885945E+03  0.17294353650E+03  0.00000000000E+00 0.  1.
         11    1    1    2    0    0 -0.24829384215E+02 -0.96305553532E+01 -0.42780952946E+02  0.50393013919E+02  0.00000000000E+00 0. -1.
<mgrwt>
<rscale>  0 0.13435010E+03</rscale>
<asrwt>0</asrwt>
<pdfrwt beam="1">  1        1 0.12598593E-01 0.14417372E+03</pdfrwt>
<pdfrwt beam="2">  1       -1 0.43983803E-01 0.14417372E+03</pdfrwt>
<totfact> 0.23769141E+03</totfact>
</mgrwt>
</event>
<event>
 6    1  0.9263730E-006  0.1524649E+03  0.7546771E-02  0.1212633E+00
          1   -1    0    0  501    0  0.00000000000E+00  0.00000000000E+00  0.99880790802E+03  0.99880790802E+03  0.00000000000E+00 0. -1.
         -1   -1    0    0    0  501 -0.00000000000E+00 -0.00000000000E+00 -0.25349330183E+02  0.25349330183E+02  0.00000000000E+00 0.  1.
          5    1    1    2  502    0 -0.22937473216E+02 -0.68426310180E+02  0.19849672765E+03  0.21126128015E+03  0.47000000000E+01 0. -1.
         -5    1    1    2    0  502  0.36495442108E+02  0.10765747625E+02  0.62876623457E+03  0.62993403333E+03  0.47000000000E+01 0.  1.
        -11    1    1    2    0    0 -0.42482769655E+02  0.31465899539E+02  0.30885026283E+02  0.61227227603E+02  0.00000000000E+00 0.  1.
         11    1    1    2    0    0  0.28924800764E+02  0.26194663016E+02  0.11531058934E+03  0.12173469712E+03  0.00000000000E+00 0. -1.
<mgrwt>
<rscale>  0 0.14051871E+03</rscale>
<asrwt>0</asrwt>
<pdfrwt beam="1">  1        1 0.15366272E+00 0.15246490E+03</pdfrwt>
<pdfrwt beam="2">  1       -1 0.38998977E-02 0.15246490E+03</pdfrwt>
<totfact> 0.40250922E+03</totfact>
</mgrwt>
</event>
<event>
 6    1  0.9263730E-006  0.1605732E+03  0.7546771E-02  0.1195615E+00
         -1   -1    0    0    0  501 -0.00000000000E+00  0.00000000000E+00  0.51569089359E+02  0.51569089359E+02  0.00000000000E+00 0.  1.
          1   -1    0    0  501    0  0.00000000000E+00 -0.00000000000E+00 -0.73443515145E+03  0.73443515145E+03  0.00000000000E+00 0. -1.
          5    1    1    2  502    0 -0.10351107127E+03  0.78003655375E+02 -0.46220977532E+03  0.48006153620E+03  0.47000000000E+01 0.  1.
         -5    1    1    2    0  502  0.21143402333E+02 -0.19918652595E+02 -0.14978097661E+03  0.15264411923E+03  0.47000000000E+01 0.  1.
        -11    1    1    2    0    0  0.78216613468E+02 -0.36411664879E+02 -0.89579451525E+02  0.12437092143E+03  0.00000000000E+00 0. -1.
         11    1    1    2    0    0  0.41510554734E+01 -0.21673337901E+02  0.18704141367E+02  0.28927663950E+02  0.00000000000E+00 0.  1.
<mgrwt>
<rscale>  0 0.15402253E+03</rscale>
<asrwt>0</asrwt>
<pdfrwt beam="2">  1        1 0.11299002E+00 0.16057324E+03</pdfrwt>
<pdfrwt beam="1">  1       -1 0.79337065E-02 0.16057324E+03</pdfrwt>
<totfact> 0.22634333E+03</totfact>
</mgrwt>
</event>
<event>
 6    1  0.9263730E-006  0.1255172E+03  0.7546771E-02  0.1242795E+00
          1   -1    0    0  501    0  0.00000000000E+00  0.00000000000E+00  0.15800018066E+03  0.15800018066E+03  0.00000000000E+00 0. -1.
         -1   -1    0    0    0  501 -0.00000000000E+00 -0.00000000000E+00 -0.25049349551E+03  0.25049349551E+03  0.00000000000E+00 0.  1.
          5    1    1    2  502    0 -0.68548754273E+02  0.19734722502E+02  0.48398324940E+02  0.86330057579E+02  0.47000000000E+01 0. -1.
         -5    1    1    2    0  502  0.43499010504E+02  0.24847111802E+02  0.70085987788E+02  0.86276755641E+02  0.47000000000E+01 0.  1.
        -11    1    1    2    0    0  0.31180438864E+02 -0.68369204415E+02 -0.11944926747E+03  0.14111943657E+03  0.00000000000E+00 0. -1.
         11    1    1    2    0    0 -0.61306950949E+01  0.23787370112E+02 -0.91528360107E+02  0.94767426382E+02  0.00000000000E+00 0.  1.
<mgrwt>
<rscale>  0 0.12018343E+03</rscale>
<asrwt>0</asrwt>
<pdfrwt beam="1">  1        1 0.24307720E-01 0.12551725E+03</pdfrwt>
<pdfrwt beam="2">  1       -1 0.38537461E-01 0.12551725E+03</pdfrwt>
<totfact> 0.12856038E+03</totfact>
</mgrwt>
</event>
<event>
 6    1  0.9263730E-006  0.1646768E+03  0.7546771E-02  0.1190316E+00
         -1   -1    0    0    0  501 -0.00000000000E+00  0.00000000000E+00  0.15798073848E+02  0.15798073848E+02  0.00000000000E+00 0.  1.
          1   -1    0    0  501    0  0.00000000000E+00 -0.00000000000E+00 -0.16398384560E+04  0.16398384560E+04  0.00000000000E+00 0. -1.
          5    1    1    2  502    0 -0.46295179320E+02 -0.90668662909E+01 -0.17222739518E+03  0.17863319217E+03  0.47000000000E+01 0. -1.
         -5    1    1    2    0  502  0.34313670456E+02 -0.97469459683E+02 -0.94944640097E+03  0.95506454329E+03  0.47000000000E+01 0. -1.
        -11    1    1    2    0    0  0.23415235715E+02  0.15926055351E+02 -0.31756038058E+02  0.42548307320E+02  0.00000000000E+00 0.  1.
         11    1    1    2    0    0 -0.11433726852E+02  0.90610270623E+02 -0.47061054797E+03  0.47939048709E+03  0.00000000000E+00 0. -1.
<mgrwt>
<rscale>  0 0.15857437E+03</rscale>
<asrwt>0</asrwt>
<pdfrwt beam="2">  1        1 0.25228279E+00 0.16467681E+03</pdfrwt>
<pdfrwt beam="1">  1       -1 0.24304734E-02 0.16467681E+03</pdfrwt>
<totfact> 0.29674483E+03</totfact>
</mgrwt>
</event>
<event>
 6    1  0.9263730E-006  0.1382800E+03  0.7546771E-02  0.1226641E+00
         -1   -1    0    0    0  501 -0.00000000000E+00  0.00000000000E+00  0.84500981392E+02  0.84500981392E+02  0.00000000000E+00 0.  1.
          1   -1    0    0  501    0  0.00000000000E+00 -0.00000000000E+00 -0.25128199513E+03  0.25128199513E+03  0.00000000000E+00 0. -1.
          5    1    1    2  502    0  0.43368242137E+02 -0.54807953529E+02 -0.54497944562E+02  0.88751519184E+02  0.47000000000E+01 0.  1.
         -5    1    1    2    0  502 -0.58257204789E+02 -0.24179260803E+01 -0.12344853581E+03  0.13660665895E+03  0.47000000000E+01 0.  1.
        -11    1    1    2    0    0 -0.88867138129E+01  0.12460764821E+02 -0.37286212828E+02  0.40305161076E+02  0.00000000000E+00 0. -1.
         11    1    1    2    0    0  0.23775676465E+02  0.44765114788E+02  0.48451679464E+02  0.70119637308E+02  0.00000000000E+00 0.  1.
<mgrwt>
<rscale>  0 0.13055043E+03</rscale>
<asrwt>0</asrwt>
<pdfrwt beam="2">  1        1 0.38658768E-01 0.13828000E+03</pdfrwt>
<pdfrwt beam="1">  1       -1 0.13000151E-01 0.13828000E+03</pdfrwt>
<totfact> 0.42605977E+03</totfact>
</mgrwt>
</event>
<event>
 6    1  0.9263730E-006  0.1260146E+03  0.7546771E-02  0.1248520E+00
         -2   -1    0    0    0  501 -0.00000000000E+00  0.00000000000E+00  0.37137841437E+02  0.37137841437E+02  0.00000000000E+00 0. -1.
          2   -1    0    0  501    0  0.00000000000E+00 -0.00000000000E+00 -0.33398594399E+03  0.33398594399E+03  0.00000000000E+00 0.  1.
          5    1    1    2  502    0 -0.35353051787E+02 -0.57675812088E+02 -0.10711490986E+03  0.12677551611E+03  0.47000000000E+01 0.  1.
         -5    1    1    2    0  502  0.19771078324E+02  0.54507015305E+02 -0.96794913423E+02  0.11293031267E+03  0.47000000000E+01 0.  1.
        -11    1    1    2    0    0 -0.19428014101E+02  0.85187627362E+01  0.93419413842E+01  0.23179493508E+02  0.00000000000E+00 0. -1.
         11    1    1    2    0    0  0.35009987564E+02 -0.53499659541E+01 -0.10228022065E+03  0.10823846313E+03  0.00000000000E+00 0.  1.
<mgrwt>
<rscale>  0 0.11677147E+03</rscale>
<asrwt>0</asrwt>
<pdfrwt beam="2">  1        2 0.51382452E-01 0.12601456E+03</pdfrwt>
<pdfrwt beam="1">  1       -2 0.57135142E-02 0.12601456E+03</pdfrwt>
<totfact> 0.14513786E+04</totfact>
</mgrwt>
</event>
<event>
 6    1  0.9263730E-006  0.1326025E+03  0.7546771E-02  0.1237044E+00
         -2   -1    0    0    0  501 -0.00000000000E+00  0.00000000000E+00  0.14127290293E+02  0.14127290293E+02  0.00000000000E+00 0.  1.
          2   -1    0    0  501    0  0.00000000000E+00 -0.00000000000E+00 -0.10056373626E+04  0.10056373626E+04  0.00000000000E+00 0. -1.
          5    1    1    2  502    0 -0.73798809039E+02 -0.25398271256E+02 -0.28411783087E+03  0.29468011167E+03  0.47000000000E+01 0. -1.
         -5    1    1    2    0  502  0.30005540197E+02  0.31633427421E+02 -0.38192253454E+03  0.38443194269E+03  0.47000000000E+01 0. -1.
        -11    1    1    2    0    0 -0.89280638040E+01  0.28935794528E+02 -0.17144679163E+03  0.17410052524E+03  0.00000000000E+00 0. -1.
         11    1    1    2    0    0  0.52721332646E+02 -0.35170950693E+02 -0.15402291526E+03  0.16655207328E+03  0.00000000000E+00 0.  1.
<mgrwt>
<rscale>  0 0.12374489E+03</rscale>
<asrwt>0</asrwt>
<pdfrwt beam="2">  1        2 0.15471344E+00 0.13260247E+03</pdfrwt>
<pdfrwt beam="1">  1       -2 0.21734293E-02 0.13260247E+03</pdfrwt>
<totfact> 0.17002383E+04</totfact>
</mgrwt>
</event>
<event>
 6    1  0.9263730E-006  0.1364230E+03  0.7546771E-02  0.1231098E+00
          2   -1    0    0  501    0  0.00000000000E+00  0.00000000000E+00  0.18988728339E+03  0.18988728339E+03  0.00000000000E+00 0. -1.
         -2   -1    0    0    0  501 -0.00000000000E+00 -0.00000000000E+00 -0.78071723248E+02  0.78071723248E+02  0.00000000000E+00 0.  1.
          5    1    1    2  502    0 -0.73464649571E+02 -0.36322513572E+02  0.98284491319E+02  0.12805589000E+03  0.47000000000E+01 0.  1.
         -5    1    1    2    0  502  0.25245287293E+02  0.10771884139E+02 -0.15150704338E+02  0.31701606589E+02  0.47000000000E+01 0.  1.
        -11    1    1    2    0    0 -0.10405637832E+02  0.33909016421E-02 -0.23476059471E+02  0.25678837172E+02  0.00000000000E+00 0.  1.
         11    1    1    2    0    0  0.58625000110E+02  0.25547238531E+02  0.52157832630E+02  0.82522672879E+02  0.00000000000E+00 0. -1.
<mgrwt>
<rscale>  0 0.12757596E+03</rscale>
<asrwt>0</asrwt>
<pdfrwt beam="1">  1        2 0.29213428E-01 0.13642299E+03</pdfrwt>
<pdfrwt beam="2">  1       -2 0.12011034E-01 0.13642299E+03</pdfrwt>
<totfact> 0.84369602E+03</totfact>
</mgrwt>
</event>
<event>
 6    1  0.9263730E-006  0.1308808E+03  0.7546771E-02  0.1241090E+00
         -4   -1    0    0    0  501 -0.00000000000E+00  0.00000000000E+00  0.22089006491E+02  0.22089006491E+02  0.00000000000E+00 0.  1.
          4   -1    0    0  501    0  0.00000000000E+00 -0.00000000000E+00 -0.59665409921E+03  0.59665409921E+03  0.00000000000E+00 0. -1.
          5    1    1    2  502    0 -0.59159006701E+01  0.38491074465E+02 -0.24682859750E+02  0.46345380133E+02  0.47000000000E+01 0. -1.
         -5    1    1    2    0  502 -0.17755690472E+02 -0.77599894829E+01 -0.34947204065E+03  0.35004039649E+03  0.47000000000E+01 0. -1.
        -11    1    1    2    0    0  0.38344937313E+02  0.19255069857E+02 -0.10905075394E+03  0.11718856116E+03  0.00000000000E+00 0. -1.
         11    1    1    2    0    0 -0.14673346170E+02 -0.49986154839E+02 -0.91359438384E+02  0.10516876792E+03  0.00000000000E+00 0.  1.
<mgrwt>
<rscale>  0 0.12122494E+03</rscale>
<asrwt>0</asrwt>
<pdfrwt beam="2">  1        4 0.91792924E-01 0.13088084E+03</pdfrwt>
<pdfrwt beam="1">  1       -4 0.33983092E-02 0.13088084E+03</pdfrwt>
<totfact> 0.75987749E+02</totfact>
</mgrwt>
</event>
<event>
 6    1  0.9263730E-006  0.1300094E+03  0.7546771E-02  0.1240610E+00
          1   -1    0    0  501    0  0.00000000000E+00  0.00000000000E+00  0.20097257236E+03  0.20097257236E+03  0.00000000000E+00 0. -1.
         -1   -1    0    0    0  501 -0.00000000000E+00 -0.00000000000E+00 -0.66326523019E+02  0.66326523019E+02  0.00000000000E+00 0.  1.
          5    1    1    2  502    0  0.51034214740E+02  0.15495026256E+02  0.57777822963E+02  0.78771528734E+02  0.47000000000E+01 0.  1.
         -5    1    1    2    0  502 -0.71386233749E+02  0.13898017222E+02  0.34330043387E+02  0.80559239883E+02  0.47000000000E+01 0.  1.
        -11    1    1    2    0    0 -0.12878860320E+02 -0.21191574165E+01 -0.24830276151E+02  0.28051710911E+02  0.00000000000E+00 0.  1.
         11    1    1    2    0    0  0.33230879329E+02 -0.27273886061E+02  0.67368459140E+02  0.79916615849E+02  0.00000000000E+00 0. -1.
<mgrwt>
<rscale>  0 0.12151996E+03</rscale>
<asrwt>0</asrwt>
<pdfrwt beam="1">  1        1 0.30918857E-01 0.13000936E+03</pdfrwt>
<pdfrwt beam="2">  1       -1 0.10204081E-01 0.13000936E+03</pdfrwt>
<totfact> 0.81236776E+03</totfact>
</mgrwt>
</event>
<event>
 6    1  0.9263730E-006  0.1576949E+03  0.7546771E-02  0.1199392E+00
          3   -1    0    0  501    0  0.00000000000E+00  0.00000000000E+00  0.99106184539E+02  0.99106184539E+02  0.00000000000E+00 0. -1.
         -3   -1    0    0    0  501 -0.00000000000E+00 -0.00000000000E+00 -0.26478353543E+03  0.26478353543E+03  0.00000000000E+00 0.  1.
          5    1    1    2  502    0 -0.13532128065E+01  0.46904180235E+02  0.11573240836E+02  0.48557833682E+02  0.47000000000E+01 0. -1.
         -5    1    1    2    0  502  0.97488015082E+02 -0.45341926981E+02 -0.19222612186E+02  0.10932246908E+03  0.47000000000E+01 0. -1.
        -11    1    1    2    0    0 -0.76640432484E+02  0.38452002555E+02 -0.86746546766E+02  0.12197243856E+03  0.00000000000E+00 0.  1.
         11    1    1    2    0    0 -0.19494369791E+02 -0.40014255809E+02 -0.71281432777E+02  0.84036978648E+02  0.00000000000E+00 0. -1.
<mgrwt>
<rscale>  0 0.15088311E+03</rscale>
<asrwt>0</asrwt>
<pdfrwt beam="1">  1        3 0.15247106E-01 0.15769489E+03</pdfrwt>
<pdfrwt beam="2">  1       -3 0.40735928E-01 0.15769489E+03</pdfrwt>
<totfact> 0.51225759E+02</totfact>
</mgrwt>
</event>
<event>
 6    1  0.9263730E-006  0.1407210E+03  0.7546771E-02  0.1232186E+00
         -1   -1    0    0    0  501 -0.00000000000E+00  0.00000000000E+00  0.32874361387E+02  0.32874361387E+02  0.00000000000E+00 0.  1.
          1   -1    0    0  501    0  0.00000000000E+00 -0.00000000000E+00 -0.44487302171E+03  0.44487302171E+03  0.00000000000E+00 0. -1.
          5    1    1    2  502    0  0.32506094822E+02 -0.31372913794E+02 -0.30625649180E+03  0.30960625751E+03  0.47000000000E+01 0. -1.
         -5    1    1    2    0  502 -0.14942722822E+02  0.21933116886E+02  0.52324603606E+00  0.26957566064E+02  0.47000000000E+01 0.  1.
        -11    1    1    2    0    0 -0.45083478591E+02  0.82312371067E+01 -0.10387258354E+03  0.11353319742E+03  0.00000000000E+00 0.  1.
         11    1    1    2    0    0  0.27520106592E+02  0.12085598018E+01 -0.23928310158E+01  0.27650362094E+02  0.00000000000E+00 0. -1.
<mgrwt>
<rscale>  0 0.12686336E+03</rscale>
<asrwt>0</asrwt>
<pdfrwt beam="2">  1        1 0.68442003E-01 0.14072096E+03</pdfrwt>
<pdfrwt beam="1">  1       -1 0.50575941E-02 0.14072096E+03</pdfrwt>
<totfact> 0.87144584E+03</totfact>
</mgrwt>
</event>
<event>
 6    1  0.9263730E-006  0.1502291E+03  0.7546771E-02  0.1209139E+00
          2   -1    0    0  501    0  0.00000000000E+00  0.00000000000E+00  0.77856289031E+02  0.77856289031E+02  0.00000000000E+00 0.  1.
         -2   -1    0    0    0  501 -0.00000000000E+00 -0.00000000000E+00 -0.25513496389E+03  0.25513496389E+03  0.00000000000E+00 0. -1.
          5    1    1    2  502    0 -0.69151336481E+02  0.74875643971E+02 -0.81267011068E+02  0.13044035604E+03  0.47000000000E+01 0. -1.
         -5    1    1    2    0  502  0.90504373173E+01 -0.17171739460E+02  0.23207294153E+02  0.30617765327E+02  0.47000000000E+01 0. -1.
        -11    1    1    2    0    0  0.80085011073E+02 -0.54015411194E+02 -0.71852093249E+02  0.12039101690E+03  0.00000000000E+00 0.  1.
         11    1    1    2    0    0 -0.19984111910E+02 -0.36884933161E+01 -0.47366864691E+02  0.51542114648E+02  0.00000000000E+00 0. -1.
<mgrwt>
<rscale>  0 0.14315994E+03</rscale>
<asrwt>0</asrwt>
<pdfrwt beam="1">  1        2 0.11977891E-01 0.15022912E+03</pdfrwt>
<pdfrwt beam="2">  1       -2 0.39251532E-01 0.15022912E+03</pdfrwt>
<totfact> 0.30567501E+03</totfact>
</mgrwt>
</event>
<event>
 6    1  0.9263730E-006  0.1671693E+03  0.7546771E-02  0.1187124E+00
          2   -1    0    0  501    0  0.00000000000E+00  0.00000000000E+00  0.65893872591E+03  0.65893872591E+03  0.00000000000E+00 0. -1.
         -2   -1    0    0    0  501 -0.00000000000E+00 -0.00000000000E+00 -0.52286614022E+02  0.52286614022E+02  0.00000000000E+00 0.  1.
          5    1    1    2  502    0  0.19458769933E+02  0.24221229550E+02  0.12577252155E+03  0.12963845443E+03  0.47000000000E+01 0.  1.
         -5    1    1    2    0  502 -0.51217656362E+01 -0.13423726561E+03  0.38434515851E+03  0.40717215871E+03  0.47000000000E+01 0.  1.
        -11    1    1    2    0    0 -0.34973878403E+02  0.32017063997E+01  0.13778301212E+02  0.37726180283E+02  0.00000000000E+00 0.  1.
         11    1    1    2    0    0  0.20636874106E+02  0.10681432966E+03  0.82756130612E+02  0.13668854651E+03  0.00000000000E+00 0. -1.
<mgrwt>
<rscale>  0 0.16140125E+03</rscale>
<asrwt>0</asrwt>
<pdfrwt beam="1">  1        2 0.10137518E+00 0.16716934E+03</pdfrwt>
<pdfrwt beam="2">  1       -2 0.80440949E-02 0.16716934E+03</pdfrwt>
<totfact> 0.41465526E+03</totfact>
</mgrwt>
</event>
<event>
 6    1  0.9263730E-006  0.1349749E+03  0.7546771E-02  0.1235925E+00
         -2   -1    0    0    0  501 -0.00000000000E+00  0.00000000000E+00  0.12442964835E+02  0.12442964835E+02  0.00000000000E+00 0.  1.
          2   -1    0    0  501    0  0.00000000000E+00 -0.00000000000E+00 -0.11603034184E+04  0.11603034184E+04  0.00000000000E+00 0. -1.
          5    1    1    2  502    0 -0.68914062177E+02  0.15323177904E+02 -0.63229880795E+03  0.63624509451E+03  0.47000000000E+01 0. -1.
         -5    1    1    2    0  502  0.26333921112E+02 -0.43252439671E+02 -0.17425109038E+03  0.18152074658E+03  0.47000000000E+01 0. -1.
        -11    1    1    2    0    0  0.60258904134E+02  0.39772361314E+02 -0.29933457350E+03  0.30791908538E+03  0.00000000000E+00 0.  1.
         11    1    1    2    0    0 -0.17678763069E+02 -0.11843099548E+02 -0.41975981721E+02  0.47061456756E+02  0.00000000000E+00 0. -1.
<mgrwt>
<rscale>  0 0.12445424E+03</rscale>
<asrwt>0</asrwt>
<pdfrwt beam="2">  1        2 0.17850825E+00 0.13497493E+03</pdfrwt>
<pdfrwt beam="1">  1       -2 0.19143019E-02 0.13497493E+03</pdfrwt>
<totfact> 0.16669805E+04</totfact>
</mgrwt>
</event>
<event>
 6    1  0.9263730E-006  0.3472842E+03  0.7546771E-02  0.1105582E+00
         -1   -1    0    0    0  501 -0.00000000000E+00  0.00000000000E+00  0.22498450441E+03  0.22498450441E+03  0.00000000000E+00 0.  1.
          1   -1    0    0  501    0  0.00000000000E+00 -0.00000000000E+00 -0.25073504719E+03  0.25073504719E+03  0.00000000000E+00 0. -1.
          5    1    1    2  502    0 -0.65376278603E+02  0.19533545699E+03 -0.17568036184E+02  0.20678666412E+03  0.47000000000E+01 0. -1.
         -5    1    1    2    0  502  0.48173957873E+02 -0.12920643193E+03 -0.51667349507E+02  0.14733172528E+03  0.47000000000E+01 0.  1.
        -11    1    1    2    0    0  0.30685082409E+02 -0.73978104047E+02  0.59094871328E+02  0.99531592864E+02  0.00000000000E+00 0.  1.
         11    1    1    2    0    0 -0.13482761679E+02  0.78490789911E+01 -0.15610028416E+02  0.22069569335E+02  0.00000000000E+00 0. -1.
<mgrwt>
<rscale>  0 0.26261543E+03</rscale>
<asrwt>0</asrwt>
<pdfrwt beam="2">  1        1 0.38574623E-01 0.34728417E+03</pdfrwt>
<pdfrwt beam="1">  1       -1 0.34613001E-01 0.34728417E+03</pdfrwt>
<totfact> 0.87987746E+02</totfact>
</mgrwt>
</event>
<event>
 6    1  0.9263730E-006  0.2464945E+03  0.7546771E-02  0.1118174E+00
         -2   -1    0    0    0  501 -0.00000000000E+00  0.00000000000E+00  0.11293528866E+03  0.11293528866E+03  0.00000000000E+00 0.  1.
          2   -1    0    0  501    0  0.00000000000E+00 -0.00000000000E+00 -0.53734640902E+03  0.53734640902E+03  0.00000000000E+00 0. -1.
          5    1    1    2  502    0  0.44440389908E+02 -0.68904203963E+02 -0.42054920554E+02  0.92268325669E+02  0.47000000000E+01 0.  1.
         -5    1    1    2    0  502  0.14095696277E+03 -0.34846064401E+02 -0.25761438702E+03  0.29575391115E+03  0.47000000000E+01 0.  1.
        -11    1    1    2    0    0 -0.75672273271E+02  0.34655691759E+01 -0.72059270948E+02  0.10455066543E+03  0.00000000000E+00 0. -1.
         11    1    1    2    0    0 -0.10972507941E+03  0.10028469919E+03 -0.52682541837E+02  0.15770879543E+03  0.00000000000E+00 0.  1.
<mgrwt>
<rscale>  0 0.24244562E+03</rscale>
<asrwt>0</asrwt>
<pdfrwt beam="2">  1        2 0.82668678E-01 0.24649455E+03</pdfrwt>
<pdfrwt beam="1">  1       -2 0.17374660E-01 0.24649455E+03</pdfrwt>
<totfact> 0.15309602E+03</totfact>
</mgrwt>
</event>
<event>
 6    1  0.9263730E-006  0.1401849E+03  0.7546771E-02  0.1224414E+00
          2   -1    0    0  501    0  0.00000000000E+00  0.00000000000E+00  0.94087140741E+03  0.94087140741E+03  0.00000000000E+00 0. -1.
         -2   -1    0    0    0  501 -0.00000000000E+00 -0.00000000000E+00 -0.19907535110E+02  0.19907535110E+02  0.00000000000E+00 0.  1.
          5    1    1    2  502    0 -0.14193190877E+02 -0.86573191209E+02  0.57690924946E+03  0.58356039638E+03  0.47000000000E+01 0.  1.
         -5    1    1    2    0  502 -0.23339728119E+02  0.35406533676E+02  0.12136316154E+03  0.12864475316E+03  0.47000000000E+01 0.  1.
        -11    1    1    2    0    0 -0.20866373693E+02  0.13551621560E+02  0.13835385646E+02  0.28468752940E+02  0.00000000000E+00 0.  1.
         11    1    1    2    0    0  0.58399292689E+02  0.37615035974E+02  0.20885607565E+03  0.22010504005E+03  0.00000000000E+00 0. -1.
<mgrwt>
<rscale>  0 0.13207165E+03</rscale>
<asrwt>0</asrwt>
<pdfrwt beam="1">  1        2 0.14474941E+00 0.14018493E+03</pdfrwt>
<pdfrwt beam="2">  1       -2 0.30626984E-02 0.14018493E+03</pdfrwt>
<totfact> 0.11307707E+04</totfact>
</mgrwt>
</event>
<event>
 6    1  0.9263730E-006  0.3185642E+03  0.7546771E-02  0.1076312E+00
          3   -1    0    0  501    0  0.00000000000E+00  0.00000000000E+00  0.37086817669E+02  0.37086817669E+02  0.00000000000E+00 0. -1.
         -3   -1    0    0    0  501 -0.00000000000E+00 -0.00000000000E+00 -0.68409194584E+03  0.68409194584E+03  0.00000000000E+00 0.  1.
          5    1    1    2  502    0 -0.39250327676E+02  0.30184865098E+02 -0.68368410983E+02  0.84546105315E+02  0.47000000000E+01 0. -1.
         -5    1    1    2    0  502 -0.17950043982E+02 -0.10477454174E+03 -0.12337175570E+03  0.16291896385E+03  0.47000000000E+01 0. -1.
        -11    1    1    2    0    0  0.54460895540E+02  0.13820609058E+02 -0.32654533272E+03  0.33134400960E+03  0.00000000000E+00 0.  1.
         11    1    1    2    0    0  0.27394761183E+01  0.60769067586E+02 -0.12871962876E+03  0.14236968474E+03  0.00000000000E+00 0. -1.
<mgrwt>
<rscale>  0 0.31856424E+03</rscale>
<asrwt>0</asrwt>
<pdfrwt beam="1">  1        3 0.57056640E-02 0.31856424E+03</pdfrwt>
<pdfrwt beam="2">  1       -3 0.10524492E+00 0.31856424E+03</pdfrwt>
<totfact> 0.38086238E+02</totfact>
</mgrwt>
</event>
<event>
 6    1  0.9263730E-006  0.1600722E+03  0.7546771E-02  0.1196158E+00
         -2   -1    0    0    0  501 -0.00000000000E+00  0.00000000000E+00  0.33442344679E+03  0.33442344679E+03  0.00000000000E+00 0.  1.
          2   -1    0    0  501    0  0.00000000000E+00 -0.00000000000E+00 -0.65851251676E+02  0.65851251676E+02  0.00000000000E+00 0. -1.
          5    1    1    2  502    0 -0.52039652728E+02 -0.11835975366E+02  0.23645819629E+02  0.58561340105E+02  0.47000000000E+01 0.  1.
         -5    1    1    2    0  502 -0.20449675335E+00  0.97120289848E+02  0.13908087211E+03  0.16969965087E+03  0.47000000000E+01 0.  1.
        -11    1    1    2    0    0  0.31723820221E+02 -0.23408605338E+02 -0.85551141464E+01  0.40342949215E+02  0.00000000000E+00 0. -1.
         11    1    1    2    0    0  0.20520329260E+02 -0.61875709145E+02  0.11440061753E+03  0.13167075828E+03  0.00000000000E+00 0.  1.
<mgrwt>
<rscale>  0 0.15356639E+03</rscale>
<asrwt>0</asrwt>
<pdfrwt beam="2">  1        2 0.10130962E-01 0.16007218E+03</pdfrwt>
<pdfrwt beam="1">  1       -2 0.51449760E-01 0.16007218E+03</pdfrwt>
<totfact> 0.22244794E+03</totfact>
</mgrwt>
</event>
<event>
 6    1  0.9263730E-006  0.1304090E+03  0.7546771E-02  0.1234725E+00
         -2   -1    0    0    0  501 -0.00000000000E+00  0.00000000000E+00  0.10352916520E+02  0.10352916520E+02  0.00000000000E+00 0.  1.
          2   -1    0    0  501    0  0.00000000000E+00 -0.00000000000E+00 -0.15623028148E+04  0.15623028148E+04  0.00000000000E+00 0. -1.
          5    1    1    2  502    0 -0.87666287525E+01 -0.36642170554E+02 -0.14546469502E+03  0.15033818523E+03  0.47000000000E+01 0. -1.
         -5    1    1    2    0  502  0.24865493187E+02  0.70116600695E+02 -0.93531021491E+03  0.93827603537E+03  0.47000000000E+01 0. -1.
        -11    1    1    2    0    0  0.65321215514E+01 -0.68680864464E+02 -0.29749083840E+03  0.30538586851E+03  0.00000000000E+00 0. -1.
         11    1    1    2    0    0 -0.22630985986E+02  0.35206434323E+02 -0.17368414990E+03  0.17865564215E+03  0.00000000000E+00 0.  1.
<mgrwt>
<rscale>  0 0.12522070E+03</rscale>
<asrwt>0</asrwt>
<pdfrwt beam="2">  1        2 0.24035391E+00 0.13040903E+03</pdfrwt>
<pdfrwt beam="1">  1       -2 0.15927589E-02 0.13040903E+03</pdfrwt>
<totfact> 0.13242276E+04</totfact>
</mgrwt>
</event>
<event>
 6    1  0.9263730E-006  0.2021550E+03  0.7546771E-02  0.1149783E+00
          1   -1    0    0  501    0  0.00000000000E+00  0.00000000000E+00  0.39203479326E+03  0.39203479326E+03  0.00000000000E+00 0. -1.
         -1   -1    0    0    0  501 -0.00000000000E+00 -0.00000000000E+00 -0.10009340985E+03  0.10009340985E+03  0.00000000000E+00 0.  1.
          5    1    1    2  502    0 -0.20143464776E+02 -0.17245909863E+02  0.15125546722E+02  0.30887744233E+02  0.47000000000E+01 0. -1.
         -5    1    1    2    0  502  0.17208587540E+03 -0.29183496276E+02  0.14709932374E+03  0.22831015311E+03  0.47000000000E+01 0. -1.
        -11    1    1    2    0    0  0.64018515542E+01  0.21751400270E+02  0.47904350700E+02  0.52999376723E+02  0.00000000000E+00 0. -1.
         11    1    1    2    0    0 -0.15834426218E+03  0.24678005868E+02  0.81812162251E+02  0.17993092906E+03  0.00000000000E+00 0.  1.
<mgrwt>
<rscale>  0 0.19994754E+03</rscale>
<asrwt>0</asrwt>
<pdfrwt beam="1">  1        1 0.60313044E-01 0.20215499E+03</pdfrwt>
<pdfrwt beam="2">  1       -1 0.15398986E-01 0.20215499E+03</pdfrwt>
<totfact> 0.19006938E+03</totfact>
</mgrwt>
</event>
<event>
 6    1  0.9263730E-006  0.2433629E+03  0.7546771E-02  0.1117573E+00
          2   -1    0    0  501    0  0.00000000000E+00  0.00000000000E+00  0.11602726744E+04  0.11602726744E+04  0.00000000000E+00 0. -1.
         -2   -1    0    0    0  501 -0.00000000000E+00 -0.00000000000E+00 -0.12761111715E+02  0.12761111715E+02  0.00000000000E+00 0.  1.
          5    1    1    2  502    0 -0.21108004488E+02  0.13270288154E+02  0.67027217365E+03  0.67075220847E+03  0.47000000000E+01 0.  1.
         -5    1    1    2    0  502  0.56864896400E+02 -0.12322049880E+02  0.17546550645E+03  0.18492074873E+03  0.47000000000E+01 0.  1.
        -11    1    1    2    0    0 -0.18401507751E+02  0.45080711858E+02  0.16355306888E+03  0.17064727484E+03  0.00000000000E+00 0. -1.
         11    1    1    2    0    0 -0.17355384161E+02 -0.46028950132E+02  0.13822081372E+03  0.14671355409E+03  0.00000000000E+00 0.  1.
<mgrwt>
<rscale>  0 0.24336285E+03</rscale>
<asrwt>0</asrwt>
<pdfrwt beam="1">  1        2 0.17850341E+00 0.24336285E+03</pdfrwt>
<pdfrwt beam="2">  1       -2 0.19632489E-02 0.24336285E+03</pdfrwt>
<totfact> 0.16615244E+04</totfact>
</mgrwt>
</event>
<event>
 6    1  0.9263730E-006  0.2314271E+03  0.7546771E-02  0.1128629E+00
          2   -1    0    0  501    0  0.00000000000E+00  0.00000000000E+00  0.75871098125E+03  0.75871098125E+03  0.00000000000E+00 0. -1.
         -2   -1    0    0    0  501 -0.00000000000E+00 -0.00000000000E+00 -0.84314744632E+02  0.84314744632E+02  0.00000000000E+00 0.  1.
          5    1    1    2  502    0  0.67349560772E+02  0.67825301338E+02  0.15081309802E+03  0.17861387229E+03  0.47000000000E+01 0. -1.
         -5    1    1    2    0  502 -0.24908921858E+02  0.12224652551E+03  0.39424131891E+03  0.41353715059E+03  0.47000000000E+01 0. -1.
        -11    1    1    2    0    0  0.13739027790E+01 -0.84057346960E+02  0.88865889190E+01  0.84536954341E+02  0.00000000000E+00 0.  1.
         11    1    1    2    0    0 -0.43814541693E+02 -0.10601447989E+03  0.12045523077E+03  0.16633774866E+03  0.00000000000E+00 0. -1.
<mgrwt>
<rscale>  0 0.22719632E+03</rscale>
<asrwt>0</asrwt>
<pdfrwt beam="1">  1        2 0.11672476E+00 0.23142713E+03</pdfrwt>
<pdfrwt beam="2">  1       -2 0.12971500E-01 0.23142713E+03</pdfrwt>
<totfact> 0.16492307E+03</totfact>
</mgrwt>
</event>
<event>
 6    1  0.9263730E-006  0.1300112E+03  0.7546771E-02  0.1241759E+00
          2   -1    0    0  501    0  0.00000000000E+00  0.00000000000E+00  0.53609275286E+03  0.53609275286E+03  0.00000000000E+00 0. -1.
         -2   -1    0    0    0  501 -0.00000000000E+00 -0.00000000000E+00 -0.24022755088E+02  0.24022755088E+02  0.00000000000E+00 0.  1.
          5    1    1    2  502    0  0.41721309553E+02  0.57904842109E+02  0.12173256865E+03  0.14118975416E+03  0.47000000000E+01 0. -1.
         -5    1    1    2    0  502 -0.48222952887E+02 -0.22755550209E+02  0.16933648270E+03  0.17759561544E+03  0.47000000000E+01 0. -1.
        -11    1    1    2    0    0  0.38263656445E+02 -0.48960571130E+02  0.14871605187E+03  0.16117601873E+03  0.00000000000E+00 0.  1.
         11    1    1    2    0    0 -0.31762013111E+02  0.13811279229E+02  0.72284894554E+02  0.80154119616E+02  0.00000000000E+00 0. -1.
<mgrwt>
<rscale>  0 0.12081470E+03</rscale>
<asrwt>0</asrwt>
<pdfrwt beam="1">  1        2 0.82475799E-01 0.13001123E+03</pdfrwt>
<pdfrwt beam="2">  1       -2 0.36958089E-02 0.13001123E+03</pdfrwt>
<totfact> 0.16762560E+04</totfact>
</mgrwt>
</event>
<event>
 6    1  0.9263730E-006  0.1310970E+03  0.7546771E-02  0.1239770E+00
         -1   -1    0    0    0  501 -0.00000000000E+00  0.00000000000E+00  0.35811551419E+03  0.35811551419E+03  0.00000000000E+00 0.  1.
          1   -1    0    0  501    0  0.00000000000E+00 -0.00000000000E+00 -0.37563222517E+02  0.37563222517E+02  0.00000000000E+00 0. -1.
          5    1    1    2  502    0 -0.65253461377E+02  0.16370509294E+02  0.13199617279E+03  0.14822647344E+03  0.47000000000E+01 0. -1.
         -5    1    1    2    0  502  0.33501118980E+02 -0.36119411566E+02  0.22406564291E+02  0.54323852846E+02  0.47000000000E+01 0.  1.
        -11    1    1    2    0    0  0.52987501832E+02  0.38737948709E+02  0.13926683501E+03  0.15395959000E+03  0.00000000000E+00 0. -1.
         11    1    1    2    0    0 -0.21235159436E+02 -0.18989046438E+02  0.26882719577E+02  0.39168820416E+02  0.00000000000E+00 0.  1.
<mgrwt>
<rscale>  0 0.12203977E+03</rscale>
<asrwt>0</asrwt>
<pdfrwt beam="2">  1        1 0.57789576E-02 0.13109702E+03</pdfrwt>
<pdfrwt beam="1">  1       -1 0.55094692E-01 0.13109702E+03</pdfrwt>
<totfact> 0.44456806E+03</totfact>
</mgrwt>
</event>
<event>
 6    1  0.9263730E-006  0.1298998E+03  0.7546771E-02  0.1244862E+00
         -2   -1    0    0    0  501 -0.00000000000E+00  0.00000000000E+00  0.41502119349E+02  0.41502119349E+02  0.00000000000E+00 0.  1.
          2   -1    0    0  501    0  0.00000000000E+00 -0.00000000000E+00 -0.30794562264E+03  0.30794562264E+03  0.00000000000E+00 0. -1.
          5    1    1    2  502    0 -0.21518537782E+02  0.37619172405E+02 -0.99127563997E+01  0.44705730507E+02  0.47000000000E+01 0. -1.
         -5    1    1    2    0  502  0.42370300545E+02 -0.90761616914E+01 -0.18124214952E+03  0.18640929655E+03  0.47000000000E+01 0. -1.
        -11    1    1    2    0    0 -0.50110663574E+02 -0.85289403817E+01 -0.24581409610E+02  0.56462971285E+02  0.00000000000E+00 0.  1.
         11    1    1    2    0    0  0.29258900812E+02 -0.20014070332E+02 -0.50707187767E+02  0.61869743649E+02  0.00000000000E+00 0. -1.
<mgrwt>
<rscale>  0 0.11893638E+03</rscale>
<asrwt>0</asrwt>
<pdfrwt beam="2">  1        2 0.47376252E-01 0.12989980E+03</pdfrwt>
<pdfrwt beam="1">  1       -2 0.63849411E-02 0.12989980E+03</pdfrwt>
<totfact> 0.13400299E+04</totfact>
</mgrwt>
</event>
<event>
 6    1  0.9263730E-006  0.1803104E+03  0.7546771E-02  0.1173956E+00
         -1   -1    0    0    0  501 -0.00000000000E+00  0.00000000000E+00  0.59049805879E+02  0.59049805879E+02  0.00000000000E+00 0.  1.
          1   -1    0    0  501    0  0.00000000000E+00 -0.00000000000E+00 -0.48144951449E+03  0.48144951449E+03  0.00000000000E+00 0. -1.
          5    1    1    2  502    0 -0.87847912609E+02  0.30613465664E+02 -0.59013158670E+02  0.11026823172E+03  0.47000000000E+01 0.  1.
         -5    1    1    2    0  502 -0.42098768380E+02 -0.29969215666E+02 -0.19138539222E+03  0.19829502904E+03  0.47000000000E+01 0.  1.
        -11    1    1    2    0    0  0.12538835858E+03  0.24229126464E+02 -0.15755701691E+03  0.20281396553E+03  0.00000000000E+00 0. -1.
         11    1    1    2    0    0  0.45583224080E+01 -0.24873376462E+02 -0.14444140806E+02  0.29122094077E+02  0.00000000000E+00 0.  1.
<mgrwt>
<rscale>  0 0.17378602E+03</rscale>
<asrwt>0</asrwt>
<pdfrwt beam="2">  1        1 0.74069156E-01 0.18031043E+03</pdfrwt>
<pdfrwt beam="1">  1       -1 0.90845855E-02 0.18031043E+03</pdfrwt>
<totfact> 0.33027310E+03</totfact>
</mgrwt>
</event>
<event>
 6    1  0.9263730E-006  0.3194332E+03  0.7546771E-02  0.1075910E+00
          1   -1    0    0  501    0  0.00000000000E+00  0.00000000000E+00  0.25115439709E+03  0.25115439709E+03  0.00000000000E+00 0. -1.
         -1   -1    0    0    0  501 -0.00000000000E+00 -0.00000000000E+00 -0.10156857232E+03  0.10156857232E+03  0.00000000000E+00 0.  1.
          5    1    1    2  502    0 -0.11625774118E+03 -0.37419320465E+02  0.99996066499E+02  0.15791570930E+03  0.47000000000E+01 0. -1.
         -5    1    1    2    0  502  0.18831453829E+02  0.46947293205E+01  0.53734539785E+02  0.57324993699E+02  0.47000000000E+01 0.  1.
        -11    1    1    2    0    0  0.51574202844E+02  0.58368462479E+02  0.18844293193E+02  0.80136653269E+02  0.00000000000E+00 0. -1.
         11    1    1    2    0    0  0.45852084505E+02 -0.25643871335E+02 -0.22989074706E+02  0.57345613139E+02  0.00000000000E+00 0.  1.
<mgrwt>
<rscale>  0 0.31943321E+03</rscale>
<asrwt>0</asrwt>
<pdfrwt beam="1">  1        1 0.38639138E-01 0.31943321E+03</pdfrwt>
<pdfrwt beam="2">  1       -1 0.15625934E-01 0.31943321E+03</pdfrwt>
<totfact> 0.33056799E+03</totfact>
</mgrwt>
</event>
<event>
 6    1  0.9263730E-006  0.3857965E+03  0.7546771E-02  0.1048812E+00
          2   -1    0    0  501    0  0.00000000000E+00  0.00000000000E+00  0.18259518494E+04  0.18259518494E+04  0.00000000000E+00 0.  1.
         -2   -1    0    0    0  501 -0.00000000000E+00 -0.00000000000E+00 -0.20378262108E+02  0.20378262108E+02  0.00000000000E+00 0. -1.
          5    1    1    2  502    0  0.32695010186E+02  0.30614870539E+02  0.11026194549E+03  0.11910508223E+03  0.47000000000E+01 0.  1.
         -5    1    1    2    0  502  0.11443672393E+03 -0.28406717197E+02  0.11224213533E+04  0.11286073231E+04  0.47000000000E+01 0.  1.
        -11    1    1    2    0    0 -0.73767034307E+02 -0.47170692344E+02  0.29052780009E+03  0.30343541683E+03  0.00000000000E+00 0.  1.
         11    1    1    2    0    0 -0.73364699805E+02  0.44962539002E+02  0.28236248841E+03  0.29518228936E+03  0.00000000000E+00 0. -1.
<mgrwt>
<rscale>  0 0.38579645E+03</rscale>
<asrwt>0</asrwt>
<pdfrwt beam="1">  1        2 0.28091554E+00 0.38579645E+03</pdfrwt>
<pdfrwt beam="2">  1       -2 0.31351187E-02 0.38579645E+03</pdfrwt>
<totfact> 0.36304226E+03</totfact>
</mgrwt>
</event>
<event>
 6    1  0.9263730E-006  0.1479776E+03  0.7546771E-02  0.1214779E+00
         -1   -1    0    0    0  501 -0.00000000000E+00  0.00000000000E+00  0.17100526248E+02  0.17100526248E+02  0.00000000000E+00 0.  1.
          1   -1    0    0  501    0  0.00000000000E+00 -0.00000000000E+00 -0.10678769783E+04  0.10678769783E+04  0.00000000000E+00 0. -1.
          5    1    1    2  502    0 -0.62218500545E+02 -0.12676266628E+02 -0.25508147573E+03  0.26290773820E+03  0.47000000000E+01 0. -1.
         -5    1    1    2    0  502  0.20257992907E+02  0.79827953040E+02 -0.45724960123E+03  0.46463122601E+03  0.47000000000E+01 0. -1.
        -11    1    1    2    0    0 -0.80192285767E+01 -0.30311583908E+02 -0.32129688279E+02  0.44893396116E+02  0.00000000000E+00 0.  1.
         11    1    1    2    0    0  0.49979736214E+02 -0.36840102505E+02 -0.30631568683E+03  0.31254514423E+03  0.00000000000E+00 0. -1.
<mgrwt>
<rscale>  0 0.13892770E+03</rscale>
<asrwt>0</asrwt>
<pdfrwt beam="2">  1        1 0.16428884E+00 0.14797764E+03</pdfrwt>
<pdfrwt beam="1">  1       -1 0.26308490E-02 0.14797764E+03</pdfrwt>
<totfact> 0.63720294E+03</totfact>
</mgrwt>
</event>
<event>
 6    1  0.9263730E-006  0.1377761E+03  0.7546771E-02  0.1228387E+00
          2   -1    0    0  501    0  0.00000000000E+00  0.00000000000E+00  0.87495165367E+03  0.87495165367E+03  0.00000000000E+00 0. -1.
         -2   -1    0    0    0  501 -0.00000000000E+00 -0.00000000000E+00 -0.17166581661E+02  0.17166581661E+02  0.00000000000E+00 0.  1.
          5    1    1    2  502    0 -0.14239942806E+02 -0.19097722968E+02  0.13942410094E+02  0.27999639157E+02  0.47000000000E+01 0. -1.
         -5    1    1    2    0  502 -0.68394846715E+01  0.73063448186E+02  0.44999240717E+03  0.45596085635E+03  0.47000000000E+01 0. -1.
        -11    1    1    2    0    0  0.52812665660E+02 -0.45566649823E+02  0.31711900981E+03  0.32469980538E+03  0.00000000000E+00 0. -1.
         11    1    1    2    0    0 -0.31733238182E+02 -0.83990753950E+01  0.76731244932E+02  0.83457934445E+02  0.00000000000E+00 0.  1.
<mgrwt>
<rscale>  0 0.12937433E+03</rscale>
<asrwt>0</asrwt>
<pdfrwt beam="1">  1        2 0.13460791E+00 0.13777607E+03</pdfrwt>
<pdfrwt beam="2">  1       -2 0.26410132E-02 0.13777607E+03</pdfrwt>
<totfact> 0.15443796E+04</totfact>
</mgrwt>
</event>
<event>
 6    1  0.9263730E-006  0.1453768E+03  0.7546771E-02  0.1218526E+00
          3   -1    0    0  501    0  0.00000000000E+00  0.00000000000E+00  0.27372393154E+03  0.27372393154E+03  0.00000000000E+00 0. -1.
         -3   -1    0    0    0  501 -0.00000000000E+00 -0.00000000000E+00 -0.61945511159E+02  0.61945511159E+02  0.00000000000E+00 0.  1.
          5    1    1    2  502    0  0.30904960733E+02  0.23657049710E+02  0.62336329965E+02  0.73638852737E+02  0.47000000000E+01 0. -1.
         -5    1    1    2    0  502 -0.95724058607E+02 -0.36268026654E+02  0.82273766109E+02  0.13141357519E+03  0.47000000000E+01 0.  1.
        -11    1    1    2    0    0 -0.69159136573E+01  0.35924641346E+02  0.21095176016E+02  0.42230512295E+02  0.00000000000E+00 0.  1.
         11    1    1    2    0    0  0.71735011532E+02 -0.23313664402E+02  0.46073148290E+02  0.88386502480E+02  0.00000000000E+00 0. -1.
<mgrwt>
<rscale>  0 0.13620670E+03</rscale>
<asrwt>0</asrwt>
<pdfrwt beam="1">  1        3 0.42111373E-01 0.14537681E+03</pdfrwt>
<pdfrwt beam="2">  1       -3 0.95300788E-02 0.14537681E+03</pdfrwt>
<totfact> 0.10466417E+03</totfact>
</mgrwt>
</event>
<event>
 6    1  0.9263730E-006  0.1348787E+03  0.7546771E-02  0.1232985E+00
         -1   -1    0    0    0  501 -0.00000000000E+00  0.00000000000E+00  0.46240583989E+02  0.46240583989E+02  0.00000000000E+00 0.  1.
          1   -1    0    0  501    0  0.00000000000E+00 -0.00000000000E+00 -0.30819740608E+03  0.30819740608E+03  0.00000000000E+00 0. -1.
          5    1    1    2  502    0 -0.16979547968E+02 -0.36806287924E+02  0.97752631011E+01  0.41960143573E+02  0.47000000000E+01 0. -1.
         -5    1    1    2    0  502  0.13750744663E+02 -0.13818038688E+02 -0.15479246909E+03  0.15608593677E+03  0.47000000000E+01 0. -1.
        -11    1    1    2    0    0 -0.18052428450E+02  0.51454918247E+01  0.89957509392E+01  0.20815614188E+02  0.00000000000E+00 0.  1.
         11    1    1    2    0    0  0.21281231756E+02  0.45478834787E+02 -0.12593536704E+03  0.13557629553E+03  0.00000000000E+00 0. -1.
<mgrwt>
<rscale>  0 0.12634345E+03</rscale>
<asrwt>0</asrwt>
<pdfrwt beam="2">  1        1 0.47414983E-01 0.13487869E+03</pdfrwt>
<pdfrwt beam="1">  1       -1 0.71139365E-02 0.13487869E+03</pdfrwt>
<totfact> 0.82834812E+03</totfact>
</mgrwt>
</event>
<event>
 6    1  0.9263730E-006  0.3921728E+03  0.7546771E-02  0.1046524E+00
          2   -1    0    0  501    0  0.00000000000E+00  0.00000000000E+00  0.28357716742E+02  0.28357716742E+02  0.00000000000E+00 0. -1.
         -2   -1    0    0    0  501 -0.00000000000E+00 -0.00000000000E+00 -0.13558874162E+04  0.13558874162E+04  0.00000000000E+00 0.  1.
          5    1    1    2  502    0  0.18942865110E+01 -0.19507368987E+02 -0.23376114304E+02  0.30865166226E+02  0.47000000000E+01 0.  1.
         -5    1    1    2    0  502  0.14129041202E+03  0.92908535421E+02 -0.75723151297E+03  0.77589730681E+03  0.47000000000E+01 0.  1.
        -11    1    1    2    0    0 -0.68592153208E+02  0.71643641211E+01 -0.28992615612E+03  0.29801575059E+03  0.00000000000E+00 0.  1.
         11    1    1    2    0    0 -0.74592545324E+02 -0.80565530555E+02 -0.25699591610E+03  0.27946690936E+03  0.00000000000E+00 0. -1.
<mgrwt>
<rscale>  0 0.39217277E+03</rscale>
<asrwt>0</asrwt>
<pdfrwt beam="1">  1        2 0.43627249E-02 0.39217277E+03</pdfrwt>
<pdfrwt beam="2">  1       -2 0.20859810E+00 0.39217277E+03</pdfrwt>
<totfact> 0.23989374E+02</totfact>
</mgrwt>
</event>
<event>
 6    1  0.9263730E-006  0.1289866E+03  0.7546771E-02  0.1242809E+00
          3   -1    0    0  501    0  0.00000000000E+00  0.00000000000E+00  0.11315873818E+03  0.11315873818E+03  0.00000000000E+00 0. -1.
         -3   -1    0    0    0  501 -0.00000000000E+00 -0.00000000000E+00 -0.11476154876E+03  0.11476154876E+03  0.00000000000E+00 0.  1.
          5    1    1    2  502    0  0.24801697552E+02 -0.22106108774E+00 -0.43729872591E+02  0.50493215646E+02  0.47000000000E+01 0.  1.
         -5    1    1    2    0  502 -0.53104796128E+02 -0.14289382463E+02  0.56725166237E+02  0.79146322136E+02  0.47000000000E+01 0.  1.
        -11    1    1    2    0    0 -0.75229888444E+01  0.14048318680E+02  0.34206537241E+02  0.37736425491E+02  0.00000000000E+00 0. -1.
         11    1    1    2    0    0  0.35826087421E+02  0.46212487136E+00 -0.48804641469E+02  0.60544323666E+02  0.00000000000E+00 0.  1.
<mgrwt>
<rscale>  0 0.12017506E+03</rscale>
<asrwt>0</asrwt>
<pdfrwt beam="1">  1        3 0.17409037E-01 0.12898656E+03</pdfrwt>
<pdfrwt beam="2">  1       -3 0.17655623E-01 0.12898656E+03</pdfrwt>
<totfact> 0.18221280E+03</totfact>
</mgrwt>
</event>
<event>
 6    1  0.9263730E-006  0.1637586E+03  0.7546771E-02  0.1191475E+00
         -2   -1    0    0    0  501 -0.00000000000E+00  0.00000000000E+00  0.95002545265E+02  0.95002545265E+02  0.00000000000E+00 0.  1.
          2   -1    0    0  501    0  0.00000000000E+00 -0.00000000000E+00 -0.24372157738E+03  0.24372157738E+03  0.00000000000E+00 0. -1.
          5    1    1    2  502    0  0.37340732020E+02 -0.44912032539E+02 -0.16772651109E+02  0.60949427887E+02  0.47000000000E+01 0.  1.
         -5    1    1    2    0  502  0.60833388252E+02  0.84323375786E+02 -0.56866502198E+02  0.11860447674E+03  0.47000000000E+01 0.  1.
        -11    1    1    2    0    0 -0.49513628928E+02 -0.50335841684E+02 -0.82676725631E+02  0.10872321449E+03  0.00000000000E+00 0.  1.
         11    1    1    2    0    0 -0.48660491344E+02  0.10924498436E+02  0.75968468204E+01  0.50447003534E+02  0.00000000000E+00 0. -1.
<mgrwt>
<rscale>  0 0.15756376E+03</rscale>
<asrwt>0</asrwt>
<pdfrwt beam="2">  1        2 0.37495628E-01 0.16375860E+03</pdfrwt>
<pdfrwt beam="1">  1       -2 0.14615776E-01 0.16375860E+03</pdfrwt>
<totfact> 0.47483831E+03</totfact>
</mgrwt>
</event>
<event>
 6    1  0.9263730E-006  0.1294392E+03  0.7546771E-02  0.1243268E+00
         -1   -1    0    0    0  501 -0.00000000000E+00  0.00000000000E+00  0.25562432619E+02  0.25562432619E+02  0.00000000000E+00 0.  1.
          1   -1    0    0  501    0  0.00000000000E+00 -0.00000000000E+00 -0.49404594466E+03  0.49404594466E+03  0.00000000000E+00 0. -1.
          5    1    1    2  502    0 -0.44129809403E+02 -0.50941780270E+01 -0.21062328794E+02  0.49387269837E+02  0.47000000000E+01 0. -1.
         -5    1    1    2    0  502  0.20014024576E+02 -0.18409522248E+02 -0.24437916615E+03  0.24593238610E+03  0.47000000000E+01 0. -1.
        -11    1    1    2    0    0  0.38074063695E+02  0.27048888372E+02 -0.20454478790E+03  0.20980907260E+03  0.00000000000E+00 0. -1.
         11    1    1    2    0    0 -0.13958278868E+02 -0.35451880971E+01  0.15027707949E+01  0.14479648741E+02  0.00000000000E+00 0.  1.
<mgrwt>
<rscale>  0 0.11989647E+03</rscale>
<asrwt>0</asrwt>
<pdfrwt beam="2">  1        1 0.76007067E-01 0.12943922E+03</pdfrwt>
<pdfrwt beam="1">  1       -1 0.39326820E-02 0.12943922E+03</pdfrwt>
<totfact> 0.10964398E+04</totfact>
</mgrwt>
</event>
<event>
 6    1  0.9263730E-006  0.1281417E+03  0.7546771E-02  0.1245442E+00
          1   -1    0    0  501    0  0.00000000000E+00  0.00000000000E+00  0.19027166153E+03  0.19027166153E+03  0.00000000000E+00 0. -1.
         -1   -1    0    0    0  501 -0.00000000000E+00 -0.00000000000E+00 -0.72312790670E+02  0.72312790670E+02  0.00000000000E+00 0.  1.
          5    1    1    2  502    0 -0.69660523704E+01  0.45049221249E+02 -0.72471757755E+01  0.46395794825E+02  0.47000000000E+01 0. -1.
         -5    1    1    2    0  502 -0.17835673439E+02 -0.31610416327E+02  0.11612268644E+03  0.12175343105E+03  0.47000000000E+01 0. -1.
        -11    1    1    2    0    0  0.27244072444E+02  0.56846584573E+00  0.46784517197E+02  0.54141977117E+02  0.00000000000E+00 0. -1.
         11    1    1    2    0    0 -0.24423466348E+01 -0.14007270768E+02 -0.37701157006E+02  0.40293249199E+02  0.00000000000E+00 0.  1.
<mgrwt>
<rscale>  0 0.11858962E+03</rscale>
<asrwt>0</asrwt>
<pdfrwt beam="1">  1        1 0.29272563E-01 0.12814166E+03</pdfrwt>
<pdfrwt beam="2">  1       -1 0.11125045E-01 0.12814166E+03</pdfrwt>
<totfact> 0.76099459E+03</totfact>
</mgrwt>
</event>
<event>
 6    1  0.9263730E-006  0.1256638E+03  0.7546771E-02  0.1248790E+00
         -3   -1    0    0    0  501 -0.00000000000E+00  0.00000000000E+00  0.41364027697E+02  0.41364027697E+02  0.00000000000E+00 0.  1.
          3   -1    0    0  501    0  0.00000000000E+00 -0.00000000000E+00 -0.29061441952E+03  0.29061441952E+03  0.00000000000E+00 0. -1.
          5    1    1    2  502    0 -0.26602382371E+02 -0.56821409415E+02 -0.41644520967E+02  0.75450085767E+02  0.47000000000E+01 0.  1.
         -5    1    1    2    0  502  0.25518097228E+02  0.43973687990E+02 -0.11163307578E+03  0.12275541589E+03  0.47000000000E+01 0.  1.
        -11    1    1    2    0    0 -0.93399333770E+01 -0.31981235988E+02 -0.77170548372E+02  0.84055501586E+02  0.00000000000E+00 0. -1.
         11    1    1    2    0    0  0.10424218521E+02  0.44828957413E+02 -0.18802246704E+02  0.49717443977E+02  0.00000000000E+00 0.  1.
<mgrwt>
<rscale>  0 0.11661391E+03</rscale>
<asrwt>0</asrwt>
<pdfrwt beam="2">  1        3 0.44709911E-01 0.12566383E+03</pdfrwt>
<pdfrwt beam="1">  1       -3 0.63636966E-02 0.12566383E+03</pdfrwt>
<totfact> 0.17516796E+03</totfact>
</mgrwt>
</event>
<event>
 6    1  0.9263730E-006  0.3652097E+03  0.7546771E-02  0.1056540E+00
         -2   -1    0    0    0  501 -0.00000000000E+00  0.00000000000E+00  0.68958943553E+02  0.68958943553E+02  0.00000000000E+00 0.  1.
          2   -1    0    0  501    0  0.00000000000E+00 -0.00000000000E+00 -0.48354182944E+03  0.48354182944E+03  0.00000000000E+00 0. -1.
          5    1    1    2  502    0  0.54893029866E+01  0.16420101968E+02  0.83400642862E+01  0.19783803179E+02  0.47000000000E+01 0.  1.
         -5    1    1    2    0  502  0.92246251735E+01  0.11247049650E+03 -0.33138841763E+03  0.35010724019E+03  0.47000000000E+01 0.  1.
        -11    1    1    2    0    0 -0.35975171712E+02 -0.18176542577E+02 -0.52587534054E+01  0.40647929432E+02  0.00000000000E+00 0.  1.
         11    1    1    2    0    0  0.21261243552E+02 -0.11071405589E+03 -0.86275779137E+02  0.14196180020E+03  0.00000000000E+00 0. -1.
<mgrwt>
<rscale>  0 0.36520971E+03</rscale>
<asrwt>0</asrwt>
<pdfrwt beam="2">  1        2 0.74391051E-01 0.36520971E+03</pdfrwt>
<pdfrwt beam="1">  1       -2 0.10609068E-01 0.36520971E+03</pdfrwt>
<totfact> 0.39194774E+03</totfact>
</mgrwt>
</event>
<event>
 6    1  0.9263730E-006  0.1319438E+03  0.7546771E-02  0.1240888E+00
          2   -1    0    0  501    0  0.00000000000E+00  0.00000000000E+00  0.23580025059E+03  0.23580025059E+03  0.00000000000E+00 0. -1.
         -2   -1    0    0    0  501 -0.00000000000E+00 -0.00000000000E+00 -0.58394449111E+02  0.58394449111E+02  0.00000000000E+00 0.  1.
          5    1    1    2  502    0 -0.30896815883E+02  0.47885737335E+02  0.59890379572E+02  0.82804617245E+02  0.47000000000E+01 0.  1.
         -5    1    1    2    0  502  0.68703158118E+02 -0.29082991132E+02  0.80864572972E+02  0.11012317409E+03  0.47000000000E+01 0.  1.
        -11    1    1    2    0    0 -0.22632627991E+02 -0.40169963334E+02  0.53101085452E+02  0.70324868149E+02  0.00000000000E+00 0. -1.
         11    1    1    2    0    0 -0.15173714244E+02  0.21367217131E+02 -0.16450236514E+02  0.30942040225E+02  0.00000000000E+00 0.  1.
<mgrwt>
<rscale>  0 0.12134920E+03</rscale>
<asrwt>0</asrwt>
<pdfrwt beam="1">  1        2 0.36276961E-01 0.13194384E+03</pdfrwt>
<pdfrwt beam="2">  1       -2 0.89837615E-02 0.13194384E+03</pdfrwt>
<totfact> 0.10536006E+04</totfact>
</mgrwt>
</event>
<event>
 6    1  0.9263730E-006  0.2560946E+03  0.7546771E-02  0.1111891E+00
         -2   -1    0    0    0  501 -0.00000000000E+00  0.00000000000E+00  0.12803531924E+03  0.12803531924E+03  0.00000000000E+00 0.  1.
          2   -1    0    0  501    0  0.00000000000E+00 -0.00000000000E+00 -0.97349814548E+03  0.97349814548E+03  0.00000000000E+00 0. -1.
          5    1    1    2  502    0  0.22434752020E+02  0.17392520047E+02 -0.30966388684E+02  0.42270853787E+02  0.47000000000E+01 0.  1.
         -5    1    1    2    0  502 -0.55242018575E+02  0.20370421318E+03 -0.78912030289E+03  0.81687210107E+03  0.47000000000E+01 0.  1.
        -11    1    1    2    0    0 -0.16930328581E+02 -0.74836505617E+02 -0.41211929196E+02  0.87095130214E+02  0.00000000000E+00 0.  1.
         11    1    1    2    0    0  0.49737595136E+02 -0.14626022761E+03  0.15835794520E+02  0.15529537964E+03  0.00000000000E+00 0. -1.
<mgrwt>
<rscale>  0 0.25224985E+03</rscale>
<asrwt>0</asrwt>
<pdfrwt beam="2">  1        2 0.14976895E+00 0.25609458E+03</pdfrwt>
<pdfrwt beam="1">  1       -2 0.19697741E-01 0.25609458E+03</pdfrwt>
<totfact> 0.59171222E+02</totfact>
</mgrwt>
</event>
<event>
 6    1  0.9263730E-006  0.2896196E+03  0.7546771E-02  0.1090548E+00
          2   -1    0    0  501    0  0.00000000000E+00  0.00000000000E+00  0.86260976725E+03  0.86260976725E+03  0.00000000000E+00 0. -1.
         -2   -1    0    0    0  501 -0.00000000000E+00 -0.00000000000E+00 -0.24309815680E+02  0.24309815680E+02  0.00000000000E+00 0.  1.
          5    1    1    2  502    0  0.17347176089E+02 -0.15079956671E+02  0.19426568303E+02  0.30459992900E+02  0.47000000000E+01 0.  1.
         -5    1    1    2    0  502  0.50165766108E+01 -0.56825159335E+01  0.72156215521E+03  0.72161727451E+03  0.47000000000E+01 0.  1.
        -11    1    1    2    0    0 -0.35823522138E+02 -0.25445442228E+02  0.57593318752E+02  0.72441601538E+02  0.00000000000E+00 0.  1.
         11    1    1    2    0    0  0.13459769438E+02  0.46207914833E+02  0.39717909300E+02  0.62400713984E+02  0.00000000000E+00 0. -1.
<mgrwt>
<rscale>  0 0.28961964E+03</rscale>
<asrwt>0</asrwt>
<pdfrwt beam="1">  1        2 0.13270917E+00 0.28961964E+03</pdfrwt>
<pdfrwt beam="2">  1       -2 0.37399723E-02 0.28961964E+03</pdfrwt>
<totfact> 0.97732474E+03</totfact>
</mgrwt>
</event>
<event>
 6    1  0.9263730E-006  0.1328437E+03  0.7546771E-02  0.1235896E+00
          1   -1    0    0  501    0  0.00000000000E+00  0.00000000000E+00  0.10399195462E+03  0.10399195462E+03  0.00000000000E+00 0. -1.
         -1   -1    0    0    0  501 -0.00000000000E+00 -0.00000000000E+00 -0.14321723219E+03  0.14321723219E+03  0.00000000000E+00 0.  1.
          5    1    1    2  502    0  0.44720023988E+02 -0.64235542003E+02  0.15000860840E+02  0.79832331971E+02  0.47000000000E+01 0.  1.
         -5    1    1    2    0  502 -0.49367588005E+02  0.19464504363E+02 -0.42653318383E+01  0.53444445280E+02  0.47000000000E+01 0.  1.
        -11    1    1    2    0    0  0.26409872168E+02  0.33615213437E+02  0.14378534102E+02  0.45102174729E+02  0.00000000000E+00 0. -1.
         11    1    1    2    0    0 -0.21762308151E+02  0.11155824204E+02 -0.64339340669E+02  0.68830234835E+02  0.00000000000E+00 0.  1.
<mgrwt>
<rscale>  0 0.12447274E+03</rscale>
<asrwt>0</asrwt>
<pdfrwt beam="1">  1        1 0.15998762E-01 0.13284370E+03</pdfrwt>
<pdfrwt beam="2">  1       -1 0.22033420E-01 0.13284370E+03</pdfrwt>
<totfact> 0.55915475E+03</totfact>
</mgrwt>
</event>
<event>
 6    1  0.9263730E-006  0.2795341E+03  0.7546771E-02  0.1097739E+00
          2   -1    0    0  501    0  0.00000000000E+00  0.00000000000E+00  0.90538664898E+03  0.90538664898E+03  0.00000000000E+00 0. -1.
         -2   -1    0    0    0  501 -0.00000000000E+00 -0.00000000000E+00 -0.89838756554E+02  0.89838756554E+02  0.00000000000E+00 0.  1.
          5    1    1    2  502    0  0.46574872549E+02  0.76010927912E+02  0.34981076627E+03  0.36102152584E+03  0.47000000000E+01 0. -1.
         -5    1    1    2    0  502  0.73130634845E+02  0.14349055157E+03  0.20988152362E+03  0.26459397593E+03  0.47000000000E+01 0. -1.
        -11    1    1    2    0    0 -0.27584639312E+02 -0.14637888273E+03  0.13642489396E+03  0.20198871584E+03  0.00000000000E+00 0. -1.
         11    1    1    2    0    0 -0.92120868082E+02 -0.73122596744E+02  0.11943070857E+03  0.16762118792E+03  0.00000000000E+00 0.  1.
<mgrwt>
<rscale>  0 0.27627874E+03</rscale>
<asrwt>0</asrwt>
<pdfrwt beam="1">  1        2 0.13929025E+00 0.27953407E+03</pdfrwt>
<pdfrwt beam="2">  1       -2 0.13821348E-01 0.27953407E+03</pdfrwt>
<totfact> 0.11828933E+03</totfact>
</mgrwt>
</event>
<event>
 6    1  0.9263730E-006  0.7144084E+03  0.7546771E-02  0.9692904E-01
         -2   -1    0    0    0  501 -0.00000000000E+00  0.00000000000E+00  0.10098685439E+03  0.10098685439E+03  0.00000000000E+00 0.  1.
          2   -1    0    0  501    0  0.00000000000E+00 -0.00000000000E+00 -0.12634798279E+04  0.12634798279E+04  0.00000000000E+00 0. -1.
          5    1    1    2  502    0 -0.19831297799E+02 -0.45238073494E+02 -0.65735177978E+03  0.65922167443E+03  0.47000000000E+01 0. -1.
         -5    1    1    2    0  502 -0.98115049080E+02  0.21786672001E+02 -0.54081511592E+03  0.55009481141E+03  0.47000000000E+01 0.  1.
        -11    1    1    2    0    0  0.61305935349E+02 -0.14188021323E+02  0.55931783479E+02  0.84190748074E+02  0.00000000000E+00 0.  1.
         11    1    1    2    0    0  0.56640411530E+02  0.37639422817E+02 -0.20257861280E+02  0.70959448362E+02  0.00000000000E+00 0. -1.
<mgrwt>
<rscale>  0 0.71440844E+03</rscale>
<asrwt>0</asrwt>
<pdfrwt beam="2">  1        2 0.19438153E+00 0.71440844E+03</pdfrwt>
<pdfrwt beam="1">  1       -2 0.15536438E-01 0.71440844E+03</pdfrwt>
<totfact> 0.57894076E+02</totfact>
</mgrwt>
</event>
<event>
 6    1  0.9263730E-006  0.1448783E+03  0.7546771E-02  0.1216373E+00
          2   -1    0    0  501    0  0.00000000000E+00  0.00000000000E+00  0.21374255361E+03  0.21374255361E+03  0.00000000000E+00 0. -1.
         -2   -1    0    0    0  501 -0.00000000000E+00 -0.00000000000E+00 -0.87399452541E+02  0.87399452541E+02  0.00000000000E+00 0.  1.
          5    1    1    2  502    0 -0.43326117906E+02  0.15964684228E+02 -0.16699539765E+02  0.49325330852E+02  0.47000000000E+01 0.  1.
         -5    1    1    2    0  502 -0.47202987564E+01  0.39320139751E+02  0.12599330285E+03  0.13215429230E+03  0.47000000000E+01 0.  1.
        -11    1    1    2    0    0  0.23896302531E+02 -0.66279495963E+02  0.43005019764E+02  0.82543543567E+02  0.00000000000E+00 0. -1.
         11    1    1    2    0    0  0.24150114131E+02  0.10994671984E+02 -0.25955681776E+02  0.37118839435E+02  0.00000000000E+00 0.  1.
<mgrwt>
<rscale>  0 0.13776173E+03</rscale>
<asrwt>0</asrwt>
<pdfrwt beam="1">  1        2 0.32883470E-01 0.14487832E+03</pdfrwt>
<pdfrwt beam="2">  1       -2 0.13446070E-01 0.14487832E+03</pdfrwt>
<totfact> 0.62175015E+03</totfact>
</mgrwt>
</event>
<event>
 6    1  0.9263730E-006  0.1397391E+03  0.7546771E-02  0.1224826E+00
          2   -1    0    0  501    0  0.00000000000E+00  0.00000000000E+00  0.21670860408E+03  0.21670860408E+03  0.00000000000E+00 0. -1.
         -2   -1    0    0    0  501 -0.00000000000E+00 -0.00000000000E+00 -0.73789769961E+02  0.73789769961E+02  0.00000000000E+00 0.  1.
          5    1    1    2  502    0 -0.18114004035E+02 -0.31485764232E+02  0.62703602754E+02  0.72617506772E+02  0.47000000000E+01 0.  1.
         -5    1    1    2    0  502  0.20893481019E+01  0.91873148750E+02  0.37644321456E+02  0.99419443645E+02  0.47000000000E+01 0.  1.
        -11    1    1    2    0    0  0.26629273146E+02  0.13260878628E+02 -0.49728082448E+01  0.30161198784E+02  0.00000000000E+00 0.  1.
         11    1    1    2    0    0 -0.10604617213E+02 -0.73648263147E+02  0.47543718153E+02  0.88300224839E+02  0.00000000000E+00 0. -1.
<mgrwt>
<rscale>  0 0.13178802E+03</rscale>
<asrwt>0</asrwt>
<pdfrwt beam="1">  1        2 0.33339785E-01 0.13973907E+03</pdfrwt>
<pdfrwt beam="2">  1       -2 0.11352272E-01 0.13973907E+03</pdfrwt>
<totfact> 0.80162891E+03</totfact>
</mgrwt>
</event>
<event>
 6    1  0.9263730E-006  0.2720270E+03  0.7546771E-02  0.1106442E+00
          2   -1    0    0  501    0  0.00000000000E+00  0.00000000000E+00  0.69770975292E+03  0.69770975292E+03  0.00000000000E+00 0. -1.
         -2   -1    0    0    0  501 -0.00000000000E+00 -0.00000000000E+00 -0.10775176384E+03  0.10775176384E+03  0.00000000000E+00 0.  1.
          5    1    1    2  502    0  0.47258935167E+02 -0.12788532250E+03  0.42004528823E+03  0.44164261210E+03  0.47000000000E+01 0. -1.
         -5    1    1    2    0  502 -0.33103924022E+02 -0.83855009737E+02  0.54811831584E+02  0.10561230669E+03  0.47000000000E+01 0.  1.
        -11    1    1    2    0    0  0.30476571731E+02  0.52865540237E+02  0.56280042323E+02  0.83012227611E+02  0.00000000000E+00 0. -1.
         11    1    1    2    0    0 -0.44631582876E+02  0.15887479200E+03  0.58820826950E+02  0.17519437036E+03  0.00000000000E+00 0.  1.
<mgrwt>
<rscale>  0 0.26117068E+03</rscale>
<asrwt>0</asrwt>
<pdfrwt beam="1">  1        2 0.10733996E+00 0.27202695E+03</pdfrwt>
<pdfrwt beam="2">  1       -2 0.16577195E-01 0.27202695E+03</pdfrwt>
<totfact> 0.12203331E+03</totfact>
</mgrwt>
</event>
<event>
 6    1  0.9263730E-006  0.1252307E+03  0.7546771E-02  0.1249803E+00
          1   -1    0    0  501    0  0.00000000000E+00  0.00000000000E+00  0.76506965637E+03  0.76506965637E+03  0.00000000000E+00 0. -1.
         -1   -1    0    0    0  501 -0.00000000000E+00 -0.00000000000E+00 -0.16914643648E+02  0.16914643648E+02  0.00000000000E+00 0.  1.
          5    1    1    2  502    0 -0.50794469678E+02 -0.98231767557E+01  0.39389316778E+03  0.39730402789E+03  0.47000000000E+01 0.  1.
         -5    1    1    2    0  502  0.54849486697E+02  0.16472356975E+02  0.14550043127E+03  0.15643615386E+03  0.47000000000E+01 0.  1.
        -11    1    1    2    0    0 -0.95157725636E+00 -0.46912801547E+02  0.14822202816E+03  0.15547181764E+03  0.00000000000E+00 0. -1.
         11    1    1    2    0    0 -0.31034397622E+01  0.40263621327E+02  0.60539385510E+02  0.72772300628E+02  0.00000000000E+00 0.  1.
<mgrwt>
<rscale>  0 0.11602463E+03</rscale>
<asrwt>0</asrwt>
<pdfrwt beam="1">  1        1 0.11770300E+00 0.12523072E+03</pdfrwt>
<pdfrwt beam="2">  1       -1 0.26022535E-02 0.12523072E+03</pdfrwt>
<totfact> 0.10945807E+04</totfact>
</mgrwt>
</event>
<event>
 6    1  0.9263730E-006  0.2575523E+03  0.7546771E-02  0.1115684E+00
         -2   -1    0    0    0  501 -0.00000000000E+00  0.00000000000E+00  0.64302985952E+02  0.64302985952E+02  0.00000000000E+00 0.  1.
          2   -1    0    0  501    0  0.00000000000E+00 -0.00000000000E+00 -0.13780710322E+04  0.13780710322E+04  0.00000000000E+00 0. -1.
          5    1    1    2  502    0  0.15560391584E+03  0.11064542101E+03 -0.10857001331E+04  0.11023710160E+04  0.47000000000E+01 0. -1.
         -5    1    1    2    0  502 -0.19576343812E+02  0.29294911196E+02 -0.45288244935E+02  0.57572043461E+02  0.47000000000E+01 0.  1.
        -11    1    1    2    0    0 -0.10883852891E+03 -0.15060137897E+03 -0.15271704373E+03  0.24051839050E+03  0.00000000000E+00 0.  1.
         11    1    1    2    0    0 -0.27189043118E+02  0.10661046763E+02 -0.30062624432E+02  0.41912568180E+02  0.00000000000E+00 0. -1.
<mgrwt>
<rscale>  0 0.24627235E+03</rscale>
<asrwt>0</asrwt>
<pdfrwt beam="2">  1        2 0.21201093E+00 0.25755231E+03</pdfrwt>
<pdfrwt beam="1">  1       -2 0.98927669E-02 0.25755231E+03</pdfrwt>
<totfact> 0.10753026E+03</totfact>
</mgrwt>
</event>
<event>
 6    1  0.9263730E-006  0.1271508E+03  0.7546771E-02  0.1253762E+00
         -1   -1    0    0    0  501 -0.00000000000E+00  0.00000000000E+00  0.28903519640E+02  0.28903519640E+02  0.00000000000E+00 0. -1.
          1   -1    0    0  501    0  0.00000000000E+00 -0.00000000000E+00 -0.37878821578E+03  0.37878821578E+03  0.00000000000E+00 0.  1.
          5    1    1    2  502    0  0.35943536781E+02  0.24646458851E+02 -0.95316391097E+01  0.44858978079E+02  0.47000000000E+01 0. -1.
         -5    1    1    2    0  502 -0.27504288198E+02 -0.29111640267E+01 -0.18784137327E+03  0.18992480685E+03  0.47000000000E+01 0. -1.
        -11    1    1    2    0    0 -0.23580172965E+02  0.21287053731E+02 -0.90618108838E+02  0.96025022067E+02  0.00000000000E+00 0. -1.
         11    1    1    2    0    0  0.15140924382E+02 -0.43022348555E+02 -0.61893574922E+02  0.76882928424E+02  0.00000000000E+00 0.  1.
<mgrwt>
<rscale>  0 0.11375973E+03</rscale>
<asrwt>0</asrwt>
<pdfrwt beam="2">  1        1 0.58275109E-01 0.12715078E+03</pdfrwt>
<pdfrwt beam="1">  1       -1 0.44466954E-02 0.12715078E+03</pdfrwt>
<totfact> 0.12817342E+04</totfact>
</mgrwt>
</event>
<event>
 6    1  0.9263730E-006  0.1383478E+03  0.7546771E-02  0.1227267E+00
          1   -1    0    0  501    0  0.00000000000E+00  0.00000000000E+00  0.60295725602E+03  0.60295725602E+03  0.00000000000E+00 0. -1.
         -1   -1    0    0    0  501 -0.00000000000E+00 -0.00000000000E+00 -0.25257128897E+02  0.25257128897E+02  0.00000000000E+00 0.  1.
          5    1    1    2  502    0 -0.51475045353E+02 -0.84018327967E+02  0.22441400593E+03  0.24513770780E+03  0.47000000000E+01 0.  1.
         -5    1    1    2    0  502  0.22961263314E+02  0.32033945987E+02  0.87661601491E+02  0.96229099988E+02  0.47000000000E+01 0.  1.
        -11    1    1    2    0    0  0.12570559944E+02 -0.16182087238E+02  0.12016095063E+02  0.23754272568E+02  0.00000000000E+00 0.  1.
         11    1    1    2    0    0  0.15943222095E+02  0.68166469218E+02  0.25360842463E+03  0.26309330456E+03  0.00000000000E+00 0. -1.
<mgrwt>
<rscale>  0 0.13012747E+03</rscale>
<asrwt>0</asrwt>
<pdfrwt beam="1">  1        1 0.92762644E-01 0.13834780E+03</pdfrwt>
<pdfrwt beam="2">  1       -1 0.38857126E-02 0.13834780E+03</pdfrwt>
<totfact> 0.86021599E+03</totfact>
</mgrwt>
</event>
<event>
 6    1  0.9263730E-006  0.1317105E+03  0.7546771E-02  0.1236861E+00
         -1   -1    0    0    0  501 -0.00000000000E+00  0.00000000000E+00  0.44570744800E+02  0.44570744800E+02  0.00000000000E+00 0.  1.
          1   -1    0    0  501    0  0.00000000000E+00 -0.00000000000E+00 -0.33218549202E+03  0.33218549202E+03  0.00000000000E+00 0. -1.
          5    1    1    2  502    0 -0.73115189911E+01  0.52845765341E+02 -0.41159893739E+02  0.67545244666E+02  0.47000000000E+01 0. -1.
         -5    1    1    2    0  502  0.51889216031E+02 -0.36264896823E+02 -0.16841044969E+03  0.17997722924E+03  0.47000000000E+01 0.  1.
        -11    1    1    2    0    0 -0.70202623438E+02 -0.12432045388E+02 -0.36117766635E+02  0.79921568784E+02  0.00000000000E+00 0.  1.
         11    1    1    2    0    0  0.25624926398E+02 -0.41488231297E+01 -0.41926637155E+02  0.49312194125E+02  0.00000000000E+00 0. -1.
<mgrwt>
<rscale>  0 0.12386023E+03</rscale>
<asrwt>0</asrwt>
<pdfrwt beam="2">  1        1 0.51105462E-01 0.13171046E+03</pdfrwt>
<pdfrwt beam="1">  1       -1 0.68570375E-02 0.13171046E+03</pdfrwt>
<totfact> 0.79627194E+03</totfact>
</mgrwt>
</event>
<event>
 6    1  0.9263730E-006  0.3248465E+03  0.7546771E-02  0.1074786E+00
         -2   -1    0    0    0  501 -0.00000000000E+00  0.00000000000E+00  0.30434393259E+03  0.30434393259E+03  0.00000000000E+00 0.  1.
          2   -1    0    0  501    0  0.00000000000E+00 -0.00000000000E+00 -0.34299318830E+03  0.34299318830E+03  0.00000000000E+00 0. -1.
          5    1    1    2  502    0 -0.76250774099E+01 -0.84318391079E+01 -0.10301284463E+02  0.16045067087E+02  0.47000000000E+01 0. -1.
         -5    1    1    2    0  502  0.27199791905E+03  0.14987958841E+03 -0.60696079016E+02  0.31646937134E+03  0.47000000000E+01 0. -1.
        -11    1    1    2    0    0 -0.14416708546E+03 -0.72838343759E+02 -0.27822857369E+02  0.16390144674E+03  0.00000000000E+00 0. -1.
         11    1    1    2    0    0 -0.12020575618E+03 -0.68609405545E+02  0.60170965143E+02  0.15092123573E+03  0.00000000000E+00 0.  1.
<mgrwt>
<rscale>  0 0.32188366E+03</rscale>
<asrwt>0</asrwt>
<pdfrwt beam="2">  1        2 0.52768183E-01 0.32484647E+03</pdfrwt>
<pdfrwt beam="1">  1       -2 0.46822143E-01 0.32484647E+03</pdfrwt>
<totfact> 0.41546906E+02</totfact>
</mgrwt>
</event>
<event>
 6    1  0.9263730E-006  0.1203763E+03  0.7546771E-02  0.1254480E+00
          2   -1    0    0  501    0  0.00000000000E+00  0.00000000000E+00  0.11808452245E+03  0.11808452245E+03  0.00000000000E+00 0. -1.
         -2   -1    0    0    0  501 -0.00000000000E+00 -0.00000000000E+00 -0.10182426269E+03  0.10182426269E+03  0.00000000000E+00 0.  1.
          5    1    1    2  502    0 -0.16253072912E+02  0.36402004499E+02  0.41402812534E+02  0.57667592254E+02  0.47000000000E+01 0. -1.
         -5    1    1    2    0  502  0.27405956939E+02 -0.59439240616E+02 -0.10881519251E+02  0.66517721413E+02  0.47000000000E+01 0.  1.
        -11    1    1    2    0    0 -0.23539362886E+02 -0.25089674882E+02  0.15569450849E+02  0.37762430940E+02  0.00000000000E+00 0.  1.
         11    1    1    2    0    0  0.12386478859E+02  0.48126910999E+02 -0.29830484374E+02  0.57961040525E+02  0.00000000000E+00 0. -1.
<mgrwt>
<rscale>  0 0.11335527E+03</rscale>
<asrwt>0</asrwt>
<pdfrwt beam="1">  1        2 0.18166850E-01 0.12037626E+03</pdfrwt>
<pdfrwt beam="2">  1       -2 0.15665271E-01 0.12037626E+03</pdfrwt>
<totfact> 0.92202527E+03</totfact>
</mgrwt>
</event>
<event>
 6    1  0.9263730E-006  0.3697735E+03  0.7546771E-02  0.1054780E+00
         -1   -1    0    0    0  501 -0.00000000000E+00  0.00000000000E+00  0.36968205047E+03  0.36968205047E+03  0.00000000000E+00 0.  1.
          1   -1    0    0  501    0  0.00000000000E+00 -0.00000000000E+00 -0.92466218946E+02  0.92466218946E+02  0.00000000000E+00 0. -1.
          5    1    1    2  502    0 -0.54114706503E+02 -0.12272577948E+03  0.22557341118E+01  0.13422815184E+03  0.47000000000E+01 0. -1.
         -5    1    1    2    0  502  0.18242594874E+02 -0.46923734485E+00  0.48390301463E+02  0.51929988707E+02  0.47000000000E+01 0. -1.
        -11    1    1    2    0    0  0.32052814999E+02  0.84547402454E+01  0.98834416090E+02  0.10424541902E+03  0.00000000000E+00 0.  1.
         11    1    1    2    0    0  0.38192966295E+01  0.11474027658E+03  0.12773537986E+03  0.17174470986E+03  0.00000000000E+00 0. -1.
<mgrwt>
<rscale>  0 0.36977345E+03</rscale>
<asrwt>0</asrwt>
<pdfrwt beam="2">  1        1 0.14225572E-01 0.36977345E+03</pdfrwt>
<pdfrwt beam="1">  1       -1 0.56874161E-01 0.36977345E+03</pdfrwt>
<totfact> 0.12930510E+03</totfact>
</mgrwt>
</event>
<event>
 6    1  0.9263730E-006  0.1808141E+03  0.7546771E-02  0.1172758E+00
         -2   -1    0    0    0  501 -0.00000000000E+00  0.00000000000E+00  0.37886459461E+03  0.37886459461E+03  0.00000000000E+00 0.  1.
          2   -1    0    0  501    0  0.00000000000E+00 -0.00000000000E+00 -0.76019427406E+02  0.76019427406E+02  0.00000000000E+00 0. -1.
          5    1    1    2  502    0 -0.76134076625E+02  0.60280123545E+02  0.74161281519E+02  0.12227868414E+03  0.47000000000E+01 0. -1.
         -5    1    1    2    0  502  0.48041445961E+02  0.67315759489E+02  0.83536926075E+02  0.11764310445E+03  0.47000000000E+01 0. -1.
        -11    1    1    2    0    0 -0.28171199667E+02 -0.72162791164E+02  0.89359477596E+02  0.11826327053E+03  0.00000000000E+00 0. -1.
         11    1    1    2    0    0  0.56263830331E+02 -0.55433091869E+02  0.55787482014E+02  0.96698962906E+02  0.00000000000E+00 0.  1.
<mgrwt>
<rscale>  0 0.17497351E+03</rscale>
<asrwt>0</asrwt>
<pdfrwt beam="2">  1        2 0.11695297E-01 0.18081410E+03</pdfrwt>
<pdfrwt beam="1">  1       -2 0.58286860E-01 0.18081410E+03</pdfrwt>
<totfact> 0.14574917E+03</totfact>
</mgrwt>
</event>
<event>
 6    1  0.9263730E-006  0.1279279E+03  0.7546771E-02  0.1245513E+00
         -2   -1    0    0    0  501 -0.00000000000E+00  0.00000000000E+00  0.42063675619E+02  0.42063675619E+02  0.00000000000E+00 0.  1.
          2   -1    0    0  501    0  0.00000000000E+00 -0.00000000000E+00 -0.41665198805E+03  0.41665198805E+03  0.00000000000E+00 0. -1.
          5    1    1    2  502    0  0.49293183734E+02  0.29950845698E+01 -0.98692666913E+02  0.11045868457E+03  0.47000000000E+01 0. -1.
         -5    1    1    2    0  502 -0.75713756394E+02  0.35145952227E+01 -0.23218399175E+03  0.24428757912E+03  0.47000000000E+01 0. -1.
        -11    1    1    2    0    0  0.38929348310E+02 -0.12764638007E+02 -0.65985257400E+02  0.77669069374E+02  0.00000000000E+00 0. -1.
         11    1    1    2    0    0 -0.12508775649E+02  0.62549582146E+01  0.22273603640E+02  0.26300330599E+02  0.00000000000E+00 0.  1.
<mgrwt>
<rscale>  0 0.11854716E+03</rscale>
<asrwt>0</asrwt>
<pdfrwt beam="2">  1        2 0.64100305E-01 0.12792790E+03</pdfrwt>
<pdfrwt beam="1">  1       -2 0.64713348E-02 0.12792790E+03</pdfrwt>
<totfact> 0.95122154E+03</totfact>
</mgrwt>
</event>
<event>
 6    1  0.9263730E-006  0.2028373E+03  0.7546771E-02  0.1151829E+00
         -2   -1    0    0    0  501 -0.00000000000E+00  0.00000000000E+00  0.37338156853E+02  0.37338156853E+02  0.00000000000E+00 0.  1.
          2   -1    0    0  501    0  0.00000000000E+00 -0.00000000000E+00 -0.10895510757E+04  0.10895510757E+04  0.00000000000E+00 0. -1.
          5    1    1    2  502    0  0.80518812234E+02 -0.54082323604E+02 -0.24233503609E+03  0.26106806883E+03  0.47000000000E+01 0.  1.
         -5    1    1    2    0  502 -0.18165093269E+02 -0.92987413256E+02 -0.47573396892E+03  0.48509950404E+03  0.47000000000E+01 0.  1.
        -11    1    1    2    0    0 -0.22456261803E+02  0.52357054503E+02 -0.41293712984E+02  0.70361321636E+02  0.00000000000E+00 0.  1.
         11    1    1    2    0    0 -0.39897457162E+02  0.94712682357E+02 -0.29285020089E+03  0.31036033807E+03  0.00000000000E+00 0. -1.
<mgrwt>
<rscale>  0 0.19754277E+03</rscale>
<asrwt>0</asrwt>
<pdfrwt beam="2">  1        2 0.16762327E+00 0.20283725E+03</pdfrwt>
<pdfrwt beam="1">  1       -2 0.57443309E-02 0.20283725E+03</pdfrwt>
<totfact> 0.36426207E+03</totfact>
</mgrwt>
</event>
<event>
 6    1  0.9263730E-006  0.1470747E+03  0.7546771E-02  0.1213841E+00
          2   -1    0    0  501    0  0.00000000000E+00  0.00000000000E+00  0.94608791098E+02  0.94608791098E+02  0.00000000000E+00 0. -1.
         -2   -1    0    0    0  501 -0.00000000000E+00 -0.00000000000E+00 -0.20255916287E+03  0.20255916287E+03  0.00000000000E+00 0.  1.
          5    1    1    2  502    0  0.83345080778E+02 -0.20353692579E+02  0.19726471654E+02  0.88158374392E+02  0.47000000000E+01 0. -1.
         -5    1    1    2    0  502 -0.29228377237E+02 -0.35112074229E+02 -0.38849665216E+02  0.60154320543E+02  0.47000000000E+01 0. -1.
        -11    1    1    2    0    0 -0.21813858709E+02 -0.20221200250E+02 -0.49262980648E+02  0.57546352045E+02  0.00000000000E+00 0.  1.
         11    1    1    2    0    0 -0.32302844833E+02  0.75686967058E+02 -0.39564197560E+02  0.91308906988E+02  0.00000000000E+00 0. -1.
<mgrwt>
<rscale>  0 0.13961991E+03</rscale>
<asrwt>0</asrwt>
<pdfrwt beam="1">  1        2 0.14555199E-01 0.14707467E+03</pdfrwt>
<pdfrwt beam="2">  1       -2 0.31162948E-01 0.14707467E+03</pdfrwt>
<totfact> 0.37091546E+03</totfact>
</mgrwt>
</event>
<event>
 6    1  0.9263730E-006  0.2165717E+03  0.7546771E-02  0.1165071E+00
         -1   -1    0    0    0  501 -0.00000000000E+00  0.00000000000E+00  0.48520959134E+03  0.48520959134E+03  0.00000000000E+00 0.  1.
          1   -1    0    0  501    0  0.00000000000E+00 -0.00000000000E+00 -0.10208111066E+03  0.10208111066E+03  0.00000000000E+00 0. -1.
          5    1    1    2  502    0 -0.19504768576E+02  0.66475735820E+02 -0.46893785547E+02  0.83788880963E+02  0.47000000000E+01 0. -1.
         -5    1    1    2    0  502 -0.28566638317E+02 -0.10609781804E+03  0.78403623492E+02  0.13506301490E+03  0.47000000000E+01 0.  1.
        -11    1    1    2    0    0  0.25740296855E+02 -0.28171177117E+02  0.13997803532E+03  0.14508627941E+03  0.00000000000E+00 0.  1.
         11    1    1    2    0    0  0.22331110039E+02  0.67793259332E+02  0.21164060742E+03  0.22335252673E+03  0.00000000000E+00 0. -1.
<mgrwt>
<rscale>  0 0.18285249E+03</rscale>
<asrwt>0</asrwt>
<pdfrwt beam="2">  1        1 0.15704787E-01 0.21657166E+03</pdfrwt>
<pdfrwt beam="1">  1       -1 0.74647628E-01 0.21657166E+03</pdfrwt>
<totfact> 0.65995369E+02</totfact>
</mgrwt>
</event>
<event>
 6    1  0.9263730E-006  0.1413257E+03  0.7546771E-02  0.1222428E+00
          2   -1    0    0  501    0  0.00000000000E+00  0.00000000000E+00  0.52877039668E+03  0.52877039668E+03  0.00000000000E+00 0. -1.
         -2   -1    0    0    0  501 -0.00000000000E+00 -0.00000000000E+00 -0.37249086881E+02  0.37249086881E+02  0.00000000000E+00 0.  1.
          5    1    1    2  502    0  0.30524159574E+02  0.30683754856E+02  0.35111321370E+02  0.55929527247E+02  0.47000000000E+01 0. -1.
         -5    1    1    2    0  502 -0.40938762796E+02  0.34423135734E+02  0.35405989917E+03  0.35810813558E+03  0.47000000000E+01 0. -1.
        -11    1    1    2    0    0  0.48142779307E+02 -0.17416653937E+02  0.52748549428E+02  0.73508343067E+02  0.00000000000E+00 0. -1.
         11    1    1    2    0    0 -0.37728176084E+02 -0.47690236653E+02  0.49601539832E+02  0.78473477662E+02  0.00000000000E+00 0.  1.
<mgrwt>
<rscale>  0 0.13344762E+03</rscale>
<asrwt>0</asrwt>
<pdfrwt beam="1">  1        2 0.81349287E-01 0.14132568E+03</pdfrwt>
<pdfrwt beam="2">  1       -2 0.57306291E-02 0.14132568E+03</pdfrwt>
<totfact> 0.88851380E+03</totfact>
</mgrwt>
</event>
<event>
 6    1  0.9263730E-006  0.1328279E+03  0.7546771E-02  0.1235246E+00
          1   -1    0    0  501    0  0.00000000000E+00  0.00000000000E+00  0.48952325780E+03  0.48952325780E+03  0.00000000000E+00 0. -1.
         -1   -1    0    0    0  501 -0.00000000000E+00 -0.00000000000E+00 -0.29417299991E+02  0.29417299991E+02  0.00000000000E+00 0.  1.
          5    1    1    2  502    0 -0.33876715440E+02 -0.32316383168E+02  0.13969404473E+03  0.14740589067E+03  0.47000000000E+01 0.  1.
         -5    1    1    2    0  502  0.78544091026E+02  0.27617576284E+02  0.16083066100E+03  0.18116427979E+03  0.47000000000E+01 0.  1.
        -11    1    1    2    0    0  0.85356579066E+01 -0.16162665435E+02 -0.25568579486E+01  0.18456075760E+02  0.00000000000E+00 0.  1.
         11    1    1    2    0    0 -0.53203033493E+02  0.20861472319E+02  0.16213811002E+03  0.17191431156E+03  0.00000000000E+00 0. -1.
<mgrwt>
<rscale>  0 0.12488714E+03</rscale>
<asrwt>0</asrwt>
<pdfrwt beam="1">  1        1 0.75311265E-01 0.13282793E+03</pdfrwt>
<pdfrwt beam="2">  1       -1 0.45257388E-02 0.13282793E+03</pdfrwt>
<totfact> 0.90436298E+03</totfact>
</mgrwt>
</event>
<event>
 6    1  0.9263730E-006  0.1856360E+03  0.7546771E-02  0.1167525E+00
         -2   -1    0    0    0  501 -0.00000000000E+00  0.00000000000E+00  0.86650741917E+03  0.86650741917E+03  0.00000000000E+00 0.  1.
          2   -1    0    0  501    0  0.00000000000E+00 -0.00000000000E+00 -0.35637598571E+02  0.35637598571E+02  0.00000000000E+00 0. -1.
          5    1    1    2  502    0  0.34237131217E+02  0.47325945046E+02  0.21408558322E+03  0.22196092712E+03  0.47000000000E+01 0.  1.
         -5    1    1    2    0  502 -0.85154439731E+02  0.80123286676E+02  0.19773428835E+03  0.22976500704E+03  0.47000000000E+01 0.  1.
        -11    1    1    2    0    0  0.21368687406E+01  0.12831949852E+02  0.14563589982E+02  0.19527501074E+02  0.00000000000E+00 0. -1.
         11    1    1    2    0    0  0.48780439774E+02 -0.14028118157E+03  0.40448635906E+03  0.43089158250E+03  0.00000000000E+00 0.  1.
<mgrwt>
<rscale>  0 0.18028773E+03</rscale>
<asrwt>0</asrwt>
<pdfrwt beam="2">  1        2 0.54827081E-02 0.18563597E+03</pdfrwt>
<pdfrwt beam="1">  1       -2 0.13330882E+00 0.18563597E+03</pdfrwt>
<totfact> 0.58919418E+02</totfact>
</mgrwt>
</event>
<event>
 6    1  0.9263730E-006  0.4110828E+03  0.7546771E-02  0.1040008E+00
          2   -1    0    0  501    0  0.00000000000E+00  0.00000000000E+00  0.11385649830E+04  0.11385649830E+04  0.00000000000E+00 0. -1.
         -2   -1    0    0    0  501 -0.00000000000E+00 -0.00000000000E+00 -0.37105714043E+02  0.37105714043E+02  0.00000000000E+00 0.  1.
          5    1    1    2  502    0 -0.77654847837E+02  0.12214997397E+03  0.69398116471E+03  0.70893077131E+03  0.47000000000E+01 0. -1.
         -5    1    1    2    0  502 -0.12351512812E+02 -0.30469590001E+02  0.21581514278E+03  0.21835572271E+03  0.47000000000E+01 0. -1.
        -11    1    1    2    0    0  0.55863285093E+02 -0.72302082103E+02  0.56022570605E+02  0.10717661179E+03  0.00000000000E+00 0.  1.
         11    1    1    2    0    0  0.34143075556E+02 -0.19378301862E+02  0.13564039086E+03  0.14120759124E+03  0.00000000000E+00 0. -1.
<mgrwt>
<rscale>  0 0.41108280E+03</rscale>
<asrwt>0</asrwt>
<pdfrwt beam="1">  1        2 0.17516382E+00 0.41108280E+03</pdfrwt>
<pdfrwt beam="2">  1       -2 0.57085723E-02 0.41108280E+03</pdfrwt>
<totfact> 0.34762515E+03</totfact>
</mgrwt>
</event>
<event>
 6    1  0.9263730E-006  0.1343287E+03  0.7546771E-02  0.1234656E+00
          2   -1    0    0  501    0  0.00000000000E+00  0.00000000000E+00  0.15689958693E+04  0.15689958693E+04  0.00000000000E+00 0. -1.
         -2   -1    0    0    0  501 -0.00000000000E+00 -0.00000000000E+00 -0.11729609659E+02  0.11729609659E+02  0.00000000000E+00 0.  1.
          5    1    1    2  502    0  0.33461779943E+02  0.79886194832E+02  0.96445999505E+03  0.96835255300E+03  0.47000000000E+01 0. -1.
         -5    1    1    2    0  502 -0.30297724401E+02 -0.30838372230E+02  0.28344632594E+03  0.28676273642E+03  0.47000000000E+01 0. -1.
        -11    1    1    2    0    0  0.30750221586E+02  0.39590771165E+01  0.50893352148E+02  0.59593487161E+02  0.00000000000E+00 0.  1.
         11    1    1    2    0    0 -0.33914277129E+02 -0.53006899719E+02  0.25846658649E+03  0.26601670237E+03  0.00000000000E+00 0. -1.
<mgrwt>
<rscale>  0 0.12526459E+03</rscale>
<asrwt>0</asrwt>
<pdfrwt beam="1">  1        2 0.24138381E+00 0.13432872E+03</pdfrwt>
<pdfrwt beam="2">  1       -2 0.18045566E-02 0.13432872E+03</pdfrwt>
<totfact> 0.10983871E+04</totfact>
</mgrwt>
</event>
<event>
 6    1  0.9263730E-006  0.1579584E+03  0.7546771E-02  0.1198847E+00
          2   -1    0    0  501    0  0.00000000000E+00  0.00000000000E+00  0.14671074489E+03  0.14671074489E+03  0.00000000000E+00 0. -1.
         -2   -1    0    0    0  501 -0.00000000000E+00 -0.00000000000E+00 -0.15971317836E+03  0.15971317836E+03  0.00000000000E+00 0.  1.
          5    1    1    2  502    0  0.10318717804E+03 -0.11507744138E+02  0.47200454607E+02  0.11414900264E+03  0.47000000000E+01 0.  1.
         -5    1    1    2    0  502 -0.13130064817E+02  0.46363153423E+02 -0.68096390468E+01  0.48891735308E+02  0.47000000000E+01 0.  1.
        -11    1    1    2    0    0 -0.73607938052E+02 -0.49841878639E+02 -0.37424134048E+01  0.88973856097E+02  0.00000000000E+00 0. -1.
         11    1    1    2    0    0 -0.16449175173E+02  0.14986469354E+02 -0.49650835622E+02  0.54409329215E+02  0.00000000000E+00 0.  1.
<mgrwt>
<rscale>  0 0.15133103E+03</rscale>
<asrwt>0</asrwt>
<pdfrwt beam="1">  1        2 0.22570884E-01 0.15795843E+03</pdfrwt>
<pdfrwt beam="2">  1       -2 0.24571258E-01 0.15795843E+03</pdfrwt>
<totfact> 0.34344680E+03</totfact>
</mgrwt>
</event>
<event>
 6    1  0.9263730E-006  0.1292596E+03  0.7546771E-02  0.1252454E+00
         -3   -1    0    0    0  501 -0.00000000000E+00  0.00000000000E+00  0.17928454438E+02  0.17928454438E+02  0.00000000000E+00 0.  1.
          3   -1    0    0  501    0  0.00000000000E+00 -0.00000000000E+00 -0.67962943283E+03  0.67962943283E+03  0.00000000000E+00 0. -1.
          5    1    1    2  502    0 -0.33609381676E+02  0.33368282492E+02 -0.92774894457E+02  0.10427034024E+03  0.47000000000E+01 0.  1.
         -5    1    1    2    0  502  0.14563392196E+02 -0.60225512832E+02 -0.41865087581E+03  0.42323734548E+03  0.47000000000E+01 0.  1.
        -11    1    1    2    0    0  0.34092227565E+02  0.68284627969E+01 -0.26370262299E+02  0.43638270111E+02  0.00000000000E+00 0.  1.
         11    1    1    2    0    0 -0.15046238085E+02  0.20028767543E+02 -0.12390494583E+03  0.12641193144E+03  0.00000000000E+00 0. -1.
<mgrwt>
<rscale>  0 0.11450133E+03</rscale>
<asrwt>0</asrwt>
<pdfrwt beam="2">  1        3 0.10455837E+00 0.12925958E+03</pdfrwt>
<pdfrwt beam="1">  1       -3 0.27582240E-02 0.12925958E+03</pdfrwt>
<totfact> 0.10879183E+03</totfact>
</mgrwt>
</event>
<event>
 6    1  0.9263730E-006  0.1449991E+03  0.7546771E-02  0.1216491E+00
         -2   -1    0    0    0  501 -0.00000000000E+00  0.00000000000E+00  0.69248816249E+02  0.69248816249E+02  0.00000000000E+00 0.  1.
          2   -1    0    0  501    0  0.00000000000E+00 -0.00000000000E+00 -0.27535771318E+03  0.27535771318E+03  0.00000000000E+00 0. -1.
          5    1    1    2  502    0  0.68892550790E+02 -0.28133052127E+02 -0.78681279770E+02  0.10839965850E+03  0.47000000000E+01 0. -1.
         -5    1    1    2    0  502 -0.81937042076E+01  0.69545521833E+02 -0.86631166555E+02  0.11149334247E+03  0.47000000000E+01 0. -1.
        -11    1    1    2    0    0 -0.60370983453E+02 -0.62421097608E+02 -0.99730477448E+01  0.87410015164E+02  0.00000000000E+00 0.  1.
         11    1    1    2    0    0 -0.32786312973E+00  0.21008627902E+02 -0.30823402859E+02  0.37303513298E+02  0.00000000000E+00 0. -1.
<mgrwt>
<rscale>  0 0.13767599E+03</rscale>
<asrwt>0</asrwt>
<pdfrwt beam="2">  1        2 0.42362726E-01 0.14499906E+03</pdfrwt>
<pdfrwt beam="1">  1       -2 0.10653664E-01 0.14499906E+03</pdfrwt>
<totfact> 0.68810117E+03</totfact>
</mgrwt>
</event>
<event>
 6    1  0.9263730E-006  0.1322449E+03  0.7546771E-02  0.1237734E+00
         -2   -1    0    0    0  501 -0.00000000000E+00  0.00000000000E+00  0.49142703328E+02  0.49142703328E+02  0.00000000000E+00 0.  1.
          2   -1    0    0  501    0  0.00000000000E+00 -0.00000000000E+00 -0.30036049581E+03  0.30036049581E+03  0.00000000000E+00 0. -1.
          5    1    1    2  502    0 -0.35783095817E+02  0.20030256122E+02 -0.59738352053E+00  0.41280600452E+02  0.47000000000E+01 0. -1.
         -5    1    1    2    0  502 -0.59163527892E+01 -0.89101370208E+01 -0.19196097525E+03  0.19231614542E+03  0.47000000000E+01 0. -1.
        -11    1    1    2    0    0  0.49036433768E+01 -0.16187019995E+02 -0.73861185527E+02  0.75772950729E+02  0.00000000000E+00 0. -1.
         11    1    1    2    0    0  0.36795805230E+02  0.50669008939E+01  0.15201751816E+02  0.40133502532E+02  0.00000000000E+00 0.  1.
<mgrwt>
<rscale>  0 0.12330999E+03</rscale>
<asrwt>0</asrwt>
<pdfrwt beam="2">  1        2 0.46209306E-01 0.13224492E+03</pdfrwt>
<pdfrwt beam="1">  1       -2 0.75604160E-02 0.13224492E+03</pdfrwt>
<totfact> 0.10642112E+04</totfact>
</mgrwt>
</event>
<event>
 6    1  0.9263730E-006  0.2724707E+03  0.7546771E-02  0.1109533E+00
          2   -1    0    0  501    0  0.00000000000E+00  0.00000000000E+00  0.89324558458E+02  0.89324558458E+02  0.00000000000E+00 0. -1.
         -2   -1    0    0    0  501 -0.00000000000E+00 -0.00000000000E+00 -0.71676808323E+03  0.71676808323E+03  0.00000000000E+00 0.  1.
          5    1    1    2  502    0  0.23641108682E+01  0.11349614010E+03 -0.78841358153E+02  0.13829321239E+03  0.47000000000E+01 0. -1.
         -5    1    1    2    0  502  0.97794755270E+02  0.10190338035E+02 -0.85000170700E+02  0.13005681899E+03  0.47000000000E+01 0.  1.
        -11    1    1    2    0    0 -0.12164781100E+03 -0.15775111440E+03 -0.45480186693E+03  0.49651620535E+03  0.00000000000E+00 0.  1.
         11    1    1    2    0    0  0.21488944862E+02  0.34064636258E+02 -0.88001289854E+01  0.41226404946E+02  0.00000000000E+00 0. -1.
<mgrwt>
<rscale>  0 0.25606097E+03</rscale>
<asrwt>0</asrwt>
<pdfrwt beam="1">  1        2 0.13742239E-01 0.27247074E+03</pdfrwt>
<pdfrwt beam="2">  1       -2 0.11027202E+00 0.27247074E+03</pdfrwt>
<totfact> 0.29533178E+02</totfact>
</mgrwt>
</event>
<event>
 6    1  0.9263730E-006  0.1416903E+03  0.7546771E-02  0.1230720E+00
          2   -1    0    0  501    0  0.00000000000E+00  0.00000000000E+00  0.15367425671E+04  0.15367425671E+04  0.00000000000E+00 0. -1.
         -2   -1    0    0    0  501 -0.00000000000E+00 -0.00000000000E+00 -0.14207002634E+02  0.14207002634E+02  0.00000000000E+00 0.  1.
          5    1    1    2  502    0  0.35922092061E+02  0.47176613689E+02  0.11837190483E+04  0.11852125990E+04  0.47000000000E+01 0. -1.
         -5    1    1    2    0  502 -0.29293762654E+02 -0.28877031163E+02  0.13792451636E+03  0.14400440851E+03  0.47000000000E+01 0.  1.
        -11    1    1    2    0    0 -0.92155229823E+01 -0.51996065046E+02  0.77386429434E+02  0.93686584443E+02  0.00000000000E+00 0.  1.
         11    1    1    2    0    0  0.25871935752E+01  0.33696482519E+02  0.12350557037E+03  0.12804597775E+03  0.00000000000E+00 0. -1.
<mgrwt>
<rscale>  0 0.12782421E+03</rscale>
<asrwt>0</asrwt>
<pdfrwt beam="1">  1        2 0.23642180E+00 0.14169030E+03</pdfrwt>
<pdfrwt beam="2">  1       -2 0.21856939E-02 0.14169030E+03</pdfrwt>
<totfact> 0.86606983E+03</totfact>
</mgrwt>
</event>
<event>
 6    1  0.9263730E-006  0.1320020E+03  0.7546771E-02  0.1236808E+00
          2   -1    0    0  501    0  0.00000000000E+00  0.00000000000E+00  0.35173513200E+03  0.35173513200E+03  0.00000000000E+00 0. -1.
         -2   -1    0    0    0  501 -0.00000000000E+00 -0.00000000000E+00 -0.47495225724E+02  0.47495225724E+02  0.00000000000E+00 0.  1.
          5    1    1    2  502    0  0.21048719351E+02 -0.45547801725E+02  0.88272458482E+02  0.10164530365E+03  0.47000000000E+01 0.  1.
         -5    1    1    2    0  502 -0.63251114588E+02  0.50997451481E+02  0.16317363695E+03  0.18234354760E+03  0.47000000000E+01 0.  1.
        -11    1    1    2    0    0  0.19877532714E+02 -0.38828247230E+02 -0.60121234614E+01  0.44032882239E+02  0.00000000000E+00 0.  1.
         11    1    1    2    0    0  0.22324862523E+02  0.33378597474E+02  0.58805934301E+02  0.71208624232E+02  0.00000000000E+00 0. -1.
<mgrwt>
<rscale>  0 0.12389393E+03</rscale>
<asrwt>0</asrwt>
<pdfrwt beam="1">  1        2 0.54113096E-01 0.13200200E+03</pdfrwt>
<pdfrwt beam="2">  1       -2 0.73069580E-02 0.13200200E+03</pdfrwt>
<totfact> 0.94853933E+03</totfact>
</mgrwt>
</event>
<event>
 6    1  0.9263730E-006  0.1385407E+03  0.7546771E-02  0.1228490E+00
         -1   -1    0    0    0  501 -0.00000000000E+00  0.00000000000E+00  0.18514628596E+02  0.18514628596E+02  0.00000000000E+00 0.  1.
          1   -1    0    0  501    0  0.00000000000E+00 -0.00000000000E+00 -0.81173899695E+03  0.81173899695E+03  0.00000000000E+00 0. -1.
          5    1    1    2  502    0  0.13769315359E+02 -0.30914243804E+02 -0.32613041999E+03  0.32791527161E+03  0.47000000000E+01 0. -1.
         -5    1    1    2    0  502 -0.61187129393E+02 -0.54009029119E+01 -0.78570603734E+02  0.99842197125E+02  0.47000000000E+01 0. -1.
        -11    1    1    2    0    0  0.52871972175E+02  0.60486945121E+02 -0.29400809043E+03  0.30478660274E+03  0.00000000000E+00 0.  1.
         11    1    1    2    0    0 -0.54541581408E+01 -0.24171798405E+02 -0.94515254200E+02  0.97709554065E+02  0.00000000000E+00 0. -1.
<mgrwt>
<rscale>  0 0.12930549E+03</rscale>
<asrwt>0</asrwt>
<pdfrwt beam="2">  1        1 0.12488289E+00 0.13854073E+03</pdfrwt>
<pdfrwt beam="1">  1       -1 0.28484052E-02 0.13854073E+03</pdfrwt>
<totfact> 0.88427465E+03</totfact>
</mgrwt>
</event>
<event>
 6    1  0.1305999E-005  0.1290540E+03  0.7546771E-02  0.1242937E+00
          1   -1    0    0  501    0  0.00000000000E+00  0.00000000000E+00  0.28936004267E+03  0.28936004267E+03  0.00000000000E+00 0. -1.
         -1   -1    0    0    0  501 -0.00000000000E+00 -0.00000000000E+00 -0.45387782279E+02  0.45387782279E+02  0.00000000000E+00 0.  1.
          5    1    1    2  502    0  0.60755585020E+02 -0.17270422111E+02  0.12040949377E+03  0.13605162543E+03  0.47000000000E+01 0. -1.
         -5    1    1    2    0  502 -0.56787231736E+02 -0.14578650878E+02  0.46774375449E+02  0.75148246475E+02  0.47000000000E+01 0. -1.
        -11    1    1    2    0    0 -0.25185704251E+02  0.55808643383E+02  0.65374528670E+02  0.89569824013E+02  0.00000000000E+00 0. -1.
         11    1    1    2    0    0  0.21217350967E+02 -0.23959570394E+02  0.11413862502E+02  0.33978129035E+02  0.00000000000E+00 0.  1.
<mgrwt>
<rscale>  0 0.12009707E+03</rscale>
<asrwt>0</asrwt>
<pdfrwt beam="1">  1        1 0.44516929E-01 0.12905402E+03</pdfrwt>
<pdfrwt beam="2">  1       -1 0.69827359E-02 0.12905402E+03</pdfrwt>
<totfact> 0.91791341E+03</totfact>
</mgrwt>
</event>
<event>
 6    1  0.9263730E-006  0.2555669E+03  0.7546771E-02  0.1109836E+00
          3   -1    0    0  501    0  0.00000000000E+00  0.00000000000E+00  0.67779926769E+02  0.67779926769E+02  0.00000000000E+00 0.  1.
         -3   -1    0    0    0  501 -0.00000000000E+00 -0.00000000000E+00 -0.24090624704E+03  0.24090624704E+03  0.00000000000E+00 0. -1.
          5    1    1    2  502    0 -0.96904243023E+02 -0.15220702408E+02 -0.27584501040E+02  0.10200537631E+03  0.47000000000E+01 0. -1.
         -5    1    1    2    0  502  0.36984068628E+02  0.14048330514E+00 -0.33887675612E+02  0.50381600076E+02  0.47000000000E+01 0. -1.
        -11    1    1    2    0    0  0.48901148324E+02 -0.28555643261E+02 -0.32626091652E+02  0.65354486655E+02  0.00000000000E+00 0.  1.
         11    1    1    2    0    0  0.11019026071E+02  0.43635862364E+02 -0.79028051970E+02  0.90944710776E+02  0.00000000000E+00 0. -1.
<mgrwt>
<rscale>  0 0.25556688E+03</rscale>
<asrwt>0</asrwt>
<pdfrwt beam="1">  1        3 0.10427681E-01 0.25556688E+03</pdfrwt>
<pdfrwt beam="2">  1       -3 0.37062500E-01 0.25556688E+03</pdfrwt>
<totfact> 0.12491409E+03</totfact>
</mgrwt>
</event>
<event>
 6    1  0.9263730E-006  0.1232349E+03  0.7546771E-02  0.1244268E+00
         -2   -1    0    0    0  501 -0.00000000000E+00  0.00000000000E+00  0.22619591629E+02  0.22619591629E+02  0.00000000000E+00 0.  1.
          2   -1    0    0  501    0  0.00000000000E+00 -0.00000000000E+00 -0.60179268318E+03  0.60179268318E+03  0.00000000000E+00 0. -1.
          5    1    1    2  502    0  0.70079483882E+02  0.12705527765E+02 -0.13208260043E+03  0.15013483218E+03  0.47000000000E+01 0. -1.
         -5    1    1    2    0  502 -0.29147576985E+02 -0.22160432442E+02 -0.21570061491E+03  0.21883672289E+03  0.47000000000E+01 0.  1.
        -11    1    1    2    0    0  0.21721636987E+02 -0.24910932727E+02 -0.10697127058E+03  0.11196087179E+03  0.00000000000E+00 0. -1.
         11    1    1    2    0    0 -0.62653543884E+02  0.34365837404E+02 -0.12441860562E+03  0.14347984795E+03  0.00000000000E+00 0.  1.
<mgrwt>
<rscale>  0 0.11929269E+03</rscale>
<asrwt>0</asrwt>
<pdfrwt beam="2">  1        2 0.92583492E-01 0.12323491E+03</pdfrwt>
<pdfrwt beam="1">  1       -2 0.34799371E-02 0.12323491E+03</pdfrwt>
<totfact> 0.16023217E+04</totfact>
</mgrwt>
</event>
<event>
 6    1  0.9263730E-006  0.2144576E+03  0.7546771E-02  0.1153282E+00
         -1   -1    0    0    0  501 -0.00000000000E+00  0.00000000000E+00  0.17609772903E+04  0.17609772903E+04  0.00000000000E+00 0.  1.
          1   -1    0    0  501    0  0.00000000000E+00 -0.00000000000E+00 -0.19014037332E+02  0.19014037332E+02  0.00000000000E+00 0. -1.
          5    1    1    2  502    0 -0.10899917144E+03  0.11646112119E+03  0.74080575388E+03  0.75779896220E+03  0.47000000000E+01 0. -1.
         -5    1    1    2    0  502  0.12060610924E+02 -0.48585435559E+02  0.38301726157E+03  0.38630339831E+03  0.47000000000E+01 0.  1.
        -11    1    1    2    0    0  0.98347782395E+02 -0.85231077425E+02  0.57080162493E+03  0.58544950071E+03  0.00000000000E+00 0.  1.
         11    1    1    2    0    0 -0.14092218806E+01  0.17355391797E+02  0.47338612594E+02  0.50439466423E+02  0.00000000000E+00 0. -1.
<mgrwt>
<rscale>  0 0.19585757E+03</rscale>
<asrwt>0</asrwt>
<pdfrwt beam="2">  1        1 0.29252379E-02 0.21445755E+03</pdfrwt>
<pdfrwt beam="1">  1       -1 0.27091946E+00 0.21445755E+03</pdfrwt>
<totfact> 0.20784041E+02</totfact>
</mgrwt>
</event>
<event>
 6    1  0.9263730E-006  0.1909097E+03  0.7546771E-02  0.1193142E+00
          1   -1    0    0  501    0  0.00000000000E+00  0.00000000000E+00  0.22196303913E+03  0.22196303913E+03  0.00000000000E+00 0. -1.
         -1   -1    0    0    0  501 -0.00000000000E+00 -0.00000000000E+00 -0.12854432449E+03  0.12854432449E+03  0.00000000000E+00 0.  1.
          5    1    1    2  502    0 -0.79324214010E+02 -0.37783103445E+02  0.14216518753E+03  0.16719128081E+03  0.47000000000E+01 0. -1.
         -5    1    1    2    0  502  0.61493260834E+02  0.46763711959E+02  0.12272750562E+02  0.78364381517E+02  0.47000000000E+01 0.  1.
        -11    1    1    2    0    0  0.38095074186E+02  0.81033948304E+01 -0.57494884015E+00  0.38951639903E+02  0.00000000000E+00 0.  1.
         11    1    1    2    0    0 -0.20264121009E+02 -0.17084003344E+02 -0.60444274611E+02  0.66000061393E+02  0.00000000000E+00 0. -1.
<mgrwt>
<rscale>  0 0.15612526E+03</rscale>
<asrwt>0</asrwt>
<pdfrwt beam="1">  1        1 0.34148160E-01 0.19090968E+03</pdfrwt>
<pdfrwt beam="2">  1       -1 0.19776050E-01 0.19090968E+03</pdfrwt>
<totfact> 0.25968948E+03</totfact>
</mgrwt>
</event>
<event>
 6    1  0.9263730E-006  0.1275075E+03  0.7546771E-02  0.1246523E+00
          1   -1    0    0  501    0  0.00000000000E+00  0.00000000000E+00  0.57083411260E+02  0.57083411260E+02  0.00000000000E+00 0. -1.
         -1   -1    0    0    0  501 -0.00000000000E+00 -0.00000000000E+00 -0.24265364953E+03  0.24265364953E+03  0.00000000000E+00 0.  1.
          5    1    1    2  502    0  0.49261486070E+02 -0.14667447489E+02 -0.30620820740E+02  0.60012937676E+02  0.47000000000E+01 0.  1.
         -5    1    1    2    0  502 -0.67665584762E+02  0.31785906381E+02 -0.23519000358E+02  0.78512474063E+02  0.47000000000E+01 0.  1.
        -11    1    1    2    0    0  0.33466941565E+01 -0.34735755800E+02 -0.82346897901E+01  0.35855030452E+02  0.00000000000E+00 0. -1.
         11    1    1    2    0    0  0.15057404535E+02  0.17617296909E+02 -0.12319572738E+03  0.12535661859E+03  0.00000000000E+00 0.  1.
<mgrwt>
<rscale>  0 0.11794697E+03</rscale>
<asrwt>0</asrwt>
<pdfrwt beam="1">  1        1 0.87820633E-02 0.12750753E+03</pdfrwt>
<pdfrwt beam="2">  1       -1 0.37331331E-01 0.12750753E+03</pdfrwt>
<totfact> 0.50735081E+03</totfact>
</mgrwt>
</event>
<event>
 6    1  0.9263730E-006  0.1432836E+03  0.7546771E-02  0.1219378E+00
          2   -1    0    0  501    0  0.00000000000E+00  0.00000000000E+00  0.11729880940E+03  0.11729880940E+03  0.00000000000E+00 0. -1.
         -2   -1    0    0    0  501 -0.00000000000E+00 -0.00000000000E+00 -0.18789372909E+03  0.18789372909E+03  0.00000000000E+00 0.  1.
          5    1    1    2  502    0 -0.27079650039E+02  0.15991549785E+02 -0.39999046841E+02  0.51098442823E+02  0.47000000000E+01 0. -1.
         -5    1    1    2    0  502 -0.35934970908E+02 -0.46581409821E+02  0.76758884866E+02  0.96825442322E+02  0.47000000000E+01 0. -1.
        -11    1    1    2    0    0  0.41604542499E+02 -0.28978957620E+02 -0.57742655007E+02  0.76843556324E+02  0.00000000000E+00 0. -1.
         11    1    1    2    0    0  0.21410078449E+02  0.59568817656E+02 -0.49612102711E+02  0.80425097025E+02  0.00000000000E+00 0.  1.
<mgrwt>
<rscale>  0 0.13559809E+03</rscale>
<asrwt>0</asrwt>
<pdfrwt beam="1">  1        2 0.18045971E-01 0.14328360E+03</pdfrwt>
<pdfrwt beam="2">  1       -2 0.28906727E-01 0.14328360E+03</pdfrwt>
<totfact> 0.33030442E+03</totfact>
</mgrwt>
</event>
<event>
 6    1  0.9263730E-006  0.1565505E+03  0.7546771E-02  0.1201906E+00
          2   -1    0    0  501    0  0.00000000000E+00  0.00000000000E+00  0.14934990676E+04  0.14934990676E+04  0.00000000000E+00 0. -1.
         -2   -1    0    0    0  501 -0.00000000000E+00 -0.00000000000E+00 -0.13999334884E+02  0.13999334884E+02  0.00000000000E+00 0.  1.
          5    1    1    2  502    0  0.79571594502E+02  0.44656105820E+02  0.50857487483E+03  0.51671684678E+03  0.47000000000E+01 0. -1.
         -5    1    1    2    0  502  0.12683987684E+02 -0.63008298542E+02  0.43830311645E+03  0.44301539603E+03  0.47000000000E+01 0.  1.
        -11    1    1    2    0    0  0.25381317561E+01  0.28014533018E+02  0.70133287692E+02  0.75564106661E+02  0.00000000000E+00 0. -1.
         11    1    1    2    0    0 -0.94793713942E+02 -0.96623402961E+01  0.46248845374E+03  0.47220205301E+03  0.00000000000E+00 0.  1.
<mgrwt>
<rscale>  0 0.14884005E+03</rscale>
<asrwt>0</asrwt>
<pdfrwt beam="1">  1        2 0.22976896E+00 0.15655046E+03</pdfrwt>
<pdfrwt beam="2">  1       -2 0.21537450E-02 0.15655046E+03</pdfrwt>
<totfact> 0.93558115E+03</totfact>
</mgrwt>
</event>
<event>
 6    1  0.9263730E-006  0.1469684E+03  0.7546771E-02  0.1213578E+00
          1   -1    0    0  501    0  0.00000000000E+00  0.00000000000E+00  0.98620908450E+02  0.98620908450E+02  0.00000000000E+00 0. -1.
         -1   -1    0    0    0  501 -0.00000000000E+00 -0.00000000000E+00 -0.18125446486E+03  0.18125446486E+03  0.00000000000E+00 0.  1.
          5    1    1    2  502    0 -0.84488354278E+01  0.45532508662E+02 -0.45188831636E+02  0.64874591866E+02  0.47000000000E+01 0. -1.
         -5    1    1    2    0  502  0.83607980118E+02 -0.27465656494E+02  0.25111120516E+01  0.88164915413E+02  0.47000000000E+01 0. -1.
        -11    1    1    2    0    0 -0.58470445168E+02 -0.48901775312E+02 -0.49014138173E+02  0.90623188686E+02  0.00000000000E+00 0.  1.
         11    1    1    2    0    0 -0.16688699522E+02  0.30834923144E+02  0.90583013488E+01  0.36212677343E+02  0.00000000000E+00 0. -1.
<mgrwt>
<rscale>  0 0.13981531E+03</rscale>
<asrwt>0</asrwt>
<pdfrwt beam="1">  1        1 0.15172448E-01 0.14696837E+03</pdfrwt>
<pdfrwt beam="2">  1       -1 0.27885302E-01 0.14696837E+03</pdfrwt>
<totfact> 0.40919569E+03</totfact>
</mgrwt>
</event>
<event>
 6    1  0.9263730E-006  0.1481961E+03  0.7546771E-02  0.1217006E+00
          1   -1    0    0  501    0  0.00000000000E+00  0.00000000000E+00  0.10299994763E+03  0.10299994763E+03  0.00000000000E+00 0. -1.
         -1   -1    0    0    0  501 -0.00000000000E+00 -0.00000000000E+00 -0.16542944897E+03  0.16542944897E+03  0.00000000000E+00 0.  1.
          5    1    1    2  502    0  0.14829385396E+00 -0.42622663593E+02 -0.39038184647E+02  0.57989510287E+02  0.47000000000E+01 0. -1.
         -5    1    1    2    0  502 -0.78341289329E+02  0.60935397013E+02 -0.18971479586E+02  0.10115575743E+03  0.47000000000E+01 0. -1.
        -11    1    1    2    0    0  0.41045267753E+02 -0.25537718624E+02  0.31019053072E+02  0.57437537647E+02  0.00000000000E+00 0. -1.
         11    1    1    2    0    0  0.37147727722E+02  0.72249852034E+01 -0.35438890180E+02  0.51846591241E+02  0.00000000000E+00 0.  1.
<mgrwt>
<rscale>  0 0.13730238E+03</rscale>
<asrwt>0</asrwt>
<pdfrwt beam="1">  1        1 0.15846146E-01 0.14819614E+03</pdfrwt>
<pdfrwt beam="2">  1       -1 0.25450684E-01 0.14819614E+03</pdfrwt>
<totfact> 0.45030731E+03</totfact>
</mgrwt>
</event>
<event>
 6    1  0.9263730E-006  0.1341209E+03  0.7546771E-02  0.1233642E+00
          1   -1    0    0  501    0  0.00000000000E+00  0.00000000000E+00  0.36630489848E+03  0.36630489848E+03  0.00000000000E+00 0. -1.
         -1   -1    0    0    0  501 -0.00000000000E+00 -0.00000000000E+00 -0.40019755641E+02  0.40019755641E+02  0.00000000000E+00 0.  1.
          5    1    1    2  502    0 -0.38470269909E+02  0.24612332452E+02  0.19906649942E+03  0.20429216766E+03  0.47000000000E+01 0. -1.
         -5    1    1    2    0  502 -0.41299550407E+01 -0.48032019070E+02  0.19648997433E+02  0.52271449997E+02  0.47000000000E+01 0. -1.
        -11    1    1    2    0    0  0.27094469638E+02 -0.28221953564E+02  0.80332892613E+02  0.89353022241E+02  0.00000000000E+00 0. -1.
         11    1    1    2    0    0  0.15505755312E+02  0.51641640182E+02  0.27236753376E+02  0.60408014228E+02  0.00000000000E+00 0.  1.
<mgrwt>
<rscale>  0 0.12591771E+03</rscale>
<asrwt>0</asrwt>
<pdfrwt beam="1">  1        1 0.56354598E-01 0.13412092E+03</pdfrwt>
<pdfrwt beam="2">  1       -1 0.61568857E-02 0.13412092E+03</pdfrwt>
<totfact> 0.82898953E+03</totfact>
</mgrwt>
</event>
<event>
 6    1  0.9263730E-006  0.1256954E+03  0.7546771E-02  0.1249957E+00
          1   -1    0    0  501    0  0.00000000000E+00  0.00000000000E+00  0.46418143497E+03  0.46418143497E+03  0.00000000000E+00 0. -1.
         -1   -1    0    0    0  501 -0.00000000000E+00 -0.00000000000E+00 -0.25348932938E+02  0.25348932938E+02  0.00000000000E+00 0.  1.
          5    1    1    2  502    0  0.21707471220E+02 -0.36560866413E+02  0.26428416512E+02  0.50283819057E+02  0.47000000000E+01 0.  1.
         -5    1    1    2    0  502 -0.10795310789E+02  0.43986376515E+02  0.24032054642E+03  0.24459639222E+03  0.47000000000E+01 0.  1.
        -11    1    1    2    0    0 -0.30262909314E+02 -0.31677488707E+02  0.15077680231E+03  0.15701258257E+03  0.00000000000E+00 0. -1.
         11    1    1    2    0    0  0.19350748883E+02  0.24251978606E+02  0.21306736790E+02  0.37637574062E+02  0.00000000000E+00 0.  1.
<mgrwt>
<rscale>  0 0.11593556E+03</rscale>
<asrwt>0</asrwt>
<pdfrwt beam="1">  1        1 0.71412522E-01 0.12569538E+03</pdfrwt>
<pdfrwt beam="2">  1       -1 0.38998362E-02 0.12569538E+03</pdfrwt>
<totfact> 0.12003205E+04</totfact>
</mgrwt>
</event>
<event>
 6    1  0.9263730E-006  0.1809444E+03  0.7546771E-02  0.1172399E+00
         -3   -1    0    0    0  501 -0.00000000000E+00  0.00000000000E+00  0.82489619353E+03  0.82489619353E+03  0.00000000000E+00 0.  1.
          3   -1    0    0  501    0  0.00000000000E+00 -0.00000000000E+00 -0.37637734198E+02  0.37637734198E+02  0.00000000000E+00 0. -1.
          5    1    1    2  502    0 -0.20478861921E+02  0.79798795908E+02  0.25375546344E+03  0.26683544899E+03  0.47000000000E+01 0.  1.
         -5    1    1    2    0  502 -0.69778724101E+02  0.14904302164E+02  0.51875952737E+02  0.88342589007E+02  0.47000000000E+01 0.  1.
        -11    1    1    2    0    0  0.88420621801E+02 -0.81563399243E+02  0.47894383919E+03  0.49381980069E+03  0.00000000000E+00 0.  1.
         11    1    1    2    0    0  0.18369642209E+01 -0.13139698830E+02  0.26832039647E+01  0.13536089036E+02  0.00000000000E+00 0. -1.
<mgrwt>
<rscale>  0 0.17533152E+03</rscale>
<asrwt>0</asrwt>
<pdfrwt beam="2">  1        3 0.57904213E-02 0.18094440E+03</pdfrwt>
<pdfrwt beam="1">  1       -3 0.12690709E+00 0.18094440E+03</pdfrwt>
<totfact> 0.22523094E+02</totfact>
</mgrwt>
</event>
<event>
 6    1  0.9263730E-006  0.1348901E+03  0.7546771E-02  0.1232846E+00
          2   -1    0    0  501    0  0.00000000000E+00  0.00000000000E+00  0.13455537787E+03  0.13455537787E+03  0.00000000000E+00 0. -1.
         -2   -1    0    0    0  501 -0.00000000000E+00 -0.00000000000E+00 -0.11904388627E+03  0.11904388627E+03  0.00000000000E+00 0.  1.
          5    1    1    2  502    0  0.32276827467E+02 -0.25291203254E+02 -0.58813350137E+01  0.41690750232E+02  0.47000000000E+01 0. -1.
         -5    1    1    2    0  502 -0.82786549554E+02  0.20878634441E+02  0.55978235354E+02  0.10220167805E+03  0.47000000000E+01 0. -1.
        -11    1    1    2    0    0  0.30456726509E+02  0.56809248311E+01 -0.65717019516E+02  0.72654055294E+02  0.00000000000E+00 0.  1.
         11    1    1    2    0    0  0.20052995578E+02 -0.12683560181E+01  0.31131610775E+02  0.37052780571E+02  0.00000000000E+00 0. -1.
<mgrwt>
<rscale>  0 0.12643312E+03</rscale>
<asrwt>0</asrwt>
<pdfrwt beam="1">  1        2 0.20700827E-01 0.13489007E+03</pdfrwt>
<pdfrwt beam="2">  1       -2 0.18314444E-01 0.13489007E+03</pdfrwt>
<totfact> 0.61948745E+03</totfact>
</mgrwt>
</event>
<event>
 6    1  0.9263730E-006  0.4419286E+03  0.7546771E-02  0.1030157E+00
         -2   -1    0    0    0  501 -0.00000000000E+00  0.00000000000E+00  0.39585650229E+02  0.39585650229E+02  0.00000000000E+00 0.  1.
          2   -1    0    0  501    0  0.00000000000E+00 -0.00000000000E+00 -0.12334068638E+04  0.12334068638E+04  0.00000000000E+00 0. -1.
          5    1    1    2  502    0  0.12357515710E+03  0.99308674876E+02 -0.81693949300E+03  0.83219304106E+03  0.47000000000E+01 0. -1.
         -5    1    1    2    0  502 -0.24549926242E+02 -0.45527587898E+01 -0.18984058824E+03  0.19153319669E+03  0.47000000000E+01 0. -1.
        -11    1    1    2    0    0 -0.59645900650E+02 -0.10703232881E+03 -0.15125539204E+03  0.19465802449E+03  0.00000000000E+00 0. -1.
         11    1    1    2    0    0 -0.39379330211E+02  0.12276412723E+02 -0.35785740312E+02  0.54608251820E+02  0.00000000000E+00 0.  1.
<mgrwt>
<rscale>  0 0.44192856E+03</rscale>
<asrwt>0</asrwt>
<pdfrwt beam="2">  1        2 0.18975490E+00 0.44192856E+03</pdfrwt>
<pdfrwt beam="1">  1       -2 0.60901002E-02 0.44192856E+03</pdfrwt>
<totfact> 0.27689642E+03</totfact>
</mgrwt>
</event>
<event>
 6    1  0.9263730E-006  0.1377802E+03  0.7546771E-02  0.1232755E+00
          2   -1    0    0  501    0  0.00000000000E+00  0.00000000000E+00  0.44401927678E+03  0.44401927678E+03  0.00000000000E+00 0. -1.
         -2   -1    0    0    0  501 -0.00000000000E+00 -0.00000000000E+00 -0.34691897835E+02  0.34691897835E+02  0.00000000000E+00 0.  1.
          5    1    1    2  502    0  0.40700733734E+02  0.13736757082E+02  0.26202416833E+03  0.26556355738E+03  0.47000000000E+01 0. -1.
         -5    1    1    2    0  502 -0.26294537391E+02 -0.49162541204E+02  0.48079049769E+02  0.73770205239E+02  0.47000000000E+01 0.  1.
        -11    1    1    2    0    0 -0.22536104793E+02 -0.25412333249E+02  0.51207611563E+02  0.61448207317E+02  0.00000000000E+00 0.  1.
         11    1    1    2    0    0  0.81299084508E+01  0.60838117371E+02  0.48016549285E+02  0.77929204679E+02  0.00000000000E+00 0. -1.
<mgrwt>
<rscale>  0 0.12649241E+03</rscale>
<asrwt>0</asrwt>
<pdfrwt beam="1">  1        2 0.68310654E-01 0.13778025E+03</pdfrwt>
<pdfrwt beam="2">  1       -2 0.53372154E-02 0.13778025E+03</pdfrwt>
<totfact> 0.11955982E+04</totfact>
</mgrwt>
</event>
<event>
 6    1  0.9263730E-006  0.1319852E+03  0.7546771E-02  0.1237696E+00
          1   -1    0    0  501    0  0.00000000000E+00  0.00000000000E+00  0.56012424983E+03  0.56012424983E+03  0.00000000000E+00 0. -1.
         -1   -1    0    0    0  501 -0.00000000000E+00 -0.00000000000E+00 -0.26310899849E+02  0.26310899849E+02  0.00000000000E+00 0.  1.
          5    1    1    2  502    0  0.38692386077E+02 -0.30511896409E+02  0.15654208215E+03  0.16418157645E+03  0.47000000000E+01 0. -1.
         -5    1    1    2    0  502 -0.79689818885E+02  0.19705774239E+02  0.22666636003E+03  0.24111929318E+03  0.47000000000E+01 0. -1.
        -11    1    1    2    0    0  0.26055049369E+02  0.50251393675E+02  0.10301221675E+03  0.11753971654E+03  0.00000000000E+00 0. -1.
         11    1    1    2    0    0  0.14942383440E+02 -0.39445271505E+02  0.47592691051E+02  0.63594563513E+02  0.00000000000E+00 0.  1.
<mgrwt>
<rscale>  0 0.12333410E+03</rscale>
<asrwt>0</asrwt>
<pdfrwt beam="1">  1        1 0.86172953E-01 0.13198517E+03</pdfrwt>
<pdfrwt beam="2">  1       -1 0.40478312E-02 0.13198517E+03</pdfrwt>
<totfact> 0.89215220E+03</totfact>
</mgrwt>
</event>
<event>
 6    1  0.9263730E-006  0.1391433E+03  0.7546771E-02  0.1229746E+00
         -1   -1    0    0    0  501 -0.00000000000E+00  0.00000000000E+00  0.29100885487E+02  0.29100885487E+02  0.00000000000E+00 0.  1.
          1   -1    0    0  501    0  0.00000000000E+00 -0.00000000000E+00 -0.49601981819E+03  0.49601981819E+03  0.00000000000E+00 0. -1.
          5    1    1    2  502    0 -0.41000174932E+02 -0.36958786896E+02 -0.25765364136E+03  0.26354213170E+03  0.47000000000E+01 0. -1.
         -5    1    1    2    0  502  0.23495023213E+02 -0.26483776821E+02 -0.83825501381E+01  0.36684652067E+02  0.47000000000E+01 0.  1.
        -11    1    1    2    0    0  0.15419464529E+02 -0.56895075491E+01 -0.50306960887E+01  0.17188318290E+02  0.00000000000E+00 0. -1.
         11    1    1    2    0    0  0.20856871906E+01  0.69132071266E+02 -0.19585204511E+03  0.20770560161E+03  0.00000000000E+00 0.  1.
<mgrwt>
<rscale>  0 0.12846837E+03</rscale>
<asrwt>0</asrwt>
<pdfrwt beam="2">  1        1 0.76310736E-01 0.13914333E+03</pdfrwt>
<pdfrwt beam="1">  1       -1 0.44770596E-02 0.13914333E+03</pdfrwt>
<totfact> 0.90606977E+03</totfact>
</mgrwt>
</event>
<event>
 6    1  0.9263730E-006  0.1499125E+03  0.7546771E-02  0.1209564E+00
          1   -1    0    0  501    0  0.00000000000E+00  0.00000000000E+00  0.53602095816E+02  0.53602095816E+02  0.00000000000E+00 0. -1.
         -1   -1    0    0    0  501 -0.00000000000E+00 -0.00000000000E+00 -0.39222897687E+03  0.39222897687E+03  0.00000000000E+00 0.  1.
          5    1    1    2  502    0 -0.10916234131E+02 -0.70601688800E+02 -0.42626232409E+01  0.71721841763E+02  0.47000000000E+01 0. -1.
         -5    1    1    2    0  502  0.42588918860E+02 -0.58550799944E+01 -0.10567528150E+03  0.11418166706E+03  0.47000000000E+01 0. -1.
        -11    1    1    2    0    0  0.88435725144E+01 -0.18311716466E+02 -0.42536642836E+02  0.47147573835E+02  0.00000000000E+00 0.  1.
         11    1    1    2    0    0 -0.40516257244E+02  0.94768485260E+02 -0.18615233348E+03  0.21277999003E+03  0.00000000000E+00 0. -1.
<mgrwt>
<rscale>  0 0.14283542E+03</rscale>
<asrwt>0</asrwt>
<pdfrwt beam="1">  1        1 0.82464761E-02 0.14991255E+03</pdfrwt>
<pdfrwt beam="2">  1       -1 0.60342921E-01 0.14991255E+03</pdfrwt>
<totfact> 0.23340019E+03</totfact>
</mgrwt>
</event>
<event>
 6    1  0.9263730E-006  0.2495729E+03  0.7546771E-02  0.1113575E+00
          1   -1    0    0  501    0  0.00000000000E+00  0.00000000000E+00  0.24703730082E+02  0.24703730082E+02  0.00000000000E+00 0. -1.
         -1   -1    0    0    0  501 -0.00000000000E+00 -0.00000000000E+00 -0.63033629070E+03  0.63033629070E+03  0.00000000000E+00 0.  1.
          5    1    1    2  502    0  0.20544071558E+02 -0.29777343423E+02 -0.39732469095E+02  0.53939856858E+02  0.47000000000E+01 0.  1.
         -5    1    1    2    0  502 -0.65149998843E+02  0.67725290784E+02 -0.24621477471E+03  0.26358118796E+03  0.47000000000E+01 0.  1.
        -11    1    1    2    0    0  0.38418333532E+02  0.19707855693E+02 -0.79886333771E+02  0.90808558247E+02  0.00000000000E+00 0. -1.
         11    1    1    2    0    0  0.61875937526E+01 -0.57655803054E+02 -0.23979898305E+03  0.24671041772E+03  0.00000000000E+00 0.  1.
<mgrwt>
<rscale>  0 0.24957290E+03</rscale>
<asrwt>0</asrwt>
<pdfrwt beam="1">  1        1 0.38005743E-02 0.24957290E+03</pdfrwt>
<pdfrwt beam="2">  1       -1 0.96974802E-01 0.24957290E+03</pdfrwt>
<totfact> 0.26230106E+03</totfact>
</mgrwt>
</event>
<event>
 6    1  0.9263730E-006  0.1432706E+03  0.7546771E-02  0.1216056E+00
         -2   -1    0    0    0  501 -0.00000000000E+00  0.00000000000E+00  0.38267999926E+02  0.38267999926E+02  0.00000000000E+00 0.  1.
          2   -1    0    0  501    0  0.00000000000E+00 -0.00000000000E+00 -0.47577004427E+03  0.47577004427E+03  0.00000000000E+00 0. -1.
          5    1    1    2  502    0 -0.46154301219E+02 -0.33739564571E+02 -0.25938345247E+03  0.26565097996E+03  0.47000000000E+01 0. -1.
         -5    1    1    2    0  502  0.98190648140E+01 -0.39960312210E+02 -0.15301716389E+02  0.44152838076E+02  0.47000000000E+01 0.  1.
        -11    1    1    2    0    0  0.51725612276E+02  0.57312903024E+01 -0.85962030799E+02  0.10048809578E+03  0.00000000000E+00 0. -1.
         11    1    1    2    0    0 -0.15390375871E+02  0.67968586479E+02 -0.76854844684E+02  0.10374613038E+03  0.00000000000E+00 0.  1.
<mgrwt>
<rscale>  0 0.13799279E+03</rscale>
<asrwt>0</asrwt>
<pdfrwt beam="2">  1        2 0.73195394E-01 0.14327060E+03</pdfrwt>
<pdfrwt beam="1">  1       -2 0.58873844E-02 0.14327060E+03</pdfrwt>
<totfact> 0.95893215E+03</totfact>
</mgrwt>
</event>
<event>
 6    1  0.9263730E-006  0.1421670E+03  0.7546771E-02  0.1221353E+00
         -1   -1    0    0    0  501 -0.00000000000E+00  0.00000000000E+00  0.38345873990E+02  0.38345873990E+02  0.00000000000E+00 0.  1.
          1   -1    0    0  501    0  0.00000000000E+00 -0.00000000000E+00 -0.43350183608E+03  0.43350183608E+03  0.00000000000E+00 0. -1.
          5    1    1    2  502    0  0.34043299557E+02  0.89287152555E+02 -0.14037563811E+03  0.16987804929E+03  0.47000000000E+01 0.  1.
         -5    1    1    2    0  502 -0.35886726790E+02 -0.21558267862E+02 -0.11392058420E+03  0.12146030453E+03  0.47000000000E+01 0.  1.
        -11    1    1    2    0    0  0.19448635955E+02  0.17199709581E+02 -0.28233727563E+02  0.38356522552E+02  0.00000000000E+00 0.  1.
         11    1    1    2    0    0 -0.17605208722E+02 -0.84928594274E+02 -0.11262601222E+03  0.14215283369E+03  0.00000000000E+00 0. -1.
<mgrwt>
<rscale>  0 0.13420064E+03</rscale>
<asrwt>0</asrwt>
<pdfrwt beam="2">  1        1 0.66692594E-01 0.14216704E+03</pdfrwt>
<pdfrwt beam="1">  1       -1 0.58993649E-02 0.14216704E+03</pdfrwt>
<totfact> 0.71705989E+03</totfact>
</mgrwt>
</event>
<event>
 6    1  0.9263730E-006  0.1317609E+03  0.7546771E-02  0.1237174E+00
          2   -1    0    0  501    0  0.00000000000E+00  0.00000000000E+00  0.16126137974E+03  0.16126137974E+03  0.00000000000E+00 0. -1.
         -2   -1    0    0    0  501 -0.00000000000E+00 -0.00000000000E+00 -0.10676731908E+03  0.10676731908E+03  0.00000000000E+00 0.  1.
          5    1    1    2  502    0  0.46650933798E+02 -0.65286446270E+02  0.89305931764E+02  0.12015102638E+03  0.47000000000E+01 0. -1.
         -5    1    1    2    0  502 -0.26977728438E+02  0.28540096803E+02  0.96099863055E+00  0.39564485028E+02  0.47000000000E+01 0. -1.
        -11    1    1    2    0    0  0.50526496440E+01  0.62637822361E+02 -0.87270840328E+01  0.63444369760E+02  0.00000000000E+00 0. -1.
         11    1    1    2    0    0 -0.24725855005E+02 -0.25891472894E+02 -0.27045785697E+02  0.44868817661E+02  0.00000000000E+00 0.  1.
<mgrwt>
<rscale>  0 0.12366307E+03</rscale>
<asrwt>0</asrwt>
<pdfrwt beam="1">  1        2 0.24809443E-01 0.13176087E+03</pdfrwt>
<pdfrwt beam="2">  1       -2 0.16425741E-01 0.13176087E+03</pdfrwt>
<totfact> 0.60566229E+03</totfact>
</mgrwt>
</event>
<event>
 6    1  0.9263730E-006  0.1952239E+03  0.7546771E-02  0.1158479E+00
          1   -1    0    0  501    0  0.00000000000E+00  0.00000000000E+00  0.97014658910E+03  0.97014658910E+03  0.00000000000E+00 0.  1.
         -1   -1    0    0    0  501 -0.00000000000E+00 -0.00000000000E+00 -0.60533198363E+02  0.60533198363E+02  0.00000000000E+00 0. -1.
          5    1    1    2  502    0 -0.15392398980E+03  0.24213952854E+02  0.73286085575E+03  0.74925698798E+03  0.47000000000E+01 0.  1.
         -5    1    1    2    0  502  0.41284976312E+01 -0.31239259950E+02  0.68586509326E+02  0.75624963580E+02  0.47000000000E+01 0.  1.
        -11    1    1    2    0    0  0.12969888778E+02 -0.15072192329E+01 -0.16126682994E+02  0.20749930822E+02  0.00000000000E+00 0. -1.
         11    1    1    2    0    0  0.13682560339E+03  0.85325263288E+01  0.12429270865E+03  0.18504790508E+03  0.00000000000E+00 0.  1.
<mgrwt>
<rscale>  0 0.18998029E+03</rscale>
<asrwt>0</asrwt>
<pdfrwt beam="1">  1        1 0.14925331E+00 0.19522386E+03</pdfrwt>
<pdfrwt beam="2">  1       -1 0.93128005E-02 0.19522386E+03</pdfrwt>
<totfact> 0.11496827E+03</totfact>
</mgrwt>
</event>
<event>
 6    1  0.9263730E-006  0.1344845E+03  0.7546771E-02  0.1234662E+00
         -3   -1    0    0    0  501 -0.00000000000E+00  0.00000000000E+00  0.10273798973E+03  0.10273798973E+03  0.00000000000E+00 0.  1.
          3   -1    0    0  501    0  0.00000000000E+00 -0.00000000000E+00 -0.13747387581E+03  0.13747387581E+03  0.00000000000E+00 0. -1.
          5    1    1    2  502    0  0.68138440322E+02  0.81323809087E+01 -0.59883488099E+02  0.91198162348E+02  0.47000000000E+01 0.  1.
         -5    1    1    2    0  502 -0.24779275498E+02 -0.32183403682E+02  0.24755245562E+02  0.47798495265E+02  0.47000000000E+01 0.  1.
        -11    1    1    2    0    0 -0.67912673593E+02  0.30432506439E+02 -0.71139093729E+01  0.74758788040E+02  0.00000000000E+00 0.  1.
         11    1    1    2    0    0  0.24553508769E+02 -0.63814836662E+01  0.75062658238E+01  0.26456419888E+02  0.00000000000E+00 0. -1.
<mgrwt>
<rscale>  0 0.12526068E+03</rscale>
<asrwt>0</asrwt>
<pdfrwt beam="2">  1        3 0.21149827E-01 0.13448449E+03</pdfrwt>
<pdfrwt beam="1">  1       -3 0.15805845E-01 0.13448449E+03</pdfrwt>
<totfact> 0.15798797E+03</totfact>
</mgrwt>
</event>
<event>
 6    1  0.9263730E-006  0.1476508E+03  0.7546771E-02  0.1215936E+00
         -1   -1    0    0    0  501 -0.00000000000E+00  0.00000000000E+00  0.91276852660E+02  0.91276852660E+02  0.00000000000E+00 0.  1.
          1   -1    0    0  501    0  0.00000000000E+00 -0.00000000000E+00 -0.28043342797E+03  0.28043342797E+03  0.00000000000E+00 0. -1.
          5    1    1    2  502    0  0.26461252426E+02  0.86741677378E+02 -0.87834169108E+02  0.12633783177E+03  0.47000000000E+01 0.  1.
         -5    1    1    2    0  502  0.30896813716E+02 -0.33031700689E+02 -0.12232629838E+03  0.13050486437E+03  0.47000000000E+01 0.  1.
        -11    1    1    2    0    0  0.16510829739E+02 -0.20803439220E+02  0.21228176012E+02  0.34000382922E+02  0.00000000000E+00 0.  1.
         11    1    1    2    0    0 -0.73868895880E+02 -0.32906537468E+02 -0.22428383778E+00  0.80867201571E+02  0.00000000000E+00 0. -1.
<mgrwt>
<rscale>  0 0.13807976E+03</rscale>
<asrwt>0</asrwt>
<pdfrwt beam="2">  1        1 0.43143604E-01 0.14765077E+03</pdfrwt>
<pdfrwt beam="1">  1       -1 0.14042593E-01 0.14765077E+03</pdfrwt>
<totfact> 0.33091608E+03</totfact>
</mgrwt>
</event>
<event>
 6    1  0.9263730E-006  0.1379052E+03  0.7546771E-02  0.1220695E+00
         -2   -1    0    0    0  501 -0.00000000000E+00  0.00000000000E+00  0.30893135245E+02  0.30893135245E+02  0.00000000000E+00 0.  1.
          2   -1    0    0  501    0  0.00000000000E+00 -0.00000000000E+00 -0.86460999057E+03  0.86460999057E+03  0.00000000000E+00 0. -1.
          5    1    1    2  502    0 -0.55190727465E+02  0.21935935911E+01 -0.59442671601E+03  0.59700589525E+03  0.47000000000E+01 0. -1.
         -5    1    1    2    0  502 -0.15178797079E+02 -0.45519082467E+02 -0.10042678230E+03  0.11140023049E+03  0.47000000000E+01 0.  1.
        -11    1    1    2    0    0  0.40611082749E+02  0.71436098735E+02 -0.10861916889E+03  0.13620022061E+03  0.00000000000E+00 0.  1.
         11    1    1    2    0    0  0.29758441795E+02 -0.28110609859E+02 -0.30244188116E+02  0.50896779461E+02  0.00000000000E+00 0. -1.
<mgrwt>
<rscale>  0 0.13466351E+03</rscale>
<asrwt>0</asrwt>
<pdfrwt beam="2">  1        2 0.13301690E+00 0.13790524E+03</pdfrwt>
<pdfrwt beam="1">  1       -2 0.47527907E-02 0.13790524E+03</pdfrwt>
<totfact> 0.65732793E+03</totfact>
</mgrwt>
</event>
<event>
 6    1  0.9263730E-006  0.1431490E+03  0.7546771E-02  0.1219456E+00
         -2   -1    0    0    0  501 -0.00000000000E+00  0.00000000000E+00  0.18813757977E+02  0.18813757977E+02  0.00000000000E+00 0.  1.
          2   -1    0    0  501    0  0.00000000000E+00 -0.00000000000E+00 -0.91328749532E+03  0.91328749532E+03  0.00000000000E+00 0. -1.
          5    1    1    2  502    0  0.15446383516E+02  0.56194678490E+02 -0.19964892741E+03  0.20803417236E+03  0.47000000000E+01 0.  1.
         -5    1    1    2    0  502  0.53927029164E+02 -0.63532690312E+02 -0.37492602932E+03  0.38410434087E+03  0.47000000000E+01 0.  1.
        -11    1    1    2    0    0  0.17564493229E+02  0.18584260295E+02 -0.10042485345E+03  0.10362932666E+03  0.00000000000E+00 0. -1.
         11    1    1    2    0    0 -0.86937905910E+02 -0.11246248474E+02 -0.21947392717E+03  0.23633341341E+03  0.00000000000E+00 0.  1.
<mgrwt>
<rscale>  0 0.13554233E+03</rscale>
<asrwt>0</asrwt>
<pdfrwt beam="2">  1        2 0.14050578E+00 0.14314901E+03</pdfrwt>
<pdfrwt beam="1">  1       -2 0.28944241E-02 0.14314901E+03</pdfrwt>
<totfact> 0.12798976E+04</totfact>
</mgrwt>
</event>
<event>
 6    1  0.9263730E-006  0.1285061E+03  0.7546771E-02  0.1243237E+00
         -2   -1    0    0    0  501 -0.00000000000E+00  0.00000000000E+00  0.32992870739E+02  0.32992870739E+02  0.00000000000E+00 0.  1.
          2   -1    0    0  501    0  0.00000000000E+00 -0.00000000000E+00 -0.39140102100E+03  0.39140102100E+03  0.00000000000E+00 0. -1.
          5    1    1    2  502    0 -0.58628145118E+02  0.46563562314E+02 -0.18065991839E+03  0.19561574796E+03  0.47000000000E+01 0.  1.
         -5    1    1    2    0  502  0.33050333679E+02 -0.31280781207E+02 -0.45614669746E+02  0.64603404904E+02  0.47000000000E+01 0.  1.
        -11    1    1    2    0    0 -0.24018126305E+01  0.33112194992E+02 -0.19681939596E+02  0.38594881880E+02  0.00000000000E+00 0.  1.
         11    1    1    2    0    0  0.27979624069E+02 -0.48394976099E+02 -0.11245162252E+03  0.12557985700E+03  0.00000000000E+00 0. -1.
<mgrwt>
<rscale>  0 0.11991523E+03</rscale>
<asrwt>0</asrwt>
<pdfrwt beam="2">  1        2 0.60215535E-01 0.12850610E+03</pdfrwt>
<pdfrwt beam="1">  1       -2 0.50758268E-02 0.12850610E+03</pdfrwt>
<totfact> 0.14680160E+04</totfact>
</mgrwt>
</event>
<event>
 6    1  0.9263730E-006  0.1274892E+03  0.7546771E-02  0.1242993E+00
          1   -1    0    0  501    0  0.00000000000E+00  0.00000000000E+00  0.11565867401E+04  0.11565867401E+04  0.00000000000E+00 0. -1.
         -1   -1    0    0    0  501 -0.00000000000E+00 -0.00000000000E+00 -0.11272661859E+02  0.11272661859E+02  0.00000000000E+00 0.  1.
          5    1    1    2  502    0 -0.64464529846E+02 -0.38678419845E+02  0.40151530975E+03  0.40851968096E+03  0.47000000000E+01 0. -1.
         -5    1    1    2    0  502  0.41391951710E+02  0.28946066675E+02  0.19732462644E+03  0.20374068480E+03  0.47000000000E+01 0. -1.
        -11    1    1    2    0    0  0.18788195612E+02 -0.43097407196E+02  0.27704087636E+03  0.28100183269E+03  0.00000000000E+00 0.  1.
         11    1    1    2    0    0  0.42843825234E+01  0.52829760365E+02  0.26943326574E+03  0.27459720356E+03  0.00000000000E+00 0. -1.
<mgrwt>
<rscale>  0 0.12006315E+03</rscale>
<asrwt>0</asrwt>
<pdfrwt beam="1">  1        1 0.17793633E+00 0.12748916E+03</pdfrwt>
<pdfrwt beam="2">  1       -1 0.17342566E-02 0.12748916E+03</pdfrwt>
<totfact> 0.10007510E+04</totfact>
</mgrwt>
</event>
<event>
 6    1  0.9263730E-006  0.2153063E+03  0.7546771E-02  0.1140872E+00
          1   -1    0    0  501    0  0.00000000000E+00  0.00000000000E+00  0.76234422479E+03  0.76234422479E+03  0.00000000000E+00 0. -1.
         -1   -1    0    0    0  501 -0.00000000000E+00 -0.00000000000E+00 -0.86823199047E+02  0.86823199047E+02  0.00000000000E+00 0.  1.
          5    1    1    2  502    0 -0.67997761474E+02  0.16900501243E+03  0.44495450860E+03  0.48082532641E+03  0.47000000000E+01 0.  1.
         -5    1    1    2    0  502  0.21961494146E+02  0.15816823632E+00  0.15447068066E+03  0.15609488597E+03  0.47000000000E+01 0.  1.
        -11    1    1    2    0    0  0.32016470422E+02 -0.17729710620E+03  0.61318694798E+02  0.19031368994E+03  0.00000000000E+00 0. -1.
         11    1    1    2    0    0  0.14019796907E+02  0.81339255369E+01  0.14777141681E+02  0.21933521519E+02  0.00000000000E+00 0.  1.
<mgrwt>
<rscale>  0 0.21087931E+03</rscale>
<asrwt>0</asrwt>
<pdfrwt beam="1">  1        1 0.11728372E+00 0.21530629E+03</pdfrwt>
<pdfrwt beam="2">  1       -1 0.13357416E-01 0.21530629E+03</pdfrwt>
<totfact> 0.96217378E+02</totfact>
</mgrwt>
</event>
<event>
 6    1  0.9263730E-006  0.1183279E+03  0.7546771E-02  0.1257808E+00
         -1   -1    0    0    0  501 -0.00000000000E+00  0.00000000000E+00  0.27975617587E+03  0.27975617587E+03  0.00000000000E+00 0.  1.
          1   -1    0    0  501    0  0.00000000000E+00 -0.00000000000E+00 -0.61633840216E+02  0.61633840216E+02  0.00000000000E+00 0. -1.
          5    1    1    2  502    0 -0.25703009798E+02 -0.39978917971E+02 -0.22242200291E+02  0.52685520483E+02  0.47000000000E+01 0. -1.
         -5    1    1    2    0  502  0.40798298131E+02  0.35408858742E+02  0.39066567236E+02  0.66832440352E+02  0.47000000000E+01 0.  1.
        -11    1    1    2    0    0 -0.11317466315E+02  0.41068354882E+02  0.16442118586E+03  0.16984999610E+03  0.00000000000E+00 0.  1.
         11    1    1    2    0    0 -0.37778220181E+01 -0.36498295653E+02  0.36876782853E+02  0.52022059152E+02  0.00000000000E+00 0. -1.
<mgrwt>
<rscale>  0 0.11150509E+03</rscale>
<asrwt>0</asrwt>
<pdfrwt beam="2">  1        1 0.94821294E-02 0.11832787E+03</pdfrwt>
<pdfrwt beam="1">  1       -1 0.43039411E-01 0.11832787E+03</pdfrwt>
<totfact> 0.35552823E+03</totfact>
</mgrwt>
</event>
<event>
 6    1  0.9263730E-006  0.1346977E+03  0.7546771E-02  0.1234817E+00
         -1   -1    0    0    0  501 -0.00000000000E+00  0.00000000000E+00  0.13854319888E+03  0.13854319888E+03  0.00000000000E+00 0.  1.
          1   -1    0    0  501    0  0.00000000000E+00 -0.00000000000E+00 -0.10315196570E+03  0.10315196570E+03  0.00000000000E+00 0. -1.
          5    1    1    2  502    0  0.30648650612E+02  0.53487345790E+02 -0.34167938162E+02  0.70638331961E+02  0.47000000000E+01 0. -1.
         -5    1    1    2    0  502  0.19506742449E+02 -0.51349497944E+02  0.32639494079E+02  0.64068014749E+02  0.47000000000E+01 0. -1.
        -11    1    1    2    0    0 -0.28036850939E+02 -0.29650448325E+02 -0.15617309799E+02  0.43693414399E+02  0.00000000000E+00 0. -1.
         11    1    1    2    0    0 -0.22118542122E+02  0.27512600479E+02  0.52536987058E+02  0.63295403465E+02  0.00000000000E+00 0.  1.
<mgrwt>
<rscale>  0 0.12516178E+03</rscale>
<asrwt>0</asrwt>
<pdfrwt beam="2">  1        1 0.15869533E-01 0.13469768E+03</pdfrwt>
<pdfrwt beam="1">  1       -1 0.21314338E-01 0.13469768E+03</pdfrwt>
<totfact> 0.59672862E+03</totfact>
</mgrwt>
</event>
<event>
 6    1  0.9263730E-006  0.1378740E+03  0.7546771E-02  0.1228229E+00
          2   -1    0    0  501    0  0.00000000000E+00  0.00000000000E+00  0.45815258413E+03  0.45815258413E+03  0.00000000000E+00 0.  1.
         -2   -1    0    0    0  501 -0.00000000000E+00 -0.00000000000E+00 -0.33110981576E+02  0.33110981576E+02  0.00000000000E+00 0. -1.
          5    1    1    2  502    0 -0.63235019326E+02 -0.17169554873E+01  0.16940077486E+03  0.18088761187E+03  0.47000000000E+01 0.  1.
         -5    1    1    2    0  502  0.43388676995E+02 -0.52958253242E+02  0.93598929391E+02  0.11606034405E+03  0.47000000000E+01 0.  1.
        -11    1    1    2    0    0  0.37910453679E+02  0.54694826472E+02  0.16316715154E+03  0.17621647449E+03  0.00000000000E+00 0.  1.
         11    1    1    2    0    0 -0.18064111349E+02 -0.19617742068E-01 -0.11252532312E+01  0.18099135297E+02  0.00000000000E+00 0. -1.
<mgrwt>
<rscale>  0 0.12948029E+03</rscale>
<asrwt>0</asrwt>
<pdfrwt beam="1">  1        2 0.70485008E-01 0.13787402E+03</pdfrwt>
<pdfrwt beam="2">  1       -2 0.50939975E-02 0.13787402E+03</pdfrwt>
<totfact> 0.12398349E+04</totfact>
</mgrwt>
</event>
<event>
 6    1  0.9263730E-006  0.1310212E+03  0.7546771E-02  0.1239012E+00
         -1   -1    0    0    0  501 -0.00000000000E+00  0.00000000000E+00  0.27669867842E+02  0.27669867842E+02  0.00000000000E+00 0.  1.
          1   -1    0    0  501    0  0.00000000000E+00 -0.00000000000E+00 -0.57964128314E+03  0.57964128314E+03  0.00000000000E+00 0. -1.
          5    1    1    2  502    0  0.61728370787E+02 -0.35738969624E+02 -0.16974506030E+03  0.18418235856E+03  0.47000000000E+01 0.  1.
         -5    1    1    2    0  502 -0.51436813119E+02 -0.21516015296E+01 -0.26009723215E+03  0.26518490777E+03  0.47000000000E+01 0.  1.
        -11    1    1    2    0    0 -0.41859161846E+02  0.28449562496E+02 -0.27197317218E+02  0.57456601888E+02  0.00000000000E+00 0. -1.
         11    1    1    2    0    0  0.31567604178E+02  0.94410086582E+01 -0.94931805630E+02  0.10048728277E+03  0.00000000000E+00 0.  1.
<mgrwt>
<rscale>  0 0.12251034E+03</rscale>
<asrwt>0</asrwt>
<pdfrwt beam="2">  1        1 0.89175579E-01 0.13102116E+03</pdfrwt>
<pdfrwt beam="1">  1       -1 0.42569029E-02 0.13102116E+03</pdfrwt>
<totfact> 0.79096524E+03</totfact>
</mgrwt>
</event>
<event>
 6    1  0.9263730E-006  0.1501552E+03  0.7546771E-02  0.1221509E+00
         -2   -1    0    0    0  501 -0.00000000000E+00  0.00000000000E+00  0.12847905365E+03  0.12847905365E+03  0.00000000000E+00 0.  1.
          2   -1    0    0  501    0  0.00000000000E+00 -0.00000000000E+00 -0.13216837051E+03  0.13216837051E+03  0.00000000000E+00 0. -1.
          5    1    1    2  502    0  0.17235057522E+02 -0.33758185437E+02 -0.92793952510E+02  0.10034674840E+03  0.47000000000E+01 0. -1.
         -5    1    1    2    0  502 -0.27786966523E+02  0.86360525436E+01  0.48017578067E+02  0.56342477009E+02  0.47000000000E+01 0.  1.
        -11    1    1    2    0    0 -0.33039502115E+02 -0.10675012246E+02  0.31224871025E+02  0.46696436235E+02  0.00000000000E+00 0.  1.
         11    1    1    2    0    0  0.43591411116E+02  0.35797145139E+02  0.98621865587E+01  0.57261762520E+02  0.00000000000E+00 0. -1.
<mgrwt>
<rscale>  0 0.13409102E+03</rscale>
<asrwt>0</asrwt>
<pdfrwt beam="2">  1        2 0.20333595E-01 0.15015522E+03</pdfrwt>
<pdfrwt beam="1">  1       -2 0.19766008E-01 0.15015522E+03</pdfrwt>
<totfact> 0.55993971E+03</totfact>
</mgrwt>
</event>
<event>
 6    1  0.9263730E-006  0.1304445E+03  0.7546771E-02  0.1241274E+00
          3   -1    0    0  501    0  0.00000000000E+00  0.00000000000E+00  0.45698473009E+02  0.45698473009E+02  0.00000000000E+00 0. -1.
         -3   -1    0    0    0  501 -0.00000000000E+00 -0.00000000000E+00 -0.29772393657E+03  0.29772393657E+03  0.00000000000E+00 0.  1.
          5    1    1    2  502    0 -0.62697179314E+02  0.46333611900E+02 -0.98930979667E+02  0.12604431214E+03  0.47000000000E+01 0. -1.
         -5    1    1    2    0  502  0.34994234119E+02 -0.21378778869E+02 -0.67230194306E+01  0.41820301264E+02  0.47000000000E+01 0. -1.
        -11    1    1    2    0    0  0.51428459208E+02 -0.30452904802E+02 -0.13698702035E+03  0.14945805288E+03  0.00000000000E+00 0.  1.
         11    1    1    2    0    0 -0.23725514014E+02  0.54980717711E+01 -0.93844441143E+01  0.26099743289E+02  0.00000000000E+00 0. -1.
<mgrwt>
<rscale>  0 0.12111188E+03</rscale>
<asrwt>0</asrwt>
<pdfrwt beam="1">  1        3 0.70305343E-02 0.13044447E+03</pdfrwt>
<pdfrwt beam="2">  1       -3 0.45803683E-01 0.13044447E+03</pdfrwt>
<totfact> 0.14322612E+03</totfact>
</mgrwt>
</event>
<event>
 6    1  0.9263730E-006  0.1307564E+03  0.7546771E-02  0.1240186E+00
         -2   -1    0    0    0  501 -0.00000000000E+00  0.00000000000E+00  0.13778804211E+03  0.13778804211E+03  0.00000000000E+00 0.  1.
          2   -1    0    0  501    0  0.00000000000E+00 -0.00000000000E+00 -0.10073604524E+03  0.10073604524E+03  0.00000000000E+00 0. -1.
          5    1    1    2  502    0  0.34231172643E+02 -0.36893756841E+02  0.43300021264E+02  0.66557526365E+02  0.47000000000E+01 0. -1.
         -5    1    1    2    0  502 -0.40462335671E+02 -0.95828886110E+00 -0.49821559547E+02  0.64361453691E+02  0.47000000000E+01 0. -1.
        -11    1    1    2    0    0  0.42227220942E+02  0.18882930150E+02  0.48018781837E+02  0.66674632722E+02  0.00000000000E+00 0.  1.
         11    1    1    2    0    0 -0.35996057913E+02  0.18969115552E+02 -0.44452466879E+01  0.40930474567E+02  0.00000000000E+00 0. -1.
<mgrwt>
<rscale>  0 0.12178195E+03</rscale>
<asrwt>0</asrwt>
<pdfrwt beam="2">  1        2 0.15497853E-01 0.13075645E+03</pdfrwt>
<pdfrwt beam="1">  1       -2 0.21198161E-01 0.13075645E+03</pdfrwt>
<totfact> 0.67272302E+03</totfact>
</mgrwt>
</event>
<event>
 6    1  0.9263730E-006  0.1170455E+03  0.7546771E-02  0.1258412E+00
          1   -1    0    0  501    0  0.00000000000E+00  0.00000000000E+00  0.27029531904E+03  0.27029531904E+03  0.00000000000E+00 0. -1.
         -1   -1    0    0    0  501 -0.00000000000E+00 -0.00000000000E+00 -0.41745333531E+02  0.41745333531E+02  0.00000000000E+00 0.  1.
          5    1    1    2  502    0  0.99046612642E+01 -0.74553082314E+01  0.13496390492E+03  0.13561353017E+03  0.47000000000E+01 0. -1.
         -5    1    1    2    0  502 -0.39933381652E+02 -0.30871716679E+01 -0.34107719932E+01  0.40471335098E+02  0.47000000000E+01 0.  1.
        -11    1    1    2    0    0  0.55746828389E+02  0.53166111833E+01  0.94166934755E+02  0.10955996911E+03  0.00000000000E+00 0. -1.
         11    1    1    2    0    0 -0.25718108001E+02  0.52258687159E+01  0.28299178303E+01  0.26395818190E+02  0.00000000000E+00 0.  1.
<mgrwt>
<rscale>  0 0.11117328E+03</rscale>
<asrwt>0</asrwt>
<pdfrwt beam="1">  1        1 0.41583894E-01 0.11704552E+03</pdfrwt>
<pdfrwt beam="2">  1       -1 0.64223592E-02 0.11704552E+03</pdfrwt>
<totfact> 0.11223433E+04</totfact>
</mgrwt>
</event>
<event>
 6    1  0.1218182E-005  0.1255237E+03  0.7546771E-02  0.1249185E+00
          1   -1    0    0  501    0  0.00000000000E+00  0.00000000000E+00  0.19861162492E+04  0.19861162492E+04  0.00000000000E+00 0. -1.
         -1   -1    0    0    0  501 -0.00000000000E+00 -0.00000000000E+00 -0.97372413527E+01  0.97372413527E+01  0.00000000000E+00 0.  1.
          5    1    1    2  502    0 -0.20372777140E+02 -0.51551900578E+02  0.39601890635E+03  0.39990713008E+03  0.47000000000E+01 0. -1.
         -5    1    1    2    0  502  0.14940953300E+02  0.41470423079E+02  0.12976251015E+04  0.12983820787E+04  0.47000000000E+01 0. -1.
        -11    1    1    2    0    0 -0.13923623869E+02 -0.36416221815E+02  0.84983221460E+02  0.93499499691E+02  0.00000000000E+00 0.  1.
         11    1    1    2    0    0  0.19355447709E+02  0.46497699314E+02  0.19775177849E+03  0.20406478210E+03  0.00000000000E+00 0. -1.
<mgrwt>
<rscale>  0 0.11638337E+03</rscale>
<asrwt>0</asrwt>
<pdfrwt beam="1">  1        1 0.30555602E+00 0.12552375E+03</pdfrwt>
<pdfrwt beam="2">  1       -1 0.14980387E-02 0.12552375E+03</pdfrwt>
<totfact> 0.35752672E+03</totfact>
</mgrwt>
</event>
<event>
 6    1  0.9263730E-006  0.3539238E+03  0.7546771E-02  0.1061016E+00
          2   -1    0    0  501    0  0.00000000000E+00  0.00000000000E+00  0.81400110500E+02  0.81400110500E+02  0.00000000000E+00 0. -1.
         -2   -1    0    0    0  501 -0.00000000000E+00 -0.00000000000E+00 -0.38471094703E+03  0.38471094703E+03  0.00000000000E+00 0.  1.
          5    1    1    2  502    0 -0.93069079641E+02 -0.80575244133E+02 -0.54962515587E+02  0.13489696687E+03  0.47000000000E+01 0. -1.
         -5    1    1    2    0  502 -0.34918703433E+02  0.26986077252E+02 -0.94150583493E+02  0.10408643805E+03  0.47000000000E+01 0. -1.
        -11    1    1    2    0    0  0.73061900099E+02 -0.13607112148E+02 -0.42283344863E+02  0.85504830273E+02  0.00000000000E+00 0.  1.
         11    1    1    2    0    0  0.54925882975E+02  0.67196279029E+02 -0.11191439259E+03  0.14162282233E+03  0.00000000000E+00 0. -1.
<mgrwt>
<rscale>  0 0.35392380E+03</rscale>
<asrwt>0</asrwt>
<pdfrwt beam="1">  1        2 0.12523094E-01 0.35392380E+03</pdfrwt>
<pdfrwt beam="2">  1       -2 0.59186299E-01 0.35392380E+03</pdfrwt>
<totfact> 0.13265801E+03</totfact>
</mgrwt>
</event>
<event>
 6    1  0.9263730E-006  0.1809381E+03  0.7546771E-02  0.1172982E+00
          1   -1    0    0  501    0  0.00000000000E+00  0.00000000000E+00  0.38146189412E+03  0.38146189412E+03  0.00000000000E+00 0. -1.
         -1   -1    0    0    0  501 -0.00000000000E+00 -0.00000000000E+00 -0.75065095459E+02  0.75065095459E+02  0.00000000000E+00 0.  1.
          5    1    1    2  502    0  0.31794569739E+02 -0.62613270643E+02  0.13769083744E+03  0.15463561375E+03  0.47000000000E+01 0. -1.
         -5    1    1    2    0  502  0.86833587852E+02  0.74676258247E+01  0.30660016418E+02  0.92509264516E+02  0.47000000000E+01 0. -1.
        -11    1    1    2    0    0 -0.40962795340E+02  0.41020834004E+02  0.98076222206E+01  0.58794973238E+02  0.00000000000E+00 0.  1.
         11    1    1    2    0    0 -0.77665362251E+02  0.14124810814E+02  0.12823832258E+03  0.15058713807E+03  0.00000000000E+00 0. -1.
<mgrwt>
<rscale>  0 0.17475084E+03</rscale>
<asrwt>0</asrwt>
<pdfrwt beam="1">  1        1 0.58686444E-01 0.18093806E+03</pdfrwt>
<pdfrwt beam="2">  1       -1 0.11548476E-01 0.18093806E+03</pdfrwt>
<totfact> 0.30789160E+03</totfact>
</mgrwt>
</event>
<event>
 6    1  0.9263730E-006  0.1693666E+03  0.7546771E-02  0.1207320E+00
          2   -1    0    0  501    0  0.00000000000E+00  0.00000000000E+00  0.32611039213E+03  0.32611039213E+03  0.00000000000E+00 0. -1.
         -2   -1    0    0    0  501 -0.00000000000E+00 -0.00000000000E+00 -0.64691500018E+02  0.64691500018E+02  0.00000000000E+00 0.  1.
          5    1    1    2  502    0  0.88830305267E+02  0.26402080086E+02  0.13815536459E+03  0.16642381960E+03  0.47000000000E+01 0. -1.
         -5    1    1    2    0  502 -0.72412129453E+02 -0.24381339148E+02  0.10924932446E+03  0.13339966674E+03  0.47000000000E+01 0.  1.
        -11    1    1    2    0    0  0.21609282312E+02 -0.13777695245E+01  0.39604825185E+02  0.45137584215E+02  0.00000000000E+00 0. -1.
         11    1    1    2    0    0 -0.38027458126E+02 -0.64297141354E+00 -0.25590622121E+02  0.45840821593E+02  0.00000000000E+00 0.  1.
<mgrwt>
<rscale>  0 0.14456120E+03</rscale>
<asrwt>0</asrwt>
<pdfrwt beam="1">  1        2 0.50170828E-01 0.16936659E+03</pdfrwt>
<pdfrwt beam="2">  1       -2 0.99525387E-02 0.16936659E+03</pdfrwt>
<totfact> 0.64609599E+03</totfact>
</mgrwt>
</event>
<event>
 6    1  0.9263730E-006  0.1558466E+03  0.7546771E-02  0.1201444E+00
          4   -1    0    0  501    0  0.00000000000E+00  0.00000000000E+00  0.12001598090E+03  0.12001598090E+03  0.00000000000E+00 0. -1.
         -4   -1    0    0    0  501 -0.00000000000E+00 -0.00000000000E+00 -0.17945659209E+03  0.17945659209E+03  0.00000000000E+00 0.  1.
          5    1    1    2  502    0 -0.16386736985E+02  0.51877825769E+02  0.58533001056E+02  0.80050210294E+02  0.47000000000E+01 0. -1.
         -5    1    1    2    0  502 -0.43043136305E+02  0.19755787774E+02 -0.58992340167E+02  0.75797024558E+02  0.47000000000E+01 0. -1.
        -11    1    1    2    0    0  0.58014137196E+02 -0.49627961880E+02 -0.81800638828E+02  0.11189244491E+03  0.00000000000E+00 0.  1.
         11    1    1    2    0    0  0.14157360933E+01 -0.22005651662E+02  0.22819366751E+02  0.31732893229E+02  0.00000000000E+00 0. -1.
<mgrwt>
<rscale>  0 0.14921215E+03</rscale>
<asrwt>0</asrwt>
<pdfrwt beam="1">  1        4 0.18463997E-01 0.15584656E+03</pdfrwt>
<pdfrwt beam="2">  1       -4 0.27608706E-01 0.15584656E+03</pdfrwt>
<totfact> 0.55199947E+02</totfact>
</mgrwt>
</event>
<event>
 6    1  0.9263730E-006  0.1392286E+03  0.7546771E-02  0.1228766E+00
         -1   -1    0    0    0  501 -0.00000000000E+00  0.00000000000E+00  0.13392730916E+02  0.13392730916E+02  0.00000000000E+00 0.  1.
          1   -1    0    0  501    0  0.00000000000E+00 -0.00000000000E+00 -0.13230069626E+04  0.13230069626E+04  0.00000000000E+00 0. -1.
          5    1    1    2  502    0 -0.10894126158E+02 -0.26927210838E+02 -0.84248336699E+03  0.84299707610E+03  0.47000000000E+01 0. -1.
         -5    1    1    2    0  502 -0.11580691085E+02  0.54426115145E+02 -0.16811817865E+03  0.17715001104E+03  0.47000000000E+01 0.  1.
        -11    1    1    2    0    0  0.59037813095E+02 -0.37078503083E+01 -0.18209952861E+03  0.19146657633E+03  0.00000000000E+00 0.  1.
         11    1    1    2    0    0 -0.36562995852E+02 -0.23791053998E+02 -0.11691315743E+03  0.12478603006E+03  0.00000000000E+00 0. -1.
<mgrwt>
<rscale>  0 0.12912073E+03</rscale>
<asrwt>0</asrwt>
<pdfrwt beam="2">  1        1 0.20353954E+00 0.13922857E+03</pdfrwt>
<pdfrwt beam="1">  1       -1 0.20604201E-02 0.13922857E+03</pdfrwt>
<totfact> 0.60481499E+03</totfact>
</mgrwt>
</event>
<event>
 6    1  0.9263730E-006  0.3099347E+03  0.7546771E-02  0.1080377E+00
         -1   -1    0    0    0  501 -0.00000000000E+00  0.00000000000E+00  0.34298758320E+03  0.34298758320E+03  0.00000000000E+00 0.  1.
          1   -1    0    0  501    0  0.00000000000E+00 -0.00000000000E+00 -0.70016749655E+02  0.70016749655E+02  0.00000000000E+00 0. -1.
          5    1    1    2  502    0 -0.20569055208E+02 -0.23714103064E+02  0.49919809552E+02  0.59156758718E+02  0.47000000000E+01 0. -1.
         -5    1    1    2    0  502  0.12897814455E+03  0.24805890760E+02  0.11891078948E+03  0.17723588757E+03  0.47000000000E+01 0. -1.
        -11    1    1    2    0    0 -0.35755903620E+02 -0.43660609241E+02  0.27613286011E+02  0.62826960832E+02  0.00000000000E+00 0. -1.
         11    1    1    2    0    0 -0.72653185724E+02  0.42568821545E+02  0.76526948505E+02  0.11378472574E+03  0.00000000000E+00 0.  1.
<mgrwt>
<rscale>  0 0.30993468E+03</rscale>
<asrwt>0</asrwt>
<pdfrwt beam="2">  1        1 0.10771808E-01 0.30993468E+03</pdfrwt>
<pdfrwt beam="1">  1       -1 0.52767319E-01 0.30993468E+03</pdfrwt>
<totfact> 0.21568021E+03</totfact>
</mgrwt>
</event>
<event>
 6    1  0.9263730E-006  0.1250053E+03  0.7546771E-02  0.1255858E+00
         -2   -1    0    0    0  501 -0.00000000000E+00  0.00000000000E+00  0.56394994755E+02  0.56394994755E+02  0.00000000000E+00 0.  1.
          2   -1    0    0  501    0  0.00000000000E+00 -0.00000000000E+00 -0.20347764969E+03  0.20347764969E+03  0.00000000000E+00 0. -1.
          5    1    1    2  502    0 -0.52355816047E+02  0.21344875514E+02 -0.24968179790E+02  0.61985766000E+02  0.47000000000E+01 0. -1.
         -5    1    1    2    0  502  0.53256983949E+02 -0.22297384852E+02 -0.95032687885E+02  0.11129591851E+03  0.47000000000E+01 0. -1.
        -11    1    1    2    0    0 -0.85103592062E+01 -0.86563838815E+01  0.27811818863E+02  0.30345616886E+02  0.00000000000E+00 0.  1.
         11    1    1    2    0    0  0.76091913041E+01  0.96088932195E+01 -0.54893606125E+02  0.56245343049E+02  0.00000000000E+00 0. -1.
<mgrwt>
<rscale>  0 0.11258394E+03</rscale>
<asrwt>0</asrwt>
<pdfrwt beam="2">  1        2 0.31304254E-01 0.12500534E+03</pdfrwt>
<pdfrwt beam="1">  1       -2 0.86761531E-02 0.12500534E+03</pdfrwt>
<totfact> 0.12967307E+04</totfact>
</mgrwt>
</event>
<event>
 6    1  0.9263730E-006  0.1275958E+03  0.7546771E-02  0.1241415E+00
          2   -1    0    0  501    0  0.00000000000E+00  0.00000000000E+00  0.22636142857E+04  0.22636142857E+04  0.00000000000E+00 0. -1.
         -2   -1    0    0    0  501 -0.00000000000E+00 -0.00000000000E+00 -0.72296006543E+01  0.72296006543E+01  0.00000000000E+00 0.  1.
          5    1    1    2  502    0  0.65178572933E+02  0.87297452402E+01  0.85588405303E+03  0.85841951111E+03  0.47000000000E+01 0.  1.
         -5    1    1    2    0  502 -0.59266328894E+02  0.16098607249E+02  0.85620786900E+03  0.85842044934E+03  0.47000000000E+01 0.  1.
        -11    1    1    2    0    0 -0.10315100010E+02  0.37992796031E+02  0.17435926186E+03  0.17874844345E+03  0.00000000000E+00 0. -1.
         11    1    1    2    0    0  0.44028559724E+01 -0.62821148520E+02  0.36993350111E+03  0.37525548242E+03  0.00000000000E+00 0.  1.
<mgrwt>
<rscale>  0 0.12102533E+03</rscale>
<asrwt>0</asrwt>
<pdfrwt beam="1">  1        2 0.34824779E+00 0.12759585E+03</pdfrwt>
<pdfrwt beam="2">  1       -2 0.11122481E-02 0.12759585E+03</pdfrwt>
<totfact> 0.96907170E+03</totfact>
</mgrwt>
</event>
<event>
 6    1  0.9263730E-006  0.1438325E+03  0.7546771E-02  0.1218517E+00
         -1   -1    0    0    0  501 -0.00000000000E+00  0.00000000000E+00  0.47455500453E+03  0.47455500453E+03  0.00000000000E+00 0.  1.
          1   -1    0    0  501    0  0.00000000000E+00 -0.00000000000E+00 -0.37397226632E+02  0.37397226632E+02  0.00000000000E+00 0. -1.
          5    1    1    2  502    0  0.53163172879E+02  0.33487302974E+02  0.31855736058E+02  0.70601702039E+02  0.47000000000E+01 0.  1.
         -5    1    1    2    0  502  0.14123986362E+02 -0.56626579389E+02  0.15161463464E+03  0.16252736361E+03  0.47000000000E+01 0.  1.
        -11    1    1    2    0    0 -0.53340505931E+02  0.38046569217E+02  0.24953219905E+03  0.25799044433E+03  0.00000000000E+00 0.  1.
         11    1    1    2    0    0 -0.13946653310E+02 -0.14907292802E+02  0.41552081482E+01  0.20832721185E+02  0.00000000000E+00 0. -1.
<mgrwt>
<rscale>  0 0.13621354E+03</rscale>
<asrwt>0</asrwt>
<pdfrwt beam="2">  1        1 0.57534198E-02 0.14383249E+03</pdfrwt>
<pdfrwt beam="1">  1       -1 0.73008458E-01 0.14383249E+03</pdfrwt>
<totfact> 0.26141718E+03</totfact>
</mgrwt>
</event>
<event>
 6    1  0.9263730E-006  0.1300416E+03  0.7546771E-02  0.1237174E+00
          2   -1    0    0  501    0  0.00000000000E+00  0.00000000000E+00  0.33031227146E+03  0.33031227146E+03  0.00000000000E+00 0. -1.
         -2   -1    0    0    0  501 -0.00000000000E+00 -0.00000000000E+00 -0.43559420895E+02  0.43559420895E+02  0.00000000000E+00 0.  1.
          5    1    1    2  502    0  0.38634259518E+01 -0.36442334241E+02  0.13949901956E+03  0.14430882247E+03  0.47000000000E+01 0.  1.
         -5    1    1    2    0  502  0.13681424864E+02  0.67722393714E+02  0.49565690188E+02  0.85160740019E+02  0.47000000000E+01 0.  1.
        -11    1    1    2    0    0 -0.56389015347E+02 -0.34921346588E+02  0.70830089056E+02  0.97036709625E+02  0.00000000000E+00 0.  1.
         11    1    1    2    0    0  0.38844164531E+02  0.36412871144E+01  0.26858051758E+02  0.47365420237E+02  0.00000000000E+00 0. -1.
<mgrwt>
<rscale>  0 0.12366299E+03</rscale>
<asrwt>0</asrwt>
<pdfrwt beam="1">  1        2 0.50817271E-01 0.13004159E+03</pdfrwt>
<pdfrwt beam="2">  1       -2 0.67014496E-02 0.13004159E+03</pdfrwt>
<totfact> 0.11559467E+04</totfact>
</mgrwt>
</event>
<event>
 6    1  0.3528014E-005  0.3202729E+03  0.7546771E-02  0.1076892E+00
         -1   -1    0    0    0  501 -0.00000000000E+00  0.00000000000E+00  0.26600282314E+03  0.26600282314E+03  0.00000000000E+00 0.  1.
          1   -1    0    0  501    0  0.00000000000E+00 -0.00000000000E+00 -0.38277941717E+03  0.38277941717E+03  0.00000000000E+00 0. -1.
          5    1    1    2  502    0 -0.21416121451E+03  0.81435848283E+02 -0.29970259449E+02  0.23112146079E+03  0.47000000000E+01 0.  1.
         -5    1    1    2    0  502 -0.68526015273E+02  0.24545724632E+01 -0.84660846251E+02  0.10904764364E+03  0.47000000000E+01 0.  1.
        -11    1    1    2    0    0  0.25578855377E+03 -0.63468613347E+02  0.25762930325E+02  0.26480139293E+03  0.00000000000E+00 0. -1.
         11    1    1    2    0    0  0.26898676013E+02 -0.20421807399E+02 -0.27908418655E+02  0.43811742952E+02  0.00000000000E+00 0.  1.
<mgrwt>
<rscale>  0 0.31731538E+03</rscale>
<asrwt>0</asrwt>
<pdfrwt beam="2">  1        1 0.58889141E-01 0.32027290E+03</pdfrwt>
<pdfrwt beam="1">  1       -1 0.40923512E-01 0.32027290E+03</pdfrwt>
<totfact> 0.38147324E+02</totfact>
</mgrwt>
</event>
<event>
 6    1  0.9263730E-006  0.3144471E+03  0.7546771E-02  0.1078234E+00
         -2   -1    0    0    0  501 -0.00000000000E+00  0.00000000000E+00  0.45948617081E+02  0.45948617081E+02  0.00000000000E+00 0.  1.
          2   -1    0    0  501    0  0.00000000000E+00 -0.00000000000E+00 -0.53797576973E+03  0.53797576973E+03  0.00000000000E+00 0. -1.
          5    1    1    2  502    0  0.34423226753E+02 -0.40488342241E+01 -0.44029420287E+02  0.56231943319E+02  0.47000000000E+01 0. -1.
         -5    1    1    2    0  502 -0.10071945256E+03 -0.85808870101E+02 -0.19582836496E+03  0.23638614350E+03  0.47000000000E+01 0. -1.
        -11    1    1    2    0    0  0.84219203671E+00  0.58850483142E+02 -0.52362847379E+02  0.78777893086E+02  0.00000000000E+00 0.  1.
         11    1    1    2    0    0  0.65454033770E+02  0.31007221183E+02 -0.19980652002E+03  0.21252840691E+03  0.00000000000E+00 0. -1.
<mgrwt>
<rscale>  0 0.31444709E+03</rscale>
<asrwt>0</asrwt>
<pdfrwt beam="2">  1        2 0.82765503E-01 0.31444709E+03</pdfrwt>
<pdfrwt beam="1">  1       -2 0.70690180E-02 0.31444709E+03</pdfrwt>
<totfact> 0.65765499E+03</totfact>
</mgrwt>
</event>
<event>
 6    1  0.9263730E-006  0.1391789E+03  0.7546771E-02  0.1225835E+00
          2   -1    0    0  501    0  0.00000000000E+00  0.00000000000E+00  0.30256598025E+03  0.30256598025E+03  0.00000000000E+00 0. -1.
         -2   -1    0    0    0  501 -0.00000000000E+00 -0.00000000000E+00 -0.57148001818E+02  0.57148001818E+02  0.00000000000E+00 0.  1.
          5    1    1    2  502    0 -0.89124274099E+01  0.56942136625E+02  0.28887993630E+02  0.64640888466E+02  0.47000000000E+01 0. -1.
         -5    1    1    2    0  502 -0.46142147811E+02 -0.30231194599E+02  0.16491485921E+03  0.17395983364E+03  0.47000000000E+01 0. -1.
        -11    1    1    2    0    0  0.27184973964E+02 -0.17297775746E+02 -0.23869256980E+02  0.40099592067E+02  0.00000000000E+00 0.  1.
         11    1    1    2    0    0  0.27869601257E+02 -0.94131662799E+01  0.75484382577E+02  0.81013667901E+02  0.00000000000E+00 0. -1.
<mgrwt>
<rscale>  0 0.13109831E+03</rscale>
<asrwt>0</asrwt>
<pdfrwt beam="1">  1        2 0.46548612E-01 0.13917887E+03</pdfrwt>
<pdfrwt beam="2">  1       -2 0.87920004E-02 0.13917887E+03</pdfrwt>
<totfact> 0.83927717E+03</totfact>
</mgrwt>
</event>
<event>
 6    1  0.9263730E-006  0.1573567E+03  0.7546771E-02  0.1199980E+00
          4   -1    0    0  501    0  0.00000000000E+00  0.00000000000E+00  0.42260784868E+03  0.42260784868E+03  0.00000000000E+00 0. -1.
         -4   -1    0    0    0  501 -0.00000000000E+00 -0.00000000000E+00 -0.84257341224E+02  0.84257341224E+02  0.00000000000E+00 0.  1.
          5    1    1    2  502    0  0.10804877242E+03 -0.37468898155E+02  0.19375257473E+03  0.22503467681E+03  0.47000000000E+01 0. -1.
         -5    1    1    2    0  502 -0.27514893521E+02 -0.14023036118E+02  0.14719951090E+03  0.15047757612E+03  0.47000000000E+01 0. -1.
        -11    1    1    2    0    0  0.47629981789E+01  0.29976572239E+02 -0.26394237920E+02  0.40223585497E+02  0.00000000000E+00 0.  1.
         11    1    1    2    0    0 -0.85296877078E+02  0.21515362034E+02  0.23792659747E+02  0.91129351477E+02  0.00000000000E+00 0. -1.
<mgrwt>
<rscale>  0 0.15040163E+03</rscale>
<asrwt>0</asrwt>
<pdfrwt beam="1">  1        4 0.65016591E-01 0.15735669E+03</pdfrwt>
<pdfrwt beam="2">  1       -4 0.12962668E-01 0.15735669E+03</pdfrwt>
<totfact> 0.18632243E+02</totfact>
</mgrwt>
</event>
<event>
 6    1  0.9263730E-006  0.1582658E+03  0.7546771E-02  0.1198703E+00
         -1   -1    0    0    0  501 -0.00000000000E+00  0.00000000000E+00  0.30676390676E+02  0.30676390676E+02  0.00000000000E+00 0.  1.
          1   -1    0    0  501    0  0.00000000000E+00 -0.00000000000E+00 -0.81112770407E+03  0.81112770407E+03  0.00000000000E+00 0. -1.
          5    1    1    2  502    0 -0.77497565757E+02  0.87260559482E+01 -0.57703081506E+03  0.58229603148E+03  0.47000000000E+01 0. -1.
         -5    1    1    2    0  502 -0.19262692443E+02 -0.98297685442E+00 -0.44588383257E+01  0.20346714793E+02  0.47000000000E+01 0. -1.
        -11    1    1    2    0    0  0.10102964991E+03 -0.23179138341E+02 -0.19753889541E+03  0.22308267036E+03  0.00000000000E+00 0. -1.
         11    1    1    2    0    0 -0.42693917142E+01  0.15436059247E+02 -0.14227646023E+01  0.16078678111E+02  0.00000000000E+00 0.  1.
<mgrwt>
<rscale>  0 0.15144943E+03</rscale>
<asrwt>0</asrwt>
<pdfrwt beam="2">  1        1 0.12478886E+00 0.15826580E+03</pdfrwt>
<pdfrwt beam="1">  1       -1 0.47194452E-02 0.15826580E+03</pdfrwt>
<totfact> 0.42455480E+03</totfact>
</mgrwt>
</event>
<event>
 6    1  0.9263730E-006  0.1539580E+03  0.7546771E-02  0.1205904E+00
          2   -1    0    0  501    0  0.00000000000E+00  0.00000000000E+00  0.66777567960E+02  0.66777567960E+02  0.00000000000E+00 0. -1.
         -2   -1    0    0    0  501 -0.00000000000E+00 -0.00000000000E+00 -0.44214749581E+03  0.44214749581E+03  0.00000000000E+00 0.  1.
          5    1    1    2  502    0  0.65036579048E+02  0.25693789903E+02  0.30573712630E+02  0.76464170419E+02  0.47000000000E+01 0. -1.
         -5    1    1    2    0  502  0.23246691677E+02 -0.88612688986E+01 -0.82056381139E+02  0.85873572455E+02  0.47000000000E+01 0. -1.
        -11    1    1    2    0    0 -0.23467530366E+02  0.31979458415E+02 -0.14172389322E+03  0.14717021659E+03  0.00000000000E+00 0.  1.
         11    1    1    2    0    0 -0.64815740360E+02 -0.48811979419E+02 -0.18216336612E+03  0.19941710431E+03  0.00000000000E+00 0. -1.
<mgrwt>
<rscale>  0 0.14566424E+03</rscale>
<asrwt>0</asrwt>
<pdfrwt beam="1">  1        2 0.10273472E-01 0.15395804E+03</pdfrwt>
<pdfrwt beam="2">  1       -2 0.68022692E-01 0.15395804E+03</pdfrwt>
<totfact> 0.12299951E+03</totfact>
</mgrwt>
</event>
<event>
 6    1  0.9263730E-006  0.2024927E+03  0.7546771E-02  0.1152033E+00
         -2   -1    0    0    0  501 -0.00000000000E+00  0.00000000000E+00  0.18254232627E+03  0.18254232627E+03  0.00000000000E+00 0.  1.
          2   -1    0    0  501    0  0.00000000000E+00 -0.00000000000E+00 -0.20769808983E+03  0.20769808983E+03  0.00000000000E+00 0. -1.
          5    1    1    2  502    0  0.21881061107E+02  0.10583587825E+03 -0.12040114585E+02  0.10884423880E+03  0.47000000000E+01 0.  1.
         -5    1    1    2    0  502 -0.83554262602E+02  0.41055833131E+02 -0.30414143693E+02  0.98051039615E+02  0.47000000000E+01 0.  1.
        -11    1    1    2    0    0  0.65655788843E+02 -0.89933091673E+02  0.44732758829E+02  0.11999859707E+03  0.00000000000E+00 0.  1.
         11    1    1    2    0    0 -0.39825873475E+01 -0.56958619709E+02 -0.27434264114E+02  0.63346540621E+02  0.00000000000E+00 0. -1.
<mgrwt>
<rscale>  0 0.19730539E+03</rscale>
<asrwt>0</asrwt>
<pdfrwt beam="2">  1        2 0.31953552E-01 0.20249270E+03</pdfrwt>
<pdfrwt beam="1">  1       -2 0.28083435E-01 0.20249270E+03</pdfrwt>
<totfact> 0.18659317E+03</totfact>
</mgrwt>
</event>
<event>
 6    1  0.9263730E-006  0.1537759E+03  0.7546771E-02  0.1204820E+00
         -2   -1    0    0    0  501 -0.00000000000E+00  0.00000000000E+00  0.17673041962E+03  0.17673041962E+03  0.00000000000E+00 0.  1.
          2   -1    0    0  501    0  0.00000000000E+00 -0.00000000000E+00 -0.11541493847E+03  0.11541493847E+03  0.00000000000E+00 0. -1.
          5    1    1    2  502    0 -0.83849446336E+02  0.32275312819E+02 -0.12790825121E+02  0.90874202476E+02  0.47000000000E+01 0.  1.
         -5    1    1    2    0  502 -0.13439993214E+01 -0.59935132476E+02  0.18856271264E+02  0.63021229796E+02  0.47000000000E+01 0.  1.
        -11    1    1    2    0    0  0.76129827671E+02  0.41067963147E+02  0.73748312184E+02  0.11367120043E+03  0.00000000000E+00 0.  1.
         11    1    1    2    0    0  0.90636179859E+01 -0.13408143491E+02 -0.18498277181E+02  0.24578725384E+02  0.00000000000E+00 0. -1.
<mgrwt>
<rscale>  0 0.14651629E+03</rscale>
<asrwt>0</asrwt>
<pdfrwt beam="2">  1        2 0.17756144E-01 0.15377586E+03</pdfrwt>
<pdfrwt beam="1">  1       -2 0.27189295E-01 0.15377586E+03</pdfrwt>
<totfact> 0.37679589E+03</totfact>
</mgrwt>
</event>
<event>
 6    1  0.9263730E-006  0.1303254E+03  0.7546771E-02  0.1240707E+00
         -3   -1    0    0    0  501 -0.00000000000E+00  0.00000000000E+00  0.25810461030E+02  0.25810461030E+02  0.00000000000E+00 0.  1.
          3   -1    0    0  501    0  0.00000000000E+00 -0.00000000000E+00 -0.63418994587E+03  0.63418994587E+03  0.00000000000E+00 0. -1.
          5    1    1    2  502    0  0.26961686291E+02  0.40436032327E+01 -0.48574214682E+03  0.48652934798E+03  0.47000000000E+01 0. -1.
         -5    1    1    2    0  502  0.90079209965E+01 -0.12132949422E+02  0.57615559347E+00  0.15835815660E+02  0.47000000000E+01 0. -1.
        -11    1    1    2    0    0 -0.23141942434E+02  0.42071254487E+02 -0.10811842817E+03  0.11830103324E+03  0.00000000000E+00 0.  1.
         11    1    1    2    0    0 -0.12827664853E+02 -0.33981908298E+02 -0.15095065440E+02  0.39334210018E+02  0.00000000000E+00 0. -1.
<mgrwt>
<rscale>  0 0.12146050E+03</rscale>
<asrwt>0</asrwt>
<pdfrwt beam="2">  1        3 0.97567677E-01 0.13032543E+03</pdfrwt>
<pdfrwt beam="1">  1       -3 0.39708404E-02 0.13032543E+03</pdfrwt>
<totfact> 0.72459374E+02</totfact>
</mgrwt>
</event>
<event>
 6    1  0.9263730E-006  0.2374600E+03  0.7546771E-02  0.1124321E+00
          2   -1    0    0  501    0  0.00000000000E+00  0.00000000000E+00  0.11464103145E+04  0.11464103145E+04  0.00000000000E+00 0. -1.
         -2   -1    0    0    0  501 -0.00000000000E+00 -0.00000000000E+00 -0.63393748635E+02  0.63393748635E+02  0.00000000000E+00 0.  1.
          5    1    1    2  502    0 -0.10247164306E+03  0.10645607374E+03  0.80014007706E+03  0.81368271838E+03  0.47000000000E+01 0. -1.
         -5    1    1    2    0  502 -0.41417650579E+02  0.35172926442E+02  0.72714253587E+02  0.90895595101E+02  0.47000000000E+01 0. -1.
        -11    1    1    2    0    0  0.70683537172E+02 -0.11063067722E+03  0.17378652672E+03  0.21780051891E+03  0.00000000000E+00 0. -1.
         11    1    1    2    0    0  0.73205756465E+02 -0.30998322959E+02  0.36375708535E+02  0.87425230782E+02  0.00000000000E+00 0.  1.
<mgrwt>
<rscale>  0 0.23332504E+03</rscale>
<asrwt>0</asrwt>
<pdfrwt beam="1">  1        2 0.17637080E+00 0.23745998E+03</pdfrwt>
<pdfrwt beam="2">  1       -2 0.97528852E-02 0.23745998E+03</pdfrwt>
<totfact> 0.14834892E+03</totfact>
</mgrwt>
</event>
<event>
 6    1  0.9263730E-006  0.4762499E+03  0.7546771E-02  0.1020171E+00
         -2   -1    0    0    0  501 -0.00000000000E+00  0.00000000000E+00  0.47852324202E+02  0.47852324202E+02  0.00000000000E+00 0.  1.
          2   -1    0    0  501    0  0.00000000000E+00 -0.00000000000E+00 -0.11849683477E+04  0.11849683477E+04  0.00000000000E+00 0. -1.
          5    1    1    2  502    0 -0.60558457681E+01  0.21538840306E+02 -0.29454146753E+03  0.29542742088E+03  0.47000000000E+01 0. -1.
         -5    1    1    2    0  502 -0.12534639550E+01 -0.14266818438E+03 -0.73149489277E+03  0.74529366705E+03  0.47000000000E+01 0. -1.
        -11    1    1    2    0    0  0.51377066111E+02  0.69867355200E+02 -0.45580770086E+02  0.97972735220E+02  0.00000000000E+00 0. -1.
         11    1    1    2    0    0 -0.44067756388E+02  0.51261988878E+02 -0.65498893110E+02  0.94126848749E+02  0.00000000000E+00 0.  1.
<mgrwt>
<rscale>  0 0.47624989E+03</rscale>
<asrwt>0</asrwt>
<pdfrwt beam="2">  1        2 0.18230282E+00 0.47624989E+03</pdfrwt>
<pdfrwt beam="1">  1       -2 0.73618962E-02 0.47624989E+03</pdfrwt>
<totfact> 0.21937743E+03</totfact>
</mgrwt>
</event>
<event>
 6    1  0.9263730E-006  0.2341314E+03  0.7546771E-02  0.1126807E+00
          2   -1    0    0  501    0  0.00000000000E+00  0.00000000000E+00  0.13818516318E+03  0.13818516318E+03  0.00000000000E+00 0.  1.
         -2   -1    0    0    0  501 -0.00000000000E+00 -0.00000000000E+00 -0.44831207777E+03  0.44831207777E+03  0.00000000000E+00 0. -1.
          5    1    1    2  502    0 -0.53161372933E+02  0.26549617867E+02 -0.32364343598E+02  0.67827387666E+02  0.47000000000E+01 0.  1.
         -5    1    1    2    0  502 -0.12411671865E+03 -0.11465569696E+03 -0.37814953084E+01  0.16907772887E+03  0.47000000000E+01 0.  1.
        -11    1    1    2    0    0  0.10843580355E+02  0.42818282812E+02 -0.65609489422E+02  0.79092311132E+02  0.00000000000E+00 0.  1.
         11    1    1    2    0    0  0.16643451123E+03  0.45287796281E+02 -0.20837158626E+03  0.27049981327E+03  0.00000000000E+00 0. -1.
<mgrwt>
<rscale>  0 0.22976233E+03</rscale>
<asrwt>0</asrwt>
<pdfrwt beam="1">  1        2 0.21259255E-01 0.23413140E+03</pdfrwt>
<pdfrwt beam="2">  1       -2 0.68971090E-01 0.23413140E+03</pdfrwt>
<totfact> 0.51012269E+02</totfact>
</mgrwt>
</event>
<event>
 6    1  0.9263730E-006  0.2953585E+03  0.7546771E-02  0.1087584E+00
          1   -1    0    0  501    0  0.00000000000E+00  0.00000000000E+00  0.72113332549E+03  0.72113332549E+03  0.00000000000E+00 0. -1.
         -1   -1    0    0    0  501 -0.00000000000E+00 -0.00000000000E+00 -0.30242898243E+02  0.30242898243E+02  0.00000000000E+00 0.  1.
          5    1    1    2  502    0 -0.92888593580E+02 -0.61489653734E+02  0.46258925964E+03  0.47583629693E+03  0.47000000000E+01 0. -1.
         -5    1    1    2    0  502  0.20362748591E+02  0.49777627967E+01  0.14666442472E+02  0.26011808615E+02  0.47000000000E+01 0. -1.
        -11    1    1    2    0    0  0.81297066174E+01  0.26951972262E+02  0.42389417844E+01  0.28468747180E+02  0.00000000000E+00 0.  1.
         11    1    1    2    0    0  0.64396138372E+02  0.29559918675E+02  0.20939578335E+03  0.22105937101E+03  0.00000000000E+00 0. -1.
<mgrwt>
<rscale>  0 0.29535851E+03</rscale>
<asrwt>0</asrwt>
<pdfrwt beam="1">  1        1 0.11094358E+00 0.29535851E+03</pdfrwt>
<pdfrwt beam="2">  1       -1 0.46527541E-02 0.29535851E+03</pdfrwt>
<totfact> 0.52893429E+03</totfact>
</mgrwt>
</event>
<event>
 6    1  0.9263730E-006  0.1342804E+03  0.7546771E-02  0.1233639E+00
          2   -1    0    0  501    0  0.00000000000E+00  0.00000000000E+00  0.31735045500E+03  0.31735045500E+03  0.00000000000E+00 0. -1.
         -2   -1    0    0    0  501 -0.00000000000E+00 -0.00000000000E+00 -0.58849953400E+02  0.58849953400E+02  0.00000000000E+00 0.  1.
          5    1    1    2  502    0  0.41199576805E+02 -0.12201082935E+02  0.93769502442E+02  0.10325251155E+03  0.47000000000E+01 0.  1.
         -5    1    1    2    0  502 -0.77443359862E+02  0.45246743292E+02  0.13979629914E+03  0.16616208057E+03  0.47000000000E+01 0.  1.
        -11    1    1    2    0    0  0.41041851559E+02 -0.53396918423E+02 -0.79517357742E+01  0.67815150065E+02  0.00000000000E+00 0.  1.
         11    1    1    2    0    0 -0.47980685021E+01  0.20351258066E+02  0.32886435790E+02  0.38970666215E+02  0.00000000000E+00 0. -1.
<mgrwt>
<rscale>  0 0.12591989E+03</rscale>
<asrwt>0</asrwt>
<pdfrwt beam="1">  1        2 0.48823146E-01 0.13428045E+03</pdfrwt>
<pdfrwt beam="2">  1       -2 0.90538392E-02 0.13428045E+03</pdfrwt>
<totfact> 0.76042385E+03</totfact>
</mgrwt>
</event>
<event>
 6    1  0.9263730E-006  0.1643531E+03  0.7546771E-02  0.1191223E+00
          2   -1    0    0  501    0  0.00000000000E+00  0.00000000000E+00  0.25773052905E+03  0.25773052905E+03  0.00000000000E+00 0. -1.
         -2   -1    0    0    0  501 -0.00000000000E+00 -0.00000000000E+00 -0.90488760626E+02  0.90488760626E+02  0.00000000000E+00 0.  1.
          5    1    1    2  502    0  0.36678297378E+02 -0.29783505708E+02 -0.18520841994E+02  0.50965344097E+02  0.47000000000E+01 0.  1.
         -5    1    1    2    0  502  0.69607222026E+02  0.20291710961E+02  0.12588557584E+03  0.14534850222E+03  0.47000000000E+01 0.  1.
        -11    1    1    2    0    0 -0.65634790091E+02 -0.37529527460E+02  0.45027700748E+02  0.87999346227E+02  0.00000000000E+00 0.  1.
         11    1    1    2    0    0 -0.40650729312E+02  0.47021322206E+02  0.14849333827E+02  0.63906097133E+02  0.00000000000E+00 0. -1.
<mgrwt>
<rscale>  0 0.15778289E+03</rscale>
<asrwt>0</asrwt>
<pdfrwt beam="1">  1        2 0.39650850E-01 0.16435310E+03</pdfrwt>
<pdfrwt beam="2">  1       -2 0.13921348E-01 0.16435310E+03</pdfrwt>
<totfact> 0.48430566E+03</totfact>
</mgrwt>
</event>
<event>
 6    1  0.9263730E-006  0.2632861E+03  0.7546771E-02  0.1105185E+00
         -1   -1    0    0    0  501 -0.00000000000E+00  0.00000000000E+00  0.12736706157E+02  0.12736706157E+02  0.00000000000E+00 0.  1.
          1   -1    0    0  501    0  0.00000000000E+00 -0.00000000000E+00 -0.13606260349E+04  0.13606260349E+04  0.00000000000E+00 0. -1.
          5    1    1    2  502    0  0.50828687257E+00  0.36519029783E+01  0.16198972481E+01  0.61894117654E+01  0.47000000000E+01 0.  1.
         -5    1    1    2    0  502 -0.13872049324E+02  0.50444533711E+02 -0.10192674282E+04  0.10206200395E+04  0.47000000000E+01 0.  1.
        -11    1    1    2    0    0  0.61080972706E+01  0.96434915217E+01 -0.13863036702E+01  0.11499026866E+02  0.00000000000E+00 0.  1.
         11    1    1    2    0    0  0.72556651804E+01 -0.63739928211E+02 -0.32885549415E+03  0.33505426300E+03  0.00000000000E+00 0. -1.
<mgrwt>
<rscale>  0 0.26328611E+03</rscale>
<asrwt>0</asrwt>
<pdfrwt beam="2">  1        1 0.20932694E+00 0.26328611E+03</pdfrwt>
<pdfrwt beam="1">  1       -1 0.19594945E-02 0.26328611E+03</pdfrwt>
<totfact> 0.62632405E+03</totfact>
</mgrwt>
</event>
<event>
 6    1  0.9263730E-006  0.1439841E+03  0.7546771E-02  0.1218361E+00
          2   -1    0    0  501    0  0.00000000000E+00  0.00000000000E+00  0.14828160809E+03  0.14828160809E+03  0.00000000000E+00 0.  1.
         -2   -1    0    0    0  501 -0.00000000000E+00 -0.00000000000E+00 -0.11539417422E+03  0.11539417422E+03  0.00000000000E+00 0. -1.
          5    1    1    2  502    0 -0.45830090153E+02 -0.80241714497E+02  0.51762274530E+02  0.10602147411E+03  0.47000000000E+01 0.  1.
         -5    1    1    2    0  502 -0.10482006756E+02  0.36252862787E+02 -0.17684848637E+02  0.41940271783E+02  0.47000000000E+01 0.  1.
        -11    1    1    2    0    0  0.79256653616E+02  0.46108051606E+02  0.50818193931E+01  0.91833514871E+02  0.00000000000E+00 0. -1.
         11    1    1    2    0    0 -0.22944556707E+02 -0.21191998964E+01 -0.62718114134E+01  0.23880521542E+02  0.00000000000E+00 0.  1.
<mgrwt>
<rscale>  0 0.13632533E+03</rscale>
<asrwt>0</asrwt>
<pdfrwt beam="1">  1        2 0.22812555E-01 0.14398405E+03</pdfrwt>
<pdfrwt beam="2">  1       -2 0.17752950E-01 0.14398405E+03</pdfrwt>
<totfact> 0.58778626E+03</totfact>
</mgrwt>
</event>
<event>
 6    1  0.9263730E-006  0.1565665E+03  0.7546771E-02  0.1200737E+00
         -2   -1    0    0    0  501 -0.00000000000E+00  0.00000000000E+00  0.21733091288E+02  0.21733091288E+02  0.00000000000E+00 0.  1.
          2   -1    0    0  501    0  0.00000000000E+00 -0.00000000000E+00 -0.11150415657E+04  0.11150415657E+04  0.00000000000E+00 0. -1.
          5    1    1    2  502    0  0.51494915500E+02  0.47345679738E+02 -0.43777637025E+03  0.44335491433E+03  0.47000000000E+01 0. -1.
         -5    1    1    2    0  502 -0.70943161476E+02  0.44868908304E+02 -0.36654578135E+03  0.37606389207E+03  0.47000000000E+01 0. -1.
        -11    1    1    2    0    0  0.51573709701E+02 -0.45475063283E+02 -0.11118919938E+03  0.13073204264E+03  0.00000000000E+00 0.  1.
         11    1    1    2    0    0 -0.32125463725E+02 -0.46739524758E+02 -0.17779712342E+03  0.18662380795E+03  0.00000000000E+00 0. -1.
<mgrwt>
<rscale>  0 0.14978568E+03</rscale>
<asrwt>0</asrwt>
<pdfrwt beam="2">  1        2 0.17154490E+00 0.15656646E+03</pdfrwt>
<pdfrwt beam="1">  1       -2 0.33435517E-02 0.15656646E+03</pdfrwt>
<totfact> 0.78760499E+03</totfact>
</mgrwt>
</event>
<event>
 6    1  0.9263730E-006  0.1298840E+03  0.7546771E-02  0.1241408E+00
          2   -1    0    0  501    0  0.00000000000E+00  0.00000000000E+00  0.49485282857E+02  0.49485282857E+02  0.00000000000E+00 0. -1.
         -2   -1    0    0    0  501 -0.00000000000E+00 -0.00000000000E+00 -0.27867649330E+03  0.27867649330E+03  0.00000000000E+00 0.  1.
          5    1    1    2  502    0 -0.12554523149E+02 -0.17653307292E+00 -0.11852347924E+03  0.11927930394E+03  0.47000000000E+01 0.  1.
         -5    1    1    2    0  502 -0.15840012019E+02 -0.20785608535E+02  0.28346428848E+02  0.38840153596E+02  0.47000000000E+01 0.  1.
        -11    1    1    2    0    0  0.21603276618E+02  0.54509256361E+02 -0.11207004310E+03  0.12648183723E+03  0.00000000000E+00 0.  1.
         11    1    1    2    0    0  0.67912585494E+01 -0.33547114754E+02 -0.26944116948E+02  0.43560481392E+02  0.00000000000E+00 0. -1.
<mgrwt>
<rscale>  0 0.12102945E+03</rscale>
<asrwt>0</asrwt>
<pdfrwt beam="1">  1        2 0.76131204E-02 0.12988403E+03</pdfrwt>
<pdfrwt beam="2">  1       -2 0.42873307E-01 0.12988403E+03</pdfrwt>
<totfact> 0.44780173E+03</totfact>
</mgrwt>
</event>
<event>
 6    1  0.9263730E-006  0.3083525E+03  0.7546771E-02  0.1081138E+00
          1   -1    0    0  501    0  0.00000000000E+00  0.00000000000E+00  0.31656654019E+03  0.31656654019E+03  0.00000000000E+00 0.  1.
         -1   -1    0    0    0  501 -0.00000000000E+00 -0.00000000000E+00 -0.75087915849E+02  0.75087915849E+02  0.00000000000E+00 0. -1.
          5    1    1    2  502    0  0.20972649137E+02  0.86272031309E+02  0.97132788450E+02  0.13167985415E+03  0.47000000000E+01 0.  1.
         -5    1    1    2    0  502  0.39633588391E+01 -0.31050733997E+02  0.13658032772E+03  0.14020032887E+03  0.47000000000E+01 0.  1.
        -11    1    1    2    0    0 -0.51527975952E+02  0.49213324334E+01 -0.74007386620E+01  0.52288839645E+02  0.00000000000E+00 0. -1.
         11    1    1    2    0    0  0.26591967977E+02 -0.60142629746E+02  0.15166246828E+02  0.67485433365E+02  0.00000000000E+00 0.  1.
<mgrwt>
<rscale>  0 0.30835254E+03</rscale>
<asrwt>0</asrwt>
<pdfrwt beam="1">  1        1 0.48702544E-01 0.30835254E+03</pdfrwt>
<pdfrwt beam="2">  1       -1 0.11551987E-01 0.30835254E+03</pdfrwt>
<totfact> 0.39753149E+03</totfact>
</mgrwt>
</event>
<event>
 6    1  0.9263730E-006  0.1372727E+03  0.7546771E-02  0.1229117E+00
          2   -1    0    0  501    0  0.00000000000E+00  0.00000000000E+00  0.40719026255E+03  0.40719026255E+03  0.00000000000E+00 0. -1.
         -2   -1    0    0    0  501 -0.00000000000E+00 -0.00000000000E+00 -0.45020197426E+02  0.45020197426E+02  0.00000000000E+00 0.  1.
          5    1    1    2  502    0 -0.18365974479E+01  0.67426181797E+02  0.11774553669E+03  0.13577836533E+03  0.47000000000E+01 0. -1.
         -5    1    1    2    0  502 -0.50047627980E+02 -0.44483876420E+02  0.17928108845E+03  0.19143505166E+03  0.47000000000E+01 0. -1.
        -11    1    1    2    0    0  0.35762951320E+02 -0.45580583175E+02  0.42863441424E+01  0.58094328430E+02  0.00000000000E+00 0.  1.
         11    1    1    2    0    0  0.16121274108E+02  0.22638277797E+02  0.60857095843E+02  0.66902714555E+02  0.00000000000E+00 0. -1.
<mgrwt>
<rscale>  0 0.12888692E+03</rscale>
<asrwt>0</asrwt>
<pdfrwt beam="1">  1        2 0.62644653E-01 0.13727274E+03</pdfrwt>
<pdfrwt beam="2">  1       -2 0.69261845E-02 0.13727274E+03</pdfrwt>
<totfact> 0.88328075E+03</totfact>
</mgrwt>
</event>
<event>
 6    1  0.9263730E-006  0.1308039E+03  0.7546771E-02  0.1239457E+00
         -1   -1    0    0    0  501 -0.00000000000E+00  0.00000000000E+00  0.55750381353E+02  0.55750381353E+02  0.00000000000E+00 0.  1.
          1   -1    0    0  501    0  0.00000000000E+00 -0.00000000000E+00 -0.26368037681E+03  0.26368037681E+03  0.00000000000E+00 0. -1.
          5    1    1    2  502    0  0.29497347864E+02  0.41968901565E+02 -0.82025668328E+02  0.96859601973E+02  0.47000000000E+01 0.  1.
         -5    1    1    2    0  502 -0.67809106049E+02 -0.37829124614E+02 -0.83685852043E+02  0.11425641936E+03  0.47000000000E+01 0.  1.
        -11    1    1    2    0    0  0.48214013476E+02 -0.18506730688E+02  0.10572368151E+02  0.52714942326E+02  0.00000000000E+00 0.  1.
         11    1    1    2    0    0 -0.99022552909E+01  0.14366953737E+02 -0.52790843240E+02  0.55599794510E+02  0.00000000000E+00 0. -1.
<mgrwt>
<rscale>  0 0.12223392E+03</rscale>
<asrwt>0</asrwt>
<pdfrwt beam="2">  1        1 0.40566212E-01 0.13080392E+03</pdfrwt>
<pdfrwt beam="1">  1       -1 0.85769817E-02 0.13080392E+03</pdfrwt>
<totfact> 0.75625969E+03</totfact>
</mgrwt>
</event>
<event>
 6    1  0.9263730E-006  0.1407698E+03  0.7546771E-02  0.1223491E+00
         -2   -1    0    0    0  501 -0.00000000000E+00  0.00000000000E+00  0.16725907498E+03  0.16725907498E+03  0.00000000000E+00 0.  1.
          2   -1    0    0  501    0  0.00000000000E+00 -0.00000000000E+00 -0.95229366508E+02  0.95229366508E+02  0.00000000000E+00 0. -1.
          5    1    1    2  502    0  0.54961533202E+02 -0.60467972568E+02  0.64306693814E+02  0.10408932081E+03  0.47000000000E+01 0. -1.
         -5    1    1    2    0  502 -0.41214957818E+02 -0.27867571562E+01 -0.16277510412E+02  0.44648472635E+02  0.47000000000E+01 0. -1.
        -11    1    1    2    0    0 -0.46223062518E+02  0.58703044013E+02  0.29813727944E+02  0.80445492471E+02  0.00000000000E+00 0.  1.
         11    1    1    2    0    0  0.32476487134E+02  0.45516857106E+01 -0.58132028785E+01  0.33305155563E+02  0.00000000000E+00 0. -1.
<mgrwt>
<rscale>  0 0.13270838E+03</rscale>
<asrwt>0</asrwt>
<pdfrwt beam="2">  1        2 0.14650672E-01 0.14076977E+03</pdfrwt>
<pdfrwt beam="1">  1       -2 0.25732165E-01 0.14076977E+03</pdfrwt>
<totfact> 0.51650503E+03</totfact>
</mgrwt>
</event>
<event>
 6    1  0.9263730E-006  0.1342823E+03  0.7546771E-02  0.1234445E+00
          2   -1    0    0  501    0  0.00000000000E+00  0.00000000000E+00  0.10618469709E+04  0.10618469709E+04  0.00000000000E+00 0. -1.
         -2   -1    0    0    0  501 -0.00000000000E+00 -0.00000000000E+00 -0.14795481976E+02  0.14795481976E+02  0.00000000000E+00 0.  1.
          5    1    1    2  502    0 -0.46877997480E+02  0.35700732690E+02  0.52922122996E+03  0.53251224324E+03  0.47000000000E+01 0.  1.
         -5    1    1    2    0  502  0.61244975510E+01 -0.63001736460E+02  0.23522075464E+03  0.24363419645E+03  0.47000000000E+01 0.  1.
        -11    1    1    2    0    0  0.90710439640E+00  0.42218608219E+02  0.22471672445E+03  0.22865003819E+03  0.00000000000E+00 0. -1.
         11    1    1    2    0    0  0.39846395533E+02 -0.14917604449E+02  0.57892779835E+02  0.71845974950E+02  0.00000000000E+00 0.  1.
<mgrwt>
<rscale>  0 0.12540021E+03</rscale>
<asrwt>0</asrwt>
<pdfrwt beam="1">  1        2 0.16336101E+00 0.13428234E+03</pdfrwt>
<pdfrwt beam="2">  1       -2 0.22762288E-02 0.13428234E+03</pdfrwt>
<totfact> 0.14744172E+04</totfact>
</mgrwt>
</event>
<event>
 6    1  0.9263730E-006  0.1292200E+03  0.7546771E-02  0.1242946E+00
         -1   -1    0    0    0  501 -0.00000000000E+00  0.00000000000E+00  0.36415007131E+02  0.36415007131E+02  0.00000000000E+00 0.  1.
          1   -1    0    0  501    0  0.00000000000E+00 -0.00000000000E+00 -0.52063631715E+03  0.52063631715E+03  0.00000000000E+00 0. -1.
          5    1    1    2  502    0 -0.52318821707E+01  0.77337100057E+02 -0.21570391998E+03  0.22925677903E+03  0.47000000000E+01 0. -1.
         -5    1    1    2    0  502 -0.92027135460E+01 -0.47940894800E+02 -0.20861603539E+03  0.21430296208E+03  0.47000000000E+01 0. -1.
        -11    1    1    2    0    0 -0.13670028200E+02 -0.49808996626E+02 -0.59449634620E+02  0.78753189601E+02  0.00000000000E+00 0. -1.
         11    1    1    2    0    0  0.28104623917E+02  0.20412791368E+02 -0.45172002240E+00  0.34738393571E+02  0.00000000000E+00 0.  1.
<mgrwt>
<rscale>  0 0.12009144E+03</rscale>
<asrwt>0</asrwt>
<pdfrwt beam="2">  1        1 0.80097900E-01 0.12922004E+03</pdfrwt>
<pdfrwt beam="1">  1       -1 0.56023084E-02 0.12922004E+03</pdfrwt>
<totfact> 0.60763332E+03</totfact>
</mgrwt>
</event>
<event>
 6    1  0.9263730E-006  0.2805506E+03  0.7546771E-02  0.1095389E+00
          2   -1    0    0  501    0  0.00000000000E+00  0.00000000000E+00  0.12253387605E+04  0.12253387605E+04  0.00000000000E+00 0. -1.
         -2   -1    0    0    0  501 -0.00000000000E+00 -0.00000000000E+00 -0.16058547499E+02  0.16058547499E+02  0.00000000000E+00 0.  1.
          5    1    1    2  502    0  0.14937271147E+02 -0.76247394184E+01  0.26269869440E+02  0.31519117388E+02  0.47000000000E+01 0. -1.
         -5    1    1    2    0  502 -0.35973766644E+02  0.41401958690E+02  0.98752485265E+03  0.98905796527E+03  0.47000000000E+01 0.  1.
        -11    1    1    2    0    0  0.53691837523E+02 -0.41585506790E+02  0.11411357073E+03  0.13279335381E+03  0.00000000000E+00 0.  1.
         11    1    1    2    0    0 -0.32655342025E+02  0.78082875185E+01  0.81371920177E+02  0.88026871522E+02  0.00000000000E+00 0. -1.
<mgrwt>
<rscale>  0 0.28055061E+03</rscale>
<asrwt>0</asrwt>
<pdfrwt beam="1">  1        2 0.18851358E+00 0.28055061E+03</pdfrwt>
<pdfrwt beam="2">  1       -2 0.24705467E-02 0.28055061E+03</pdfrwt>
<totfact> 0.10926111E+04</totfact>
</mgrwt>
</event>
<event>
 6    1  0.9263730E-006  0.2272445E+03  0.7546771E-02  0.1131704E+00
         -2   -1    0    0    0  501 -0.00000000000E+00  0.00000000000E+00  0.41577196792E+02  0.41577196792E+02  0.00000000000E+00 0.  1.
          2   -1    0    0  501    0  0.00000000000E+00 -0.00000000000E+00 -0.12041508132E+04  0.12041508132E+04  0.00000000000E+00 0. -1.
          5    1    1    2  502    0  0.11422216972E+02  0.20281230699E+03 -0.61458846179E+03  0.64730546597E+03  0.47000000000E+01 0.  1.
         -5    1    1    2    0  502 -0.14939852097E+02 -0.13075980969E+02 -0.11693133468E+03  0.11869796750E+03  0.47000000000E+01 0.  1.
        -11    1    1    2    0    0  0.18594128662E+02 -0.18368140000E+03 -0.42312005329E+03  0.46164399467E+03  0.00000000000E+00 0. -1.
         11    1    1    2    0    0 -0.15076493537E+02 -0.60549260273E+01 -0.79337666478E+01  0.18080581843E+02  0.00000000000E+00 0.  1.
<mgrwt>
<rscale>  0 0.22294877E+03</rscale>
<asrwt>0</asrwt>
<pdfrwt beam="2">  1        2 0.18525394E+00 0.22724447E+03</pdfrwt>
<pdfrwt beam="1">  1       -2 0.63964929E-02 0.22724447E+03</pdfrwt>
<totfact> 0.26586607E+03</totfact>
</mgrwt>
</event>
<event>
 6    1  0.9263730E-006  0.1300820E+03  0.7546771E-02  0.1241522E+00
          2   -1    0    0  501    0  0.00000000000E+00  0.00000000000E+00  0.34424987709E+02  0.34424987709E+02  0.00000000000E+00 0. -1.
         -2   -1    0    0    0  501 -0.00000000000E+00 -0.00000000000E+00 -0.37755718795E+03  0.37755718795E+03  0.00000000000E+00 0.  1.
          5    1    1    2  502    0 -0.21629744714E+02 -0.46835083802E+02 -0.10738527763E+03  0.11922692139E+03  0.47000000000E+01 0. -1.
         -5    1    1    2    0  502  0.57559649037E+02  0.44525737981E+02 -0.73131276794E+02  0.10327598068E+03  0.47000000000E+01 0. -1.
        -11    1    1    2    0    0 -0.31063888205E+02  0.23997028678E+02 -0.16258085754E+03  0.16725237748E+03  0.00000000000E+00 0.  1.
         11    1    1    2    0    0 -0.48660161180E+01 -0.21687682858E+02 -0.34788280316E-01  0.22226896113E+02  0.00000000000E+00 0. -1.
<mgrwt>
<rscale>  0 0.12095974E+03</rscale>
<asrwt>0</asrwt>
<pdfrwt beam="1">  1        2 0.52961522E-02 0.13008195E+03</pdfrwt>
<pdfrwt beam="2">  1       -2 0.58085719E-01 0.13008195E+03</pdfrwt>
<totfact> 0.39105035E+03</totfact>
</mgrwt>
</event>
<event>
 6    1  0.9263730E-006  0.1264010E+03  0.7546771E-02  0.1248739E+00
         -1   -1    0    0    0  501 -0.00000000000E+00  0.00000000000E+00  0.35313285624E+02  0.35313285624E+02  0.00000000000E+00 0.  1.
          1   -1    0    0  501    0  0.00000000000E+00 -0.00000000000E+00 -0.38861240907E+03  0.38861240907E+03  0.00000000000E+00 0. -1.
          5    1    1    2  502    0  0.15403641816E+02  0.33218386183E+02 -0.24583540943E+03  0.24859177761E+03  0.47000000000E+01 0.  1.
         -5    1    1    2    0  502 -0.34111350903E+02 -0.31514111501E+02 -0.31849572600E+02  0.56508483955E+02  0.47000000000E+01 0.  1.
        -11    1    1    2    0    0  0.39155614571E+02 -0.33547305160E+02 -0.30368047530E+02  0.59839804033E+02  0.00000000000E+00 0. -1.
         11    1    1    2    0    0 -0.20447905484E+02  0.31843030477E+02 -0.45246093880E+02  0.58985629098E+02  0.00000000000E+00 0.  1.
<mgrwt>
<rscale>  0 0.11664354E+03</rscale>
<asrwt>0</asrwt>
<pdfrwt beam="2">  1        1 0.59786522E-01 0.12640103E+03</pdfrwt>
<pdfrwt beam="1">  1       -1 0.54328134E-02 0.12640103E+03</pdfrwt>
<totfact> 0.92319053E+03</totfact>
</mgrwt>
</event>
<event>
 6    1  0.9263730E-006  0.1266273E+03  0.7546771E-02  0.1247915E+00
          2   -1    0    0  501    0  0.00000000000E+00  0.00000000000E+00  0.58916265215E+03  0.58916265215E+03  0.00000000000E+00 0. -1.
         -2   -1    0    0    0  501 -0.00000000000E+00 -0.00000000000E+00 -0.20411994910E+02  0.20411994910E+02  0.00000000000E+00 0.  1.
          5    1    1    2  502    0 -0.21182271815E+02 -0.69611815118E+00  0.33948439714E+03  0.34017777576E+03  0.47000000000E+01 0. -1.
         -5    1    1    2    0  502  0.33898650130E+01  0.10284629519E+02 -0.82723506796E+01  0.14414804019E+02  0.47000000000E+01 0. -1.
        -11    1    1    2    0    0 -0.87318647978E+01  0.33664426896E+02  0.14834254355E+03  0.15236485595E+03  0.00000000000E+00 0. -1.
         11    1    1    2    0    0  0.26524271600E+02 -0.43252938263E+02  0.89196067226E+02  0.10261721133E+03  0.00000000000E+00 0.  1.
<mgrwt>
<rscale>  0 0.11712583E+03</rscale>
<asrwt>0</asrwt>
<pdfrwt beam="1">  1        2 0.90640395E-01 0.12662732E+03</pdfrwt>
<pdfrwt beam="2">  1       -2 0.31403074E-02 0.12662732E+03</pdfrwt>
<totfact> 0.19133672E+04</totfact>
</mgrwt>
</event>
<event>
 6    1  0.9263730E-006  0.2448680E+03  0.7546771E-02  0.1116592E+00
         -2   -1    0    0    0  501 -0.00000000000E+00  0.00000000000E+00  0.20533796206E+02  0.20533796206E+02  0.00000000000E+00 0.  1.
          2   -1    0    0  501    0  0.00000000000E+00 -0.00000000000E+00 -0.73002002892E+03  0.73002002892E+03  0.00000000000E+00 0. -1.
          5    1    1    2  502    0 -0.80769414525E+02 -0.30577699228E+02 -0.30826910626E+03  0.32017280629E+03  0.47000000000E+01 0.  1.
         -5    1    1    2    0  502  0.29084688990E+02  0.25473726094E+02 -0.54278254692E+02  0.66806053522E+02  0.47000000000E+01 0.  1.
        -11    1    1    2    0    0  0.38551979865E+02 -0.36574497154E+02 -0.10456819714E+03  0.11729644856E+03  0.00000000000E+00 0.  1.
         11    1    1    2    0    0  0.13132745670E+02  0.41678470288E+02 -0.24237067462E+03  0.24627851675E+03  0.00000000000E+00 0. -1.
<mgrwt>
<rscale>  0 0.24486798E+03</rscale>
<asrwt>0</asrwt>
<pdfrwt beam="2">  1        2 0.11231076E+00 0.24486798E+03</pdfrwt>
<pdfrwt beam="1">  1       -2 0.31590460E-02 0.24486798E+03</pdfrwt>
<totfact> 0.15445571E+04</totfact>
</mgrwt>
</event>
<event>
 6    1  0.9263730E-006  0.1371384E+03  0.7546771E-02  0.1229117E+00
          3   -1    0    0  501    0  0.00000000000E+00  0.00000000000E+00  0.13785402105E+03  0.13785402105E+03  0.00000000000E+00 0. -1.
         -3   -1    0    0    0  501 -0.00000000000E+00 -0.00000000000E+00 -0.10830494540E+03  0.10830494540E+03  0.00000000000E+00 0.  1.
          5    1    1    2  502    0  0.36573458130E+02 -0.82155775389E+02  0.62070668375E+01  0.90265203418E+02  0.47000000000E+01 0.  1.
         -5    1    1    2    0  502  0.61367347859E+01  0.45319669473E+02  0.15886176678E+02  0.48641469595E+02  0.47000000000E+01 0.  1.
        -11    1    1    2    0    0 -0.15512955129E+02  0.33038649698E+02  0.46751610340E+02  0.59312032676E+02  0.00000000000E+00 0. -1.
         11    1    1    2    0    0 -0.27197237787E+02  0.37974562180E+01 -0.39295778204E+02  0.47940260759E+02  0.00000000000E+00 0.  1.
<mgrwt>
<rscale>  0 0.12888669E+03</rscale>
<asrwt>0</asrwt>
<pdfrwt beam="1">  1        3 0.21208311E-01 0.13713844E+03</pdfrwt>
<pdfrwt beam="2">  1       -3 0.16662299E-01 0.13713844E+03</pdfrwt>
<totfact> 0.14401254E+03</totfact>
</mgrwt>
</event>
<event>
 6    1  0.9263730E-006  0.1739895E+03  0.7546771E-02  0.1180403E+00
         -1   -1    0    0    0  501 -0.00000000000E+00  0.00000000000E+00  0.32157809675E+03  0.32157809675E+03  0.00000000000E+00 0.  1.
          1   -1    0    0  501    0  0.00000000000E+00 -0.00000000000E+00 -0.13468354453E+03  0.13468354453E+03  0.00000000000E+00 0. -1.
          5    1    1    2  502    0 -0.50308494680E+02  0.10830619335E+03 -0.56247400975E+02  0.13208722978E+03  0.47000000000E+01 0. -1.
         -5    1    1    2    0  502  0.44538137268E+02  0.12581350074E+02  0.10765735021E+02  0.47748582089E+02  0.47000000000E+01 0. -1.
        -11    1    1    2    0    0  0.28387553866E+02 -0.37190891977E+02  0.14887995553E+03  0.15605850447E+03  0.00000000000E+00 0.  1.
         11    1    1    2    0    0 -0.22617196454E+02 -0.83696651445E+02  0.83496262635E+02  0.12036732494E+03  0.00000000000E+00 0. -1.
<mgrwt>
<rscale>  0 0.16757283E+03</rscale>
<asrwt>0</asrwt>
<pdfrwt beam="2">  1        1 0.20720545E-01 0.17398947E+03</pdfrwt>
<pdfrwt beam="1">  1       -1 0.49473553E-01 0.17398947E+03</pdfrwt>
<totfact> 0.10152606E+03</totfact>
</mgrwt>
</event>
<event>
 6    1  0.9263730E-006  0.2778049E+03  0.7546771E-02  0.1098750E+00
          2   -1    0    0  501    0  0.00000000000E+00  0.00000000000E+00  0.18372825126E+04  0.18372825126E+04  0.00000000000E+00 0. -1.
         -2   -1    0    0    0  501 -0.00000000000E+00 -0.00000000000E+00 -0.42470288979E+02  0.42470288979E+02  0.00000000000E+00 0.  1.
          5    1    1    2  502    0 -0.86250763551E+02 -0.36229451268E+02  0.38262897772E+03  0.39392739426E+03  0.47000000000E+01 0.  1.
         -5    1    1    2    0  502 -0.15277322315E+03  0.10268037412E+03  0.75974807422E+03  0.78174301610E+03  0.47000000000E+01 0.  1.
        -11    1    1    2    0    0  0.56349790625E+02 -0.56264043664E+02  0.24063826537E+03  0.25347133225E+03  0.00000000000E+00 0.  1.
         11    1    1    2    0    0  0.18267419608E+03 -0.10186879187E+02  0.41179690626E+03  0.45061105893E+03  0.00000000000E+00 0. -1.
<mgrwt>
<rscale>  0 0.27446629E+03</rscale>
<asrwt>0</asrwt>
<pdfrwt beam="1">  1        2 0.28265879E+00 0.27780494E+03</pdfrwt>
<pdfrwt beam="2">  1       -2 0.65338920E-02 0.27780494E+03</pdfrwt>
<totfact> 0.11731296E+03</totfact>
</mgrwt>
</event>
<event>
 6    1  0.9263730E-006  0.3478302E+03  0.7546771E-02  0.1083395E+00
         -2   -1    0    0    0  501 -0.00000000000E+00  0.00000000000E+00  0.73521044349E+03  0.73521044349E+03  0.00000000000E+00 0.  1.
          2   -1    0    0  501    0  0.00000000000E+00 -0.00000000000E+00 -0.10671728215E+03  0.10671728215E+03  0.00000000000E+00 0. -1.
          5    1    1    2  502    0  0.45229537711E+02  0.99944273625E+01 -0.43499363903E+02  0.63717221532E+02  0.47000000000E+01 0. -1.
         -5    1    1    2    0  502 -0.90284647827E+02  0.16544541972E+03  0.36083084952E+03  0.40711730067E+03  0.47000000000E+01 0.  1.
        -11    1    1    2    0    0  0.56965639073E+02 -0.17858647554E+03  0.27434427135E+03  0.33226945767E+03  0.00000000000E+00 0.  1.
         11    1    1    2    0    0 -0.11910528957E+02  0.31466284577E+01  0.36817404375E+02  0.38823745770E+02  0.00000000000E+00 0. -1.
<mgrwt>
<rscale>  0 0.30372165E+03</rscale>
<asrwt>0</asrwt>
<pdfrwt beam="2">  1        2 0.16418044E-01 0.34783024E+03</pdfrwt>
<pdfrwt beam="1">  1       -2 0.11310930E+00 0.34783024E+03</pdfrwt>
<totfact> 0.22454443E+02</totfact>
</mgrwt>
</event>
<event>
 6    1  0.9263730E-006  0.1635152E+03  0.7546771E-02  0.1198457E+00
         -4   -1    0    0    0  501 -0.00000000000E+00  0.00000000000E+00  0.46991178370E+02  0.46991178370E+02  0.00000000000E+00 0. -1.
          4   -1    0    0  501    0  0.00000000000E+00 -0.00000000000E+00 -0.43091839646E+03  0.43091839646E+03  0.00000000000E+00 0.  1.
          5    1    1    2  502    0  0.78540183776E+01 -0.11252365907E+03 -0.18820642933E+03  0.21946983733E+03  0.47000000000E+01 0. -1.
         -5    1    1    2    0  502  0.13006834948E+02  0.40454537849E+02 -0.26088099415E+02  0.50084192307E+02  0.47000000000E+01 0.  1.
        -11    1    1    2    0    0 -0.36489106435E+02  0.82507596220E+02 -0.93461037458E+02  0.12989966838E+03  0.00000000000E+00 0.  1.
         11    1    1    2    0    0  0.15628253110E+02 -0.10438474995E+02 -0.76171651883E+02  0.78455876810E+02  0.00000000000E+00 0. -1.
<mgrwt>
<rscale>  0 0.15165243E+03</rscale>
<asrwt>0</asrwt>
<pdfrwt beam="2">  1        4 0.66295137E-01 0.16351523E+03</pdfrwt>
<pdfrwt beam="1">  1       -4 0.72294121E-02 0.16351523E+03</pdfrwt>
<totfact> 0.48185509E+02</totfact>
</mgrwt>
</event>
<event>
 6    1  0.9831955E-006  0.3033799E+03  0.7546771E-02  0.1083563E+00
          1   -1    0    0  501    0  0.00000000000E+00  0.00000000000E+00  0.29014593405E+03  0.29014593405E+03  0.00000000000E+00 0. -1.
         -1   -1    0    0    0  501 -0.00000000000E+00 -0.00000000000E+00 -0.79304356790E+02  0.79304356790E+02  0.00000000000E+00 0.  1.
          5    1    1    2  502    0  0.78685775481E+02 -0.86959595574E+02  0.12881460458E+03  0.17426621841E+03  0.47000000000E+01 0. -1.
         -5    1    1    2    0  502 -0.37336884903E+02 -0.79392796521E+01  0.11139914785E+02  0.40040764692E+02  0.47000000000E+01 0. -1.
        -11    1    1    2    0    0 -0.59906002005E+02  0.24120997468E+02  0.37915347855E+02  0.74887416820E+02  0.00000000000E+00 0.  1.
         11    1    1    2    0    0  0.18557111428E+02  0.70777877758E+02  0.32971710044E+02  0.80255890922E+02  0.00000000000E+00 0. -1.
<mgrwt>
<rscale>  0 0.30337987E+03</rscale>
<asrwt>0</asrwt>
<pdfrwt beam="1">  1        1 0.44637836E-01 0.30337987E+03</pdfrwt>
<pdfrwt beam="2">  1       -1 0.12200670E-01 0.30337987E+03</pdfrwt>
<totfact> 0.40723724E+03</totfact>
</mgrwt>
</event>
<event>
 6    1  0.9263730E-006  0.2681215E+03  0.7546771E-02  0.1102360E+00
         -1   -1    0    0    0  501 -0.00000000000E+00  0.00000000000E+00  0.43791030095E+02  0.43791030095E+02  0.00000000000E+00 0.  1.
          1   -1    0    0  501    0  0.00000000000E+00 -0.00000000000E+00 -0.41041017679E+03  0.41041017679E+03  0.00000000000E+00 0. -1.
          5    1    1    2  502    0 -0.23385353856E+02 -0.29116553749E+02 -0.55272687162E+02  0.66871581582E+02  0.47000000000E+01 0.  1.
         -5    1    1    2    0  502  0.94846650097E+02  0.51007643305E+02 -0.18316514071E+03  0.21253052835E+03  0.47000000000E+01 0.  1.
        -11    1    1    2    0    0 -0.37845904650E+02 -0.58117968171E+02 -0.71858482967E+02  0.99868174598E+02  0.00000000000E+00 0. -1.
         11    1    1    2    0    0 -0.33615391591E+02  0.36226878615E+02 -0.56322835862E+02  0.74930922359E+02  0.00000000000E+00 0.  1.
<mgrwt>
<rscale>  0 0.26812150E+03</rscale>
<asrwt>0</asrwt>
<pdfrwt beam="2">  1        1 0.63140028E-01 0.26812150E+03</pdfrwt>
<pdfrwt beam="1">  1       -1 0.67370815E-02 0.26812150E+03</pdfrwt>
<totfact> 0.65184685E+03</totfact>
</mgrwt>
</event>
<event>
 6    1  0.9263730E-006  0.2574029E+03  0.7546771E-02  0.1108714E+00
         -3   -1    0    0    0  501 -0.00000000000E+00  0.00000000000E+00  0.11189041436E+03  0.11189041436E+03  0.00000000000E+00 0.  1.
          3   -1    0    0  501    0  0.00000000000E+00 -0.00000000000E+00 -0.14803827876E+03  0.14803827876E+03  0.00000000000E+00 0. -1.
          5    1    1    2  502    0  0.49427771300E+01  0.19061002207E+02 -0.79976026716E+02  0.82498531503E+02  0.47000000000E+01 0. -1.
         -5    1    1    2    0  502 -0.62508567151E+02 -0.10719234220E+02  0.21681073151E+02  0.67189150035E+02  0.47000000000E+01 0. -1.
        -11    1    1    2    0    0  0.76652229441E+01 -0.33278917577E+02 -0.20670107214E+02  0.39918608820E+02  0.00000000000E+00 0. -1.
         11    1    1    2    0    0  0.49900567076E+02  0.24937149591E+02  0.42817196375E+02  0.70322402758E+02  0.00000000000E+00 0.  1.
<mgrwt>
<rscale>  0 0.25740291E+03</rscale>
<asrwt>0</asrwt>
<pdfrwt beam="2">  1        3 0.22775120E-01 0.25740291E+03</pdfrwt>
<pdfrwt beam="1">  1       -3 0.17213910E-01 0.25740291E+03</pdfrwt>
<totfact> 0.13130533E+03</totfact>
</mgrwt>
</event>
<event>
 6    1  0.9263730E-006  0.3649573E+03  0.7546771E-02  0.1056638E+00
         -2   -1    0    0    0  501 -0.00000000000E+00  0.00000000000E+00  0.99352197962E+02  0.99352197962E+02  0.00000000000E+00 0.  1.
          2   -1    0    0  501    0  0.00000000000E+00 -0.00000000000E+00 -0.33515572739E+03  0.33515572739E+03  0.00000000000E+00 0. -1.
          5    1    1    2  502    0 -0.99734673202E+01 -0.76824707312E+00 -0.14117669380E+03  0.14160864778E+03  0.47000000000E+01 0. -1.
         -5    1    1    2    0  502  0.95895716747E+02  0.57657100694E+02 -0.10789432479E+03  0.15551078764E+03  0.47000000000E+01 0. -1.
        -11    1    1    2    0    0 -0.33605181760E+02 -0.67829181141E+02  0.29934551861E+02  0.81401372534E+02  0.00000000000E+00 0. -1.
         11    1    1    2    0    0 -0.52317067667E+02  0.10940327520E+02 -0.16667062701E+02  0.55987117398E+02  0.00000000000E+00 0.  1.
<mgrwt>
<rscale>  0 0.36495730E+03</rscale>
<asrwt>0</asrwt>
<pdfrwt beam="2">  1        2 0.51562420E-01 0.36495730E+03</pdfrwt>
<pdfrwt beam="1">  1       -2 0.15284953E-01 0.36495730E+03</pdfrwt>
<totfact> 0.32292296E+03</totfact>
</mgrwt>
</event>
<event>
 6    1  0.9263730E-006  0.1999880E+03  0.7546771E-02  0.1168899E+00
         -2   -1    0    0    0  501 -0.00000000000E+00  0.00000000000E+00  0.37701764980E+02  0.37701764980E+02  0.00000000000E+00 0.  1.
          2   -1    0    0  501    0  0.00000000000E+00 -0.00000000000E+00 -0.79325668670E+03  0.79325668670E+03  0.00000000000E+00 0. -1.
          5    1    1    2  502    0  0.79642765178E+02  0.37992775899E+02 -0.31000030460E+03  0.32234872408E+03  0.47000000000E+01 0. -1.
         -5    1    1    2    0  502 -0.99593996488E+02  0.44145728007E+02 -0.27139092391E+03  0.29247723505E+03  0.47000000000E+01 0.  1.
        -11    1    1    2    0    0 -0.32726950562E+02 -0.64447206810E+02 -0.93516893777E+02  0.11819435342E+03  0.00000000000E+00 0.  1.
         11    1    1    2    0    0  0.52678181872E+02 -0.17691297096E+02 -0.80646799432E+02  0.97938139133E+02  0.00000000000E+00 0. -1.
<mgrwt>
<rscale>  0 0.17887229E+03</rscale>
<asrwt>0</asrwt>
<pdfrwt beam="2">  1        2 0.12203949E+00 0.19998800E+03</pdfrwt>
<pdfrwt beam="1">  1       -2 0.58002717E-02 0.19998800E+03</pdfrwt>
<totfact> 0.55131389E+03</totfact>
</mgrwt>
</event>
<event>
 6    1  0.9263730E-006  0.1357344E+03  0.7546771E-02  0.1228911E+00
         -1   -1    0    0    0  501 -0.00000000000E+00  0.00000000000E+00  0.65835167804E+02  0.65835167804E+02  0.00000000000E+00 0.  1.
          1   -1    0    0  501    0  0.00000000000E+00 -0.00000000000E+00 -0.40307624268E+03  0.40307624268E+03  0.00000000000E+00 0. -1.
          5    1    1    2  502    0 -0.60470011216E+02  0.15923097669E+02 -0.28628430475E+03  0.29307159610E+03  0.47000000000E+01 0. -1.
         -5    1    1    2    0  502  0.15561178406E+02 -0.43878894041E+02 -0.44908847446E+02  0.64856782179E+02  0.47000000000E+01 0. -1.
        -11    1    1    2    0    0  0.16902214146E+02  0.38765295544E+01 -0.50380093955E+02  0.53281011546E+02  0.00000000000E+00 0. -1.
         11    1    1    2    0    0  0.28006618663E+02  0.24079266818E+02  0.44332171268E+02  0.57702020664E+02  0.00000000000E+00 0.  1.
<mgrwt>
<rscale>  0 0.12902387E+03</rscale>
<asrwt>0</asrwt>
<pdfrwt beam="2">  1        1 0.62011730E-01 0.13573437E+03</pdfrwt>
<pdfrwt beam="1">  1       -1 0.10128487E-01 0.13573437E+03</pdfrwt>
<totfact> 0.34728524E+03</totfact>
</mgrwt>
</event>
<event>
 6    1  0.9263730E-006  0.1464090E+03  0.7546771E-02  0.1214935E+00
          1   -1    0    0  501    0  0.00000000000E+00  0.00000000000E+00  0.72193195898E+03  0.72193195898E+03  0.00000000000E+00 0.  1.
         -1   -1    0    0    0  501 -0.00000000000E+00 -0.00000000000E+00 -0.27468917635E+02  0.27468917635E+02  0.00000000000E+00 0. -1.
          5    1    1    2  502    0  0.71362220922E+02  0.31522905669E+01  0.12382802459E+03  0.14303137133E+03  0.47000000000E+01 0.  1.
         -5    1    1    2    0  502 -0.15137973922E+01 -0.33687905395E+02  0.38326549086E+03  0.38477486020E+03  0.47000000000E+01 0.  1.
        -11    1    1    2    0    0 -0.30081164370E+02  0.53491282823E+02  0.58482437227E+02  0.84772573701E+02  0.00000000000E+00 0. -1.
         11    1    1    2    0    0 -0.39767259160E+02 -0.22955667995E+02  0.12888708866E+03  0.13682207138E+03  0.00000000000E+00 0.  1.
<mgrwt>
<rscale>  0 0.13881280E+03</rscale>
<asrwt>0</asrwt>
<pdfrwt beam="1">  1        1 0.11106644E+00 0.14640896E+03</pdfrwt>
<pdfrwt beam="2">  1       -1 0.42259879E-02 0.14640896E+03</pdfrwt>
<totfact> 0.59227387E+03</totfact>
</mgrwt>
</event>
<event>
 6    1  0.9263730E-006  0.1742564E+03  0.7546771E-02  0.1179960E+00
         -2   -1    0    0    0  501 -0.00000000000E+00  0.00000000000E+00  0.39868474049E+02  0.39868474049E+02  0.00000000000E+00 0.  1.
          2   -1    0    0  501    0  0.00000000000E+00 -0.00000000000E+00 -0.73218386775E+03  0.73218386775E+03  0.00000000000E+00 0. -1.
          5    1    1    2  502    0 -0.95024571111E+01 -0.25892919417E+02 -0.41030454602E+02  0.49662140228E+02  0.47000000000E+01 0.  1.
         -5    1    1    2    0  502  0.12450567143E+03  0.64758186369E+02 -0.44773080985E+03  0.46923368699E+03  0.47000000000E+01 0.  1.
        -11    1    1    2    0    0 -0.15854372984E+02  0.53474521265E+01  0.54858650102E+01  0.17608267997E+02  0.00000000000E+00 0.  1.
         11    1    1    2    0    0 -0.99148841339E+02 -0.44212719078E+02 -0.20903999427E+03  0.23554824659E+03  0.00000000000E+00 0. -1.
<mgrwt>
<rscale>  0 0.16799045E+03</rscale>
<asrwt>0</asrwt>
<pdfrwt beam="2">  1        2 0.11264367E+00 0.17425644E+03</pdfrwt>
<pdfrwt beam="1">  1       -2 0.61336116E-02 0.17425644E+03</pdfrwt>
<totfact> 0.55589274E+03</totfact>
</mgrwt>
</event>
<event>
 6    1  0.9263730E-006  0.1592184E+03  0.7546771E-02  0.1197851E+00
         -4   -1    0    0    0  501 -0.00000000000E+00  0.00000000000E+00  0.14539665014E+03  0.14539665014E+03  0.00000000000E+00 0.  1.
          4   -1    0    0  501    0  0.00000000000E+00 -0.00000000000E+00 -0.15435328928E+03  0.15435328928E+03  0.00000000000E+00 0. -1.
          5    1    1    2  502    0  0.70371122911E+02  0.49197093708E+02 -0.72988763852E+02  0.11279139425E+03  0.47000000000E+01 0. -1.
         -5    1    1    2    0  502 -0.16287955143E+02  0.33275706551E+02  0.34687066816E+02  0.50969135107E+02  0.47000000000E+01 0. -1.
        -11    1    1    2    0    0 -0.65831117794E+02 -0.24764188715E+02  0.31480228890E+02  0.77058457833E+02  0.00000000000E+00 0.  1.
         11    1    1    2    0    0  0.11747950026E+02 -0.57708611544E+02 -0.21351709948E+01  0.58930952235E+02  0.00000000000E+00 0. -1.
<mgrwt>
<rscale>  0 0.15215371E+03</rscale>
<asrwt>0</asrwt>
<pdfrwt beam="2">  1        4 0.23746660E-01 0.15921838E+03</pdfrwt>
<pdfrwt beam="1">  1       -4 0.22368716E-01 0.15921838E+03</pdfrwt>
<totfact> 0.51834823E+02</totfact>
</mgrwt>
</event>
<event>
 6    1  0.9263730E-006  0.2471733E+03  0.7546771E-02  0.1117580E+00
         -2   -1    0    0    0  501 -0.00000000000E+00  0.00000000000E+00  0.28781827903E+02  0.28781827903E+02  0.00000000000E+00 0.  1.
          2   -1    0    0  501    0  0.00000000000E+00 -0.00000000000E+00 -0.20246944744E+04  0.20246944744E+04  0.00000000000E+00 0. -1.
          5    1    1    2  502    0  0.95317577771E+02  0.56567594322E+02 -0.30344580922E+03  0.32308943420E+03  0.47000000000E+01 0.  1.
         -5    1    1    2    0  502  0.65944231502E+02  0.82949681852E+02 -0.84654412202E+03  0.85316371929E+03  0.47000000000E+01 0.  1.
        -11    1    1    2    0    0 -0.84679766096E+02 -0.98112212671E+02 -0.65051141371E+03  0.66329613931E+03  0.00000000000E+00 0. -1.
         11    1    1    2    0    0 -0.76582043177E+02 -0.41405063503E+02 -0.19541130158E+03  0.21392700953E+03  0.00000000000E+00 0.  1.
<mgrwt>
<rscale>  0 0.24335216E+03</rscale>
<asrwt>0</asrwt>
<pdfrwt beam="2">  1        2 0.31149146E+00 0.24717330E+03</pdfrwt>
<pdfrwt beam="1">  1       -2 0.44279735E-02 0.24717330E+03</pdfrwt>
<totfact> 0.17014991E+03</totfact>
</mgrwt>
</event>
<event>
 6    1  0.9263730E-006  0.2817669E+03  0.7546771E-02  0.1096626E+00
          2   -1    0    0  501    0  0.00000000000E+00  0.00000000000E+00  0.24177298363E+04  0.24177298363E+04  0.00000000000E+00 0. -1.
         -2   -1    0    0    0  501 -0.00000000000E+00 -0.00000000000E+00 -0.36519273419E+02  0.36519273419E+02  0.00000000000E+00 0.  1.
          5    1    1    2  502    0  0.75915824167E+02 -0.30372482552E+02  0.33458697655E+03  0.34446514327E+03  0.47000000000E+01 0. -1.
         -5    1    1    2    0  502  0.61581535706E+02 -0.18143155532E+03  0.13466073714E+04  0.13601776346E+04  0.47000000000E+01 0. -1.
        -11    1    1    2    0    0 -0.25238999633E+02  0.10760362274E+03  0.36223415113E+03  0.37872038099E+03  0.00000000000E+00 0. -1.
         11    1    1    2    0    0 -0.11225836024E+03  0.10420041513E+03  0.33778206378E+03  0.37088595089E+03  0.00000000000E+00 0.  1.
<mgrwt>
<rscale>  0 0.27829070E+03</rscale>
<asrwt>0</asrwt>
<pdfrwt beam="1">  1        2 0.37195831E+00 0.28176686E+03</pdfrwt>
<pdfrwt beam="2">  1       -2 0.56183516E-02 0.28176686E+03</pdfrwt>
<totfact> 0.72711470E+02</totfact>
</mgrwt>
</event>
<event>
 6    1  0.9263730E-006  0.2038901E+03  0.7546771E-02  0.1150118E+00
         -3   -1    0    0    0  501 -0.00000000000E+00  0.00000000000E+00  0.36988809657E+03  0.36988809657E+03  0.00000000000E+00 0.  1.
          3   -1    0    0  501    0  0.00000000000E+00 -0.00000000000E+00 -0.10424659462E+03  0.10424659462E+03  0.00000000000E+00 0. -1.
          5    1    1    2  502    0 -0.49473400129E+02 -0.26382161765E+02  0.90920405161E+01  0.56994657473E+02  0.47000000000E+01 0.  1.
         -5    1    1    2    0  502 -0.87115317866E+02  0.11176762020E+03  0.10700226887E+03  0.17763067043E+03  0.47000000000E+01 0.  1.
        -11    1    1    2    0    0  0.13007883966E+03 -0.10078088849E+03  0.15018183166E+03  0.22278212355E+03  0.00000000000E+00 0. -1.
         11    1    1    2    0    0  0.65098783369E+01  0.15395430053E+02 -0.63463909073E+00  0.16727239738E+02  0.00000000000E+00 0.  1.
<mgrwt>
<rscale>  0 0.19955202E+03</rscale>
<asrwt>0</asrwt>
<pdfrwt beam="2">  1        3 0.16037938E-01 0.20389006E+03</pdfrwt>
<pdfrwt beam="1">  1       -3 0.56905860E-01 0.20389006E+03</pdfrwt>
<totfact> 0.24842574E+02</totfact>
</mgrwt>
</event>
<event>
 6    1  0.9263730E-006  0.2748762E+03  0.7546771E-02  0.1098521E+00
          2   -1    0    0  501    0  0.00000000000E+00  0.00000000000E+00  0.71959870412E+02  0.71959870412E+02  0.00000000000E+00 0. -1.
         -2   -1    0    0    0  501 -0.00000000000E+00 -0.00000000000E+00 -0.26249667041E+03  0.26249667041E+03  0.00000000000E+00 0.  1.
          5    1    1    2  502    0  0.11017795117E+03  0.45022030921E+02 -0.62156568436E+02  0.13435658968E+03  0.47000000000E+01 0.  1.
         -5    1    1    2    0  502 -0.32977825733E+02  0.24483687539E+01 -0.33265578124E+02  0.47140430498E+02  0.47000000000E+01 0.  1.
        -11    1    1    2    0    0 -0.25258676651E+02 -0.31597407167E+02 -0.89672893246E+02  0.98374918902E+02  0.00000000000E+00 0.  1.
         11    1    1    2    0    0 -0.51941448782E+02 -0.15872992508E+02 -0.54417601888E+01  0.54584601736E+02  0.00000000000E+00 0. -1.
<mgrwt>
<rscale>  0 0.27487616E+03</rscale>
<asrwt>0</asrwt>
<pdfrwt beam="1">  1        2 0.11070749E-01 0.27487616E+03</pdfrwt>
<pdfrwt beam="2">  1       -2 0.40384103E-01 0.27487616E+03</pdfrwt>
<totfact> 0.32868466E+03</totfact>
</mgrwt>
</event>
<event>
 6    1  0.9263730E-006  0.1299940E+03  0.7546771E-02  0.1241426E+00
         -1   -1    0    0    0  501 -0.00000000000E+00  0.00000000000E+00  0.13515165934E+02  0.13515165934E+02  0.00000000000E+00 0.  1.
          1   -1    0    0  501    0  0.00000000000E+00 -0.00000000000E+00 -0.12444488930E+04  0.12444488930E+04  0.00000000000E+00 0. -1.
          5    1    1    2  502    0 -0.70228392648E+02 -0.12137333418E+02 -0.38673007837E+03  0.39327037202E+03  0.47000000000E+01 0.  1.
         -5    1    1    2    0  502  0.46688869028E+02 -0.14658164702E+02 -0.59524650890E+03  0.59727314408E+03  0.47000000000E+01 0.  1.
        -11    1    1    2    0    0  0.10391044928E+02 -0.33517318071E+02 -0.10746333968E+03  0.11304757318E+03  0.00000000000E+00 0.  1.
         11    1    1    2    0    0  0.13148478692E+02  0.60312816191E+02 -0.14149380012E+03  0.15437296966E+03  0.00000000000E+00 0. -1.
<mgrwt>
<rscale>  0 0.12101867E+03</rscale>
<asrwt>0</asrwt>
<pdfrwt beam="2">  1        1 0.19145371E+00 0.12999400E+03</pdfrwt>
<pdfrwt beam="1">  1       -1 0.20792559E-02 0.12999400E+03</pdfrwt>
<totfact> 0.67202546E+03</totfact>
</mgrwt>
</event>
<event>
 6    1  0.2437433E-005  0.2132265E+03  0.7546771E-02  0.1143087E+00
          1   -1    0    0  501    0  0.00000000000E+00  0.00000000000E+00  0.25269760546E+03  0.25269760546E+03  0.00000000000E+00 0. -1.
         -1   -1    0    0    0  501 -0.00000000000E+00 -0.00000000000E+00 -0.17891729902E+03  0.17891729902E+03  0.00000000000E+00 0.  1.
          5    1    1    2  502    0 -0.69623809854E+02  0.21494976786E+01 -0.21243623316E+02  0.72975864301E+02  0.47000000000E+01 0. -1.
         -5    1    1    2    0  502 -0.95146717402E+02  0.49720686155E+02  0.12287019582E+03  0.16323057154E+03  0.47000000000E+01 0. -1.
        -11    1    1    2    0    0  0.81999149727E+02 -0.68697915790E+02 -0.29364027254E+02  0.11093020457E+03  0.00000000000E+00 0. -1.
         11    1    1    2    0    0  0.82771377529E+02  0.16827731956E+02  0.15177611919E+01  0.84478264068E+02  0.00000000000E+00 0.  1.
<mgrwt>
<rscale>  0 0.20809081E+03</rscale>
<asrwt>0</asrwt>
<pdfrwt beam="1">  1        1 0.38876554E-01 0.21322645E+03</pdfrwt>
<pdfrwt beam="2">  1       -1 0.27525738E-01 0.21322645E+03</pdfrwt>
<totfact> 0.12842917E+03</totfact>
</mgrwt>
</event>
<event>
 6    1  0.9263730E-006  0.1433113E+03  0.7546771E-02  0.1218994E+00
         -3   -1    0    0    0  501 -0.00000000000E+00  0.00000000000E+00  0.31866778684E+02  0.31866778684E+02  0.00000000000E+00 0.  1.
          3   -1    0    0  501    0  0.00000000000E+00 -0.00000000000E+00 -0.53697922989E+03  0.53697922989E+03  0.00000000000E+00 0. -1.
          5    1    1    2  502    0  0.69762872246E+01  0.94472845019E+02 -0.18876856252E+03  0.21125682764E+03  0.47000000000E+01 0.  1.
         -5    1    1    2    0  502 -0.35575387351E+02 -0.30491142176E+02 -0.12926031964E+03  0.13757048437E+03  0.47000000000E+01 0.  1.
        -11    1    1    2    0    0  0.48973300277E+02 -0.70777342501E+02 -0.17584431651E+03  0.19577803758E+03  0.00000000000E+00 0. -1.
         11    1    1    2    0    0 -0.20374200150E+02  0.67956396586E+01 -0.11239252537E+02  0.24240658979E+02  0.00000000000E+00 0.  1.
<mgrwt>
<rscale>  0 0.13587221E+03</rscale>
<asrwt>0</asrwt>
<pdfrwt beam="2">  1        3 0.82612182E-01 0.14331128E+03</pdfrwt>
<pdfrwt beam="1">  1       -3 0.49025818E-02 0.14331128E+03</pdfrwt>
<totfact> 0.76300795E+02</totfact>
</mgrwt>
</event>
<event>
 6    1  0.9263730E-006  0.1861952E+03  0.7546771E-02  0.1164882E+00
          2   -1    0    0  501    0  0.00000000000E+00  0.00000000000E+00  0.20683988622E+04  0.20683988622E+04  0.00000000000E+00 0. -1.
         -2   -1    0    0    0  501 -0.00000000000E+00 -0.00000000000E+00 -0.16173854150E+02  0.16173854150E+02  0.00000000000E+00 0.  1.
          5    1    1    2  502    0 -0.60054382336E+02  0.94528069167E+02  0.55798999644E+03  0.56913707560E+03  0.47000000000E+01 0. -1.
         -5    1    1    2    0  502 -0.57036709019E+02 -0.21500596298E+02  0.68478796665E+03  0.68751153524E+03  0.47000000000E+01 0. -1.
        -11    1    1    2    0    0  0.10636677135E+03 -0.97678928993E+02  0.72701436200E+03  0.74121855466E+03  0.00000000000E+00 0.  1.
         11    1    1    2    0    0  0.10724320002E+02  0.24651456124E+02  0.82432682988E+02  0.86705550878E+02  0.00000000000E+00 0. -1.
<mgrwt>
<rscale>  0 0.18305177E+03</rscale>
<asrwt>0</asrwt>
<pdfrwt beam="1">  1        2 0.31821500E+00 0.18619524E+03</pdfrwt>
<pdfrwt beam="2">  1       -2 0.24882869E-02 0.18619524E+03</pdfrwt>
<totfact> 0.38256658E+03</totfact>
</mgrwt>
</event>
<event>
 6    1  0.9263730E-006  0.1384930E+03  0.7546771E-02  0.1227182E+00
         -2   -1    0    0    0  501 -0.00000000000E+00  0.00000000000E+00  0.94345488929E+02  0.94345488929E+02  0.00000000000E+00 0.  1.
          2   -1    0    0  501    0  0.00000000000E+00 -0.00000000000E+00 -0.17778754446E+03  0.17778754446E+03  0.00000000000E+00 0. -1.
          5    1    1    2  502    0 -0.53741747130E+02 -0.31291731719E+02 -0.11232418324E+03  0.12847630131E+03  0.47000000000E+01 0. -1.
         -5    1    1    2    0  502  0.18463060553E+02 -0.16916018192E+02  0.24637671390E+02  0.35442081316E+02  0.47000000000E+01 0. -1.
        -11    1    1    2    0    0  0.62648376380E+02  0.16535945024E+02  0.11279095871E+02  0.65768339986E+02  0.00000000000E+00 0.  1.
         11    1    1    2    0    0 -0.27369689803E+02  0.31671804888E+02 -0.70346395534E+01  0.42446310775E+02  0.00000000000E+00 0. -1.
<mgrwt>
<rscale>  0 0.13018436E+03</rscale>
<asrwt>0</asrwt>
<pdfrwt beam="2">  1        2 0.27351930E-01 0.13849300E+03</pdfrwt>
<pdfrwt beam="1">  1       -2 0.14514691E-01 0.13849300E+03</pdfrwt>
<totfact> 0.66862841E+03</totfact>
</mgrwt>
</event>
<event>
 6    1  0.9263730E-006  0.1254712E+03  0.7546771E-02  0.1249779E+00
          2   -1    0    0  501    0  0.00000000000E+00  0.00000000000E+00  0.33467145038E+03  0.33467145038E+03  0.00000000000E+00 0. -1.
         -2   -1    0    0    0  501 -0.00000000000E+00 -0.00000000000E+00 -0.35552676321E+02  0.35552676321E+02  0.00000000000E+00 0.  1.
          5    1    1    2  502    0  0.58208952952E+02 -0.22999960840E+02  0.59443080375E+02  0.86445648861E+02  0.47000000000E+01 0. -1.
         -5    1    1    2    0  502 -0.51973838905E+02  0.14234542007E+02  0.12972842460E+03  0.14055410440E+03  0.47000000000E+01 0. -1.
        -11    1    1    2    0    0 -0.33030796297E+02  0.22566758891E+02  0.10540762040E+03  0.11274333039E+03  0.00000000000E+00 0. -1.
         11    1    1    2    0    0  0.26795682250E+02 -0.13801340058E+02  0.45396486906E+01  0.30481043041E+02  0.00000000000E+00 0.  1.
<mgrwt>
<rscale>  0 0.11603879E+03</rscale>
<asrwt>0</asrwt>
<pdfrwt beam="1">  1        2 0.51487913E-01 0.12547123E+03</pdfrwt>
<pdfrwt beam="2">  1       -2 0.54696427E-02 0.12547123E+03</pdfrwt>
<totfact> 0.15460696E+04</totfact>
</mgrwt>
</event>
<event>
 6    1  0.9263730E-006  0.1325784E+03  0.7546771E-02  0.1235543E+00
          4   -1    0    0  501    0  0.00000000000E+00  0.00000000000E+00  0.65005117705E+02  0.65005117705E+02  0.00000000000E+00 0. -1.
         -4   -1    0    0    0  501 -0.00000000000E+00 -0.00000000000E+00 -0.21975006117E+03  0.21975006117E+03  0.00000000000E+00 0.  1.
          5    1    1    2  502    0  0.31248889759E+02 -0.39020266118E+02  0.24495896807E+02  0.55867819355E+02  0.47000000000E+01 0.  1.
         -5    1    1    2    0  502 -0.18533503634E+02 -0.33114617336E+01 -0.89890993935E+02  0.91961607893E+02  0.47000000000E+01 0.  1.
        -11    1    1    2    0    0 -0.41335233292E+02  0.40803234531E+02 -0.91288820859E+02  0.10819960385E+03  0.00000000000E+00 0. -1.
         11    1    1    2    0    0  0.28619847167E+02  0.15284933201E+01  0.19389745246E+01  0.28726147773E+02  0.00000000000E+00 0.  1.
<mgrwt>
<rscale>  0 0.12469745E+03</rscale>
<asrwt>0</asrwt>
<pdfrwt beam="1">  1        4 0.10000787E-01 0.13257836E+03</pdfrwt>
<pdfrwt beam="2">  1       -4 0.33807701E-01 0.13257836E+03</pdfrwt>
<totfact> 0.10535938E+03</totfact>
</mgrwt>
</event>
<event>
 6    1  0.9263730E-006  0.5036872E+03  0.7546771E-02  0.1012821E+00
          1   -1    0    0  501    0  0.00000000000E+00  0.00000000000E+00  0.11960272010E+04  0.11960272010E+04  0.00000000000E+00 0. -1.
         -1   -1    0    0    0  501 -0.00000000000E+00 -0.00000000000E+00 -0.53029889256E+02  0.53029889256E+02  0.00000000000E+00 0.  1.
          5    1    1    2  502    0 -0.22405493198E+02 -0.59642919006E+02  0.11230766896E+04  0.11248922725E+04  0.47000000000E+01 0. -1.
         -5    1    1    2    0  502 -0.48602939749E+01 -0.22586917619E+01 -0.25155659057E+01  0.75592471731E+01  0.47000000000E+01 0.  1.
        -11    1    1    2    0    0 -0.22094177340E+01  0.13650223514E+02  0.51294015693E+02  0.53125193408E+02  0.00000000000E+00 0. -1.
         11    1    1    2    0    0  0.29475204907E+02  0.48251387254E+02 -0.28857827638E+02  0.63480377222E+02  0.00000000000E+00 0.  1.
<mgrwt>
<rscale>  0 0.50368716E+03</rscale>
<asrwt>0</asrwt>
<pdfrwt beam="1">  1        1 0.18400416E+00 0.50368716E+03</pdfrwt>
<pdfrwt beam="2">  1       -1 0.81584454E-02 0.50368716E+03</pdfrwt>
<totfact> 0.95398672E+02</totfact>
</mgrwt>
</event>
<event>
 6    1  0.9263730E-006  0.1379126E+03  0.7546771E-02  0.1250193E+00
         -1   -1    0    0    0  501 -0.00000000000E+00  0.00000000000E+00  0.90981305860E+01  0.90981305860E+01  0.00000000000E+00 0.  1.
          1   -1    0    0  501    0  0.00000000000E+00 -0.00000000000E+00 -0.16643338112E+04  0.16643338112E+04  0.00000000000E+00 0. -1.
          5    1    1    2  502    0  0.25237188942E+02  0.29085130364E+02 -0.76938483069E+03  0.77036223182E+03  0.47000000000E+01 0.  1.
         -5    1    1    2    0  502 -0.83419133452E+02 -0.26032613166E+02 -0.69085647360E+03  0.69637720087E+03  0.47000000000E+01 0.  1.
        -11    1    1    2    0    0  0.46334142595E+02  0.13378154020E+02 -0.14136549408E+03  0.14936542669E+03  0.00000000000E+00 0. -1.
         11    1    1    2    0    0  0.11847801915E+02 -0.16430671218E+02 -0.53628882291E+02  0.57327082454E+02  0.00000000000E+00 0.  1.
<mgrwt>
<rscale>  0 0.11579867E+03</rscale>
<asrwt>0</asrwt>
<pdfrwt beam="2">  1        1 0.25605096E+00 0.13791264E+03</pdfrwt>
<pdfrwt beam="1">  1       -1 0.13997146E-02 0.13791264E+03</pdfrwt>
<totfact> 0.63251785E+03</totfact>
</mgrwt>
</event>
<event>
 6    1  0.9263730E-006  0.3096669E+03  0.7546771E-02  0.1080506E+00
         -1   -1    0    0    0  501 -0.00000000000E+00  0.00000000000E+00  0.12727459129E+02  0.12727459129E+02  0.00000000000E+00 0.  1.
          1   -1    0    0  501    0  0.00000000000E+00 -0.00000000000E+00 -0.18835959081E+04  0.18835959081E+04  0.00000000000E+00 0. -1.
          5    1    1    2  502    0  0.82809953515E+02 -0.63555028554E+02 -0.13861057399E+04  0.13900388276E+04  0.47000000000E+01 0. -1.
         -5    1    1    2    0  502 -0.12714540676E+02  0.20640618573E+02 -0.81048553685E+02  0.84726930394E+02  0.47000000000E+01 0. -1.
        -11    1    1    2    0    0 -0.67024508745E+02 -0.65707376993E+01 -0.28611421378E+03  0.29393333035E+03  0.00000000000E+00 0.  1.
         11    1    1    2    0    0 -0.30709040951E+01  0.49485147680E+02 -0.11759994158E+03  0.12762427885E+03  0.00000000000E+00 0. -1.
<mgrwt>
<rscale>  0 0.30966685E+03</rscale>
<asrwt>0</asrwt>
<pdfrwt beam="2">  1        1 0.28978374E+00 0.30966685E+03</pdfrwt>
<pdfrwt beam="1">  1       -1 0.19580723E-02 0.30966685E+03</pdfrwt>
<totfact> 0.28377611E+03</totfact>
</mgrwt>
</event>
<event>
 6    1  0.9413076E-006  0.1263364E+03  0.7546771E-02  0.1247687E+00
          1   -1    0    0  501    0  0.00000000000E+00  0.00000000000E+00  0.97073213794E+03  0.97073213794E+03  0.00000000000E+00 0. -1.
         -1   -1    0    0    0  501 -0.00000000000E+00 -0.00000000000E+00 -0.13698721703E+02  0.13698721703E+02  0.00000000000E+00 0.  1.
          5    1    1    2  502    0  0.42597108990E+02 -0.35273528230E+02  0.34046940635E+03  0.34496411719E+03  0.47000000000E+01 0.  1.
         -5    1    1    2    0  502 -0.60897075118E+02  0.34517359781E+02  0.34815426777E+03  0.35515262360E+03  0.47000000000E+01 0.  1.
        -11    1    1    2    0    0 -0.81534456419E+01  0.30373135436E+02  0.33025375362E+02  0.45603524533E+02  0.00000000000E+00 0.  1.
         11    1    1    2    0    0  0.26453411770E+02 -0.29616966987E+02  0.23538436675E+03  0.23871059431E+03  0.00000000000E+00 0. -1.
<mgrwt>
<rscale>  0 0.11725989E+03</rscale>
<asrwt>0</asrwt>
<pdfrwt beam="1">  1        1 0.14934335E+00 0.12633640E+03</pdfrwt>
<pdfrwt beam="2">  1       -1 0.21074964E-02 0.12633640E+03</pdfrwt>
<totfact> 0.10251415E+04</totfact>
</mgrwt>
</event>
<event>
 6    1  0.9263730E-006  0.2041452E+03  0.7546771E-02  0.1178700E+00
         -1   -1    0    0    0  501 -0.00000000000E+00  0.00000000000E+00  0.15339100204E+02  0.15339100204E+02  0.00000000000E+00 0.  1.
          1   -1    0    0  501    0  0.00000000000E+00 -0.00000000000E+00 -0.21162032301E+04  0.21162032301E+04  0.00000000000E+00 0. -1.
          5    1    1    2  502    0 -0.51274226340E+02  0.95924624150E+02 -0.10185535631E+04  0.10243554220E+04  0.47000000000E+01 0. -1.
         -5    1    1    2    0  502  0.67493459935E+02 -0.67022316268E+02 -0.85542206960E+03  0.86070689853E+03  0.47000000000E+01 0.  1.
        -11    1    1    2    0    0  0.28430591137E+02 -0.26259034321E+02 -0.45861902073E+02  0.60009578049E+02  0.00000000000E+00 0.  1.
         11    1    1    2    0    0 -0.44649824733E+02 -0.26432735616E+01 -0.18102659515E+03  0.18647043169E+03  0.00000000000E+00 0. -1.
<mgrwt>
<rscale>  0 0.16918539E+03</rscale>
<asrwt>0</asrwt>
<pdfrwt beam="2">  1        1 0.32556972E+00 0.20414524E+03</pdfrwt>
<pdfrwt beam="1">  1       -1 0.23598616E-02 0.20414524E+03</pdfrwt>
<totfact> 0.15298071E+03</totfact>
</mgrwt>
</event>
<event>
 6    1  0.9263730E-006  0.1757981E+03  0.7546771E-02  0.1177912E+00
          2   -1    0    0  501    0  0.00000000000E+00  0.00000000000E+00  0.15229894677E+04  0.15229894677E+04  0.00000000000E+00 0. -1.
         -2   -1    0    0    0  501 -0.00000000000E+00 -0.00000000000E+00 -0.20892746925E+02  0.20892746925E+02  0.00000000000E+00 0.  1.
          5    1    1    2  502    0 -0.52642994530E+02  0.39259086922E+02  0.87862321308E+03  0.88108648914E+03  0.47000000000E+01 0.  1.
         -5    1    1    2    0  502 -0.34043416528E+01  0.70907286431E+02  0.21212215454E+03  0.22373495762E+03  0.47000000000E+01 0.  1.
        -11    1    1    2    0    0 -0.23038819090E+02 -0.21467190378E+02  0.54513051113E+02  0.62954747155E+02  0.00000000000E+00 0.  1.
         11    1    1    2    0    0  0.79086155273E+02 -0.88699182975E+02  0.35683830204E+03  0.37610602071E+03  0.00000000000E+00 0. -1.
<mgrwt>
<rscale>  0 0.16993887E+03</rscale>
<asrwt>0</asrwt>
<pdfrwt beam="1">  1        2 0.23430598E+00 0.17579810E+03</pdfrwt>
<pdfrwt beam="2">  1       -2 0.32142700E-02 0.17579810E+03</pdfrwt>
<totfact> 0.50266554E+03</totfact>
</mgrwt>
</event>
<event>
 6    1  0.9263730E-006  0.1592854E+03  0.7546771E-02  0.1197296E+00
          1   -1    0    0  501    0  0.00000000000E+00  0.00000000000E+00  0.18193040964E+03  0.18193040964E+03  0.00000000000E+00 0. -1.
         -1   -1    0    0    0  501 -0.00000000000E+00 -0.00000000000E+00 -0.12803126215E+03  0.12803126215E+03  0.00000000000E+00 0.  1.
          5    1    1    2  502    0 -0.47828534330E+02  0.78423603496E+01 -0.10423841820E+01  0.48705727351E+02  0.47000000000E+01 0.  1.
         -5    1    1    2    0  502  0.16522839412E+02 -0.10145208475E+03  0.72508652007E+02  0.12587741790E+03  0.47000000000E+01 0.  1.
        -11    1    1    2    0    0  0.25379862484E+02 -0.12212453241E+02 -0.17822911672E+01  0.28221587405E+02  0.00000000000E+00 0. -1.
         11    1    1    2    0    0  0.59258324345E+01  0.10582217764E+03 -0.15784829173E+02  0.10715693913E+03  0.00000000000E+00 0.  1.
<mgrwt>
<rscale>  0 0.15261513E+03</rscale>
<asrwt>0</asrwt>
<pdfrwt beam="1">  1        1 0.27989294E-01 0.15928543E+03</pdfrwt>
<pdfrwt beam="2">  1       -1 0.19697117E-01 0.15928543E+03</pdfrwt>
<totfact> 0.33275398E+03</totfact>
</mgrwt>
</event>
<event>
 6    1  0.9263730E-006  0.1315748E+03  0.7546771E-02  0.1238152E+00
         -2   -1    0    0    0  501 -0.00000000000E+00  0.00000000000E+00  0.13304671668E+03  0.13304671668E+03  0.00000000000E+00 0.  1.
          2   -1    0    0  501    0  0.00000000000E+00 -0.00000000000E+00 -0.11501056843E+03  0.11501056843E+03  0.00000000000E+00 0. -1.
          5    1    1    2  502    0  0.34759666993E+02  0.71484904766E+02  0.48733103428E+01  0.79775718189E+02  0.47000000000E+01 0.  1.
         -5    1    1    2    0  502 -0.78885733826E+01 -0.40417361837E+02 -0.37244172215E+02  0.55722626391E+02  0.47000000000E+01 0.  1.
        -11    1    1    2    0    0 -0.30066306786E+02  0.13047782636E+02  0.59008126691E+02  0.67499529265E+02  0.00000000000E+00 0.  1.
         11    1    1    2    0    0  0.31952131754E+01 -0.44115325565E+02 -0.86011165654E+01  0.45059411260E+02  0.00000000000E+00 0. -1.
<mgrwt>
<rscale>  0 0.12304769E+03</rscale>
<asrwt>0</asrwt>
<pdfrwt beam="2">  1        2 0.17693934E-01 0.13157480E+03</pdfrwt>
<pdfrwt beam="1">  1       -2 0.20468726E-01 0.13157480E+03</pdfrwt>
<totfact> 0.61288074E+03</totfact>
</mgrwt>
</event>
<event>
 6    1  0.9263730E-006  0.2573342E+03  0.7546771E-02  0.1108756E+00
          1   -1    0    0  501    0  0.00000000000E+00  0.00000000000E+00  0.79970170083E+03  0.79970170083E+03  0.00000000000E+00 0. -1.
         -1   -1    0    0    0  501 -0.00000000000E+00 -0.00000000000E+00 -0.20701751872E+02  0.20701751872E+02  0.00000000000E+00 0.  1.
          5    1    1    2  502    0 -0.66406168144E+01 -0.93094947210E+02  0.45338059761E+03  0.46291124773E+03  0.47000000000E+01 0. -1.
         -5    1    1    2    0  502  0.17961349219E+02  0.33699446865E+02  0.88970064998E+02  0.96933096775E+02  0.47000000000E+01 0. -1.
        -11    1    1    2    0    0 -0.48622115291E+02  0.29900147395E+02  0.91753388091E+02  0.10805930379E+03  0.00000000000E+00 0.  1.
         11    1    1    2    0    0  0.37301382887E+02  0.29495352950E+02  0.14489589826E+03  0.15249980441E+03  0.00000000000E+00 0. -1.
<mgrwt>
<rscale>  0 0.25733423E+03</rscale>
<asrwt>0</asrwt>
<pdfrwt beam="1">  1        1 0.12303101E+00 0.25733423E+03</pdfrwt>
<pdfrwt beam="2">  1       -1 0.31848855E-02 0.25733423E+03</pdfrwt>
<totfact> 0.79216849E+03</totfact>
</mgrwt>
</event>
<event>
 6    1  0.1907211E-005  0.3324541E+03  0.7546771E-02  0.1070056E+00
          1   -1    0    0  501    0  0.00000000000E+00  0.00000000000E+00  0.18946155941E+04  0.18946155941E+04  0.00000000000E+00 0. -1.
         -1   -1    0    0    0  501 -0.00000000000E+00 -0.00000000000E+00 -0.14584191256E+02  0.14584191256E+02  0.00000000000E+00 0.  1.
          5    1    1    2  502    0 -0.74842424675E+01 -0.21259227934E+02  0.71153538499E+02  0.74785591518E+02  0.47000000000E+01 0. -1.
         -5    1    1    2    0  502  0.34366473871E+01  0.14080193701E+03  0.11340958423E+04  0.11428177744E+04  0.47000000000E+01 0. -1.
        -11    1    1    2    0    0 -0.31955142256E+02 -0.10084103899E+03  0.55877311457E+03  0.56869802165E+03  0.00000000000E+00 0. -1.
         11    1    1    2    0    0  0.36002737336E+02 -0.18701670091E+02  0.11600890745E+03  0.12289839774E+03  0.00000000000E+00 0.  1.
<mgrwt>
<rscale>  0 0.33245412E+03</rscale>
<asrwt>0</asrwt>
<pdfrwt beam="1">  1        1 0.29147913E+00 0.33245412E+03</pdfrwt>
<pdfrwt beam="2">  1       -1 0.22437232E-02 0.33245412E+03</pdfrwt>
<totfact> 0.22827697E+03</totfact>
</mgrwt>
</event>
<event>
 6    1  0.9524401E-006  0.1509416E+03  0.7546771E-02  0.1207580E+00
          1   -1    0    0  501    0  0.00000000000E+00  0.00000000000E+00  0.17465963373E+03  0.17465963373E+03  0.00000000000E+00 0. -1.
         -1   -1    0    0    0  501 -0.00000000000E+00 -0.00000000000E+00 -0.11192860132E+03  0.11192860132E+03  0.00000000000E+00 0.  1.
          5    1    1    2  502    0  0.27817026893E+02 -0.67645163315E+02 -0.21455705802E+02  0.76368137443E+02  0.47000000000E+01 0.  1.
         -5    1    1    2    0  502  0.36007878111E+02  0.12100290965E+02  0.74258455157E+02  0.83542758453E+02  0.47000000000E+01 0.  1.
        -11    1    1    2    0    0  0.11326573064E+02  0.29936708012E+02 -0.24331748564E+02  0.40206115606E+02  0.00000000000E+00 0.  1.
         11    1    1    2    0    0 -0.75151478068E+02  0.25608164339E+02  0.34260031615E+02  0.86471223554E+02  0.00000000000E+00 0. -1.
<mgrwt>
<rscale>  0 0.14436002E+03</rscale>
<asrwt>0</asrwt>
<pdfrwt beam="1">  1        1 0.26870713E-01 0.15094159E+03</pdfrwt>
<pdfrwt beam="2">  1       -1 0.17219785E-01 0.15094159E+03</pdfrwt>
<totfact> 0.43295912E+03</totfact>
</mgrwt>
</event>
<event>
 6    1  0.9263730E-006  0.1321556E+03  0.7546771E-02  0.1240292E+00
          1   -1    0    0  501    0  0.00000000000E+00  0.00000000000E+00  0.53788861447E+03  0.53788861447E+03  0.00000000000E+00 0. -1.
         -1   -1    0    0    0  501 -0.00000000000E+00 -0.00000000000E+00 -0.24026664447E+02  0.24026664447E+02  0.00000000000E+00 0.  1.
          5    1    1    2  502    0  0.47040474082E+02 -0.67290097441E+01  0.73612318289E+02  0.87743656054E+02  0.47000000000E+01 0.  1.
         -5    1    1    2    0  502 -0.64388526201E+02  0.45946396754E+02  0.23409686543E+03  0.24714446400E+03  0.47000000000E+01 0.  1.
        -11    1    1    2    0    0 -0.24406424696E+02  0.21192009001E+01  0.19398558991E+02  0.31248498681E+02  0.00000000000E+00 0.  1.
         11    1    1    2    0    0  0.41754476815E+02 -0.41336587910E+02  0.18675420731E+03  0.19577866018E+03  0.00000000000E+00 0. -1.
<mgrwt>
<rscale>  0 0.12171652E+03</rscale>
<asrwt>0</asrwt>
<pdfrwt beam="1">  1        1 0.82752086E-01 0.13215563E+03</pdfrwt>
<pdfrwt beam="2">  1       -1 0.36964103E-02 0.13215563E+03</pdfrwt>
<totfact> 0.10756485E+04</totfact>
</mgrwt>
</event>
<event>
 6    1  0.9263730E-006  0.1720606E+03  0.7546771E-02  0.1195848E+00
          3   -1    0    0  501    0  0.00000000000E+00  0.00000000000E+00  0.22293815155E+03  0.22293815155E+03  0.00000000000E+00 0. -1.
         -3   -1    0    0    0  501 -0.00000000000E+00 -0.00000000000E+00 -0.16228631834E+03  0.16228631834E+03  0.00000000000E+00 0.  1.
          5    1    1    2  502    0  0.73011123808E+02 -0.57523639880E+01  0.85116687168E+02  0.11238618387E+03  0.47000000000E+01 0. -1.
         -5    1    1    2    0  502 -0.79339472934E+02 -0.55904145679E+02  0.76433180983E+02  0.12362906869E+03  0.47000000000E+01 0.  1.
        -11    1    1    2    0    0 -0.62788669613E+01  0.36742925094E+02 -0.11284253757E+03  0.11883982918E+03  0.00000000000E+00 0.  1.
         11    1    1    2    0    0  0.12607216088E+02  0.24913584573E+02  0.11944502631E+02  0.30369388154E+02  0.00000000000E+00 0. -1.
<mgrwt>
<rscale>  0 0.15382707E+03</rscale>
<asrwt>0</asrwt>
<pdfrwt beam="1">  1        3 0.34298177E-01 0.17206057E+03</pdfrwt>
<pdfrwt beam="2">  1       -3 0.24967126E-01 0.17206057E+03</pdfrwt>
<totfact> 0.30160304E+02</totfact>
</mgrwt>
</event>
<event>
 6    1  0.9263730E-006  0.1495105E+03  0.7546771E-02  0.1214081E+00
         -1   -1    0    0    0  501 -0.00000000000E+00  0.00000000000E+00  0.13498300152E+03  0.13498300152E+03  0.00000000000E+00 0.  1.
          1   -1    0    0  501    0  0.00000000000E+00 -0.00000000000E+00 -0.20003089087E+03  0.20003089087E+03  0.00000000000E+00 0. -1.
          5    1    1    2  502    0  0.38122469939E+02  0.71947617660E+02 -0.13201065341E+03  0.15517308083E+03  0.47000000000E+01 0. -1.
         -5    1    1    2    0  502 -0.12830862435E+02 -0.44400584569E+02 -0.34615769432E+01  0.46584498020E+02  0.47000000000E+01 0.  1.
        -11    1    1    2    0    0 -0.24645809056E+02 -0.68175182790E+02  0.45248613455E+02  0.85455886117E+02  0.00000000000E+00 0.  1.
         11    1    1    2    0    0 -0.64579844842E+00  0.40628149700E+02  0.25175727552E+02  0.47800427419E+02  0.00000000000E+00 0. -1.
<mgrwt>
<rscale>  0 0.13944249E+03</rscale>
<asrwt>0</asrwt>
<pdfrwt beam="2">  1        1 0.30773983E-01 0.14951052E+03</pdfrwt>
<pdfrwt beam="1">  1       -1 0.20766616E-01 0.14951052E+03</pdfrwt>
<totfact> 0.27061927E+03</totfact>
</mgrwt>
</event>
<event>
 6    1  0.9263730E-006  0.1525685E+03  0.7546771E-02  0.1215496E+00
         -1   -1    0    0    0  501 -0.00000000000E+00  0.00000000000E+00  0.37071835488E+02  0.37071835488E+02  0.00000000000E+00 0.  1.
          1   -1    0    0  501    0  0.00000000000E+00 -0.00000000000E+00 -0.98066670283E+03  0.98066670283E+03  0.00000000000E+00 0. -1.
          5    1    1    2  502    0  0.16277968915E+02 -0.23931840692E+02 -0.63382692365E+03  0.63450481828E+03  0.47000000000E+01 0. -1.
         -5    1    1    2    0  502 -0.46167668511E+02  0.65177683378E+02 -0.25299511169E+03  0.26534543630E+03  0.47000000000E+01 0.  1.
        -11    1    1    2    0    0  0.55607811272E+02 -0.60640687702E+01 -0.47383028366E+02  0.73308614649E+02  0.00000000000E+00 0.  1.
         11    1    1    2    0    0 -0.25718111675E+02 -0.35181773916E+02 -0.93898036322E+01  0.44579669091E+02  0.00000000000E+00 0. -1.
<mgrwt>
<rscale>  0 0.13840193E+03</rscale>
<asrwt>0</asrwt>
<pdfrwt beam="2">  1        1 0.15087179E+00 0.15256854E+03</pdfrwt>
<pdfrwt beam="1">  1       -1 0.57033595E-02 0.15256854E+03</pdfrwt>
<totfact> 0.23644008E+03</totfact>
</mgrwt>
</event>
<event>
 6    1  0.9263730E-006  0.1375912E+03  0.7546771E-02  0.1221908E+00
          1   -1    0    0  501    0  0.00000000000E+00  0.00000000000E+00  0.38547060394E+03  0.38547060394E+03  0.00000000000E+00 0. -1.
         -1   -1    0    0    0  501 -0.00000000000E+00 -0.00000000000E+00 -0.62991980498E+02  0.62991980498E+02  0.00000000000E+00 0.  1.
          5    1    1    2  502    0 -0.32666374993E+02  0.80996868004E+02  0.23886798326E+03  0.25437686237E+03  0.47000000000E+01 0. -1.
         -5    1    1    2    0  502 -0.30120776427E+02 -0.29964313850E+02  0.51412047790E+02  0.66861124243E+02  0.47000000000E+01 0.  1.
        -11    1    1    2    0    0 -0.25343635178E+01 -0.32380965128E+02  0.47545349096E+02  0.57580466495E+02  0.00000000000E+00 0. -1.
         11    1    1    2    0    0  0.65321514937E+02 -0.18651589026E+02 -0.15346756709E+02  0.69644131328E+02  0.00000000000E+00 0.  1.
<mgrwt>
<rscale>  0 0.13381116E+03</rscale>
<asrwt>0</asrwt>
<pdfrwt beam="1">  1        1 0.59303168E-01 0.13759123E+03</pdfrwt>
<pdfrwt beam="2">  1       -1 0.96910742E-02 0.13759123E+03</pdfrwt>
<totfact> 0.39321416E+03</totfact>
</mgrwt>
</event>
<event>
 6    1  0.9263730E-006  0.1375144E+03  0.7546771E-02  0.1229436E+00
         -1   -1    0    0    0  501 -0.00000000000E+00  0.00000000000E+00  0.11987433653E+02  0.11987433653E+02  0.00000000000E+00 0.  1.
          1   -1    0    0  501    0  0.00000000000E+00 -0.00000000000E+00 -0.12799644149E+04  0.12799644149E+04  0.00000000000E+00 0. -1.
          5    1    1    2  502    0 -0.29555239737E+02 -0.16043359387E+02 -0.44585199738E+03  0.44714314838E+03  0.47000000000E+01 0.  1.
         -5    1    1    2    0  502  0.86820061987E+02  0.18302044411E+02 -0.39418163114E+03  0.40407169701E+03  0.47000000000E+01 0.  1.
        -11    1    1    2    0    0 -0.62121619259E+02 -0.32581428601E+02 -0.35003749562E+03  0.35699704958E+03  0.00000000000E+00 0. -1.
         11    1    1    2    0    0  0.48567970081E+01  0.30322743577E+02 -0.77905857120E+02  0.83739953599E+02  0.00000000000E+00 0.  1.
<mgrwt>
<rscale>  0 0.12867465E+03</rscale>
<asrwt>0</asrwt>
<pdfrwt beam="2">  1        1 0.19691744E+00 0.13751442E+03</pdfrwt>
<pdfrwt beam="1">  1       -1 0.18442221E-02 0.13751442E+03</pdfrwt>
<totfact> 0.75792337E+03</totfact>
</mgrwt>
</event>
<event>
 6    1  0.9263730E-006  0.1306632E+03  0.7546771E-02  0.1232662E+00
         -1   -1    0    0    0  501 -0.00000000000E+00  0.00000000000E+00  0.16275486779E+02  0.16275486779E+02  0.00000000000E+00 0.  1.
          1   -1    0    0  501    0  0.00000000000E+00 -0.00000000000E+00 -0.27940388084E+04  0.27940388084E+04  0.00000000000E+00 0. -1.
          5    1    1    2  502    0 -0.72276678196E+02  0.17789106305E-01 -0.10966179855E+04  0.10990072860E+04  0.47000000000E+01 0. -1.
         -5    1    1    2    0  502  0.22056566952E+02 -0.47334200016E+02 -0.14695772632E+04  0.14705123057E+04  0.47000000000E+01 0.  1.
        -11    1    1    2    0    0 -0.26645142525E+02  0.48878661380E+01 -0.45817909605E+02  0.53227208232E+02  0.00000000000E+00 0. -1.
         11    1    1    2    0    0  0.76865253769E+02  0.42428544772E+02 -0.16575016333E+03  0.18756749530E+03  0.00000000000E+00 0.  1.
<mgrwt>
<rscale>  0 0.12655323E+03</rscale>
<asrwt>0</asrwt>
<pdfrwt beam="2">  1        1 0.42985169E+00 0.13066322E+03</pdfrwt>
<pdfrwt beam="1">  1       -1 0.25039236E-02 0.13066322E+03</pdfrwt>
<totfact> 0.51119899E+02</totfact>
</mgrwt>
</event>
<event>
 6    1  0.9263730E-006  0.1165533E+03  0.7546771E-02  0.1259278E+00
         -1   -1    0    0    0  501 -0.00000000000E+00  0.00000000000E+00  0.80770584744E+02  0.80770584744E+02  0.00000000000E+00 0.  1.
          1   -1    0    0  501    0  0.00000000000E+00 -0.00000000000E+00 -0.13970617541E+03  0.13970617541E+03  0.00000000000E+00 0. -1.
          5    1    1    2  502    0 -0.60309066824E+02 -0.55340017806E+01 -0.44735157811E+02  0.75439598761E+02  0.47000000000E+01 0. -1.
         -5    1    1    2    0  502  0.35374196306E+02 -0.67944302776E+01  0.23177756046E+02  0.43090560711E+02  0.47000000000E+01 0.  1.
        -11    1    1    2    0    0 -0.16124433675E+02  0.41172146773E+02 -0.12558413211E+02  0.45965821799E+02  0.00000000000E+00 0.  1.
         11    1    1    2    0    0  0.41059304192E+02 -0.28843714715E+02 -0.24819775695E+02  0.55980778888E+02  0.00000000000E+00 0. -1.
<mgrwt>
<rscale>  0 0.11070049E+03</rscale>
<asrwt>0</asrwt>
<pdfrwt beam="2">  1        1 0.21493258E-01 0.11655332E+03</pdfrwt>
<pdfrwt beam="1">  1       -1 0.12426244E-01 0.11655332E+03</pdfrwt>
<totfact> 0.93795812E+03</totfact>
</mgrwt>
</event>
<event>
 6    1  0.9263730E-006  0.1449587E+03  0.7546771E-02  0.1232569E+00
         -2   -1    0    0    0  501 -0.00000000000E+00  0.00000000000E+00  0.13279314519E+03  0.13279314519E+03  0.00000000000E+00 0.  1.
          2   -1    0    0  501    0  0.00000000000E+00 -0.00000000000E+00 -0.12627547392E+03  0.12627547392E+03  0.00000000000E+00 0. -1.
          5    1    1    2  502    0 -0.30613839389E+02  0.32718129183E+02 -0.85824095593E+02  0.96930637693E+02  0.47000000000E+01 0. -1.
         -5    1    1    2    0  502  0.29868730368E+02 -0.38340169058E+02  0.31237329638E+02  0.57965251489E+02  0.47000000000E+01 0.  1.
        -11    1    1    2    0    0 -0.90327554698E+01 -0.34560276499E+02  0.49825634001E+02  0.61307399119E+02  0.00000000000E+00 0.  1.
         11    1    1    2    0    0  0.97778644904E+01  0.40182316375E+02  0.11278803230E+02  0.42865330811E+02  0.00000000000E+00 0. -1.
<mgrwt>
<rscale>  0 0.12661335E+03</rscale>
<asrwt>0</asrwt>
<pdfrwt beam="2">  1        2 0.19426996E-01 0.14495869E+03</pdfrwt>
<pdfrwt beam="1">  1       -2 0.20429715E-01 0.14495869E+03</pdfrwt>
<totfact> 0.55625815E+03</totfact>
</mgrwt>
</event>
<event>
 6    1  0.9263730E-006  0.2244421E+03  0.7546771E-02  0.1133889E+00
          2   -1    0    0  501    0  0.00000000000E+00  0.00000000000E+00  0.23258182528E+03  0.23258182528E+03  0.00000000000E+00 0. -1.
         -2   -1    0    0    0  501 -0.00000000000E+00 -0.00000000000E+00 -0.20465768946E+03  0.20465768946E+03  0.00000000000E+00 0.  1.
          5    1    1    2  502    0 -0.30642267180E+02 -0.16048886610E+03  0.64702166949E+02  0.17579557756E+03  0.47000000000E+01 0.  1.
         -5    1    1    2    0  502 -0.49455865284E+02 -0.78190849649E+01 -0.18072817947E+02  0.53439100378E+02  0.47000000000E+01 0.  1.
        -11    1    1    2    0    0  0.23031066626E+02  0.92420654581E+02 -0.50584090072E+02  0.10784599015E+03  0.00000000000E+00 0.  1.
         11    1    1    2    0    0  0.57067065838E+02  0.75887296487E+02  0.31878876887E+02  0.10015884665E+03  0.00000000000E+00 0. -1.
<mgrwt>
<rscale>  0 0.21999143E+03</rscale>
<asrwt>0</asrwt>
<pdfrwt beam="1">  1        2 0.35781819E-01 0.22444207E+03</pdfrwt>
<pdfrwt beam="2">  1       -2 0.31485798E-01 0.22444207E+03</pdfrwt>
<totfact> 0.13446463E+03</totfact>
</mgrwt>
</event>
<event>
 6    1  0.9263730E-006  0.1300598E+03  0.7546771E-02  0.1241219E+00
         -1   -1    0    0    0  501 -0.00000000000E+00  0.00000000000E+00  0.35793910263E+03  0.35793910263E+03  0.00000000000E+00 0.  1.
          1   -1    0    0  501    0  0.00000000000E+00 -0.00000000000E+00 -0.36361844373E+02  0.36361844373E+02  0.00000000000E+00 0. -1.
          5    1    1    2  502    0 -0.46636004101E+02 -0.13631099507E+02  0.18160375534E+03  0.18804982772E+03  0.47000000000E+01 0.  1.
         -5    1    1    2    0  502  0.12905481356E+02  0.25992360351E+02 -0.64640120286E+01  0.30100293971E+02  0.47000000000E+01 0.  1.
        -11    1    1    2    0    0  0.23260000255E+02 -0.32748190529E+02  0.15232677298E+02  0.42959353492E+02  0.00000000000E+00 0. -1.
         11    1    1    2    0    0  0.10470522490E+02  0.20386929685E+02  0.13120483765E+03  0.13319147182E+03  0.00000000000E+00 0.  1.
<mgrwt>
<rscale>  0 0.12114548E+03</rscale>
<asrwt>0</asrwt>
<pdfrwt beam="2">  1        1 0.55941302E-02 0.13005978E+03</pdfrwt>
<pdfrwt beam="1">  1       -1 0.55067552E-01 0.13005978E+03</pdfrwt>
<totfact> 0.46482101E+03</totfact>
</mgrwt>
</event>
<event>
 6    1  0.9263730E-006  0.1682020E+03  0.7546771E-02  0.1187201E+00
          1   -1    0    0  501    0  0.00000000000E+00  0.00000000000E+00  0.36229223961E+03  0.36229223961E+03  0.00000000000E+00 0. -1.
         -1   -1    0    0    0  501 -0.00000000000E+00 -0.00000000000E+00 -0.66713797413E+02  0.66713797413E+02  0.00000000000E+00 0.  1.
          5    1    1    2  502    0 -0.80953822427E+02 -0.80550399200E+02  0.70312632749E+02  0.13419331019E+03  0.47000000000E+01 0.  1.
         -5    1    1    2    0  502  0.37587203943E+02 -0.23304224684E+02  0.79297958782E+02  0.90918320791E+02  0.47000000000E+01 0.  1.
        -11    1    1    2    0    0  0.29086453957E+02  0.10982184882E+03  0.87459613124E+02  0.14337379192E+03  0.00000000000E+00 0.  1.
         11    1    1    2    0    0  0.14280164527E+02 -0.59672249405E+01  0.58508237538E+02  0.60520614109E+02  0.00000000000E+00 0. -1.
<mgrwt>
<rscale>  0 0.16133190E+03</rscale>
<asrwt>0</asrwt>
<pdfrwt beam="1">  1        1 0.55737267E-01 0.16820201E+03</pdfrwt>
<pdfrwt beam="2">  1       -1 0.10263661E-01 0.16820201E+03</pdfrwt>
<totfact> 0.39303541E+03</totfact>
</mgrwt>
</event>
<event>
 6    1  0.9263730E-006  0.1261381E+03  0.7546771E-02  0.1247127E+00
         -2   -1    0    0    0  501 -0.00000000000E+00  0.00000000000E+00  0.10707577956E+02  0.10707577956E+02  0.00000000000E+00 0. -1.
          2   -1    0    0  501    0  0.00000000000E+00 -0.00000000000E+00 -0.19622617005E+04  0.19622617005E+04  0.00000000000E+00 0.  1.
          5    1    1    2  502    0  0.31781007811E+02  0.25542483557E+02 -0.22166076286E+03  0.22542855790E+03  0.47000000000E+01 0. -1.
         -5    1    1    2    0  502 -0.47909731638E+02 -0.20828928541E+02 -0.14666764873E+04  0.14676141165E+04  0.47000000000E+01 0. -1.
        -11    1    1    2    0    0  0.51645097010E+02 -0.80628894901E+01 -0.20576218939E+03  0.21229767972E+03  0.00000000000E+00 0.  1.
         11    1    1    2    0    0 -0.35516373183E+02  0.33493344744E+01 -0.57454683033E+02  0.67628924344E+02  0.00000000000E+00 0. -1.
<mgrwt>
<rscale>  0 0.11758997E+03</rscale>
<asrwt>0</asrwt>
<pdfrwt beam="2">  1        2 0.30188605E+00 0.12613813E+03</pdfrwt>
<pdfrwt beam="1">  1       -2 0.16473217E-02 0.12613813E+03</pdfrwt>
<totfact> 0.78701606E+03</totfact>
</mgrwt>
</event>
<event>
 6    1  0.9263730E-006  0.1513857E+03  0.7546771E-02  0.1207743E+00
          1   -1    0    0  501    0  0.00000000000E+00  0.00000000000E+00  0.12379267342E+03  0.12379267342E+03  0.00000000000E+00 0. -1.
         -1   -1    0    0    0  501 -0.00000000000E+00 -0.00000000000E+00 -0.15655892150E+03  0.15655892150E+03  0.00000000000E+00 0.  1.
          5    1    1    2  502    0  0.80973257854E+02 -0.78873245286E+02 -0.93501901701E+01  0.11352168676E+03  0.47000000000E+01 0. -1.
         -5    1    1    2    0  502 -0.35837824693E+02  0.63615158330E+01  0.93154739457E+01  0.37864054422E+02  0.47000000000E+01 0. -1.
        -11    1    1    2    0    0 -0.56554263039E+02  0.70475214275E+02 -0.53620360515E+02  0.10507275364E+03  0.00000000000E+00 0.  1.
         11    1    1    2    0    0  0.11418829877E+02  0.20365151782E+01  0.20888828655E+02  0.23893100100E+02  0.00000000000E+00 0. -1.
<mgrwt>
<rscale>  0 0.14423407E+03</rscale>
<asrwt>0</asrwt>
<pdfrwt beam="1">  1        1 0.19045027E-01 0.15138574E+03</pdfrwt>
<pdfrwt beam="2">  1       -1 0.24085988E-01 0.15138574E+03</pdfrwt>
<totfact> 0.38966664E+03</totfact>
</mgrwt>
</event>
<event>
 6    1  0.9263730E-006  0.1579640E+03  0.7546771E-02  0.1199449E+00
          1   -1    0    0  501    0  0.00000000000E+00  0.00000000000E+00  0.10207692395E+04  0.10207692395E+04  0.00000000000E+00 0. -1.
         -1   -1    0    0    0  501 -0.00000000000E+00 -0.00000000000E+00 -0.43953304134E+02  0.43953304134E+02  0.00000000000E+00 0.  1.
          5    1    1    2  502    0  0.14419445131E+02  0.27881244468E+02  0.40856104885E+02  0.51735824120E+02  0.47000000000E+01 0.  1.
         -5    1    1    2    0  502  0.65443627553E+02  0.26422805896E+02  0.85666234847E+03  0.85957751386E+03  0.47000000000E+01 0.  1.
        -11    1    1    2    0    0 -0.29829259297E+02 -0.50871851952E+01 -0.16645812037E+02  0.34536172657E+02  0.00000000000E+00 0.  1.
         11    1    1    2    0    0 -0.50033813387E+02 -0.49216865169E+02  0.95943294040E+02  0.11887303298E+03  0.00000000000E+00 0. -1.
<mgrwt>
<rscale>  0 0.15083619E+03</rscale>
<asrwt>0</asrwt>
<pdfrwt beam="1">  1        1 0.15704140E+00 0.15796400E+03</pdfrwt>
<pdfrwt beam="2">  1       -1 0.67620476E-02 0.15796400E+03</pdfrwt>
<totfact> 0.17129911E+03</totfact>
</mgrwt>
</event>
<event>
 6    1  0.9263730E-006  0.2366103E+03  0.7546771E-02  0.1158376E+00
         -2   -1    0    0    0  501 -0.00000000000E+00  0.00000000000E+00  0.87104203597E+02  0.87104203597E+02  0.00000000000E+00 0. -1.
          2   -1    0    0  501    0  0.00000000000E+00 -0.00000000000E+00 -0.36764024007E+03  0.36764024007E+03  0.00000000000E+00 0.  1.
          5    1    1    2  502    0  0.57641332602E+02 -0.11468673307E+03 -0.21890775102E+03  0.25380753224E+03  0.47000000000E+01 0.  1.
         -5    1    1    2    0  502 -0.43651877627E+02  0.78798464524E+02 -0.45565335319E+02  0.10105926090E+03  0.47000000000E+01 0. -1.
        -11    1    1    2    0    0  0.58923215631E+00  0.63365210085E+02 -0.24025573580E+02  0.67769648291E+02  0.00000000000E+00 0.  1.
         11    1    1    2    0    0 -0.14578687131E+02 -0.27476941543E+02  0.79626234481E+01  0.32108002230E+02  0.00000000000E+00 0. -1.
<mgrwt>
<rscale>  0 0.19009456E+03</rscale>
<asrwt>0</asrwt>
<pdfrwt beam="2">  1        2 0.56560036E-01 0.23661029E+03</pdfrwt>
<pdfrwt beam="1">  1       -2 0.13400647E-01 0.23661029E+03</pdfrwt>
<totfact> 0.35783309E+03</totfact>
</mgrwt>
</event>
<event>
 6    1  0.1036443E-005  0.3757265E+03  0.7546771E-02  0.1052525E+00
          1   -1    0    0  501    0  0.00000000000E+00  0.00000000000E+00  0.29455684399E+03  0.29455684399E+03  0.00000000000E+00 0.  1.
         -1   -1    0    0    0  501 -0.00000000000E+00 -0.00000000000E+00 -0.11981589512E+03  0.11981589512E+03  0.00000000000E+00 0. -1.
          5    1    1    2  502    0 -0.19101947678E+02  0.48958842915E+01 -0.10389101152E+02  0.22778883003E+02  0.47000000000E+01 0.  1.
         -5    1    1    2    0  502  0.51280414414E+02 -0.15665211179E+03  0.12631702326E+03  0.20772011312E+03  0.47000000000E+01 0.  1.
        -11    1    1    2    0    0  0.96620844802E+01  0.12308083717E+03  0.43253189818E+02  0.13081699730E+03  0.00000000000E+00 0.  1.
         11    1    1    2    0    0 -0.41840551216E+02  0.28675390327E+02  0.15559836950E+02  0.53056745682E+02  0.00000000000E+00 0. -1.
<mgrwt>
<rscale>  0 0.37572645E+03</rscale>
<asrwt>0</asrwt>
<pdfrwt beam="1">  1        1 0.45316437E-01 0.37572645E+03</pdfrwt>
<pdfrwt beam="2">  1       -1 0.18433215E-01 0.37572645E+03</pdfrwt>
<totfact> 0.20753615E+03</totfact>
</mgrwt>
</event>
<event>
 6    1  0.9263730E-006  0.2734530E+03  0.7546771E-02  0.1099319E+00
          1   -1    0    0  501    0  0.00000000000E+00  0.00000000000E+00  0.34376118473E+02  0.34376118473E+02  0.00000000000E+00 0. -1.
         -1   -1    0    0    0  501 -0.00000000000E+00 -0.00000000000E+00 -0.54381153740E+03  0.54381153740E+03  0.00000000000E+00 0.  1.
          5    1    1    2  502    0 -0.24242598127E+02 -0.20363879863E+02 -0.24208564745E+02  0.40131481085E+02  0.47000000000E+01 0. -1.
         -5    1    1    2    0  502  0.10475414115E+03  0.32270855748E+02 -0.17445794557E+03  0.20608858045E+03  0.47000000000E+01 0.  1.
        -11    1    1    2    0    0 -0.53349706591E+02  0.34086216189E+02 -0.16971418416E+03  0.18113797402E+03  0.00000000000E+00 0.  1.
         11    1    1    2    0    0 -0.27161836431E+02 -0.45993192073E+02 -0.14105472445E+03  0.15082962032E+03  0.00000000000E+00 0. -1.
<mgrwt>
<rscale>  0 0.27345296E+03</rscale>
<asrwt>0</asrwt>
<pdfrwt beam="1">  1        1 0.52886334E-02 0.27345296E+03</pdfrwt>
<pdfrwt beam="2">  1       -1 0.83663317E-01 0.27345296E+03</pdfrwt>
<totfact> 0.22817520E+03</totfact>
</mgrwt>
</event>
<event>
 6    1  0.9263730E-006  0.1297486E+03  0.7546771E-02  0.1241910E+00
         -2   -1    0    0    0  501 -0.00000000000E+00  0.00000000000E+00  0.11027008742E+03  0.11027008742E+03  0.00000000000E+00 0. -1.
          2   -1    0    0  501    0  0.00000000000E+00 -0.00000000000E+00 -0.11925842543E+03  0.11925842543E+03  0.00000000000E+00 0.  1.
          5    1    1    2  502    0 -0.42976848340E+02 -0.17786338082E+02 -0.39100678194E+02  0.60945191368E+02  0.47000000000E+01 0. -1.
         -5    1    1    2    0  502  0.43348892196E+02  0.52567160787E+02  0.17706927440E+02  0.70555355057E+02  0.47000000000E+01 0. -1.
        -11    1    1    2    0    0  0.15455130392E+02  0.14661674080E+02 -0.25882419201E+02  0.33522013155E+02  0.00000000000E+00 0.  1.
         11    1    1    2    0    0 -0.15827174248E+02 -0.49442496785E+02  0.38287831947E+02  0.64505953277E+02  0.00000000000E+00 0. -1.
<mgrwt>
<rscale>  0 0.12072247E+03</rscale>
<asrwt>0</asrwt>
<pdfrwt beam="2">  1        2 0.18347450E-01 0.12974861E+03</pdfrwt>
<pdfrwt beam="1">  1       -2 0.16964629E-01 0.12974861E+03</pdfrwt>
<totfact> 0.80445825E+03</totfact>
</mgrwt>
</event>
<event>
 6    1  0.9263730E-006  0.1232682E+03  0.7546771E-02  0.1248391E+00
          2   -1    0    0  501    0  0.00000000000E+00  0.00000000000E+00  0.40869051857E+03  0.40869051857E+03  0.00000000000E+00 0. -1.
         -2   -1    0    0    0  501 -0.00000000000E+00 -0.00000000000E+00 -0.39952039292E+02  0.39952039292E+02  0.00000000000E+00 0.  1.
          5    1    1    2  502    0  0.65408745774E+01 -0.28482272337E+02  0.21685514239E+03  0.21886586225E+03  0.47000000000E+01 0. -1.
         -5    1    1    2    0  502 -0.43933451945E+00  0.66583409970E+02  0.91873469965E+02  0.11356217672E+03  0.47000000000E+01 0.  1.
        -11    1    1    2    0    0 -0.22209112964E+02 -0.55910427531E+02  0.68107687175E+02  0.90872865354E+02  0.00000000000E+00 0. -1.
         11    1    1    2    0    0  0.16107572906E+02  0.17809289898E+02 -0.80978202465E+01  0.25341653543E+02  0.00000000000E+00 0.  1.
<mgrwt>
<rscale>  0 0.11684712E+03</rscale>
<asrwt>0</asrwt>
<pdfrwt beam="1">  1        2 0.62875462E-01 0.12326818E+03</pdfrwt>
<pdfrwt beam="2">  1       -2 0.61464679E-02 0.12326818E+03</pdfrwt>
<totfact> 0.10471132E+04</totfact>
</mgrwt>
</event>
<event>
 6    1  0.9263730E-006  0.1863761E+03  0.7546771E-02  0.1186688E+00
         -1   -1    0    0    0  501 -0.00000000000E+00  0.00000000000E+00  0.56824132033E+02  0.56824132033E+02  0.00000000000E+00 0.  1.
          1   -1    0    0  501    0  0.00000000000E+00 -0.00000000000E+00 -0.37963218461E+03  0.37963218461E+03  0.00000000000E+00 0. -1.
          5    1    1    2  502    0  0.44604968714E+02  0.62013262199E+02 -0.31271881016E+02  0.82675682427E+02  0.47000000000E+01 0. -1.
         -5    1    1    2    0  502 -0.76244710588E+02 -0.20045939371E+02 -0.19555089141E+03  0.21089650710E+03  0.47000000000E+01 0.  1.
        -11    1    1    2    0    0  0.18252062471E+02  0.28212946117E+02 -0.39123161027E+02  0.51572568695E+02  0.00000000000E+00 0. -1.
         11    1    1    2    0    0  0.13387679403E+02 -0.70180268945E+02 -0.56862119124E+02  0.91311558415E+02  0.00000000000E+00 0.  1.
<mgrwt>
<rscale>  0 0.16179237E+03</rscale>
<asrwt>0</asrwt>
<pdfrwt beam="2">  1        1 0.58404951E-01 0.18637613E+03</pdfrwt>
<pdfrwt beam="1">  1       -1 0.87421742E-02 0.18637613E+03</pdfrwt>
<totfact> 0.47598500E+03</totfact>
</mgrwt>
</event>
<event>
 6    1  0.9263730E-006  0.3144591E+03  0.7546771E-02  0.1078228E+00
          1   -1    0    0  501    0  0.00000000000E+00  0.00000000000E+00  0.16946002271E+04  0.16946002271E+04  0.00000000000E+00 0. -1.
         -1   -1    0    0    0  501 -0.00000000000E+00 -0.00000000000E+00 -0.14588180887E+02  0.14588180887E+02  0.00000000000E+00 0.  1.
          5    1    1    2  502    0  0.78572786546E+02 -0.51089599573E+02  0.94299703148E+03  0.94765464245E+03  0.47000000000E+01 0. -1.
         -5    1    1    2    0  502  0.28883237383E+02  0.18022682736E+02  0.58840841969E+02  0.68142447698E+02  0.47000000000E+01 0. -1.
        -11    1    1    2    0    0 -0.64652524425E+02 -0.24007855408E+02  0.41626903146E+03  0.42194339975E+03  0.00000000000E+00 0. -1.
         11    1    1    2    0    0 -0.42803499505E+02  0.57074772246E+02  0.26190514126E+03  0.27144791805E+03  0.00000000000E+00 0.  1.
<mgrwt>
<rscale>  0 0.31445912E+03</rscale>
<asrwt>0</asrwt>
<pdfrwt beam="1">  1        1 0.26070757E+00 0.31445912E+03</pdfrwt>
<pdfrwt beam="2">  1       -1 0.22443369E-02 0.31445912E+03</pdfrwt>
<totfact> 0.30853108E+03</totfact>
</mgrwt>
</event>
<event>
 6    1  0.9263730E-006  0.1437901E+03  0.7546771E-02  0.1215129E+00
          1   -1    0    0  501    0  0.00000000000E+00  0.00000000000E+00  0.79640050882E+02  0.79640050882E+02  0.00000000000E+00 0. -1.
         -1   -1    0    0    0  501 -0.00000000000E+00 -0.00000000000E+00 -0.22612270188E+03  0.22612270188E+03  0.00000000000E+00 0.  1.
          5    1    1    2  502    0 -0.34344281510E+02 -0.67050636766E+02  0.79480840510E+01  0.75898482220E+02  0.47000000000E+01 0.  1.
         -5    1    1    2    0  502 -0.19018083885E+02  0.20097815375E+02 -0.80310326282E+02  0.85073193222E+02  0.47000000000E+01 0.  1.
        -11    1    1    2    0    0  0.41610533920E+02  0.45942716275E+02 -0.99258580618E+02  0.11702322649E+03  0.00000000000E+00 0.  1.
         11    1    1    2    0    0  0.11751831476E+02  0.10101051164E+01  0.25138171854E+02  0.27767850827E+02  0.00000000000E+00 0. -1.
<mgrwt>
<rscale>  0 0.13867084E+03</rscale>
<asrwt>0</asrwt>
<pdfrwt beam="1">  1        1 0.12252316E-01 0.14379008E+03</pdfrwt>
<pdfrwt beam="2">  1       -1 0.34788107E-01 0.14379008E+03</pdfrwt>
<totfact> 0.37156218E+03</totfact>
</mgrwt>
</event>
<event>
 6    1  0.9263730E-006  0.3264975E+03  0.7546771E-02  0.1072697E+00
         -1   -1    0    0    0  501 -0.00000000000E+00  0.00000000000E+00  0.10950732210E+03  0.10950732210E+03  0.00000000000E+00 0.  1.
          1   -1    0    0  501    0  0.00000000000E+00 -0.00000000000E+00 -0.24336407212E+03  0.24336407212E+03  0.00000000000E+00 0. -1.
          5    1    1    2  502    0 -0.90768677503E+02 -0.81558983956E+02 -0.99991658255E+02  0.15783295727E+03  0.47000000000E+01 0. -1.
         -5    1    1    2    0  502  0.40120634685E+02 -0.12637187154E+02 -0.31314266937E+02  0.52650139036E+02  0.47000000000E+01 0. -1.
        -11    1    1    2    0    0  0.36398297691E+02  0.42927173425E+02 -0.46787931400E+02  0.73189403727E+02  0.00000000000E+00 0. -1.
         11    1    1    2    0    0  0.14249745127E+02  0.51268997684E+02  0.44237106573E+02  0.69198894194E+02  0.00000000000E+00 0.  1.
<mgrwt>
<rscale>  0 0.32649746E+03</rscale>
<asrwt>0</asrwt>
<pdfrwt beam="2">  1        1 0.37440627E-01 0.32649746E+03</pdfrwt>
<pdfrwt beam="1">  1       -1 0.16847280E-01 0.32649746E+03</pdfrwt>
<totfact> 0.30501954E+03</totfact>
</mgrwt>
</event>
<event>
 6    1  0.9263730E-006  0.2162679E+03  0.7546771E-02  0.1170724E+00
         -1   -1    0    0    0  501 -0.00000000000E+00  0.00000000000E+00  0.29653399848E+03  0.29653399848E+03  0.00000000000E+00 0.  1.
          1   -1    0    0  501    0  0.00000000000E+00 -0.00000000000E+00 -0.16543344954E+03  0.16543344954E+03  0.00000000000E+00 0. -1.
          5    1    1    2  502    0  0.45424296735E+02 -0.92682708998E+02 -0.11974204637E+03  0.15815719696E+03  0.47000000000E+01 0. -1.
         -5    1    1    2    0  502 -0.11160718210E+02  0.58478669081E+02  0.40515319924E+02  0.72165764161E+02  0.47000000000E+01 0.  1.
        -11    1    1    2    0    0  0.21437039098E+02  0.25988595651E+02  0.12465544205E+03  0.12912758413E+03  0.00000000000E+00 0. -1.
         11    1    1    2    0    0 -0.55700617623E+02  0.82154442661E+01  0.85671833335E+02  0.10251690278E+03  0.00000000000E+00 0.  1.
<mgrwt>
<rscale>  0 0.17701482E+03</rscale>
<asrwt>0</asrwt>
<pdfrwt beam="2">  1        1 0.25451300E-01 0.21626787E+03</pdfrwt>
<pdfrwt beam="1">  1       -1 0.45620615E-01 0.21626787E+03</pdfrwt>
<totfact> 0.90865063E+02</totfact>
</mgrwt>
</event>
<event>
 6    1  0.9263730E-006  0.2292714E+03  0.7546771E-02  0.1130274E+00
         -1   -1    0    0    0  501 -0.00000000000E+00  0.00000000000E+00  0.63126014183E+03  0.63126014183E+03  0.00000000000E+00 0.  1.
          1   -1    0    0  501    0  0.00000000000E+00 -0.00000000000E+00 -0.16114137924E+03  0.16114137924E+03  0.00000000000E+00 0. -1.
          5    1    1    2  502    0  0.63989972886E+02 -0.97802094981E+02 -0.44090896076E+02  0.12500425405E+03  0.47000000000E+01 0. -1.
         -5    1    1    2    0  502 -0.60133165891E+02 -0.90664588145E+02 -0.23337710371E+01  0.10892016191E+03  0.47000000000E+01 0.  1.
        -11    1    1    2    0    0 -0.14964260677E+02  0.15857155010E+03  0.49499097702E+03  0.51998551223E+03  0.00000000000E+00 0.  1.
         11    1    1    2    0    0  0.11107453681E+02  0.29895133031E+02  0.21552452681E+02  0.38491592884E+02  0.00000000000E+00 0. -1.
<mgrwt>
<rscale>  0 0.22491059E+03</rscale>
<asrwt>0</asrwt>
<pdfrwt beam="2">  1        1 0.24790982E-01 0.22927142E+03</pdfrwt>
<pdfrwt beam="1">  1       -1 0.97116943E-01 0.22927142E+03</pdfrwt>
<totfact> 0.21000909E+02</totfact>
</mgrwt>
</event>
<event>
 6    1  0.9263730E-006  0.1450972E+03  0.7546771E-02  0.1216629E+00
         -4   -1    0    0    0  501 -0.00000000000E+00  0.00000000000E+00  0.34784482115E+02  0.34784482115E+02  0.00000000000E+00 0.  1.
          4   -1    0    0  501    0  0.00000000000E+00 -0.00000000000E+00 -0.66438874535E+03  0.66438874535E+03  0.00000000000E+00 0. -1.
          5    1    1    2  502    0 -0.26867871566E+02 -0.42105253082E+01 -0.12422548301E+02  0.30265834734E+02  0.47000000000E+01 0.  1.
         -5    1    1    2    0  502 -0.44391111093E+02 -0.14515072965E+02 -0.50315522348E+03  0.50534001128E+03  0.47000000000E+01 0.  1.
        -11    1    1    2    0    0  0.47423691349E+02 -0.59389738428E+00 -0.20588359844E+01  0.47472076223E+02  0.00000000000E+00 0.  1.
         11    1    1    2    0    0  0.23835291310E+02  0.19319495657E+02 -0.11196765547E+03  0.11609530522E+03  0.00000000000E+00 0. -1.
<mgrwt>
<rscale>  0 0.13757543E+03</rscale>
<asrwt>0</asrwt>
<pdfrwt beam="2">  1        4 0.10221365E+00 0.14509715E+03</pdfrwt>
<pdfrwt beam="1">  1       -4 0.53514592E-02 0.14509715E+03</pdfrwt>
<totfact> 0.29343534E+02</totfact>
</mgrwt>
</event>
<event>
 6    1  0.9263730E-006  0.1299958E+03  0.7546771E-02  0.1242791E+00
         -2   -1    0    0    0  501 -0.00000000000E+00  0.00000000000E+00  0.36989664672E+02  0.36989664672E+02  0.00000000000E+00 0.  1.
          2   -1    0    0  501    0  0.00000000000E+00 -0.00000000000E+00 -0.34373657127E+03  0.34373657127E+03  0.00000000000E+00 0. -1.
          5    1    1    2  502    0  0.48137945141E+02 -0.66091251696E+00 -0.69539086446E+02  0.84708164373E+02  0.47000000000E+01 0. -1.
         -5    1    1    2    0  502 -0.78823210076E+02  0.18936325116E+02 -0.94526112642E+02  0.12461524316E+03  0.47000000000E+01 0. -1.
        -11    1    1    2    0    0  0.51712635269E+02 -0.35142773115E+02 -0.69865620124E+02  0.93757218516E+02  0.00000000000E+00 0.  1.
         11    1    1    2    0    0 -0.21027370334E+02  0.16867360516E+02 -0.72816087389E+02  0.77645609899E+02  0.00000000000E+00 0. -1.
<mgrwt>
<rscale>  0 0.12018573E+03</rscale>
<asrwt>0</asrwt>
<pdfrwt beam="2">  1        2 0.52882549E-01 0.12999577E+03</pdfrwt>
<pdfrwt beam="1">  1       -2 0.56907177E-02 0.12999577E+03</pdfrwt>
<totfact> 0.14200965E+04</totfact>
</mgrwt>
</event>
<event>
 6    1  0.9263730E-006  0.2337975E+03  0.7546771E-02  0.1126843E+00
         -2   -1    0    0    0  501 -0.00000000000E+00  0.00000000000E+00  0.63310627408E+02  0.63310627408E+02  0.00000000000E+00 0.  1.
          2   -1    0    0  501    0  0.00000000000E+00 -0.00000000000E+00 -0.80806830164E+03  0.80806830164E+03  0.00000000000E+00 0. -1.
          5    1    1    2  502    0  0.75567481052E+02 -0.14049404338E+03 -0.21382219993E+03  0.26681649799E+03  0.47000000000E+01 0. -1.
         -5    1    1    2    0  502 -0.30232373441E+02 -0.51810185283E+02 -0.19573940100E+03  0.20477864832E+03  0.47000000000E+01 0. -1.
        -11    1    1    2    0    0 -0.63822691756E+02  0.11490814624E+03 -0.25457923859E+03  0.28650969752E+03  0.00000000000E+00 0.  1.
         11    1    1    2    0    0  0.18487584145E+02  0.77396082426E+02 -0.80616834709E+02  0.11327408521E+03  0.00000000000E+00 0. -1.
<mgrwt>
<rscale>  0 0.22971168E+03</rscale>
<asrwt>0</asrwt>
<pdfrwt beam="2">  1        2 0.12431819E+00 0.23379751E+03</pdfrwt>
<pdfrwt beam="1">  1       -2 0.97400973E-02 0.23379751E+03</pdfrwt>
<totfact> 0.24144472E+03</totfact>
</mgrwt>
</event>
<event>
 6    1  0.9263730E-006  0.3464369E+03  0.7546771E-02  0.1065217E+00
          2   -1    0    0  501    0  0.00000000000E+00  0.00000000000E+00  0.31112229181E+04  0.31112229181E+04  0.00000000000E+00 0. -1.
         -2   -1    0    0    0  501 -0.00000000000E+00 -0.00000000000E+00 -0.41347025829E+02  0.41347025829E+02  0.00000000000E+00 0.  1.
          5    1    1    2  502    0  0.15153670506E+03 -0.10541315040E+03  0.88507079755E+03  0.90412815017E+03  0.47000000000E+01 0. -1.
         -5    1    1    2    0  502  0.15320492070E+03 -0.19476944053E+01  0.11588962592E+04  0.11689902356E+04  0.47000000000E+01 0. -1.
        -11    1    1    2    0    0 -0.58357650169E+02  0.17320498987E+00  0.29508645553E+03  0.30080169809E+03  0.00000000000E+00 0.  1.
         11    1    1    2    0    0 -0.24638397559E+03  0.10718763981E+03  0.73082237996E+03  0.77864986009E+03  0.00000000000E+00 0. -1.
<mgrwt>
<rscale>  0 0.34373318E+03</rscale>
<asrwt>0</asrwt>
<pdfrwt beam="1">  1        2 0.47864949E+00 0.34643688E+03</pdfrwt>
<pdfrwt beam="2">  1       -2 0.63610834E-02 0.34643688E+03</pdfrwt>
<totfact> 0.23693131E+02</totfact>
</mgrwt>
</event>
<event>
 6    1  0.9263730E-006  0.1389305E+03  0.7546771E-02  0.1226090E+00
          2   -1    0    0  501    0  0.00000000000E+00  0.00000000000E+00  0.12166913581E+03  0.12166913581E+03  0.00000000000E+00 0. -1.
         -2   -1    0    0    0  501 -0.00000000000E+00 -0.00000000000E+00 -0.14523245005E+03  0.14523245005E+03  0.00000000000E+00 0.  1.
          5    1    1    2  502    0 -0.34329109987E+02 -0.63485818793E+02 -0.60841981717E+01  0.72581295440E+02  0.47000000000E+01 0.  1.
         -5    1    1    2    0  502 -0.25220751346E+02  0.51879734671E+02  0.40226364020E+02  0.70482930772E+02  0.47000000000E+01 0.  1.
        -11    1    1    2    0    0  0.53397336599E+02 -0.34041558569E+02 -0.36943608572E+02  0.73313937829E+02  0.00000000000E+00 0. -1.
         11    1    1    2    0    0  0.61525247337E+01  0.45647642691E+02 -0.20761871510E+02  0.50523421820E+02  0.00000000000E+00 0.  1.
<mgrwt>
<rscale>  0 0.13092481E+03</rscale>
<asrwt>0</asrwt>
<pdfrwt beam="1">  1        2 0.18718329E-01 0.13893051E+03</pdfrwt>
<pdfrwt beam="2">  1       -2 0.22343454E-01 0.13893051E+03</pdfrwt>
<totfact> 0.49659157E+03</totfact>
</mgrwt>
</event>
<event>
 6    1  0.9263730E-006  0.1555955E+03  0.7546771E-02  0.1203237E+00
         -4   -1    0    0    0  501 -0.00000000000E+00  0.00000000000E+00  0.30071419611E+03  0.30071419611E+03  0.00000000000E+00 0.  1.
          4   -1    0    0  501    0  0.00000000000E+00 -0.00000000000E+00 -0.14250399188E+03  0.14250399188E+03  0.00000000000E+00 0. -1.
          5    1    1    2  502    0  0.26751719848E+02 -0.57661021670E+02 -0.11174410347E+03  0.12864401500E+03  0.47000000000E+01 0. -1.
         -5    1    1    2    0  502  0.19113247483E+02 -0.25116421717E+02  0.32861218780E+02  0.45805027770E+02  0.47000000000E+01 0.  1.
        -11    1    1    2    0    0 -0.15202185369E+02  0.86300751207E+02  0.12605533324E+03  0.15352157222E+03  0.00000000000E+00 0.  1.
         11    1    1    2    0    0 -0.30662781962E+02 -0.35233078196E+01  0.11103775567E+03  0.11524757299E+03  0.00000000000E+00 0. -1.
<mgrwt>
<rscale>  0 0.14777235E+03</rscale>
<asrwt>0</asrwt>
<pdfrwt beam="2">  1        4 0.21923691E-01 0.15559550E+03</pdfrwt>
<pdfrwt beam="1">  1       -4 0.46263722E-01 0.15559550E+03</pdfrwt>
<totfact> 0.14843609E+02</totfact>
</mgrwt>
</event>
<event>
 6    1  0.9263730E-006  0.2205761E+03  0.7546771E-02  0.1157900E+00
         -1   -1    0    0    0  501 -0.00000000000E+00  0.00000000000E+00  0.28546849900E+03  0.28546849900E+03  0.00000000000E+00 0.  1.
          1   -1    0    0  501    0  0.00000000000E+00 -0.00000000000E+00 -0.10739525919E+03  0.10739525919E+03  0.00000000000E+00 0. -1.
          5    1    1    2  502    0 -0.66090071504E+02  0.39992166618E+02  0.75438937756E+02  0.10807587276E+03  0.47000000000E+01 0. -1.
         -5    1    1    2    0  502  0.37189536852E+02 -0.11981104870E+03  0.15423896343E+01  0.12554767225E+03  0.47000000000E+01 0.  1.
        -11    1    1    2    0    0  0.53497660826E+02  0.58119597225E+02  0.98606973125E+02  0.12634564672E+03  0.00000000000E+00 0. -1.
         11    1    1    2    0    0 -0.24597126174E+02  0.21699284858E+02  0.24849392920E+01  0.32894566461E+02  0.00000000000E+00 0.  1.
<mgrwt>
<rscale>  0 0.19062375E+03</rscale>
<asrwt>0</asrwt>
<pdfrwt beam="2">  1        1 0.16522348E-01 0.22057615E+03</pdfrwt>
<pdfrwt beam="1">  1       -1 0.43918230E-01 0.22057615E+03</pdfrwt>
<totfact> 0.16976531E+03</totfact>
</mgrwt>
</event>
<event>
 6    1  0.9263730E-006  0.1469282E+03  0.7546771E-02  0.1214533E+00
          1   -1    0    0  501    0  0.00000000000E+00  0.00000000000E+00  0.25181426124E+03  0.25181426124E+03  0.00000000000E+00 0. -1.
         -1   -1    0    0    0  501 -0.00000000000E+00 -0.00000000000E+00 -0.10393792780E+03  0.10393792780E+03  0.00000000000E+00 0.  1.
          5    1    1    2  502    0  0.48174806918E+02 -0.57362234362E+01  0.12161131774E+03  0.13101571998E+03  0.47000000000E+01 0.  1.
         -5    1    1    2    0  502 -0.42406257002E+02 -0.71272483094E+02  0.59392203164E+02  0.10211552906E+03  0.47000000000E+01 0.  1.
        -11    1    1    2    0    0  0.97381594088E+01  0.81760751462E+02  0.36571821724E+01  0.82419822918E+02  0.00000000000E+00 0. -1.
         11    1    1    2    0    0 -0.15506709325E+02 -0.47520449317E+01 -0.36784369634E+02  0.40201117081E+02  0.00000000000E+00 0.  1.
<mgrwt>
<rscale>  0 0.13910921E+03</rscale>
<asrwt>0</asrwt>
<pdfrwt beam="1">  1        1 0.38740655E-01 0.14692823E+03</pdfrwt>
<pdfrwt beam="2">  1       -1 0.15990450E-01 0.14692823E+03</pdfrwt>
<totfact> 0.30828314E+03</totfact>
</mgrwt>
</event>
<event>
 6    1  0.9263730E-006  0.1615813E+03  0.7546771E-02  0.1195309E+00
         -2   -1    0    0    0  501 -0.00000000000E+00  0.00000000000E+00  0.56616679747E+02  0.56616679747E+02  0.00000000000E+00 0.  1.
          2   -1    0    0  501    0  0.00000000000E+00 -0.00000000000E+00 -0.38691099869E+03  0.38691099869E+03  0.00000000000E+00 0. -1.
          5    1    1    2  502    0  0.41074975731E+02  0.49686934559E+02 -0.83245957722E+02  0.10539413918E+03  0.47000000000E+01 0. -1.
         -5    1    1    2    0  502  0.57457224460E+02 -0.77473358753E+02 -0.10360276963E+03  0.14163007390E+03  0.47000000000E+01 0. -1.
        -11    1    1    2    0    0 -0.60856037010E+02  0.53889430909E+02 -0.59072369206E+02  0.10048419183E+03  0.00000000000E+00 0.  1.
         11    1    1    2    0    0 -0.37676163181E+02 -0.26103006715E+02 -0.84373222386E+02  0.96019273520E+02  0.00000000000E+00 0. -1.
<mgrwt>
<rscale>  0 0.15428147E+03</rscale>
<asrwt>0</asrwt>
<pdfrwt beam="2">  1        2 0.59524771E-01 0.16158130E+03</pdfrwt>
<pdfrwt beam="1">  1       -2 0.87102581E-02 0.16158130E+03</pdfrwt>
<totfact> 0.66156425E+03</totfact>
</mgrwt>
</event>
<event>
 6    1  0.9263730E-006  0.1330000E+03  0.7546771E-02  0.1236434E+00
         -1   -1    0    0    0  501 -0.00000000000E+00  0.00000000000E+00  0.10382055722E+03  0.10382055722E+03  0.00000000000E+00 0.  1.
          1   -1    0    0  501    0  0.00000000000E+00 -0.00000000000E+00 -0.13361091848E+03  0.13361091848E+03  0.00000000000E+00 0. -1.
          5    1    1    2  502    0 -0.37223422483E+02 -0.38023114207E+02 -0.13078724668E+02  0.54995303747E+02  0.47000000000E+01 0. -1.
         -5    1    1    2    0  502  0.12624473355E+02  0.76212532394E+02  0.10020432377E+02  0.78039903168E+02  0.47000000000E+01 0. -1.
        -11    1    1    2    0    0 -0.29969157986E+01  0.20824602261E+02  0.16045708729E+02  0.26459598112E+02  0.00000000000E+00 0.  1.
         11    1    1    2    0    0  0.27595864926E+02 -0.59014020448E+02 -0.42777777706E+02  0.77936670675E+02  0.00000000000E+00 0. -1.
<mgrwt>
<rscale>  0 0.12413051E+03</rscale>
<asrwt>0</asrwt>
<pdfrwt beam="2">  1        1 0.20555526E-01 0.13300005E+03</pdfrwt>
<pdfrwt beam="1">  1       -1 0.15972394E-01 0.13300005E+03</pdfrwt>
<totfact> 0.67824361E+03</totfact>
</mgrwt>
</event>
<event>
 6    1  0.9263730E-006  0.1512816E+03  0.7546771E-02  0.1203492E+00
         -2   -1    0    0    0  501 -0.00000000000E+00  0.00000000000E+00  0.62557930692E+03  0.62557930692E+03  0.00000000000E+00 0.  1.
          2   -1    0    0  501    0  0.00000000000E+00 -0.00000000000E+00 -0.68785152335E+02  0.68785152335E+02  0.00000000000E+00 0. -1.
          5    1    1    2  502    0 -0.50025773909E+02  0.40237065887E+02  0.58814207715E+02  0.87194039678E+02  0.47000000000E+01 0.  1.
         -5    1    1    2    0  502  0.45540290568E+02  0.44865051164E+02 -0.23293673458E+02  0.68201730947E+02  0.47000000000E+01 0.  1.
        -11    1    1    2    0    0 -0.15827449312E+02  0.21538549923E+02  0.14062878564E+03  0.14314633294E+03  0.00000000000E+00 0.  1.
         11    1    1    2    0    0  0.20312932652E+02 -0.10664066697E+03  0.38064483469E+03  0.39582235569E+03  0.00000000000E+00 0. -1.
<mgrwt>
<rscale>  0 0.14756959E+03</rscale>
<asrwt>0</asrwt>
<pdfrwt beam="2">  1        2 0.10582332E-01 0.15128165E+03</pdfrwt>
<pdfrwt beam="1">  1       -2 0.96242966E-01 0.15128165E+03</pdfrwt>
<totfact> 0.55285978E+02</totfact>
</mgrwt>
</event>
<event>
 6    1  0.9263730E-006  0.1281425E+03  0.7546771E-02  0.1244842E+00
          4   -1    0    0  501    0  0.00000000000E+00  0.00000000000E+00  0.34224415628E+02  0.34224415628E+02  0.00000000000E+00 0. -1.
         -4   -1    0    0    0  501 -0.00000000000E+00 -0.00000000000E+00 -0.37435210953E+03  0.37435210953E+03  0.00000000000E+00 0.  1.
          5    1    1    2  502    0 -0.56307946697E+02 -0.27045830023E+00 -0.64751304416E+02  0.85938812142E+02  0.47000000000E+01 0. -1.
         -5    1    1    2    0  502  0.66263876220E+02 -0.26112882478E+02 -0.96437453371E+02  0.11997939963E+03  0.47000000000E+01 0. -1.
        -11    1    1    2    0    0  0.30156252917E+02 -0.13828685640E+02 -0.10036080959E+03  0.10570205409E+03  0.00000000000E+00 0.  1.
         11    1    1    2    0    0 -0.40112182440E+02  0.40212026418E+02 -0.78578126521E+02  0.96956259294E+02  0.00000000000E+00 0. -1.
<mgrwt>
<rscale>  0 0.11894834E+03</rscale>
<asrwt>0</asrwt>
<pdfrwt beam="1">  1        4 0.52652947E-02 0.12814248E+03</pdfrwt>
<pdfrwt beam="2">  1       -4 0.57592632E-01 0.12814248E+03</pdfrwt>
<totfact> 0.10368123E+03</totfact>
</mgrwt>
</event>
<event>
 6    1  0.9263730E-006  0.1871832E+03  0.7546771E-02  0.1165470E+00
          3   -1    0    0  501    0  0.00000000000E+00  0.00000000000E+00  0.15843240835E+03  0.15843240835E+03  0.00000000000E+00 0. -1.
         -3   -1    0    0    0  501 -0.00000000000E+00 -0.00000000000E+00 -0.24355986492E+03  0.24355986492E+03  0.00000000000E+00 0.  1.
          5    1    1    2  502    0  0.73232709057E+02  0.49200895319E+02  0.66000439779E+02  0.11028103113E+03  0.47000000000E+01 0.  1.
         -5    1    1    2    0  502  0.65786853031E+02 -0.39966217198E+02 -0.25515800772E+02  0.81230256911E+02  0.47000000000E+01 0.  1.
        -11    1    1    2    0    0 -0.38737103088E+00  0.24435125975E+02 -0.30218921317E+02  0.38863976164E+02  0.00000000000E+00 0.  1.
         11    1    1    2    0    0 -0.13863219106E+03 -0.33669804096E+02 -0.95393174254E+02  0.17161700906E+03  0.00000000000E+00 0. -1.
<mgrwt>
<rscale>  0 0.18243209E+03</rscale>
<asrwt>0</asrwt>
<pdfrwt beam="1">  1        3 0.24374217E-01 0.18718325E+03</pdfrwt>
<pdfrwt beam="2">  1       -3 0.37470748E-01 0.18718325E+03</pdfrwt>
<totfact> 0.26872536E+02</totfact>
</mgrwt>
</event>
<event>
 6    1  0.9263730E-006  0.3532351E+03  0.7546771E-02  0.1061295E+00
         -2   -1    0    0    0  501 -0.00000000000E+00  0.00000000000E+00  0.12209223183E+03  0.12209223183E+03  0.00000000000E+00 0.  1.
          2   -1    0    0  501    0  0.00000000000E+00 -0.00000000000E+00 -0.25549336063E+03  0.25549336063E+03  0.00000000000E+00 0. -1.
          5    1    1    2  502    0  0.16893311217E+02 -0.22900971115E+00 -0.19385178048E+03  0.19464336414E+03  0.47000000000E+01 0. -1.
         -5    1    1    2    0  502 -0.47239032345E+02  0.12675754727E+02 -0.20837125697E+02  0.53371122736E+02  0.47000000000E+01 0.  1.
        -11    1    1    2    0    0  0.11232748217E+02 -0.43823895629E+02  0.57915860246E+01  0.45609767915E+02  0.00000000000E+00 0.  1.
         11    1    1    2    0    0  0.19112972911E+02  0.31377150613E+02  0.75496191350E+02  0.83961337664E+02  0.00000000000E+00 0. -1.
<mgrwt>
<rscale>  0 0.35323508E+03</rscale>
<asrwt>0</asrwt>
<pdfrwt beam="2">  1        2 0.39306671E-01 0.35323508E+03</pdfrwt>
<pdfrwt beam="1">  1       -2 0.18783420E-01 0.35323508E+03</pdfrwt>
<totfact> 0.30616337E+03</totfact>
</mgrwt>
</event>
<event>
 6    1  0.9263730E-006  0.1289956E+03  0.7546771E-02  0.1243069E+00
          2   -1    0    0  501    0  0.00000000000E+00  0.00000000000E+00  0.62294910384E+03  0.62294910384E+03  0.00000000000E+00 0. -1.
         -2   -1    0    0    0  501 -0.00000000000E+00 -0.00000000000E+00 -0.37984398304E+02  0.37984398304E+02  0.00000000000E+00 0.  1.
          5    1    1    2  502    0  0.34915853628E+02  0.32516037549E+02  0.46368642032E+03  0.46615833782E+03  0.47000000000E+01 0. -1.
         -5    1    1    2    0  502 -0.45199503957E+02 -0.23581776533E+01  0.74721756021E+02  0.87487067517E+02  0.47000000000E+01 0. -1.
        -11    1    1    2    0    0  0.41360323797E+02 -0.10453789528E+02 -0.60517692811E+01  0.43088072729E+02  0.00000000000E+00 0.  1.
         11    1    1    2    0    0 -0.31076673468E+02 -0.19704070368E+02  0.52608298482E+02  0.64200024081E+02  0.00000000000E+00 0. -1.
<mgrwt>
<rscale>  0 0.12001716E+03</rscale>
<asrwt>0</asrwt>
<pdfrwt beam="1">  1        2 0.95838317E-01 0.12899562E+03</pdfrwt>
<pdfrwt beam="2">  1       -2 0.58437540E-02 0.12899562E+03</pdfrwt>
<totfact> 0.71318537E+03</totfact>
</mgrwt>
</event>
<event>
 6    1  0.9263730E-006  0.2046442E+03  0.7546771E-02  0.1149696E+00
         -2   -1    0    0    0  501 -0.00000000000E+00  0.00000000000E+00  0.17751697880E+03  0.17751697880E+03  0.00000000000E+00 0.  1.
          2   -1    0    0  501    0  0.00000000000E+00 -0.00000000000E+00 -0.21937088977E+03  0.21937088977E+03  0.00000000000E+00 0. -1.
          5    1    1    2  502    0  0.26828606951E+02  0.25448535390E+02  0.12572837957E+02  0.39339145374E+02  0.47000000000E+01 0. -1.
         -5    1    1    2    0  502  0.10331973720E+03 -0.12196552007E+03 -0.59432574168E+02  0.17060151539E+03  0.47000000000E+01 0. -1.
        -11    1    1    2    0    0 -0.28912382975E+02 -0.23889565080E+01 -0.29389768477E+02  0.41296385963E+02  0.00000000000E+00 0. -1.
         11    1    1    2    0    0 -0.10123596118E+03  0.98905941183E+02  0.34395593722E+02  0.14565082185E+03  0.00000000000E+00 0.  1.
<mgrwt>
<rscale>  0 0.20005084E+03</rscale>
<asrwt>0</asrwt>
<pdfrwt beam="2">  1        2 0.33749367E-01 0.20464419E+03</pdfrwt>
<pdfrwt beam="1">  1       -2 0.27310305E-01 0.20464419E+03</pdfrwt>
<totfact> 0.18487820E+03</totfact>
</mgrwt>
</event>
<event>
 6    1  0.9263730E-006  0.2008585E+03  0.7546771E-02  0.1181501E+00
         -3   -1    0    0    0  501 -0.00000000000E+00  0.00000000000E+00  0.70774377502E+03  0.70774377502E+03  0.00000000000E+00 0.  1.
          3   -1    0    0  501    0  0.00000000000E+00 -0.00000000000E+00 -0.66352735010E+02  0.66352735010E+02  0.00000000000E+00 0. -1.
          5    1    1    2  502    0 -0.95235309826E+02  0.17332616158E+02  0.17934671520E+01  0.96930337588E+02  0.47000000000E+01 0. -1.
         -5    1    1    2    0  502  0.74515466188E+02 -0.32149659333E+02  0.98078159427E+02  0.12738748232E+03  0.47000000000E+01 0.  1.
        -11    1    1    2    0    0  0.53713510727E+02 -0.86795612276E+01  0.31640505437E+03  0.32104927106E+03  0.00000000000E+00 0.  1.
         11    1    1    2    0    0 -0.32993667089E+02  0.23496604402E+02  0.22511435906E+03  0.22872941906E+03  0.00000000000E+00 0. -1.
<mgrwt>
<rscale>  0 0.16654376E+03</rscale>
<asrwt>0</asrwt>
<pdfrwt beam="2">  1        3 0.10208114E-01 0.20085851E+03</pdfrwt>
<pdfrwt beam="1">  1       -3 0.10888365E+00 0.20085851E+03</pdfrwt>
<totfact> 0.12944172E+02</totfact>
</mgrwt>
</event>
<event>
 6    1  0.9263730E-006  0.1428400E+03  0.7546771E-02  0.1219987E+00
          2   -1    0    0  501    0  0.00000000000E+00  0.00000000000E+00  0.32117932227E+04  0.32117932227E+04  0.00000000000E+00 0. -1.
         -2   -1    0    0    0  501 -0.00000000000E+00 -0.00000000000E+00 -0.10722890686E+02  0.10722890686E+02  0.00000000000E+00 0.  1.
          5    1    1    2  502    0 -0.26771052817E+02 -0.23411325641E+02  0.96947957769E+03  0.97014304152E+03  0.47000000000E+01 0. -1.
         -5    1    1    2    0  502  0.74322107883E+02  0.73576918604E+02  0.18733072958E+04  0.18762301706E+04  0.47000000000E+01 0. -1.
        -11    1    1    2    0    0 -0.21057925588E+02  0.22762155194E+02  0.16460667735E+03  0.16750197063E+03  0.00000000000E+00 0.  1.
         11    1    1    2    0    0 -0.26493129477E+02 -0.72927748158E+02  0.19367678122E+03  0.20864093066E+03  0.00000000000E+00 0. -1.
<mgrwt>
<rscale>  0 0.13516502E+03</rscale>
<asrwt>0</asrwt>
<pdfrwt beam="1">  1        2 0.49412127E+00 0.14283996E+03</pdfrwt>
<pdfrwt beam="2">  1       -2 0.16496780E-02 0.14283996E+03</pdfrwt>
<totfact> 0.16332967E+03</totfact>
</mgrwt>
</event>
<event>
 6    1  0.9263730E-006  0.1466693E+03  0.7546771E-02  0.1214186E+00
         -2   -1    0    0    0  501 -0.00000000000E+00  0.00000000000E+00  0.40479044397E+03  0.40479044397E+03  0.00000000000E+00 0. -1.
          2   -1    0    0  501    0  0.00000000000E+00 -0.00000000000E+00 -0.43780068930E+02  0.43780068930E+02  0.00000000000E+00 0.  1.
          5    1    1    2  502    0  0.46044948339E+02 -0.85497388425E+02  0.11999311031E+03  0.15443567340E+03  0.47000000000E+01 0.  1.
         -5    1    1    2    0  502  0.18956021710E+02  0.44748016788E+02  0.76698541002E+02  0.90920140549E+02  0.47000000000E+01 0.  1.
        -11    1    1    2    0    0 -0.49066399030E+02  0.17586965839E+02  0.19435109463E+02  0.55628557064E+02  0.00000000000E+00 0.  1.
         11    1    1    2    0    0 -0.15934571020E+02  0.23162405798E+02  0.14488361426E+03  0.14758614189E+03  0.00000000000E+00 0. -1.
<mgrwt>
<rscale>  0 0.13936525E+03</rscale>
<asrwt>0</asrwt>
<pdfrwt beam="2">  1        2 0.67353955E-02 0.14666925E+03</pdfrwt>
<pdfrwt beam="1">  1       -2 0.62275450E-01 0.14666925E+03</pdfrwt>
<totfact> 0.25060514E+03</totfact>
</mgrwt>
</event>
<event>
 6    1  0.9263730E-006  0.1678800E+03  0.7546771E-02  0.1187193E+00
          2   -1    0    0  501    0  0.00000000000E+00  0.00000000000E+00  0.74598457145E+02  0.74598457145E+02  0.00000000000E+00 0. -1.
         -2   -1    0    0    0  501 -0.00000000000E+00 -0.00000000000E+00 -0.41211986232E+03  0.41211986232E+03  0.00000000000E+00 0.  1.
          5    1    1    2  502    0 -0.12915507519E+02 -0.11447728718E+03 -0.95340127992E+01  0.11569289958E+03  0.47000000000E+01 0. -1.
         -5    1    1    2    0  502  0.29648074539E+02  0.36639660891E+01 -0.57710280617E+02  0.65153660375E+02  0.47000000000E+01 0. -1.
        -11    1    1    2    0    0  0.12620468032E+02  0.10465602921E+03 -0.24475475823E+03  0.26649024811E+03  0.00000000000E+00 0.  1.
         11    1    1    2    0    0 -0.29353035052E+02  0.61572918764E+01 -0.25522353531E+02  0.39381511395E+02  0.00000000000E+00 0. -1.
<mgrwt>
<rscale>  0 0.16133890E+03</rscale>
<asrwt>0</asrwt>
<pdfrwt beam="1">  1        2 0.11476686E-01 0.16787997E+03</pdfrwt>
<pdfrwt beam="2">  1       -2 0.63403056E-01 0.16787997E+03</pdfrwt>
<totfact> 0.12495636E+03</totfact>
</mgrwt>
</event>
<event>
 6    1  0.9263730E-006  0.1319886E+03  0.7546771E-02  0.1238323E+00
          2   -1    0    0  501    0  0.00000000000E+00  0.00000000000E+00  0.27541296515E+03  0.27541296515E+03  0.00000000000E+00 0. -1.
         -2   -1    0    0    0  501 -0.00000000000E+00 -0.00000000000E+00 -0.62596236111E+02  0.62596236111E+02  0.00000000000E+00 0.  1.
          5    1    1    2  502    0 -0.36072965181E+02 -0.45758511174E+02  0.48717555015E+02  0.76095928461E+02  0.47000000000E+01 0.  1.
         -5    1    1    2    0  502  0.61405120972E+02  0.11798002415E+02  0.14869462725E+03  0.16137522708E+03  0.47000000000E+01 0.  1.
        -11    1    1    2    0    0 -0.52020681502E+02  0.95253986285E+01 -0.13088928531E+02  0.54481231383E+02  0.00000000000E+00 0.  1.
         11    1    1    2    0    0  0.26688525711E+02  0.24435110131E+02  0.28493475303E+02  0.46056814333E+02  0.00000000000E+00 0. -1.
<mgrwt>
<rscale>  0 0.12294055E+03</rscale>
<asrwt>0</asrwt>
<pdfrwt beam="1">  1        2 0.42371225E-01 0.13198856E+03</pdfrwt>
<pdfrwt beam="2">  1       -2 0.96301903E-02 0.13198856E+03</pdfrwt>
<totfact> 0.80143210E+03</totfact>
</mgrwt>
</event>
<event>
 6    1  0.9263730E-006  0.1446145E+03  0.7546771E-02  0.1228758E+00
          1   -1    0    0  501    0  0.00000000000E+00  0.00000000000E+00  0.12209423781E+03  0.12209423781E+03  0.00000000000E+00 0. -1.
         -1   -1    0    0    0  501 -0.00000000000E+00 -0.00000000000E+00 -0.13611364748E+03  0.13611364748E+03  0.00000000000E+00 0.  1.
          5    1    1    2  502    0 -0.37816001432E+02 -0.52262617713E+02  0.11995647468E+02  0.65783103702E+02  0.47000000000E+01 0. -1.
         -5    1    1    2    0  502  0.36167476380E+02  0.70443233375E+02  0.29966455145E+02  0.84796308351E+02  0.47000000000E+01 0.  1.
        -11    1    1    2    0    0  0.29682018400E+02 -0.35105058452E+02 -0.39380263374E+01  0.46139954449E+02  0.00000000000E+00 0. -1.
         11    1    1    2    0    0 -0.28033493348E+02  0.16924442790E+02 -0.52043485948E+02  0.61488518787E+02  0.00000000000E+00 0.  1.
<mgrwt>
<rscale>  0 0.12912657E+03</rscale>
<asrwt>0</asrwt>
<pdfrwt beam="1">  1        1 0.18783729E-01 0.14461446E+03</pdfrwt>
<pdfrwt beam="2">  1       -1 0.20940561E-01 0.14461446E+03</pdfrwt>
<totfact> 0.49674652E+03</totfact>
</mgrwt>
</event>
<event>
 6    1  0.9263730E-006  0.1259605E+03  0.7546771E-02  0.1247116E+00
         -1   -1    0    0    0  501 -0.00000000000E+00  0.00000000000E+00  0.24274461985E+02  0.24274461985E+02  0.00000000000E+00 0.  1.
          1   -1    0    0  501    0  0.00000000000E+00 -0.00000000000E+00 -0.51014127575E+03  0.51014127575E+03  0.00000000000E+00 0. -1.
          5    1    1    2  502    0  0.17866063119E+02  0.58115131059E+02 -0.11334832892E+03  0.12871090994E+03  0.47000000000E+01 0. -1.
         -5    1    1    2    0  502 -0.32387030918E+02 -0.52610791361E+02 -0.18639711150E+03  0.19642501957E+03  0.47000000000E+01 0. -1.
        -11    1    1    2    0    0  0.38282313012E+02 -0.19999259390E+02 -0.34931385215E+02  0.55549145256E+02  0.00000000000E+00 0.  1.
         11    1    1    2    0    0 -0.23761345213E+02  0.14494919692E+02 -0.15118998814E+03  0.15373066297E+03  0.00000000000E+00 0. -1.
<mgrwt>
<rscale>  0 0.11759643E+03</rscale>
<asrwt>0</asrwt>
<pdfrwt beam="2">  1        1 0.78483270E-01 0.12596048E+03</pdfrwt>
<pdfrwt beam="1">  1       -1 0.37345328E-02 0.12596048E+03</pdfrwt>
<totfact> 0.11319607E+04</totfact>
</mgrwt>
</event>
<event>
 6    1  0.9263730E-006  0.1380501E+03  0.7546771E-02  0.1227461E+00
          1   -1    0    0  501    0  0.00000000000E+00  0.00000000000E+00  0.37687145940E+03  0.37687145940E+03  0.00000000000E+00 0. -1.
         -1   -1    0    0    0  501 -0.00000000000E+00 -0.00000000000E+00 -0.45296067745E+02  0.45296067745E+02  0.00000000000E+00 0.  1.
          5    1    1    2  502    0  0.16543837783E+02  0.50696238248E+02  0.36689319105E+02  0.64899948209E+02  0.47000000000E+01 0.  1.
         -5    1    1    2    0  502  0.40585129754E+02 -0.37627300987E+02  0.21614849452E+03  0.22317084984E+03  0.47000000000E+01 0.  1.
        -11    1    1    2    0    0 -0.82115285739E+02 -0.80568681673E+01  0.54195849850E+02  0.98716885170E+02  0.00000000000E+00 0.  1.
         11    1    1    2    0    0  0.24986318202E+02 -0.50120690940E+01  0.24541728177E+02  0.35379843920E+02  0.00000000000E+00 0. -1.
<mgrwt>
<rscale>  0 0.12999642E+03</rscale>
<asrwt>0</asrwt>
<pdfrwt beam="1">  1        1 0.57980223E-01 0.13805008E+03</pdfrwt>
<pdfrwt beam="2">  1       -1 0.69686260E-02 0.13805008E+03</pdfrwt>
<totfact> 0.66599054E+03</totfact>
</mgrwt>
</event>
<event>
 6    1  0.9263730E-006  0.1580588E+03  0.7546771E-02  0.1198242E+00
          1   -1    0    0  501    0  0.00000000000E+00  0.00000000000E+00  0.13528292371E+03  0.13528292371E+03  0.00000000000E+00 0. -1.
         -1   -1    0    0    0  501 -0.00000000000E+00 -0.00000000000E+00 -0.15844371356E+03  0.15844371356E+03  0.00000000000E+00 0.  1.
          5    1    1    2  502    0 -0.38485338436E+01 -0.43129725257E+02 -0.41665367146E+02  0.60275013338E+02  0.47000000000E+01 0.  1.
         -5    1    1    2    0  502  0.91638108334E+02  0.24925312991E+01  0.34208718951E+02  0.97959594036E+02  0.47000000000E+01 0.  1.
        -11    1    1    2    0    0  0.10050542271E+02  0.15984549098E+02  0.20893765353E+02  0.28161474400E+02  0.00000000000E+00 0.  1.
         11    1    1    2    0    0 -0.97840116761E+02  0.24652644860E+02 -0.36597907011E+02  0.10733055550E+03  0.00000000000E+00 0. -1.
<mgrwt>
<rscale>  0 0.15183023E+03</rscale>
<asrwt>0</asrwt>
<pdfrwt beam="1">  1        1 0.20812757E-01 0.15805882E+03</pdfrwt>
<pdfrwt beam="2">  1       -1 0.24375956E-01 0.15805882E+03</pdfrwt>
<totfact> 0.34194083E+03</totfact>
</mgrwt>
</event>
<event>
 6    1  0.9263730E-006  0.1482667E+03  0.7546771E-02  0.1220401E+00
         -2   -1    0    0    0  501 -0.00000000000E+00  0.00000000000E+00  0.93389776900E+02  0.93389776900E+02  0.00000000000E+00 0.  1.
          2   -1    0    0  501    0  0.00000000000E+00 -0.00000000000E+00 -0.22302878734E+03  0.22302878734E+03  0.00000000000E+00 0. -1.
          5    1    1    2  502    0  0.26040026308E+02  0.64961505907E+02 -0.15007455871E+03  0.16565791075E+03  0.47000000000E+01 0. -1.
         -5    1    1    2    0  502 -0.13216799970E+02 -0.44576763557E+02 -0.20626007198E+01  0.46777301893E+02  0.47000000000E+01 0.  1.
        -11    1    1    2    0    0 -0.22485795999E+02 -0.50413881970E+02 -0.12776927404E+02  0.56660571749E+02  0.00000000000E+00 0.  1.
         11    1    1    2    0    0  0.96625696609E+01  0.30029139620E+02  0.35275076392E+02  0.47322779856E+02  0.00000000000E+00 0. -1.
<mgrwt>
<rscale>  0 0.13487171E+03</rscale>
<asrwt>0</asrwt>
<pdfrwt beam="2">  1        2 0.34312120E-01 0.14826667E+03</pdfrwt>
<pdfrwt beam="1">  1       -2 0.14367658E-01 0.14826667E+03</pdfrwt>
<totfact> 0.53408514E+03</totfact>
</mgrwt>
</event>
<event>
 6    1  0.9263730E-006  0.2804745E+03  0.7546771E-02  0.1097506E+00
         -1   -1    0    0    0  501 -0.00000000000E+00  0.00000000000E+00  0.43046840799E+03  0.43046840799E+03  0.00000000000E+00 0.  1.
          1   -1    0    0  501    0  0.00000000000E+00 -0.00000000000E+00 -0.23667095625E+03  0.23667095625E+03  0.00000000000E+00 0. -1.
          5    1    1    2  502    0  0.16514245870E+03  0.63149519411E+02 -0.84417274329E+02  0.19598025327E+03  0.47000000000E+01 0.  1.
         -5    1    1    2    0  502  0.37093066006E+02  0.85648859075E+02  0.10577920265E+02  0.94051076568E+02  0.47000000000E+01 0.  1.
        -11    1    1    2    0    0 -0.11956210686E+03 -0.69142119733E+02  0.20248874692E+03  0.24510696185E+03  0.00000000000E+00 0.  1.
         11    1    1    2    0    0 -0.82673417848E+02 -0.79656258752E+02  0.65148058877E+02  0.13200107254E+03  0.00000000000E+00 0. -1.
<mgrwt>
<rscale>  0 0.27669797E+03</rscale>
<asrwt>0</asrwt>
<pdfrwt beam="2">  1        1 0.36410916E-01 0.28047446E+03</pdfrwt>
<pdfrwt beam="1">  1       -1 0.66225909E-01 0.28047446E+03</pdfrwt>
<totfact> 0.28514884E+02</totfact>
</mgrwt>
</event>
<event>
 6    1  0.9263730E-006  0.1219398E+03  0.7546771E-02  0.1253367E+00
          2   -1    0    0  501    0  0.00000000000E+00  0.00000000000E+00  0.63564888367E+03  0.63564888367E+03  0.00000000000E+00 0. -1.
         -2   -1    0    0    0  501 -0.00000000000E+00 -0.00000000000E+00 -0.26850435096E+02  0.26850435096E+02  0.00000000000E+00 0.  1.
          5    1    1    2  502    0  0.25583351789E+02 -0.18971042734E+02  0.46136638190E+03  0.46248830980E+03  0.47000000000E+01 0. -1.
         -5    1    1    2    0  502 -0.19635313209E+02  0.35539621890E+02  0.57711059507E+02  0.70719634037E+02  0.47000000000E+01 0.  1.
        -11    1    1    2    0    0 -0.29053840514E+02 -0.23413956293E+02  0.97153480444E+02  0.10407275225E+03  0.00000000000E+00 0.  1.
         11    1    1    2    0    0  0.23105801933E+02  0.68453771370E+01 -0.74324732777E+01  0.25218622685E+02  0.00000000000E+00 0. -1.
<mgrwt>
<rscale>  0 0.11398272E+03</rscale>
<asrwt>0</asrwt>
<pdfrwt beam="1">  1        2 0.97792125E-01 0.12193983E+03</pdfrwt>
<pdfrwt beam="2">  1       -2 0.41308367E-02 0.12193983E+03</pdfrwt>
<totfact> 0.11671727E+04</totfact>
</mgrwt>
</event>
<event>
 6    1  0.9263730E-006  0.1262002E+03  0.7546771E-02  0.1249787E+00
          1   -1    0    0  501    0  0.00000000000E+00  0.00000000000E+00  0.10794974347E+03  0.10794974347E+03  0.00000000000E+00 0. -1.
         -1   -1    0    0    0  501 -0.00000000000E+00 -0.00000000000E+00 -0.11064119152E+03  0.11064119152E+03  0.00000000000E+00 0.  1.
          5    1    1    2  502    0 -0.49334632744E+02  0.13934334774E+02  0.52707690751E+02  0.73676742177E+02  0.47000000000E+01 0.  1.
         -5    1    1    2    0  502  0.32095977345E+02 -0.16049559862E+02 -0.39071539656E+02  0.53258007328E+02  0.47000000000E+01 0.  1.
        -11    1    1    2    0    0 -0.34266626183E+02  0.14191058562E+02 -0.97331206784E+01  0.38344770846E+02  0.00000000000E+00 0.  1.
         11    1    1    2    0    0  0.51505281582E+02 -0.12075833474E+02 -0.65944784611E+01  0.53311414642E+02  0.00000000000E+00 0. -1.
<mgrwt>
<rscale>  0 0.11603387E+03</rscale>
<asrwt>0</asrwt>
<pdfrwt beam="1">  1        1 0.16607653E-01 0.12620018E+03</pdfrwt>
<pdfrwt beam="2">  1       -1 0.17021722E-01 0.12620018E+03</pdfrwt>
<totfact> 0.80215547E+03</totfact>
</mgrwt>
</event>
<event>
 6    1  0.9263730E-006  0.1343073E+03  0.7546771E-02  0.1234160E+00
          2   -1    0    0  501    0  0.00000000000E+00  0.00000000000E+00  0.26465426807E+03  0.26465426807E+03  0.00000000000E+00 0. -1.
         -2   -1    0    0    0  501 -0.00000000000E+00 -0.00000000000E+00 -0.70609754371E+02  0.70609754371E+02  0.00000000000E+00 0.  1.
          5    1    1    2  502    0 -0.19705087278E+02 -0.47065999033E+02  0.10770578316E+03  0.11927331829E+03  0.47000000000E+01 0.  1.
         -5    1    1    2    0  502  0.68018781549E+02  0.37882911846E+02  0.82089196653E+02  0.11323601839E+03  0.47000000000E+01 0.  1.
        -11    1    1    2    0    0 -0.11846708289E+02  0.47735011813E+02  0.66663743162E+01  0.49632815723E+02  0.00000000000E+00 0. -1.
         11    1    1    2    0    0 -0.36466985982E+02 -0.38551924625E+02 -0.24168404296E+01  0.53121870041E+02  0.00000000000E+00 0.  1.
<mgrwt>
<rscale>  0 0.12558340E+03</rscale>
<asrwt>0</asrwt>
<pdfrwt beam="1">  1        2 0.40716041E-01 0.13430732E+03</pdfrwt>
<pdfrwt beam="2">  1       -2 0.10863039E-01 0.13430732E+03</pdfrwt>
<totfact> 0.69248180E+03</totfact>
</mgrwt>
</event>
<event>
 6    1  0.9263730E-006  0.2614910E+03  0.7546771E-02  0.1106251E+00
         -1   -1    0    0    0  501 -0.00000000000E+00  0.00000000000E+00  0.21117831002E+03  0.21117831002E+03  0.00000000000E+00 0.  1.
          1   -1    0    0  501    0  0.00000000000E+00 -0.00000000000E+00 -0.80947618959E+02  0.80947618959E+02  0.00000000000E+00 0. -1.
          5    1    1    2  502    0  0.57066800562E+01 -0.52137065985E+02  0.59636665604E+02  0.79557914321E+02  0.47000000000E+01 0.  1.
         -5    1    1    2    0  502 -0.96767395105E+01  0.77326951771E+01 -0.51734008437E+02  0.53403478269E+02  0.47000000000E+01 0.  1.
        -11    1    1    2    0    0 -0.31688281538E+02  0.55662874400E+02  0.70442344171E+02  0.95208332753E+02  0.00000000000E+00 0.  1.
         11    1    1    2    0    0  0.35658340993E+02 -0.11258503592E+02  0.51885689728E+02  0.63956203640E+02  0.00000000000E+00 0. -1.
<mgrwt>
<rscale>  0 0.26149097E+03</rscale>
<asrwt>0</asrwt>
<pdfrwt beam="2">  1        1 0.12453480E-01 0.26149097E+03</pdfrwt>
<pdfrwt beam="1">  1       -1 0.32488971E-01 0.26149097E+03</pdfrwt>
<totfact> 0.42171644E+03</totfact>
</mgrwt>
</event>
<event>
 6    1  0.9263730E-006  0.1694072E+03  0.7546771E-02  0.1185265E+00
         -1   -1    0    0    0  501 -0.00000000000E+00  0.00000000000E+00  0.12287416030E+03  0.12287416030E+03  0.00000000000E+00 0.  1.
          1   -1    0    0  501    0  0.00000000000E+00 -0.00000000000E+00 -0.36059810792E+03  0.36059810792E+03  0.00000000000E+00 0. -1.
          5    1    1    2  502    0  0.65278055551E+02 -0.69406756462E+02 -0.26191713077E+03  0.27874934219E+03  0.47000000000E+01 0. -1.
         -5    1    1    2    0  502  0.39886815228E+02  0.24533087396E+02 -0.22191892643E+02  0.52032686893E+02  0.47000000000E+01 0. -1.
        -11    1    1    2    0    0 -0.15379454545E+02  0.48799274384E+02 -0.82830235258E+00  0.51172090902E+02  0.00000000000E+00 0. -1.
         11    1    1    2    0    0 -0.89785416234E+02 -0.39256053176E+01  0.47213378143E+02  0.10151814823E+03  0.00000000000E+00 0.  1.
<mgrwt>
<rscale>  0 0.16307803E+03</rscale>
<asrwt>0</asrwt>
<pdfrwt beam="2">  1        1 0.55476630E-01 0.16940724E+03</pdfrwt>
<pdfrwt beam="1">  1       -1 0.18903718E-01 0.16940724E+03</pdfrwt>
<totfact> 0.15172947E+03</totfact>
</mgrwt>
</event>
<event>
 6    1  0.9263730E-006  0.1527795E+03  0.7546771E-02  0.1205425E+00
         -2   -1    0    0    0  501 -0.00000000000E+00  0.00000000000E+00  0.11777938016E+03  0.11777938016E+03  0.00000000000E+00 0.  1.
          2   -1    0    0  501    0  0.00000000000E+00 -0.00000000000E+00 -0.16918922686E+03  0.16918922686E+03  0.00000000000E+00 0. -1.
          5    1    1    2  502    0  0.15515413759E+02  0.62034990880E+02  0.25085591410E+02  0.68850890002E+02  0.47000000000E+01 0. -1.
         -5    1    1    2    0  502  0.55926577256E+02 -0.10917285798E+02 -0.70022331897E+02  0.90400144563E+02  0.47000000000E+01 0. -1.
        -11    1    1    2    0    0 -0.13346247267E+02 -0.61761342618E+02 -0.21550398146E+02  0.66760807502E+02  0.00000000000E+00 0. -1.
         11    1    1    2    0    0 -0.58095743748E+02  0.10643637535E+02  0.15077291934E+02  0.60956764954E+02  0.00000000000E+00 0.  1.
<mgrwt>
<rscale>  0 0.14604002E+03</rscale>
<asrwt>0</asrwt>
<pdfrwt beam="2">  1        2 0.26029112E-01 0.15277952E+03</pdfrwt>
<pdfrwt beam="1">  1       -2 0.18119905E-01 0.15277952E+03</pdfrwt>
<totfact> 0.49255166E+03</totfact>
</mgrwt>
</event>
<event>
 6    1  0.9263730E-006  0.5078384E+03  0.7546771E-02  0.1011753E+00
         -2   -1    0    0    0  501 -0.00000000000E+00  0.00000000000E+00  0.32663201495E+03  0.32663201495E+03  0.00000000000E+00 0.  1.
          2   -1    0    0  501    0  0.00000000000E+00 -0.00000000000E+00 -0.19739328269E+03  0.19739328269E+03  0.00000000000E+00 0. -1.
          5    1    1    2  502    0 -0.15332762127E+03 -0.18978932859E+02 -0.12937624838E+03  0.20156850692E+03  0.47000000000E+01 0.  1.
         -5    1    1    2    0  502  0.37953017172E+01 -0.12953242529E+02  0.19699863098E+02  0.24338558158E+02  0.47000000000E+01 0.  1.
        -11    1    1    2    0    0  0.22188811832E+02  0.44831699114E+02  0.59644070328E+02  0.77843687871E+02  0.00000000000E+00 0.  1.
         11    1    1    2    0    0  0.12734350772E+03 -0.12899523726E+02  0.17927104722E+03  0.22027454470E+03  0.00000000000E+00 0. -1.
<mgrwt>
<rscale>  0 0.50783842E+03</rscale>
<asrwt>0</asrwt>
<pdfrwt beam="2">  1        2 0.30368197E-01 0.50783842E+03</pdfrwt>
<pdfrwt beam="1">  1       -2 0.50251079E-01 0.50783842E+03</pdfrwt>
<totfact> 0.66147164E+02</totfact>
</mgrwt>
</event>
<event>
 6    1  0.9263730E-006  0.2900912E+03  0.7546771E-02  0.1090302E+00
          1   -1    0    0  501    0  0.00000000000E+00  0.00000000000E+00  0.16930965821E+03  0.16930965821E+03  0.00000000000E+00 0. -1.
         -1   -1    0    0    0  501 -0.00000000000E+00 -0.00000000000E+00 -0.12425885749E+03  0.12425885749E+03  0.00000000000E+00 0.  1.
          5    1    1    2  502    0 -0.20467555918E+02 -0.35216698016E+02  0.99303569119E+01  0.42188134029E+02  0.47000000000E+01 0.  1.
         -5    1    1    2    0  502 -0.31686960545E+02  0.10681047047E+03  0.52346585910E+02  0.12318601839E+03  0.47000000000E+01 0.  1.
        -11    1    1    2    0    0  0.10825406766E+02 -0.58899831023E+02  0.27578399138E+02  0.65931385737E+02  0.00000000000E+00 0. -1.
         11    1    1    2    0    0  0.41329109697E+02 -0.12693941433E+02 -0.44804541232E+02  0.62262977543E+02  0.00000000000E+00 0.  1.
<mgrwt>
<rscale>  0 0.29009119E+03</rscale>
<asrwt>0</asrwt>
<pdfrwt beam="1">  1        1 0.26047640E-01 0.29009119E+03</pdfrwt>
<pdfrwt beam="2">  1       -1 0.19116747E-01 0.29009119E+03</pdfrwt>
<totfact> 0.39261558E+03</totfact>
</mgrwt>
</event>
<event>
 6    1  0.9263730E-006  0.1324064E+03  0.7546771E-02  0.1234883E+00
          2   -1    0    0  501    0  0.00000000000E+00  0.00000000000E+00  0.43650081488E+03  0.43650081488E+03  0.00000000000E+00 0.  1.
         -2   -1    0    0    0  501 -0.00000000000E+00 -0.00000000000E+00 -0.32556975862E+02  0.32556975862E+02  0.00000000000E+00 0. -1.
          5    1    1    2  502    0  0.46408913284E+02 -0.17847163258E+02  0.19072377021E+03  0.19715464740E+03  0.47000000000E+01 0.  1.
         -5    1    1    2    0  502 -0.22168261169E+02  0.54165164477E+02  0.48033596828E+02  0.75859167345E+02  0.47000000000E+01 0.  1.
        -11    1    1    2    0    0  0.63740637281E+01  0.21974075023E+02  0.10288365134E+03  0.10539703210E+03  0.00000000000E+00 0.  1.
         11    1    1    2    0    0 -0.30614715843E+02 -0.58292076242E+02  0.62302820639E+02  0.90646943900E+02  0.00000000000E+00 0. -1.
<mgrwt>
<rscale>  0 0.12511949E+03</rscale>
<asrwt>0</asrwt>
<pdfrwt beam="1">  1        2 0.67153967E-01 0.13240643E+03</pdfrwt>
<pdfrwt beam="2">  1       -2 0.50087658E-02 0.13240643E+03</pdfrwt>
<totfact> 0.13358744E+04</totfact>
</mgrwt>
</event>
<event>
 6    1  0.9263730E-006  0.3519832E+03  0.7546771E-02  0.1061804E+00
         -2   -1    0    0    0  501 -0.00000000000E+00  0.00000000000E+00  0.28877412770E+03  0.28877412770E+03  0.00000000000E+00 0.  1.
          2   -1    0    0  501    0  0.00000000000E+00 -0.00000000000E+00 -0.10725700200E+03  0.10725700200E+03  0.00000000000E+00 0. -1.
          5    1    1    2  502    0  0.90563633900E+02 -0.96278420667E+02  0.24035923391E+01  0.13228444099E+03  0.47000000000E+01 0. -1.
         -5    1    1    2    0  502 -0.36482100835E+01  0.32280468576E+02 -0.17074334785E+01  0.32868577964E+02  0.47000000000E+01 0. -1.
        -11    1    1    2    0    0 -0.26326863175E+02  0.36218094839E+02  0.77834700775E+01  0.45447073886E+02  0.00000000000E+00 0. -1.
         11    1    1    2    0    0 -0.60588560641E+02  0.27779857253E+02  0.17303749676E+03  0.18543103687E+03  0.00000000000E+00 0.  1.
<mgrwt>
<rscale>  0 0.35198322E+03</rscale>
<asrwt>0</asrwt>
<pdfrwt beam="2">  1        2 0.16501077E-01 0.35198322E+03</pdfrwt>
<pdfrwt beam="1">  1       -2 0.44426788E-01 0.35198322E+03</pdfrwt>
<totfact> 0.16985156E+03</totfact>
</mgrwt>
</event>
<event>
 6    1  0.9263730E-006  0.1603194E+03  0.7546771E-02  0.1196319E+00
          1   -1    0    0  501    0  0.00000000000E+00  0.00000000000E+00  0.19825743021E+03  0.19825743021E+03  0.00000000000E+00 0. -1.
         -1   -1    0    0    0  501 -0.00000000000E+00 -0.00000000000E+00 -0.12642886164E+03  0.12642886164E+03  0.00000000000E+00 0.  1.
          5    1    1    2  502    0  0.28844913367E+02  0.49198043331E+02  0.53213859316E+02  0.78142698430E+02  0.47000000000E+01 0.  1.
         -5    1    1    2    0  502 -0.97006262969E+02  0.24504424759E+02  0.44465109188E+02  0.10958977061E+03  0.47000000000E+01 0.  1.
        -11    1    1    2    0    0  0.85485106564E+02 -0.35538417298E+02 -0.17435617332E+02  0.94205537523E+02  0.00000000000E+00 0. -1.
         11    1    1    2    0    0 -0.17323756962E+02 -0.38164050792E+02 -0.84147826010E+01  0.42748285279E+02  0.00000000000E+00 0.  1.
<mgrwt>
<rscale>  0 0.15343118E+03</rscale>
<asrwt>0</asrwt>
<pdfrwt beam="1">  1        1 0.30501143E-01 0.16031937E+03</pdfrwt>
<pdfrwt beam="2">  1       -1 0.19450594E-01 0.16031937E+03</pdfrwt>
<totfact> 0.30503919E+03</totfact>
</mgrwt>
</event>
<event>
 6    1  0.9263730E-006  0.1293175E+03  0.7546771E-02  0.1244749E+00
          2   -1    0    0  501    0  0.00000000000E+00  0.00000000000E+00  0.45113186170E+03  0.45113186170E+03  0.00000000000E+00 0. -1.
         -2   -1    0    0    0  501 -0.00000000000E+00 -0.00000000000E+00 -0.33868745663E+02  0.33868745663E+02  0.00000000000E+00 0.  1.
          5    1    1    2  502    0 -0.53914950719E+02 -0.61249192966E+01  0.98460977394E+02  0.11252106744E+03  0.47000000000E+01 0.  1.
         -5    1    1    2    0  502  0.63930385401E+02 -0.25456094886E+02  0.24330860013E+03  0.25289577269E+03  0.47000000000E+01 0.  1.
        -11    1    1    2    0    0  0.34336194206E+01  0.23218383694E+02 -0.14908174311E+02  0.27805336627E+02  0.00000000000E+00 0.  1.
         11    1    1    2    0    0 -0.13449054103E+02  0.83626304884E+01  0.90401712822E+02  0.91778430615E+02  0.00000000000E+00 0. -1.
<mgrwt>
<rscale>  0 0.11900403E+03</rscale>
<asrwt>0</asrwt>
<pdfrwt beam="1">  1        2 0.69404898E-01 0.12931753E+03</pdfrwt>
<pdfrwt beam="2">  1       -2 0.52105766E-02 0.12931753E+03</pdfrwt>
<totfact> 0.12126980E+04</totfact>
</mgrwt>
</event>
<event>
 6    1  0.9263730E-006  0.1732373E+03  0.7546771E-02  0.1180593E+00
         -1   -1    0    0    0  501 -0.00000000000E+00  0.00000000000E+00  0.81829474080E+02  0.81829474080E+02  0.00000000000E+00 0.  1.
          1   -1    0    0  501    0  0.00000000000E+00 -0.00000000000E+00 -0.35282210702E+03  0.35282210702E+03  0.00000000000E+00 0. -1.
          5    1    1    2  502    0  0.18325580592E+02  0.99671888725E+02 -0.54758745373E+02  0.11528626328E+03  0.47000000000E+01 0. -1.
         -5    1    1    2    0  502  0.19814758015E+02  0.14030537042E+02 -0.15408291529E+03  0.15605484738E+03  0.47000000000E+01 0. -1.
        -11    1    1    2    0    0 -0.26703771682E+02 -0.97520676824E+02 -0.32469295293E+01  0.10116282114E+03  0.00000000000E+00 0.  1.
         11    1    1    2    0    0 -0.11436566926E+02 -0.16181748944E+02 -0.58904042743E+02  0.62147649299E+02  0.00000000000E+00 0. -1.
<mgrwt>
<rscale>  0 0.16739439E+03</rscale>
<asrwt>0</asrwt>
<pdfrwt beam="2">  1        1 0.54280323E-01 0.17323729E+03</pdfrwt>
<pdfrwt beam="1">  1       -1 0.12589150E-01 0.17323729E+03</pdfrwt>
<totfact> 0.29666017E+03</totfact>
</mgrwt>
</event>
<event>
 6    1  0.9263730E-006  0.4126446E+03  0.7546771E-02  0.1039487E+00
          1   -1    0    0  501    0  0.00000000000E+00  0.00000000000E+00  0.21223231795E+03  0.21223231795E+03  0.00000000000E+00 0. -1.
         -1   -1    0    0    0  501 -0.00000000000E+00 -0.00000000000E+00 -0.20057688656E+03  0.20057688656E+03  0.00000000000E+00 0.  1.
          5    1    1    2  502    0 -0.40621864396E+02  0.14541111402E+03  0.89264272615E+02  0.17545577309E+03  0.47000000000E+01 0.  1.
         -5    1    1    2    0  502  0.24415940103E+02 -0.14501444639E+02  0.31863792957E+02  0.42939740677E+02  0.47000000000E+01 0.  1.
        -11    1    1    2    0    0 -0.32747851839E+02 -0.25140891708E+02 -0.45591051254E+02  0.61506342685E+02  0.00000000000E+00 0.  1.
         11    1    1    2    0    0  0.48953776133E+02 -0.10576877767E+03 -0.63881582930E+02  0.13290734805E+03  0.00000000000E+00 0. -1.
<mgrwt>
<rscale>  0 0.41264463E+03</rscale>
<asrwt>0</asrwt>
<pdfrwt beam="1">  1        1 0.32651126E-01 0.41264463E+03</pdfrwt>
<pdfrwt beam="2">  1       -1 0.30857982E-01 0.41264463E+03</pdfrwt>
<totfact> 0.13303854E+03</totfact>
</mgrwt>
</event>
<event>
 6    1  0.9263730E-006  0.1736964E+03  0.7546771E-02  0.1180264E+00
         -3   -1    0    0    0  501 -0.00000000000E+00  0.00000000000E+00  0.34585231484E+02  0.34585231484E+02  0.00000000000E+00 0.  1.
          3   -1    0    0  501    0  0.00000000000E+00 -0.00000000000E+00 -0.89479749254E+03  0.89479749254E+03  0.00000000000E+00 0. -1.
          5    1    1    2  502    0 -0.45259354700E+02  0.97043676315E+02 -0.34519065339E+03  0.36144786828E+03  0.47000000000E+01 0. -1.
         -5    1    1    2    0  502 -0.55999476346E+02 -0.31514826414E+02 -0.28937244331E+03  0.29645847362E+03  0.47000000000E+01 0. -1.
        -11    1    1    2    0    0  0.73268568205E+01 -0.55235038025E+02 -0.96807804014E+02  0.11169755223E+03  0.00000000000E+00 0. -1.
         11    1    1    2    0    0  0.93931974226E+02 -0.10293811876E+02 -0.12884136034E+03  0.15977882989E+03  0.00000000000E+00 0.  1.
<mgrwt>
<rscale>  0 0.16770336E+03</rscale>
<asrwt>0</asrwt>
<pdfrwt beam="2">  1        3 0.13766113E+00 0.17369638E+03</pdfrwt>
<pdfrwt beam="1">  1       -3 0.53208056E-02 0.17369638E+03</pdfrwt>
<totfact> 0.21149336E+02</totfact>
</mgrwt>
</event>
<event>
 6    1  0.9263730E-006  0.3779809E+03  0.7546771E-02  0.1051683E+00
         -1   -1    0    0    0  501 -0.00000000000E+00  0.00000000000E+00  0.30476550481E+03  0.30476550481E+03  0.00000000000E+00 0.  1.
          1   -1    0    0  501    0  0.00000000000E+00 -0.00000000000E+00 -0.11719629614E+03  0.11719629614E+03  0.00000000000E+00 0. -1.
          5    1    1    2  502    0 -0.83375022104E+02 -0.14275214066E+03  0.69837892856E+02  0.17952434167E+03  0.47000000000E+01 0. -1.
         -5    1    1    2    0  502  0.96491375433E+00  0.11599913361E+02  0.52787170600E+02  0.54259233578E+02  0.47000000000E+01 0. -1.
        -11    1    1    2    0    0  0.66090501290E+02  0.75427495956E+02  0.79893440261E+02  0.12821943419E+03  0.00000000000E+00 0.  1.
         11    1    1    2    0    0  0.16319607060E+02  0.55724731339E+02 -0.14949295051E+02  0.59958791515E+02  0.00000000000E+00 0. -1.
<mgrwt>
<rscale>  0 0.37798089E+03</rscale>
<asrwt>0</asrwt>
<pdfrwt beam="2">  1        1 0.18030200E-01 0.37798089E+03</pdfrwt>
<pdfrwt beam="1">  1       -1 0.46887000E-01 0.37798089E+03</pdfrwt>
<totfact> 0.13590260E+03</totfact>
</mgrwt>
</event>
<event>
 6    1  0.9263730E-006  0.2272864E+03  0.7546771E-02  0.1131560E+00
          1   -1    0    0  501    0  0.00000000000E+00  0.00000000000E+00  0.15608501657E+03  0.15608501657E+03  0.00000000000E+00 0. -1.
         -1   -1    0    0    0  501 -0.00000000000E+00 -0.00000000000E+00 -0.35738227552E+03  0.35738227552E+03  0.00000000000E+00 0.  1.
          5    1    1    2  502    0 -0.16526294787E+03 -0.24043985099E+02  0.36853086754E+02  0.17108534467E+03  0.47000000000E+01 0. -1.
         -5    1    1    2    0  502 -0.24561905748E+02  0.22469377562E+02 -0.45229068350E+02  0.56355290487E+02  0.47000000000E+01 0. -1.
        -11    1    1    2    0    0  0.42380106931E+02 -0.34241103159E+02 -0.80413745067E+02  0.97133397988E+02  0.00000000000E+00 0.  1.
         11    1    1    2    0    0  0.14744474668E+03  0.35815710696E+02 -0.11250753229E+03  0.18889325895E+03  0.00000000000E+00 0. -1.
<mgrwt>
<rscale>  0 0.22314538E+03</rscale>
<asrwt>0</asrwt>
<pdfrwt beam="1">  1        1 0.24013080E-01 0.22728635E+03</pdfrwt>
<pdfrwt beam="2">  1       -1 0.54981888E-01 0.22728635E+03</pdfrwt>
<totfact> 0.69334304E+02</totfact>
</mgrwt>
</event>
<event>
 6    1  0.9263730E-006  0.2018732E+03  0.7546771E-02  0.1152413E+00
         -2   -1    0    0    0  501 -0.00000000000E+00  0.00000000000E+00  0.20055457959E+02  0.20055457959E+02  0.00000000000E+00 0.  1.
          2   -1    0    0  501    0  0.00000000000E+00 -0.00000000000E+00 -0.22132344693E+04  0.22132344693E+04  0.00000000000E+00 0. -1.
          5    1    1    2  502    0 -0.13128732735E+03  0.70816054950E+02 -0.13687949576E+04  0.13769070419E+04  0.47000000000E+01 0.  1.
         -5    1    1    2    0  502 -0.24031898220E+02 -0.39127214581E+02 -0.23030606780E+03  0.23488602751E+03  0.47000000000E+01 0.  1.
        -11    1    1    2    0    0  0.34866810071E+02  0.21847021458E+02 -0.24361034195E+03  0.24706069193E+03  0.00000000000E+00 0. -1.
         11    1    1    2    0    0  0.12045241550E+03 -0.53535861826E+02 -0.35046764399E+03  0.37443616597E+03  0.00000000000E+00 0.  1.
<mgrwt>
<rscale>  0 0.19686250E+03</rscale>
<asrwt>0</asrwt>
<pdfrwt beam="2">  1        2 0.34049769E+00 0.20187325E+03</pdfrwt>
<pdfrwt beam="1">  1       -2 0.30854544E-02 0.20187325E+03</pdfrwt>
<totfact> 0.23362722E+03</totfact>
</mgrwt>
</event>
<event>
 6    1  0.9263730E-006  0.3860381E+03  0.7546771E-02  0.1048724E+00
         -2   -1    0    0    0  501 -0.00000000000E+00  0.00000000000E+00  0.31622266965E+02  0.31622266965E+02  0.00000000000E+00 0.  1.
          2   -1    0    0  501    0  0.00000000000E+00 -0.00000000000E+00 -0.11781682055E+04  0.11781682055E+04  0.00000000000E+00 0. -1.
          5    1    1    2  502    0 -0.82908965474E+01  0.11188718577E+02 -0.11323325584E+02  0.18553546594E+02  0.47000000000E+01 0. -1.
         -5    1    1    2    0  502  0.13787802460E+02 -0.15975037951E+03 -0.77217271875E+03  0.78865904219E+03  0.47000000000E+01 0. -1.
        -11    1    1    2    0    0 -0.42326442482E+02  0.37579095515E+02 -0.10546873816E+03  0.11969699613E+03  0.00000000000E+00 0. -1.
         11    1    1    2    0    0  0.36829536569E+02  0.11098256542E+03 -0.25758115601E+03  0.28288088751E+03  0.00000000000E+00 0.  1.
<mgrwt>
<rscale>  0 0.38603808E+03</rscale>
<asrwt>0</asrwt>
<pdfrwt beam="2">  1        2 0.18125665E+00 0.38603808E+03</pdfrwt>
<pdfrwt beam="1">  1       -2 0.48649640E-02 0.38603808E+03</pdfrwt>
<totfact> 0.42146286E+03</totfact>
</mgrwt>
</event>
<event>
 6    1  0.9263730E-006  0.2252434E+03  0.7546771E-02  0.1133380E+00
         -2   -1    0    0    0  501 -0.00000000000E+00  0.00000000000E+00  0.47376339737E+02  0.47376339737E+02  0.00000000000E+00 0.  1.
          2   -1    0    0  501    0  0.00000000000E+00 -0.00000000000E+00 -0.11455883064E+04  0.11455883064E+04  0.00000000000E+00 0. -1.
          5    1    1    2  502    0  0.11815365262E+02  0.32478187362E+02 -0.29737745744E+02  0.45835128805E+02  0.47000000000E+01 0.  1.
         -5    1    1    2    0  502  0.14283747935E+02  0.15304598574E+03 -0.75963375887E+03  0.77504363543E+03  0.47000000000E+01 0.  1.
        -11    1    1    2    0    0 -0.18847119756E+02 -0.16792511547E+03 -0.20106625770E+03  0.26264367175E+03  0.00000000000E+00 0.  1.
         11    1    1    2    0    0 -0.72519934415E+01 -0.17599057635E+02 -0.10777420436E+03  0.10944221015E+03  0.00000000000E+00 0. -1.
<mgrwt>
<rscale>  0 0.22067603E+03</rscale>
<asrwt>0</asrwt>
<pdfrwt beam="2">  1        2 0.17624435E+00 0.22524336E+03</pdfrwt>
<pdfrwt beam="1">  1       -2 0.72886679E-02 0.22524336E+03</pdfrwt>
<totfact> 0.23458755E+03</totfact>
</mgrwt>
</event>
<event>
 6    1  0.9263730E-006  0.2728986E+03  0.7546771E-02  0.1099632E+00
         -2   -1    0    0    0  501 -0.00000000000E+00  0.00000000000E+00  0.10043603358E+03  0.10043603358E+03  0.00000000000E+00 0.  1.
          2   -1    0    0  501    0  0.00000000000E+00 -0.00000000000E+00 -0.18537582110E+03  0.18537582110E+03  0.00000000000E+00 0. -1.
          5    1    1    2  502    0 -0.81440749496E+02  0.32269150835E+02 -0.10288573068E+03  0.13520893961E+03  0.47000000000E+01 0. -1.
         -5    1    1    2    0  502  0.38544103773E+02  0.17939072040E+00 -0.64733555658E+01  0.39365904651E+02  0.47000000000E+01 0. -1.
        -11    1    1    2    0    0 -0.65372076756E+01 -0.46967294846E+02 -0.11044918227E+02  0.48689342653E+02  0.00000000000E+00 0. -1.
         11    1    1    2    0    0  0.49433853399E+02  0.14518753291E+02  0.35464216948E+02  0.62547667764E+02  0.00000000000E+00 0.  1.
<mgrwt>
<rscale>  0 0.27289861E+03</rscale>
<asrwt>0</asrwt>
<pdfrwt beam="2">  1        2 0.28519357E-01 0.27289861E+03</pdfrwt>
<pdfrwt beam="1">  1       -2 0.15451697E-01 0.27289861E+03</pdfrwt>
<totfact> 0.59964674E+03</totfact>
</mgrwt>
</event>
<event>
 6    1  0.9263730E-006  0.3343681E+03  0.7546771E-02  0.1070496E+00
         -1   -1    0    0    0  501 -0.00000000000E+00  0.00000000000E+00  0.46912176973E+03  0.46912176973E+03  0.00000000000E+00 0.  1.
          1   -1    0    0  501    0  0.00000000000E+00 -0.00000000000E+00 -0.28371510959E+03  0.28371510959E+03  0.00000000000E+00 0. -1.
          5    1    1    2  502    0 -0.27881745144E+03  0.10390916498E+03 -0.69575341660E+02  0.30561266983E+03  0.47000000000E+01 0.  1.
         -5    1    1    2    0  502 -0.21888686561E+02 -0.28055271371E+02  0.11908984713E+00  0.35893133514E+02  0.47000000000E+01 0.  1.
        -11    1    1    2    0    0  0.63619641135E+02 -0.51766939045E+02  0.88725589163E+02  0.12082841093E+03  0.00000000000E+00 0. -1.
         11    1    1    2    0    0  0.23708649686E+03 -0.24086954564E+02  0.16613732279E+03  0.29050266504E+03  0.00000000000E+00 0.  1.
<mgrwt>
<rscale>  0 0.33145303E+03</rscale>
<asrwt>0</asrwt>
<pdfrwt beam="2">  1        1 0.43648478E-01 0.33436812E+03</pdfrwt>
<pdfrwt beam="1">  1       -1 0.72172580E-01 0.33436812E+03</pdfrwt>
<totfact> 0.18996535E+02</totfact>
</mgrwt>
</event>
<event>
 6    1  0.9263730E-006  0.1354916E+03  0.7546771E-02  0.1231609E+00
         -2   -1    0    0    0  501 -0.00000000000E+00  0.00000000000E+00  0.15090834570E+03  0.15090834570E+03  0.00000000000E+00 0.  1.
          2   -1    0    0  501    0  0.00000000000E+00 -0.00000000000E+00 -0.97171687619E+02  0.97171687619E+02  0.00000000000E+00 0. -1.
          5    1    1    2  502    0 -0.10658987165E+02  0.48117461689E+02  0.57496564114E+02  0.75873902046E+02  0.47000000000E+01 0.  1.
         -5    1    1    2    0  502  0.58562743616E+02 -0.27054340791E+02 -0.14480825697E+02  0.66282098702E+02  0.47000000000E+01 0.  1.
        -11    1    1    2    0    0 -0.33933974284E+02  0.34176199065E+02  0.13514718404E+01  0.48180428281E+02  0.00000000000E+00 0.  1.
         11    1    1    2    0    0 -0.13969782167E+02 -0.55239319964E+02  0.93694478240E+01  0.57743604290E+02  0.00000000000E+00 0. -1.
<mgrwt>
<rscale>  0 0.12724008E+03</rscale>
<asrwt>0</asrwt>
<pdfrwt beam="2">  1        2 0.14949490E-01 0.13549160E+03</pdfrwt>
<pdfrwt beam="1">  1       -2 0.23216669E-01 0.13549160E+03</pdfrwt>
<totfact> 0.60180076E+03</totfact>
</mgrwt>
</event>
<event>
 6    1  0.9263730E-006  0.2938623E+03  0.7546771E-02  0.1090234E+00
          2   -1    0    0  501    0  0.00000000000E+00  0.00000000000E+00  0.16079357688E+04  0.16079357688E+04  0.00000000000E+00 0. -1.
         -2   -1    0    0    0  501 -0.00000000000E+00 -0.00000000000E+00 -0.55545932096E+02  0.55545932096E+02  0.00000000000E+00 0.  1.
          5    1    1    2  502    0 -0.24228719946E+03 -0.66692350955E+01  0.76993422739E+03  0.80719785073E+03  0.47000000000E+01 0. -1.
         -5    1    1    2    0  502 -0.21562431177E+02  0.39249961139E+02  0.25866697334E+03  0.26255702425E+03  0.47000000000E+01 0. -1.
        -11    1    1    2    0    0  0.19085210973E+03 -0.38936607066E+02  0.29511690287E+03  0.35360228155E+03  0.00000000000E+00 0.  1.
         11    1    1    2    0    0  0.72997520914E+02  0.63558810222E+01  0.22867173306E+03  0.24012454432E+03  0.00000000000E+00 0. -1.
<mgrwt>
<rscale>  0 0.29022106E+03</rscale>
<asrwt>0</asrwt>
<pdfrwt beam="1">  1        2 0.24737470E+00 0.29386232E+03</pdfrwt>
<pdfrwt beam="2">  1       -2 0.85455292E-02 0.29386232E+03</pdfrwt>
<totfact> 0.10176153E+03</totfact>
</mgrwt>
</event>
<event>
 6    1  0.9263730E-006  0.2579609E+03  0.7546771E-02  0.1108375E+00
         -1   -1    0    0    0  501 -0.00000000000E+00  0.00000000000E+00  0.33812990996E+02  0.33812990996E+02  0.00000000000E+00 0.  1.
          1   -1    0    0  501    0  0.00000000000E+00 -0.00000000000E+00 -0.49199902794E+03  0.49199902794E+03  0.00000000000E+00 0. -1.
          5    1    1    2  502    0  0.60688940542E+01 -0.21737141597E+00 -0.26474724654E+03  0.26485859109E+03  0.47000000000E+01 0.  1.
         -5    1    1    2    0  502 -0.34818938545E+02 -0.53262782939E+02 -0.56780979980E+02  0.85413419410E+02  0.47000000000E+01 0.  1.
        -11    1    1    2    0    0  0.53668311920E+02  0.13338949186E+02 -0.40971670861E+02  0.68825090504E+02  0.00000000000E+00 0.  1.
         11    1    1    2    0    0 -0.24918267429E+02  0.40141205168E+02 -0.95686139566E+02  0.10671491793E+03  0.00000000000E+00 0. -1.
<mgrwt>
<rscale>  0 0.25796092E+03</rscale>
<asrwt>0</asrwt>
<pdfrwt beam="2">  1        1 0.75692161E-01 0.25796092E+03</pdfrwt>
<pdfrwt beam="1">  1       -1 0.52019984E-02 0.25796092E+03</pdfrwt>
<totfact> 0.75884414E+03</totfact>
</mgrwt>
</event>
<event>
 6    1  0.9263730E-006  0.1375802E+03  0.7546771E-02  0.1229121E+00
          2   -1    0    0  501    0  0.00000000000E+00  0.00000000000E+00  0.36836959215E+02  0.36836959215E+02  0.00000000000E+00 0. -1.
         -2   -1    0    0    0  501 -0.00000000000E+00 -0.00000000000E+00 -0.42268662750E+03  0.42268662750E+03  0.00000000000E+00 0.  1.
          5    1    1    2  502    0 -0.48987599870E+02 -0.74704500713E+02 -0.14272112075E+03  0.16843976869E+03  0.47000000000E+01 0.  1.
         -5    1    1    2    0  502  0.36617572547E+02  0.18577178251E+02 -0.24275307652E+02  0.47930561572E+02  0.47000000000E+01 0.  1.
        -11    1    1    2    0    0  0.37837870585E+02  0.39779565043E+01 -0.40377106719E+02  0.55478278049E+02  0.00000000000E+00 0. -1.
         11    1    1    2    0    0 -0.25467843261E+02  0.52149365958E+02 -0.17847613317E+03  0.18767497841E+03  0.00000000000E+00 0.  1.
<mgrwt>
<rscale>  0 0.12888394E+03</rscale>
<asrwt>0</asrwt>
<pdfrwt beam="1">  1        2 0.56672243E-02 0.13758020E+03</pdfrwt>
<pdfrwt beam="2">  1       -2 0.65028715E-01 0.13758020E+03</pdfrwt>
<totfact> 0.28484242E+03</totfact>
</mgrwt>
</event>
<event>
 6    1  0.9263730E-006  0.1590840E+03  0.7546771E-02  0.1197490E+00
          1   -1    0    0  501    0  0.00000000000E+00  0.00000000000E+00  0.58043685216E+02  0.58043685216E+02  0.00000000000E+00 0. -1.
         -1   -1    0    0    0  501 -0.00000000000E+00 -0.00000000000E+00 -0.42957603797E+03  0.42957603797E+03  0.00000000000E+00 0.  1.
          5    1    1    2  502    0  0.32832241075E+02  0.22913163848E+02 -0.23486868029E+03  0.23830307617E+03  0.47000000000E+01 0. -1.
         -5    1    1    2    0  502 -0.11209887788E+02  0.73076236611E+02 -0.54698557724E+02  0.92085938984E+02  0.47000000000E+01 0. -1.
        -11    1    1    2    0    0 -0.17147217070E+02 -0.29947112376E+01 -0.58754531448E+02  0.61278791717E+02  0.00000000000E+00 0.  1.
         11    1    1    2    0    0 -0.44751362167E+01 -0.92994689222E+02 -0.23210583293E+02  0.95951916314E+02  0.00000000000E+00 0. -1.
<mgrwt>
<rscale>  0 0.15245393E+03</rscale>
<asrwt>0</asrwt>
<pdfrwt beam="1">  1        1 0.89297980E-02 0.15908399E+03</pdfrwt>
<pdfrwt beam="2">  1       -1 0.66088619E-01 0.15908399E+03</pdfrwt>
<totfact> 0.17644708E+03</totfact>
</mgrwt>
</event>
<event>
 6    1  0.9263730E-006  0.1300227E+03  0.7546771E-02  0.1240986E+00
         -4   -1    0    0    0  501 -0.00000000000E+00  0.00000000000E+00  0.29376837312E+03  0.29376837312E+03  0.00000000000E+00 0.  1.
          4   -1    0    0  501    0  0.00000000000E+00 -0.00000000000E+00 -0.47853550146E+02  0.47853550146E+02  0.00000000000E+00 0. -1.
          5    1    1    2  502    0 -0.21589539899E+02  0.60567936938E+02  0.41060568361E+02  0.76437186579E+02  0.47000000000E+01 0.  1.
         -5    1    1    2    0  502 -0.14081181459E+02 -0.63547685569E+02  0.52345006245E+02  0.83658099974E+02  0.47000000000E+01 0.  1.
        -11    1    1    2    0    0 -0.79442202705E+01 -0.19737098042E+02  0.12159078363E+03  0.12343817213E+03  0.00000000000E+00 0.  1.
         11    1    1    2    0    0  0.43614941629E+02  0.22716846672E+02  0.30918464737E+02  0.58088464584E+02  0.00000000000E+00 0. -1.
<mgrwt>
<rscale>  0 0.12128882E+03</rscale>
<asrwt>0</asrwt>
<pdfrwt beam="2">  1        4 0.73620848E-02 0.13002269E+03</pdfrwt>
<pdfrwt beam="1">  1       -4 0.45195133E-01 0.13002269E+03</pdfrwt>
<totfact> 0.98878982E+02</totfact>
</mgrwt>
</event>
<event>
 6    1  0.9263730E-006  0.1423381E+03  0.7546771E-02  0.1221222E+00
         -4   -1    0    0    0  501 -0.00000000000E+00  0.00000000000E+00  0.16492107335E+03  0.16492107335E+03  0.00000000000E+00 0.  1.
          4   -1    0    0  501    0  0.00000000000E+00 -0.00000000000E+00 -0.10560117570E+03  0.10560117570E+03  0.00000000000E+00 0. -1.
          5    1    1    2  502    0 -0.10006209485E+03 -0.29077641016E+02  0.59959964519E+01  0.10447953869E+03  0.47000000000E+01 0. -1.
         -5    1    1    2    0  502  0.36505429304E+02  0.46643302553E+01 -0.75792024750E+01  0.37867356068E+02  0.47000000000E+01 0. -1.
        -11    1    1    2    0    0  0.70893765865E+02 -0.14887987419E+02  0.44096734417E+02  0.84806250914E+02  0.00000000000E+00 0.  1.
         11    1    1    2    0    0 -0.73371003228E+01  0.39301298179E+02  0.16806369261E+02  0.43369103374E+02  0.00000000000E+00 0. -1.
<mgrwt>
<rscale>  0 0.13429214E+03</rscale>
<asrwt>0</asrwt>
<pdfrwt beam="2">  1        4 0.16246335E-01 0.14233809E+03</pdfrwt>
<pdfrwt beam="1">  1       -4 0.25372473E-01 0.14233809E+03</pdfrwt>
<totfact> 0.79658004E+02</totfact>
</mgrwt>
</event>
<event>
 6    1  0.9263730E-006  0.1266212E+03  0.7546771E-02  0.1247756E+00
          2   -1    0    0  501    0  0.00000000000E+00  0.00000000000E+00  0.84893285979E+02  0.84893285979E+02  0.00000000000E+00 0. -1.
         -2   -1    0    0    0  501 -0.00000000000E+00 -0.00000000000E+00 -0.15130721883E+03  0.15130721883E+03  0.00000000000E+00 0.  1.
          5    1    1    2  502    0 -0.20778553216E+02  0.41976646532E+02  0.26266092991E+02  0.53905331544E+02  0.47000000000E+01 0. -1.
         -5    1    1    2    0  502  0.16239657700E+02 -0.61644604351E+02 -0.35342245236E+02  0.73040728544E+02  0.47000000000E+01 0. -1.
        -11    1    1    2    0    0 -0.10619952804E+02 -0.33879558489E+02 -0.12017859227E+02  0.37483820795E+02  0.00000000000E+00 0.  1.
         11    1    1    2    0    0  0.15158848320E+02  0.53547516308E+02 -0.45319921383E+02  0.71770623931E+02  0.00000000000E+00 0. -1.
<mgrwt>
<rscale>  0 0.11721953E+03</rscale>
<asrwt>0</asrwt>
<pdfrwt beam="1">  1        2 0.13060506E-01 0.12662119E+03</pdfrwt>
<pdfrwt beam="2">  1       -2 0.23278034E-01 0.12662119E+03</pdfrwt>
<totfact> 0.69899155E+03</totfact>
</mgrwt>
</event>
<event>
 6    1  0.9263730E-006  0.1344995E+03  0.7546771E-02  0.1236663E+00
          2   -1    0    0  501    0  0.00000000000E+00  0.00000000000E+00  0.81783444098E+02  0.81783444098E+02  0.00000000000E+00 0. -1.
         -2   -1    0    0    0  501 -0.00000000000E+00 -0.00000000000E+00 -0.19759844430E+03  0.19759844430E+03  0.00000000000E+00 0.  1.
          5    1    1    2  502    0 -0.33611219023E+02 -0.62961372091E+02  0.26072331774E+02  0.76129527149E+02  0.47000000000E+01 0. -1.
         -5    1    1    2    0  502 -0.12776752382E+02  0.45238046491E+02 -0.34756393322E+02  0.58650005358E+02  0.47000000000E+01 0. -1.
        -11    1    1    2    0    0  0.66604061132E+02  0.18710181953E+02 -0.10278824600E+03  0.12390155521E+03  0.00000000000E+00 0.  1.
         11    1    1    2    0    0 -0.20216089727E+02 -0.98685635337E+00 -0.43426926564E+01  0.20700800681E+02  0.00000000000E+00 0. -1.
<mgrwt>
<rscale>  0 0.12398540E+03</rscale>
<asrwt>0</asrwt>
<pdfrwt beam="1">  1        2 0.12582068E-01 0.13449948E+03</pdfrwt>
<pdfrwt beam="2">  1       -2 0.30399760E-01 0.13449948E+03</pdfrwt>
<totfact> 0.45855598E+03</totfact>
</mgrwt>
</event>
<event>
 6    1  0.9263730E-006  0.1600036E+03  0.7546771E-02  0.1196688E+00
         -1   -1    0    0    0  501 -0.00000000000E+00  0.00000000000E+00  0.53054668436E+02  0.53054668436E+02  0.00000000000E+00 0.  1.
          1   -1    0    0  501    0  0.00000000000E+00 -0.00000000000E+00 -0.48621829738E+03  0.48621829738E+03  0.00000000000E+00 0. -1.
          5    1    1    2  502    0  0.75423137970E+01  0.21577390515E+02  0.16677832194E+01  0.23395336708E+02  0.47000000000E+01 0.  1.
         -5    1    1    2    0  502  0.83935876307E+02  0.18540200256E+02 -0.34206537759E+03  0.35273188530E+03  0.47000000000E+01 0.  1.
        -11    1    1    2    0    0 -0.71047305618E+02 -0.49076834031E+02 -0.22229006357E+02  0.89164925827E+02  0.00000000000E+00 0.  1.
         11    1    1    2    0    0 -0.20430884486E+02  0.89592432605E+01 -0.70537028208E+02  0.73980817980E+02  0.00000000000E+00 0. -1.
<mgrwt>
<rscale>  0 0.15312271E+03</rscale>
<asrwt>0</asrwt>
<pdfrwt beam="2">  1        1 0.74802816E-01 0.16000364E+03</pdfrwt>
<pdfrwt beam="1">  1       -1 0.81622566E-02 0.16000364E+03</pdfrwt>
<totfact> 0.38199758E+03</totfact>
</mgrwt>
</event>
<event>
 6    1  0.9263730E-006  0.1179342E+03  0.7546771E-02  0.1260136E+00
          2   -1    0    0  501    0  0.00000000000E+00  0.00000000000E+00  0.11186396930E+03  0.11186396930E+03  0.00000000000E+00 0. -1.
         -2   -1    0    0    0  501 -0.00000000000E+00 -0.00000000000E+00 -0.96859433032E+02  0.96859433032E+02  0.00000000000E+00 0.  1.
          5    1    1    2  502    0  0.29419651536E+02 -0.62911003213E+02  0.25588997035E+02  0.74163312972E+02  0.47000000000E+01 0. -1.
         -5    1    1    2    0  502 -0.18010545310E+02  0.38542697060E+02 -0.12256270725E+02  0.44522190098E+02  0.47000000000E+01 0.  1.
        -11    1    1    2    0    0  0.31407383113E+02  0.21054397190E+02  0.20654448793E+02  0.43085004468E+02  0.00000000000E+00 0.  1.
         11    1    1    2    0    0 -0.42816489338E+02  0.33139089633E+01 -0.18982638839E+02  0.46952894790E+02  0.00000000000E+00 0. -1.
<mgrwt>
<rscale>  0 0.11023451E+03</rscale>
<asrwt>0</asrwt>
<pdfrwt beam="1">  1        2 0.17209841E-01 0.11793425E+03</pdfrwt>
<pdfrwt beam="2">  1       -2 0.14901451E-01 0.11793425E+03</pdfrwt>
<totfact> 0.10624216E+04</totfact>
</mgrwt>
</event>
<event>
 6    1  0.9263730E-006  0.2696541E+03  0.7546771E-02  0.1104009E+00
          2   -1    0    0  501    0  0.00000000000E+00  0.00000000000E+00  0.10340058596E+04  0.10340058596E+04  0.00000000000E+00 0.  1.
         -2   -1    0    0    0  501 -0.00000000000E+00 -0.00000000000E+00 -0.66498528244E+02  0.66498528244E+02  0.00000000000E+00 0. -1.
          5    1    1    2  502    0  0.77631978921E-01  0.11299140065E+02  0.15938996199E+03  0.15985908349E+03  0.47000000000E+01 0.  1.
         -5    1    1    2    0  502 -0.98920644823E+02  0.20623086181E+03  0.39025665710E+03  0.45237021425E+03  0.47000000000E+01 0.  1.
        -11    1    1    2    0    0  0.45572811073E+02 -0.13047992675E+03  0.31194573689E+03  0.34119207957E+03  0.00000000000E+00 0.  1.
         11    1    1    2    0    0  0.53270201772E+02 -0.87050075127E+02  0.10591497536E+03  0.14708301052E+03  0.00000000000E+00 0. -1.
<mgrwt>
<rscale>  0 0.26528460E+03</rscale>
<asrwt>0</asrwt>
<pdfrwt beam="1">  1        2 0.15907781E+00 0.26965405E+03</pdfrwt>
<pdfrwt beam="2">  1       -2 0.10230544E-01 0.26965405E+03</pdfrwt>
<totfact> 0.16011149E+03</totfact>
</mgrwt>
</event>
<event>
 6    1  0.9263730E-006  0.1303830E+03  0.7546771E-02  0.1242199E+00
         -1   -1    0    0    0  501 -0.00000000000E+00  0.00000000000E+00  0.24179605420E+03  0.24179605420E+03  0.00000000000E+00 0.  1.
          1   -1    0    0  501    0  0.00000000000E+00 -0.00000000000E+00 -0.53321080869E+02  0.53321080869E+02  0.00000000000E+00 0. -1.
          5    1    1    2  502    0 -0.46767417435E+01  0.62466698057E+02  0.88793241969E+02  0.10876713704E+03  0.47000000000E+01 0. -1.
         -5    1    1    2    0  502  0.23965155404E+02 -0.44619576083E+02  0.35202970586E+01  0.50987427222E+02  0.47000000000E+01 0.  1.
        -11    1    1    2    0    0  0.13206248776E+02 -0.26457363731E+02 -0.38805753285E+01  0.29823748376E+02  0.00000000000E+00 0. -1.
         11    1    1    2    0    0 -0.32494662436E+02  0.86102417561E+01  0.10004200963E+03  0.10553882243E+03  0.00000000000E+00 0.  1.
<mgrwt>
<rscale>  0 0.12054595E+03</rscale>
<asrwt>0</asrwt>
<pdfrwt beam="2">  1        1 0.82032434E-02 0.13038302E+03</pdfrwt>
<pdfrwt beam="1">  1       -1 0.37199392E-01 0.13038302E+03</pdfrwt>
<totfact> 0.56000220E+03</totfact>
</mgrwt>
</event>
<event>
 6    1  0.9263730E-006  0.1286414E+03  0.7546771E-02  0.1243742E+00
         -4   -1    0    0    0  501 -0.00000000000E+00  0.00000000000E+00  0.71716722787E+02  0.71716722787E+02  0.00000000000E+00 0.  1.
          4   -1    0    0  501    0  0.00000000000E+00 -0.00000000000E+00 -0.23869108999E+03  0.23869108999E+03  0.00000000000E+00 0. -1.
          5    1    1    2  502    0 -0.46206937616E+02  0.33801165648E+02 -0.21602483566E+02  0.61370654056E+02  0.47000000000E+01 0. -1.
         -5    1    1    2    0  502  0.16950677161E+02 -0.25486231082E+02 -0.14962662119E+03  0.15279754317E+03  0.47000000000E+01 0. -1.
        -11    1    1    2    0    0  0.21171754509E+02 -0.19868861245E+02  0.44758623636E+02  0.53351187671E+02  0.00000000000E+00 0.  1.
         11    1    1    2    0    0  0.80845059457E+01  0.11553926678E+02 -0.40503886088E+02  0.42888427884E+02  0.00000000000E+00 0. -1.
<mgrwt>
<rscale>  0 0.11961010E+03</rscale>
<asrwt>0</asrwt>
<pdfrwt beam="2">  1        4 0.36721706E-01 0.12864140E+03</pdfrwt>
<pdfrwt beam="1">  1       -4 0.11033342E-01 0.12864140E+03</pdfrwt>
<totfact> 0.75582934E+02</totfact>
</mgrwt>
</event>
<event>
 6    1  0.9263730E-006  0.1279587E+03  0.7546771E-02  0.1244208E+00
         -2   -1    0    0    0  501 -0.00000000000E+00  0.00000000000E+00  0.46791095314E+02  0.46791095314E+02  0.00000000000E+00 0.  1.
          2   -1    0    0  501    0  0.00000000000E+00 -0.00000000000E+00 -0.27056492165E+03  0.27056492165E+03  0.00000000000E+00 0. -1.
          5    1    1    2  502    0 -0.43374099746E+00  0.17225780390E+02 -0.14177462822E+03  0.14289524432E+03  0.47000000000E+01 0.  1.
         -5    1    1    2    0  502 -0.14437991908E+02 -0.40202365308E+02  0.63258850523E+01  0.43437226067E+02  0.47000000000E+01 0.  1.
        -11    1    1    2    0    0 -0.37018565190E+02  0.36529725540E+01 -0.54996826062E+02  0.66395551463E+02  0.00000000000E+00 0. -1.
         11    1    1    2    0    0  0.51890298096E+02  0.19323612364E+02 -0.33328257107E+02  0.64627995119E+02  0.00000000000E+00 0.  1.
<mgrwt>
<rscale>  0 0.11932893E+03</rscale>
<asrwt>0</asrwt>
<pdfrwt beam="2">  1        2 0.41625373E-01 0.12795869E+03</pdfrwt>
<pdfrwt beam="1">  1       -2 0.71986300E-02 0.12795869E+03</pdfrwt>
<totfact> 0.12780625E+04</totfact>
</mgrwt>
</event>
<event>
 6    1  0.9263730E-006  0.1310499E+03  0.7546771E-02  0.1239040E+00
         -3   -1    0    0    0  501 -0.00000000000E+00  0.00000000000E+00  0.14370163971E+03  0.14370163971E+03  0.00000000000E+00 0.  1.
          3   -1    0    0  501    0  0.00000000000E+00 -0.00000000000E+00 -0.11687086448E+03  0.11687086448E+03  0.00000000000E+00 0. -1.
          5    1    1    2  502    0  0.45886972666E+02 -0.64900805426E+02 -0.13839611341E+02  0.80816790629E+02  0.47000000000E+01 0.  1.
         -5    1    1    2    0  502 -0.10587752593E+02  0.47536710676E+02 -0.29896128548E+02  0.57338537381E+02  0.47000000000E+01 0.  1.
        -11    1    1    2    0    0 -0.51011242987E+02  0.35186350362E+02  0.75982182789E+02  0.98048550546E+02  0.00000000000E+00 0.  1.
         11    1    1    2    0    0  0.15712022914E+02 -0.17822255611E+02 -0.54156676692E+01  0.24368625637E+02  0.00000000000E+00 0. -1.
<mgrwt>
<rscale>  0 0.12249318E+03</rscale>
<asrwt>0</asrwt>
<pdfrwt beam="2">  1        3 0.17980133E-01 0.13104991E+03</pdfrwt>
<pdfrwt beam="1">  1       -3 0.22107944E-01 0.13104991E+03</pdfrwt>
<totfact> 0.11636738E+03</totfact>
</mgrwt>
</event>
<event>
 6    1  0.1097526E-005  0.2050147E+03  0.7546771E-02  0.1149611E+00
          1   -1    0    0  501    0  0.00000000000E+00  0.00000000000E+00  0.23064951272E+03  0.23064951272E+03  0.00000000000E+00 0. -1.
         -1   -1    0    0    0  501 -0.00000000000E+00 -0.00000000000E+00 -0.18731427511E+03  0.18731427511E+03  0.00000000000E+00 0.  1.
          5    1    1    2  502    0 -0.41641737123E+02 -0.41833301393E+02 -0.48341080201E+01  0.59409746477E+02  0.47000000000E+01 0.  1.
         -5    1    1    2    0  502  0.59438953743E+02 -0.11969248049E+03  0.97966212822E+02  0.16576714983E+03  0.47000000000E+01 0.  1.
        -11    1    1    2    0    0  0.32612438694E+02  0.53037404856E+02  0.23066607831E+01  0.62304559668E+02  0.00000000000E+00 0.  1.
         11    1    1    2    0    0 -0.50409655314E+02  0.10848837703E+03 -0.52103527981E+02  0.13048233186E+03  0.00000000000E+00 0. -1.
<mgrwt>
<rscale>  0 0.20015192E+03</rscale>
<asrwt>0</asrwt>
<pdfrwt beam="1">  1        1 0.35484540E-01 0.20501475E+03</pdfrwt>
<pdfrwt beam="2">  1       -1 0.28817581E-01 0.20501475E+03</pdfrwt>
<totfact> 0.13319956E+03</totfact>
</mgrwt>
</event>
<event>
 6    1  0.9263730E-006  0.1330538E+03  0.7546771E-02  0.1235609E+00
          1   -1    0    0  501    0  0.00000000000E+00  0.00000000000E+00  0.14587846225E+03  0.14587846225E+03  0.00000000000E+00 0. -1.
         -1   -1    0    0    0  501 -0.00000000000E+00 -0.00000000000E+00 -0.12308598242E+03  0.12308598242E+03  0.00000000000E+00 0.  1.
          5    1    1    2  502    0 -0.10376062912E+02  0.54965855319E+02  0.51744607424E+01  0.56371739165E+02  0.47000000000E+01 0.  1.
         -5    1    1    2    0  502  0.53056415664E+02 -0.38944340652E+02  0.71076351539E+02  0.96982383246E+02  0.47000000000E+01 0.  1.
        -11    1    1    2    0    0  0.58418804308E+01 -0.29321871715E+02 -0.57837315743E+02  0.65108024238E+02  0.00000000000E+00 0.  1.
         11    1    1    2    0    0 -0.48522233183E+02  0.13300357048E+02  0.43789832997E+01  0.50502298021E+02  0.00000000000E+00 0. -1.
<mgrwt>
<rscale>  0 0.12465512E+03</rscale>
<asrwt>0</asrwt>
<pdfrwt beam="1">  1        1 0.22442840E-01 0.13305375E+03</pdfrwt>
<pdfrwt beam="2">  1       -1 0.18936305E-01 0.13305375E+03</pdfrwt>
<totfact> 0.46342872E+03</totfact>
</mgrwt>
</event>
<event>
 6    1  0.9263730E-006  0.1410605E+03  0.7546771E-02  0.1222798E+00
          2   -1    0    0  501    0  0.00000000000E+00  0.00000000000E+00  0.11407775772E+03  0.11407775772E+03  0.00000000000E+00 0. -1.
         -2   -1    0    0    0  501 -0.00000000000E+00 -0.00000000000E+00 -0.18570415356E+03  0.18570415356E+03  0.00000000000E+00 0.  1.
          5    1    1    2  502    0 -0.87746273631E+02  0.17760515131E+01  0.43229529097E+02  0.97946133569E+02  0.47000000000E+01 0. -1.
         -5    1    1    2    0  502  0.31066037638E+02 -0.34339763193E+02 -0.85293427600E+01  0.47319739206E+02  0.47000000000E+01 0. -1.
        -11    1    1    2    0    0  0.34782396505E+02  0.45082400361E+02 -0.13767245202E+02  0.58581353428E+02  0.00000000000E+00 0. -1.
         11    1    1    2    0    0  0.21897839488E+02 -0.12518688681E+02 -0.92559336977E+02  0.95934685084E+02  0.00000000000E+00 0.  1.
<mgrwt>
<rscale>  0 0.13318964E+03</rscale>
<asrwt>0</asrwt>
<pdfrwt beam="1">  1        2 0.17550424E-01 0.14106052E+03</pdfrwt>
<pdfrwt beam="2">  1       -2 0.28569870E-01 0.14106052E+03</pdfrwt>
<totfact> 0.34795862E+03</totfact>
</mgrwt>
</event>
<event>
 6    1  0.9984392E-006  0.1334117E+03  0.7546771E-02  0.1235174E+00
          1   -1    0    0  501    0  0.00000000000E+00  0.00000000000E+00  0.54626092925E+02  0.54626092925E+02  0.00000000000E+00 0. -1.
         -1   -1    0    0    0  501 -0.00000000000E+00 -0.00000000000E+00 -0.25737478405E+03  0.25737478405E+03  0.00000000000E+00 0.  1.
          5    1    1    2  502    0 -0.15132353429E+02 -0.77124626905E+02 -0.78983056973E+02  0.11152403097E+03  0.47000000000E+01 0. -1.
         -5    1    1    2    0  502  0.36154780678E+02  0.35508473471E+02 -0.20370990948E+02  0.54818674978E+02  0.47000000000E+01 0. -1.
        -11    1    1    2    0    0 -0.38349170668E+02  0.36288712110E+02 -0.14246063658E+02  0.54685279988E+02  0.00000000000E+00 0. -1.
         11    1    1    2    0    0  0.17326743419E+02  0.53274413239E+01 -0.89148579544E+02  0.90972891035E+02  0.00000000000E+00 0.  1.
<mgrwt>
<rscale>  0 0.12493309E+03</rscale>
<asrwt>0</asrwt>
<pdfrwt beam="1">  1        1 0.84040143E-02 0.13341165E+03</pdfrwt>
<pdfrwt beam="2">  1       -1 0.39596121E-01 0.13341165E+03</pdfrwt>
<totfact> 0.48716377E+03</totfact>
</mgrwt>
</event>
<event>
 6    1  0.9263730E-006  0.8998444E+03  0.7546771E-02  0.9425776E-01
         -3   -1    0    0    0  501 -0.00000000000E+00  0.00000000000E+00  0.42378494934E+03  0.42378494934E+03  0.00000000000E+00 0.  1.
          3   -1    0    0  501    0  0.00000000000E+00 -0.00000000000E+00 -0.47767152090E+03  0.47767152090E+03  0.00000000000E+00 0. -1.
          5    1    1    2  502    0 -0.11571839648E+03  0.12086388973E+03 -0.42571409096E+03  0.45744224156E+03  0.47000000000E+01 0. -1.
         -5    1    1    2    0  502  0.18134364872E+02 -0.27072899050E+01 -0.10832506506E+02  0.21808663534E+02  0.47000000000E+01 0. -1.
        -11    1    1    2    0    0  0.10586039042E+02 -0.33403394808E+02  0.21361829660E+02  0.41038747224E+02  0.00000000000E+00 0. -1.
         11    1    1    2    0    0  0.86997992568E+02 -0.84753205014E+02  0.36129819625E+03  0.38116681792E+03  0.00000000000E+00 0.  1.
<mgrwt>
<rscale>  0 0.89984443E+03</rscale>
<asrwt>0</asrwt>
<pdfrwt beam="2">  1        3 0.73487926E-01 0.89984443E+03</pdfrwt>
<pdfrwt beam="1">  1       -3 0.65197685E-01 0.89984443E+03</pdfrwt>
<totfact> 0.10494606E+01</totfact>
</mgrwt>
</event>
<event>
 6    1  0.9263730E-006  0.1368655E+03  0.7546771E-02  0.1229078E+00
         -1   -1    0    0    0  501 -0.00000000000E+00  0.00000000000E+00  0.64943337883E+03  0.64943337883E+03  0.00000000000E+00 0.  1.
          1   -1    0    0  501    0  0.00000000000E+00 -0.00000000000E+00 -0.29162363956E+02  0.29162363956E+02  0.00000000000E+00 0. -1.
          5    1    1    2  502    0 -0.61371582242E+01 -0.71438139526E+02  0.13548250398E+03  0.15335798439E+03  0.47000000000E+01 0.  1.
         -5    1    1    2    0  502  0.47446755346E+02  0.34024564608E+02  0.49104106725E+02  0.76434081971E+02  0.47000000000E+01 0.  1.
        -11    1    1    2    0    0  0.25271733263E+02 -0.82566231987E+01  0.92124856859E+02  0.95884417817E+02  0.00000000000E+00 0.  1.
         11    1    1    2    0    0 -0.66581330385E+02  0.45670198117E+02  0.34355954731E+03  0.35291925861E+03  0.00000000000E+00 0. -1.
<mgrwt>
<rscale>  0 0.12891273E+03</rscale>
<asrwt>0</asrwt>
<pdfrwt beam="2">  1        1 0.44865180E-02 0.13686554E+03</pdfrwt>
<pdfrwt beam="1">  1       -1 0.99912817E-01 0.13686554E+03</pdfrwt>
<totfact> 0.19011710E+03</totfact>
</mgrwt>
</event>
<event>
 6    1  0.9263730E-006  0.1387949E+03  0.7546771E-02  0.1225987E+00
          1   -1    0    0  501    0  0.00000000000E+00  0.00000000000E+00  0.10936055593E+04  0.10936055593E+04  0.00000000000E+00 0. -1.
         -1   -1    0    0    0  501 -0.00000000000E+00 -0.00000000000E+00 -0.17012081973E+02  0.17012081973E+02  0.00000000000E+00 0.  1.
          5    1    1    2  502    0 -0.31889305618E+01 -0.93716148276E+02  0.42470802682E+03  0.43496193370E+03  0.47000000000E+01 0.  1.
         -5    1    1    2    0  502 -0.13897641519E+01  0.33564189303E+02  0.39113709418E+03  0.39260514858E+03  0.47000000000E+01 0.  1.
        -11    1    1    2    0    0 -0.15534489814E+02 -0.21143796689E+02  0.56232203930E+02  0.62051923991E+02  0.00000000000E+00 0.  1.
         11    1    1    2    0    0  0.20113184528E+02  0.81295755662E+02  0.20451615242E+03  0.22099863502E+03  0.00000000000E+00 0. -1.
<mgrwt>
<rscale>  0 0.13099457E+03</rscale>
<asrwt>0</asrwt>
<pdfrwt beam="1">  1        1 0.16824695E+00 0.13879486E+03</pdfrwt>
<pdfrwt beam="2">  1       -1 0.26172442E-02 0.13879486E+03</pdfrwt>
<totfact> 0.61387598E+03</totfact>
</mgrwt>
</event>
<event>
 6    1  0.9263730E-006  0.4285794E+03  0.7546771E-02  0.1034987E+00
         -2   -1    0    0    0  501 -0.00000000000E+00  0.00000000000E+00  0.73960559340E+02  0.73960559340E+02  0.00000000000E+00 0.  1.
          2   -1    0    0  501    0  0.00000000000E+00 -0.00000000000E+00 -0.25905456649E+04  0.25905456649E+04  0.00000000000E+00 0. -1.
          5    1    1    2  502    0  0.21614710620E+03  0.17780343347E+03 -0.96780934999E+03  0.10074773746E+04  0.47000000000E+01 0. -1.
         -5    1    1    2    0  502  0.14572560577E+03  0.14816259110E+02 -0.62893820430E+03  0.64578698387E+03  0.47000000000E+01 0. -1.
        -11    1    1    2    0    0 -0.26329010065E+03 -0.16194186662E+03 -0.76552138950E+03  0.82557243356E+03  0.00000000000E+00 0. -1.
         11    1    1    2    0    0 -0.98582611313E+02 -0.30677825955E+02 -0.15431616173E+03  0.18566943214E+03  0.00000000000E+00 0.  1.
<mgrwt>
<rscale>  0 0.42645117E+03</rscale>
<asrwt>0</asrwt>
<pdfrwt beam="2">  1        2 0.39854542E+00 0.42857938E+03</pdfrwt>
<pdfrwt beam="1">  1       -2 0.11378550E-01 0.42857938E+03</pdfrwt>
<totfact> 0.18633245E+02</totfact>
</mgrwt>
</event>
<event>
 6    1  0.9263730E-006  0.2450177E+03  0.7546771E-02  0.1121638E+00
          1   -1    0    0  501    0  0.00000000000E+00  0.00000000000E+00  0.20456713120E+04  0.20456713120E+04  0.00000000000E+00 0. -1.
         -1   -1    0    0    0  501 -0.00000000000E+00 -0.00000000000E+00 -0.34575602865E+02  0.34575602865E+02  0.00000000000E+00 0.  1.
          5    1    1    2  502    0  0.54320874802E+02  0.93165374425E+02  0.97120637126E+03  0.97718700872E+03  0.47000000000E+01 0. -1.
         -5    1    1    2    0  502  0.12488357302E+03 -0.13936935992E+02  0.60284799108E+03  0.61582297404E+03  0.47000000000E+01 0.  1.
        -11    1    1    2    0    0 -0.32846063396E+02  0.19646734029E+02  0.65844142190E+02  0.76159760368E+02  0.00000000000E+00 0.  1.
         11    1    1    2    0    0 -0.14635838443E+03 -0.98875172463E+02  0.37119720457E+03  0.41107717171E+03  0.00000000000E+00 0. -1.
<mgrwt>
<rscale>  0 0.23725022E+03</rscale>
<asrwt>0</asrwt>
<pdfrwt beam="1">  1        1 0.31471857E+00 0.24501769E+03</pdfrwt>
<pdfrwt beam="2">  1       -1 0.53193251E-02 0.24501769E+03</pdfrwt>
<totfact> 0.50710432E+02</totfact>
</mgrwt>
</event>
<event>
 6    1  0.9263730E-006  0.1277314E+03  0.7546771E-02  0.1244819E+00
          1   -1    0    0  501    0  0.00000000000E+00  0.00000000000E+00  0.47919072117E+02  0.47919072117E+02  0.00000000000E+00 0. -1.
         -1   -1    0    0    0  501 -0.00000000000E+00 -0.00000000000E+00 -0.30712229726E+03  0.30712229726E+03  0.00000000000E+00 0.  1.
          5    1    1    2  502    0  0.33606496843E+02  0.36456395150E+02 -0.12686665332E+02  0.51395591782E+02  0.47000000000E+01 0. -1.
         -5    1    1    2    0  502 -0.58616309553E+02 -0.44196900592E+02 -0.64582123943E+02  0.97888602506E+02  0.47000000000E+01 0. -1.
        -11    1    1    2    0    0  0.27033740035E+01 -0.34906499330E+02 -0.13134608948E+03  0.13593221527E+03  0.00000000000E+00 0.  1.
         11    1    1    2    0    0  0.22306438706E+02  0.42647004771E+02 -0.50588346391E+02  0.69824959823E+02  0.00000000000E+00 0. -1.
<mgrwt>
<rscale>  0 0.11896192E+03</rscale>
<asrwt>0</asrwt>
<pdfrwt beam="1">  1        1 0.73721649E-02 0.12773138E+03</pdfrwt>
<pdfrwt beam="2">  1       -1 0.47249585E-01 0.12773138E+03</pdfrwt>
<totfact> 0.42308963E+03</totfact>
</mgrwt>
</event>
<event>
 6    1  0.9263730E-006  0.3740083E+03  0.7546771E-02  0.1053171E+00
          1   -1    0    0  501    0  0.00000000000E+00  0.00000000000E+00  0.42099929986E+02  0.42099929986E+02  0.00000000000E+00 0. -1.
         -1   -1    0    0    0  501 -0.00000000000E+00 -0.00000000000E+00 -0.83065585830E+03  0.83065585830E+03  0.00000000000E+00 0.  1.
          5    1    1    2  502    0  0.54573400873E+02  0.12129068891E+03 -0.12266900109E+03  0.18099574892E+03  0.47000000000E+01 0. -1.
         -5    1    1    2    0  502  0.15898532180E+02 -0.28623870330E+02 -0.63930145821E+02  0.71980850390E+02  0.47000000000E+01 0. -1.
        -11    1    1    2    0    0 -0.66101542331E+02 -0.22998392778E+02 -0.20211440637E+03  0.21388916109E+03  0.00000000000E+00 0. -1.
         11    1    1    2    0    0 -0.43703907218E+01 -0.69668425798E+02 -0.39984237504E+03  0.40589002789E+03  0.00000000000E+00 0.  1.
<mgrwt>
<rscale>  0 0.37400831E+03</rscale>
<asrwt>0</asrwt>
<pdfrwt beam="1">  1        1 0.64769123E-02 0.37400831E+03</pdfrwt>
<pdfrwt beam="2">  1       -1 0.12779321E+00 0.37400831E+03</pdfrwt>
<totfact> 0.66110326E+02</totfact>
</mgrwt>
</event>
<event>
 6    1  0.9263730E-006  0.2775264E+03  0.7546771E-02  0.1098961E+00
          2   -1    0    0  501    0  0.00000000000E+00  0.00000000000E+00  0.88446167346E+03  0.88446167346E+03  0.00000000000E+00 0. -1.
         -2   -1    0    0    0  501 -0.00000000000E+00 -0.00000000000E+00 -0.14419409309E+03  0.14419409309E+03  0.00000000000E+00 0.  1.
          5    1    1    2  502    0  0.41906673369E+02  0.77826129592E+01  0.37548265403E+02  0.56997373379E+02  0.47000000000E+01 0.  1.
         -5    1    1    2    0  502  0.14169951281E+03  0.15860565666E+03  0.67315906660E+03  0.70597430917E+03  0.47000000000E+01 0.  1.
        -11    1    1    2    0    0 -0.77459516106E+02 -0.11142971851E+03  0.49595087275E+02  0.14448609443E+03  0.00000000000E+00 0. -1.
         11    1    1    2    0    0 -0.10614667007E+03 -0.54958551115E+02 -0.20034838903E+02  0.12119798958E+03  0.00000000000E+00 0.  1.
<mgrwt>
<rscale>  0 0.27409010E+03</rscale>
<asrwt>0</asrwt>
<pdfrwt beam="1">  1        2 0.13607102E+00 0.27752635E+03</pdfrwt>
<pdfrwt beam="2">  1       -2 0.22183707E-01 0.27752635E+03</pdfrwt>
<totfact> 0.54839570E+02</totfact>
</mgrwt>
</event>
<event>
 6    1  0.9263730E-006  0.1686278E+03  0.7546771E-02  0.1186284E+00
          3   -1    0    0  501    0  0.00000000000E+00  0.00000000000E+00  0.89504222713E+03  0.89504222713E+03  0.00000000000E+00 0. -1.
         -3   -1    0    0    0  501 -0.00000000000E+00 -0.00000000000E+00 -0.36696374139E+02  0.36696374139E+02  0.00000000000E+00 0.  1.
          5    1    1    2  502    0  0.20326315082E+01 -0.57158516013E+02  0.22401618757E+03  0.23125001587E+03  0.47000000000E+01 0. -1.
         -5    1    1    2    0  502  0.10741688980E+03  0.28196517550E+02  0.46491586035E+03  0.47801911994E+03  0.47000000000E+01 0. -1.
        -11    1    1    2    0    0 -0.36793453622E+02  0.46259101246E+01  0.60889708934E+00  0.37088111702E+02  0.00000000000E+00 0.  1.
         11    1    1    2    0    0 -0.72656067686E+02  0.24336088339E+02  0.16880490797E+03  0.18538135376E+03  0.00000000000E+00 0. -1.
<mgrwt>
<rscale>  0 0.16215598E+03</rscale>
<asrwt>0</asrwt>
<pdfrwt beam="1">  1        3 0.13769879E+00 0.16862782E+03</pdfrwt>
<pdfrwt beam="2">  1       -3 0.56455967E-02 0.16862782E+03</pdfrwt>
<totfact> 0.19164955E+02</totfact>
</mgrwt>
</event>
<event>
 6    1  0.9263730E-006  0.2327959E+03  0.7546771E-02  0.1124687E+00
         -1   -1    0    0    0  501 -0.00000000000E+00  0.00000000000E+00  0.16510990626E+03  0.16510990626E+03  0.00000000000E+00 0.  1.
          1   -1    0    0  501    0  0.00000000000E+00 -0.00000000000E+00 -0.82057372388E+02  0.82057372388E+02  0.00000000000E+00 0. -1.
          5    1    1    2  502    0 -0.33466130196E+02 -0.37513360140E+02  0.79535730584E+02  0.94208579751E+02  0.47000000000E+01 0.  1.
         -5    1    1    2    0  502  0.83639244112E+01  0.49403487576E+01 -0.41406847898E+02  0.42789944266E+02  0.47000000000E+01 0.  1.
        -11    1    1    2    0    0 -0.97892055139E+01 -0.27138422787E+02  0.23246475434E+01  0.28943505699E+02  0.00000000000E+00 0. -1.
         11    1    1    2    0    0  0.34891411299E+02  0.59711434170E+02  0.42599003647E+02  0.81225248936E+02  0.00000000000E+00 0.  1.
<mgrwt>
<rscale>  0 0.23279592E+03</rscale>
<asrwt>0</asrwt>
<pdfrwt beam="2">  1        1 0.12624211E-01 0.23279592E+03</pdfrwt>
<pdfrwt beam="1">  1       -1 0.25401524E-01 0.23279592E+03</pdfrwt>
<totfact> 0.62478350E+03</totfact>
</mgrwt>
</event>
<event>
 6    1  0.9263730E-006  0.2743454E+03  0.7546771E-02  0.1098818E+00
         -1   -1    0    0    0  501 -0.00000000000E+00  0.00000000000E+00  0.49974422190E+02  0.49974422190E+02  0.00000000000E+00 0.  1.
          1   -1    0    0  501    0  0.00000000000E+00 -0.00000000000E+00 -0.37651968295E+03  0.37651968295E+03  0.00000000000E+00 0. -1.
          5    1    1    2  502    0  0.10523218152E+03 -0.57881563625E+01 -0.20087402140E+03  0.22689155395E+03  0.47000000000E+01 0.  1.
         -5    1    1    2    0  502 -0.32285480616E+02 -0.15022200728E+02 -0.32035887779E+02  0.48129064806E+02  0.47000000000E+01 0.  1.
        -11    1    1    2    0    0 -0.32827045352E+02  0.49294984766E+02 -0.19226168152E+02  0.62267615752E+02  0.00000000000E+00 0.  1.
         11    1    1    2    0    0 -0.40119655557E+02 -0.28484627676E+02 -0.74409183432E+02  0.89205870630E+02  0.00000000000E+00 0. -1.
<mgrwt>
<rscale>  0 0.27434543E+03</rscale>
<asrwt>0</asrwt>
<pdfrwt beam="2">  1        1 0.57926104E-01 0.27434543E+03</pdfrwt>
<pdfrwt beam="1">  1       -1 0.76883728E-02 0.27434543E+03</pdfrwt>
<totfact> 0.59595763E+03</totfact>
</mgrwt>
</event>
<event>
 6    1  0.9263730E-006  0.1272608E+03  0.7546771E-02  0.1247908E+00
         -1   -1    0    0    0  501 -0.00000000000E+00  0.00000000000E+00  0.19923432532E+02  0.19923432532E+02  0.00000000000E+00 0.  1.
          1   -1    0    0  501    0  0.00000000000E+00 -0.00000000000E+00 -0.59961057373E+03  0.59961057373E+03  0.00000000000E+00 0. -1.
          5    1    1    2  502    0  0.24420603667E+02 -0.53193385986E+02 -0.74294190625E+02  0.94697512938E+02  0.47000000000E+01 0.  1.
         -5    1    1    2    0  502 -0.75461332696E+01  0.36176020700E+02 -0.26634268866E+03  0.26893524575E+03  0.47000000000E+01 0.  1.
        -11    1    1    2    0    0 -0.46486368467E+02  0.33044203569E+02 -0.16429339719E+03  0.17391153556E+03  0.00000000000E+00 0.  1.
         11    1    1    2    0    0  0.29611898070E+02 -0.16026838283E+02 -0.74756864726E+02  0.81989712015E+02  0.00000000000E+00 0. -1.
<mgrwt>
<rscale>  0 0.11713033E+03</rscale>
<asrwt>0</asrwt>
<pdfrwt beam="2">  1        1 0.92247765E-01 0.12726075E+03</pdfrwt>
<pdfrwt beam="1">  1       -1 0.30651440E-02 0.12726075E+03</pdfrwt>
<totfact> 0.12187613E+04</totfact>
</mgrwt>
</event>
<event>
 6    1  0.9263730E-006  0.1653330E+03  0.7546771E-02  0.1189979E+00
          1   -1    0    0  501    0  0.00000000000E+00  0.00000000000E+00  0.25813777037E+03  0.25813777037E+03  0.00000000000E+00 0. -1.
         -1   -1    0    0    0  501 -0.00000000000E+00 -0.00000000000E+00 -0.90883029537E+02  0.90883029537E+02  0.00000000000E+00 0.  1.
          5    1    1    2  502    0  0.56028275011E+02  0.39203556335E+02  0.10664513886E+03  0.12677287593E+03  0.47000000000E+01 0. -1.
         -5    1    1    2    0  502  0.51180018282E+02 -0.24510530742E+02 -0.19416057831E+02  0.60160067240E+02  0.47000000000E+01 0. -1.
        -11    1    1    2    0    0 -0.11245295472E+03 -0.35608301686E+02  0.75517075430E+02  0.14005872646E+03  0.00000000000E+00 0. -1.
         11    1    1    2    0    0  0.52446614309E+01  0.20915276093E+02  0.45085843706E+01  0.22029130273E+02  0.00000000000E+00 0.  1.
<mgrwt>
<rscale>  0 0.15886931E+03</rscale>
<asrwt>0</asrwt>
<pdfrwt beam="1">  1        1 0.39713503E-01 0.16533304E+03</pdfrwt>
<pdfrwt beam="2">  1       -1 0.13982005E-01 0.16533304E+03</pdfrwt>
<totfact> 0.37117821E+03</totfact>
</mgrwt>
</event>
<event>
 6    1  0.9263730E-006  0.3683616E+03  0.7546771E-02  0.1055321E+00
         -1   -1    0    0    0  501 -0.00000000000E+00  0.00000000000E+00  0.71907985388E+02  0.71907985388E+02  0.00000000000E+00 0.  1.
          1   -1    0    0  501    0  0.00000000000E+00 -0.00000000000E+00 -0.47174977376E+03  0.47174977376E+03  0.00000000000E+00 0. -1.
          5    1    1    2  502    0 -0.68525130187E+01  0.52418000325E+01 -0.17785532955E+03  0.17812647656E+03  0.47000000000E+01 0. -1.
         -5    1    1    2    0  502 -0.77172494740E+02 -0.95253702004E+02 -0.15047281094E+03  0.19414689934E+03  0.47000000000E+01 0. -1.
        -11    1    1    2    0    0  0.51931862404E+02  0.10370052518E+03 -0.35611880263E+02  0.12132156968E+03  0.00000000000E+00 0.  1.
         11    1    1    2    0    0  0.32093145355E+02 -0.13688623206E+02 -0.35901767620E+02  0.50062813568E+02  0.00000000000E+00 0. -1.
<mgrwt>
<rscale>  0 0.36836165E+03</rscale>
<asrwt>0</asrwt>
<pdfrwt beam="2">  1        1 0.72576891E-01 0.36836165E+03</pdfrwt>
<pdfrwt beam="1">  1       -1 0.11062767E-01 0.36836165E+03</pdfrwt>
<totfact> 0.25497083E+03</totfact>
</mgrwt>
</event>
<event>
 6    1  0.9263730E-006  0.1740231E+03  0.7546771E-02  0.1175651E+00
         -1   -1    0    0    0  501 -0.00000000000E+00  0.00000000000E+00  0.27965079753E+03  0.27965079753E+03  0.00000000000E+00 0.  1.
          1   -1    0    0  501    0  0.00000000000E+00 -0.00000000000E+00 -0.10603202361E+03  0.10603202361E+03  0.00000000000E+00 0. -1.
          5    1    1    2  502    0  0.71982361322E+02  0.45231514567E+02  0.66346552945E+02  0.10794121242E+03  0.47000000000E+01 0. -1.
         -5    1    1    2    0  502 -0.31501812137E+02  0.68875855505E+02 -0.63130905360E+01  0.76145864967E+02  0.47000000000E+01 0. -1.
        -11    1    1    2    0    0 -0.26210515767E+02 -0.40669302481E+02  0.11709957558E+03  0.12670159392E+03  0.00000000000E+00 0.  1.
         11    1    1    2    0    0 -0.14270033418E+02 -0.73438067590E+02 -0.35142640752E+01  0.74894149819E+02  0.00000000000E+00 0. -1.
<mgrwt>
<rscale>  0 0.17212420E+03</rscale>
<asrwt>0</asrwt>
<pdfrwt beam="2">  1        1 0.16312619E-01 0.17402309E+03</pdfrwt>
<pdfrwt beam="1">  1       -1 0.43023199E-01 0.17402309E+03</pdfrwt>
<totfact> 0.17783183E+03</totfact>
</mgrwt>
</event>
<event>
 6    1  0.9263730E-006  0.1413192E+03  0.7546771E-02  0.1222555E+00
          2   -1    0    0  501    0  0.00000000000E+00  0.00000000000E+00  0.60103998599E+03  0.60103998599E+03  0.00000000000E+00 0. -1.
         -2   -1    0    0    0  501 -0.00000000000E+00 -0.00000000000E+00 -0.54196595785E+02  0.54196595785E+02  0.00000000000E+00 0.  1.
          5    1    1    2  502    0 -0.17656287600E+02  0.92665894360E+01  0.47128594128E+03  0.47173100664E+03  0.47000000000E+01 0.  1.
         -5    1    1    2    0  502 -0.33964021765E+02  0.31734282465E+02  0.50253975198E+02  0.68616116775E+02  0.47000000000E+01 0.  1.
        -11    1    1    2    0    0  0.70227397175E+02 -0.65374461450E+01  0.48320498219E+01  0.70696352251E+02  0.00000000000E+00 0.  1.
         11    1    1    2    0    0 -0.18607087810E+02 -0.34463425756E+02  0.20471423908E+02  0.44193106119E+02  0.00000000000E+00 0. -1.
<mgrwt>
<rscale>  0 0.13335882E+03</rscale>
<asrwt>0</asrwt>
<pdfrwt beam="1">  1        2 0.92467686E-01 0.14131925E+03</pdfrwt>
<pdfrwt beam="2">  1       -2 0.83379382E-02 0.14131925E+03</pdfrwt>
<totfact> 0.43325331E+03</totfact>
</mgrwt>
</event>
<event>
 6    1  0.9263730E-006  0.3303577E+03  0.7546771E-02  0.1070979E+00
         -4   -1    0    0    0  501 -0.00000000000E+00  0.00000000000E+00  0.94787956132E+03  0.94787956132E+03  0.00000000000E+00 0.  1.
          4   -1    0    0  501    0  0.00000000000E+00 -0.00000000000E+00 -0.28784311269E+02  0.28784311269E+02  0.00000000000E+00 0. -1.
          5    1    1    2  502    0  0.23696526636E+02  0.10186930136E+02  0.28358703071E+01  0.26371027295E+02  0.47000000000E+01 0. -1.
         -5    1    1    2    0  502  0.96495448331E+02 -0.22332067606E+02  0.40512333972E+03  0.41708165049E+03  0.47000000000E+01 0. -1.
        -11    1    1    2    0    0 -0.33216773221E+02 -0.38321073429E+02  0.19371608835E+03  0.20024430473E+03  0.00000000000E+00 0.  1.
         11    1    1    2    0    0 -0.86975201747E+02  0.50466210899E+02  0.31741995167E+03  0.33296689007E+03  0.00000000000E+00 0. -1.
<mgrwt>
<rscale>  0 0.33035775E+03</rscale>
<asrwt>0</asrwt>
<pdfrwt beam="2">  1        4 0.44283563E-02 0.33035775E+03</pdfrwt>
<pdfrwt beam="1">  1       -4 0.14582760E+00 0.33035775E+03</pdfrwt>
<totfact> 0.18795484E+02</totfact>
</mgrwt>
</event>
<event>
 6    1  0.9263730E-006  0.5112026E+03  0.7546771E-02  0.1010896E+00
         -1   -1    0    0    0  501 -0.00000000000E+00  0.00000000000E+00  0.35588433567E+03  0.35588433567E+03  0.00000000000E+00 0.  1.
          1   -1    0    0  501    0  0.00000000000E+00 -0.00000000000E+00 -0.18357656203E+03  0.18357656203E+03  0.00000000000E+00 0. -1.
          5    1    1    2  502    0  0.10479490435E+01 -0.28210914001E+02  0.62334108013E+01  0.29289917654E+02  0.47000000000E+01 0. -1.
         -5    1    1    2    0  502  0.13641081777E+03  0.70528165558E+02 -0.97795898445E+02  0.18212155582E+03  0.47000000000E+01 0. -1.
        -11    1    1    2    0    0 -0.10960238092E+03 -0.81245949087E+02  0.23616626195E+03  0.27274179993E+03  0.00000000000E+00 0.  1.
         11    1    1    2    0    0 -0.27856385892E+02  0.38928697530E+02  0.27703999327E+02  0.55307624294E+02  0.00000000000E+00 0. -1.
<mgrwt>
<rscale>  0 0.51120259E+03</rscale>
<asrwt>0</asrwt>
<pdfrwt beam="2">  1        1 0.28242548E-01 0.51120259E+03</pdfrwt>
<pdfrwt beam="1">  1       -1 0.54751436E-01 0.51120259E+03</pdfrwt>
<totfact> 0.56657498E+02</totfact>
</mgrwt>
</event>
<event>
 6    1  0.9263730E-006  0.1389362E+03  0.7546771E-02  0.1221006E+00
          2   -1    0    0  501    0  0.00000000000E+00  0.00000000000E+00  0.25328603504E+02  0.25328603504E+02  0.00000000000E+00 0. -1.
         -2   -1    0    0    0  501 -0.00000000000E+00 -0.00000000000E+00 -0.67112912314E+03  0.67112912314E+03  0.00000000000E+00 0.  1.
          5    1    1    2  502    0  0.40360349411E+02  0.53494891258E+02 -0.80489692587E+02  0.10483960038E+03  0.47000000000E+01 0. -1.
         -5    1    1    2    0  502  0.32202407201E+02 -0.17321156224E+02 -0.26480418387E+03  0.26735811803E+03  0.47000000000E+01 0.  1.
        -11    1    1    2    0    0 -0.23070899579E+02 -0.50039264002E+01 -0.64914839344E+01  0.24483566948E+02  0.00000000000E+00 0.  1.
         11    1    1    2    0    0 -0.49491857033E+02 -0.31169808634E+02 -0.29401515924E+03  0.29977644128E+03  0.00000000000E+00 0. -1.
<mgrwt>
<rscale>  0 0.13444419E+03</rscale>
<asrwt>0</asrwt>
<pdfrwt beam="1">  1        2 0.38967086E-02 0.13893625E+03</pdfrwt>
<pdfrwt beam="2">  1       -2 0.10325062E+00 0.13893625E+03</pdfrwt>
<totfact> 0.16832218E+03</totfact>
</mgrwt>
</event>
<event>
 6    1  0.9263730E-006  0.1704313E+03  0.7546771E-02  0.1183691E+00
          4   -1    0    0  501    0  0.00000000000E+00  0.00000000000E+00  0.14271415884E+03  0.14271415884E+03  0.00000000000E+00 0. -1.
         -4   -1    0    0    0  501 -0.00000000000E+00 -0.00000000000E+00 -0.17806568444E+03  0.17806568444E+03  0.00000000000E+00 0.  1.
          5    1    1    2  502    0  0.10562873687E+01 -0.33956247166E+02  0.43452964679E+02  0.55356956239E+02  0.47000000000E+01 0.  1.
         -5    1    1    2    0  502  0.79247853141E+02 -0.49538244744E+02 -0.70604746747E+02  0.11722363321E+03  0.47000000000E+01 0.  1.
        -11    1    1    2    0    0 -0.68173589871E+02  0.45288937907E+02 -0.45329540526E+02  0.93560106333E+02  0.00000000000E+00 0.  1.
         11    1    1    2    0    0 -0.12130550639E+02  0.38205554003E+02  0.37129796992E+02  0.54639147505E+02  0.00000000000E+00 0. -1.
<mgrwt>
<rscale>  0 0.16451562E+03</rscale>
<asrwt>0</asrwt>
<pdfrwt beam="1">  1        4 0.21956024E-01 0.17043134E+03</pdfrwt>
<pdfrwt beam="2">  1       -4 0.27394721E-01 0.17043134E+03</pdfrwt>
<totfact> 0.41617002E+02</totfact>
</mgrwt>
</event>
<event>
 6    1  0.9263730E-006  0.1276610E+03  0.7546771E-02  0.1246010E+00
         -1   -1    0    0    0  501 -0.00000000000E+00  0.00000000000E+00  0.48160390008E+02  0.48160390008E+02  0.00000000000E+00 0.  1.
          1   -1    0    0  501    0  0.00000000000E+00 -0.00000000000E+00 -0.26030132406E+03  0.26030132406E+03  0.00000000000E+00 0. -1.
          5    1    1    2  502    0 -0.41172503346E+02 -0.17434233268E+02 -0.10524526156E+03  0.11444554427E+03  0.47000000000E+01 0.  1.
         -5    1    1    2    0  502  0.54451016889E+02  0.39725932727E+02 -0.38344558630E+02  0.77688211125E+02  0.47000000000E+01 0.  1.
        -11    1    1    2    0    0 -0.30457246042E+02 -0.30587141524E+02  0.20315085904E+01  0.43212776933E+02  0.00000000000E+00 0.  1.
         11    1    1    2    0    0  0.17178732499E+02  0.82954420653E+01 -0.70582622451E+02  0.73115181743E+02  0.00000000000E+00 0. -1.
<mgrwt>
<rscale>  0 0.11825158E+03</rscale>
<asrwt>0</asrwt>
<pdfrwt beam="2">  1        1 0.40046357E-01 0.12766105E+03</pdfrwt>
<pdfrwt beam="1">  1       -1 0.74092909E-02 0.12766105E+03</pdfrwt>
<totfact> 0.95615702E+03</totfact>
</mgrwt>
</event>
<event>
 6    1  0.1280498E-005  0.1854226E+03  0.7546771E-02  0.1167984E+00
          1   -1    0    0  501    0  0.00000000000E+00  0.00000000000E+00  0.45278085476E+03  0.45278085476E+03  0.00000000000E+00 0. -1.
         -1   -1    0    0    0  501 -0.00000000000E+00 -0.00000000000E+00 -0.10045695052E+03  0.10045695052E+03  0.00000000000E+00 0.  1.
          5    1    1    2  502    0 -0.32249045099E+02  0.67330525884E+01  0.51312650774E+01  0.33671275418E+02  0.47000000000E+01 0.  1.
         -5    1    1    2    0  502 -0.55157872626E+02  0.98700924657E+02  0.33674653712E+03  0.35525284475E+03  0.47000000000E+01 0.  1.
        -11    1    1    2    0    0  0.93412060625E+02 -0.88972776935E+02 -0.18653871801E+02  0.13034544503E+03  0.00000000000E+00 0.  1.
         11    1    1    2    0    0 -0.60051428998E+01 -0.16461200310E+02  0.29099973846E+02  0.33968240089E+02  0.00000000000E+00 0. -1.
<mgrwt>
<rscale>  0 0.17981279E+03</rscale>
<asrwt>0</asrwt>
<pdfrwt beam="1">  1        1 0.69658592E-01 0.18542260E+03</pdfrwt>
<pdfrwt beam="2">  1       -1 0.15454916E-01 0.18542260E+03</pdfrwt>
<totfact> 0.15677726E+03</totfact>
</mgrwt>
</event>
<event>
 6    1  0.9263730E-006  0.1961506E+03  0.7546771E-02  0.1157570E+00
          2   -1    0    0  501    0  0.00000000000E+00  0.00000000000E+00  0.16989815002E+03  0.16989815002E+03  0.00000000000E+00 0. -1.
         -2   -1    0    0    0  501 -0.00000000000E+00 -0.00000000000E+00 -0.22198402879E+03  0.22198402879E+03  0.00000000000E+00 0.  1.
          5    1    1    2  502    0  0.13928825724E+03  0.52089498105E+02  0.23306200521E+01  0.14880207058E+03  0.47000000000E+01 0.  1.
         -5    1    1    2    0  502  0.11405159055E+02 -0.40207902005E+02  0.25839266650E+02  0.49361024480E+02  0.47000000000E+01 0.  1.
        -11    1    1    2    0    0 -0.15402535727E+02  0.30279664632E+02 -0.92075664793E+01  0.35197662956E+02  0.00000000000E+00 0.  1.
         11    1    1    2    0    0 -0.13529088057E+03 -0.42161260732E+02 -0.71048198987E+02  0.15852142080E+03  0.00000000000E+00 0. -1.
<mgrwt>
<rscale>  0 0.19099107E+03</rscale>
<asrwt>0</asrwt>
<pdfrwt beam="1">  1        2 0.26138177E-01 0.19615063E+03</pdfrwt>
<pdfrwt beam="2">  1       -2 0.34151389E-01 0.19615063E+03</pdfrwt>
<totfact> 0.16276562E+03</totfact>
</mgrwt>
</event>
<event>
 6    1  0.9263730E-006  0.3250345E+03  0.7546771E-02  0.1073355E+00
          1   -1    0    0  501    0  0.00000000000E+00  0.00000000000E+00  0.93254148275E+03  0.93254148275E+03  0.00000000000E+00 0. -1.
         -1   -1    0    0    0  501 -0.00000000000E+00 -0.00000000000E+00 -0.28322449337E+02  0.28322449337E+02  0.00000000000E+00 0.  1.
          5    1    1    2  502    0  0.30816099478E+02  0.13169997983E+02  0.83498061008E+03  0.83566607569E+03  0.47000000000E+01 0.  1.
         -5    1    1    2    0  502 -0.31490234037E+01 -0.17925546446E+01 -0.26717122975E+01  0.65082752824E+01  0.47000000000E+01 0.  1.
        -11    1    1    2    0    0 -0.82513549397E+01 -0.18877734164E+02  0.89251266063E+02  0.91598265264E+02  0.00000000000E+00 0. -1.
         11    1    1    2    0    0 -0.19415721135E+02  0.75002908260E+01 -0.17341130441E+02  0.27091315853E+02  0.00000000000E+00 0.  1.
<mgrwt>
<rscale>  0 0.32503451E+03</rscale>
<asrwt>0</asrwt>
<pdfrwt beam="1">  1        1 0.14346790E+00 0.32503451E+03</pdfrwt>
<pdfrwt beam="2">  1       -1 0.43573006E-02 0.32503451E+03</pdfrwt>
<totfact> 0.39061797E+03</totfact>
</mgrwt>
</event>
<event>
 6    1  0.9263730E-006  0.2433712E+03  0.7546771E-02  0.1145994E+00
          2   -1    0    0  501    0  0.00000000000E+00  0.00000000000E+00  0.13185566919E+04  0.13185566919E+04  0.00000000000E+00 0. -1.
         -2   -1    0    0    0  501 -0.00000000000E+00 -0.00000000000E+00 -0.25755964547E+02  0.25755964547E+02  0.00000000000E+00 0.  1.
          5    1    1    2  502    0 -0.49460693951E+02 -0.12772163601E+02  0.95037773992E+03  0.95176122370E+03  0.47000000000E+01 0. -1.
         -5    1    1    2    0  502 -0.10555080850E+02  0.26228174157E+02 -0.63525618594E+00  0.28667410099E+02  0.47000000000E+01 0.  1.
        -11    1    1    2    0    0  0.76069311680E+02 -0.42052382091E+02  0.22047259212E+03  0.23698756697E+03  0.00000000000E+00 0.  1.
         11    1    1    2    0    0 -0.16053536879E+02  0.28596371536E+02  0.12258565148E+03  0.12689645566E+03  0.00000000000E+00 0. -1.
<mgrwt>
<rscale>  0 0.20450314E+03</rscale>
<asrwt>0</asrwt>
<pdfrwt beam="1">  1        2 0.20285482E+00 0.24337116E+03</pdfrwt>
<pdfrwt beam="2">  1       -2 0.39624571E-02 0.24337116E+03</pdfrwt>
<totfact> 0.47633387E+03</totfact>
</mgrwt>
</event>
<event>
 6    1  0.9263730E-006  0.2008335E+03  0.7546771E-02  0.1153368E+00
          1   -1    0    0  501    0  0.00000000000E+00  0.00000000000E+00  0.46906965903E+02  0.46906965903E+02  0.00000000000E+00 0. -1.
         -1   -1    0    0    0  501 -0.00000000000E+00 -0.00000000000E+00 -0.88802364605E+03  0.88802364605E+03  0.00000000000E+00 0.  1.
          5    1    1    2  502    0  0.82497855008E+02 -0.69627149851E+02 -0.10670937622E+03  0.15186446935E+03  0.47000000000E+01 0. -1.
         -5    1    1    2    0  502  0.72643402584E+02  0.44337694027E+02 -0.16851287414E+03  0.18884272239E+03  0.47000000000E+01 0. -1.
        -11    1    1    2    0    0 -0.10700951677E+03 -0.93064484327E+01 -0.23941316553E+03  0.26240485989E+03  0.00000000000E+00 0. -1.
         11    1    1    2    0    0 -0.48131740822E+02  0.34595904257E+02 -0.32648126425E+03  0.33181856031E+03  0.00000000000E+00 0.  1.
<mgrwt>
<rscale>  0 0.19575768E+03</rscale>
<asrwt>0</asrwt>
<pdfrwt beam="1">  1        1 0.72164558E-02 0.20083352E+03</pdfrwt>
<pdfrwt beam="2">  1       -1 0.13661903E+00 0.20083352E+03</pdfrwt>
<totfact> 0.48153007E+02</totfact>
</mgrwt>
</event>
<event>
 6    1  0.9263730E-006  0.3417745E+03  0.7546771E-02  0.1066043E+00
          4   -1    0    0  501    0  0.00000000000E+00  0.00000000000E+00  0.50576159549E+02  0.50576159549E+02  0.00000000000E+00 0.  1.
         -4   -1    0    0    0  501 -0.00000000000E+00 -0.00000000000E+00 -0.57739544675E+03  0.57739544675E+03  0.00000000000E+00 0. -1.
          5    1    1    2  502    0 -0.31160058312E+02 -0.14075422880E+02 -0.10266134037E+03  0.10830746774E+03  0.47000000000E+01 0. -1.
         -5    1    1    2    0  502  0.73636891105E+02 -0.10539835888E+03 -0.11192527899E+03  0.17053024325E+03  0.47000000000E+01 0. -1.
        -11    1    1    2    0    0 -0.61971419114E+02  0.38931237149E+02 -0.13836802202E+03  0.15653053226E+03  0.00000000000E+00 0. -1.
         11    1    1    2    0    0  0.19494586322E+02  0.80542544608E+02 -0.17386464582E+03  0.19260336304E+03  0.00000000000E+00 0.  1.
<mgrwt>
<rscale>  0 0.34177445E+03</rscale>
<asrwt>0</asrwt>
<pdfrwt beam="1">  1        4 0.77809478E-02 0.34177445E+03</pdfrwt>
<pdfrwt beam="2">  1       -4 0.88830066E-01 0.34177445E+03</pdfrwt>
<totfact> 0.24844167E+02</totfact>
</mgrwt>
</event>
<event>
 6    1  0.9263730E-006  0.1281319E+03  0.7546771E-02  0.1246482E+00
         -2   -1    0    0    0  501 -0.00000000000E+00  0.00000000000E+00  0.57319485866E+02  0.57319485866E+02  0.00000000000E+00 0.  1.
          2   -1    0    0  501    0  0.00000000000E+00 -0.00000000000E+00 -0.27317559773E+03  0.27317559773E+03  0.00000000000E+00 0. -1.
          5    1    1    2  502    0  0.71698777856E+01 -0.67634969840E+02 -0.98552345492E+02  0.11983551683E+03  0.47000000000E+01 0.  1.
         -5    1    1    2    0  502 -0.30138455766E+02  0.51300594912E+02 -0.10076446444E+03  0.11711381152E+03  0.47000000000E+01 0.  1.
        -11    1    1    2    0    0  0.79039077102E+01  0.24049779943E+02  0.32771782221E+02  0.41410788236E+02  0.00000000000E+00 0.  1.
         11    1    1    2    0    0  0.15064670270E+02 -0.77154050153E+01 -0.49311084153E+02  0.52134967011E+02  0.00000000000E+00 0. -1.
<mgrwt>
<rscale>  0 0.11797092E+03</rscale>
<asrwt>0</asrwt>
<pdfrwt beam="2">  1        2 0.42027015E-01 0.12813194E+03</pdfrwt>
<pdfrwt beam="1">  1       -2 0.88183824E-02 0.12813194E+03</pdfrwt>
<totfact> 0.92533504E+03</totfact>
</mgrwt>
</event>
<event>
 6    1  0.9263730E-006  0.1273127E+03  0.7546771E-02  0.1244108E+00
          2   -1    0    0  501    0  0.00000000000E+00  0.00000000000E+00  0.11343499821E+03  0.11343499821E+03  0.00000000000E+00 0.  1.
         -2   -1    0    0    0  501 -0.00000000000E+00 -0.00000000000E+00 -0.12187914561E+03  0.12187914561E+03  0.00000000000E+00 0. -1.
          5    1    1    2  502    0 -0.28299647763E+02 -0.22281040153E+02  0.70757223682E+02  0.79536089399E+02  0.47000000000E+01 0.  1.
         -5    1    1    2    0  502  0.44901721329E+01  0.26592631458E+02 -0.42803758466E+02  0.50809265223E+02  0.47000000000E+01 0.  1.
        -11    1    1    2    0    0  0.25826126878E+02  0.35517499098E+02  0.86992962529E+01  0.44767838087E+02  0.00000000000E+00 0.  1.
         11    1    1    2    0    0 -0.20166512483E+01 -0.39829090404E+02 -0.45096908873E+02  0.60200951110E+02  0.00000000000E+00 0. -1.
<mgrwt>
<rscale>  0 0.11938910E+03</rscale>
<asrwt>0</asrwt>
<pdfrwt beam="1">  1        2 0.17451538E-01 0.12731267E+03</pdfrwt>
<pdfrwt beam="2">  1       -2 0.18750638E-01 0.12731267E+03</pdfrwt>
<totfact> 0.72006550E+03</totfact>
</mgrwt>
</event>
<event>
 6    1  0.9263730E-006  0.1381582E+03  0.7546771E-02  0.1223909E+00
         -2   -1    0    0    0  501 -0.00000000000E+00  0.00000000000E+00  0.14953256658E+03  0.14953256658E+03  0.00000000000E+00 0.  1.
          2   -1    0    0  501    0  0.00000000000E+00 -0.00000000000E+00 -0.15419888024E+03  0.15419888024E+03  0.00000000000E+00 0. -1.
          5    1    1    2  502    0 -0.39494990448E+02  0.30449865122E+02 -0.79408888900E+02  0.93887753157E+02  0.47000000000E+01 0. -1.
         -5    1    1    2    0  502 -0.60867518347E+01 -0.67629925892E+02 -0.55253121121E+01  0.68289636827E+02  0.47000000000E+01 0. -1.
        -11    1    1    2    0    0  0.23915577951E+02 -0.27942463856E+02  0.11241568215E+01  0.36796737405E+02  0.00000000000E+00 0. -1.
         11    1    1    2    0    0  0.21666164331E+02  0.65122524627E+02  0.79143730537E+02  0.10475731943E+03  0.00000000000E+00 0.  1.
<mgrwt>
<rscale>  0 0.13241993E+03</rscale>
<asrwt>0</asrwt>
<pdfrwt beam="2">  1        2 0.23722905E-01 0.13815820E+03</pdfrwt>
<pdfrwt beam="1">  1       -2 0.23005010E-01 0.13815820E+03</pdfrwt>
<totfact> 0.36166736E+03</totfact>
</mgrwt>
</event>
<event>
 6    1  0.9263730E-006  0.3977336E+03  0.7546771E-02  0.1087049E+00
          2   -1    0    0  501    0  0.00000000000E+00  0.00000000000E+00  0.23299945220E+04  0.23299945220E+04  0.00000000000E+00 0. -1.
         -2   -1    0    0    0  501 -0.00000000000E+00 -0.00000000000E+00 -0.37081721515E+02  0.37081721515E+02  0.00000000000E+00 0.  1.
          5    1    1    2  502    0  0.67477906489E+02 -0.83527125987E+02  0.18628150291E+04  0.18659131736E+04  0.47000000000E+01 0. -1.
         -5    1    1    2    0  502 -0.20410465796E+01  0.13358290695E+03  0.24499194571E+03  0.27909084965E+03  0.47000000000E+01 0.  1.
        -11    1    1    2    0    0  0.12148123105E+02 -0.43112258767E+02  0.67519815908E+02  0.81025732278E+02  0.00000000000E+00 0.  1.
         11    1    1    2    0    0 -0.77584983015E+02 -0.69435221961E+01  0.11758600980E+03  0.14104648805E+03  0.00000000000E+00 0. -1.
<mgrwt>
<rscale>  0 0.29641020E+03</rscale>
<asrwt>0</asrwt>
<pdfrwt beam="1">  1        2 0.35846058E+00 0.39773360E+03</pdfrwt>
<pdfrwt beam="2">  1       -2 0.57048821E-02 0.39773360E+03</pdfrwt>
<totfact> 0.78005391E+02</totfact>
</mgrwt>
</event>
<event>
 6    1  0.9263730E-006  0.1417673E+03  0.7546771E-02  0.1221800E+00
          1   -1    0    0  501    0  0.00000000000E+00  0.00000000000E+00  0.10012496915E+03  0.10012496915E+03  0.00000000000E+00 0. -1.
         -1   -1    0    0    0  501 -0.00000000000E+00 -0.00000000000E+00 -0.25086419525E+03  0.25086419525E+03  0.00000000000E+00 0.  1.
          5    1    1    2  502    0 -0.24134965087E+02 -0.59079556211E+02  0.69855871335E+02  0.94735543814E+02  0.47000000000E+01 0. -1.
         -5    1    1    2    0  502 -0.13541262236E+02  0.38250768787E+01 -0.46619833522E+02  0.48923367359E+02  0.47000000000E+01 0. -1.
        -11    1    1    2    0    0 -0.23423631729E+02  0.11767499744E+02 -0.11987348062E+02  0.28824244781E+02  0.00000000000E+00 0. -1.
         11    1    1    2    0    0  0.61099859053E+02  0.43486979588E+02 -0.16198791585E+03  0.17850600845E+03  0.00000000000E+00 0.  1.
<mgrwt>
<rscale>  0 0.13388635E+03</rscale>
<asrwt>0</asrwt>
<pdfrwt beam="1">  1        1 0.15403841E-01 0.14176731E+03</pdfrwt>
<pdfrwt beam="2">  1       -1 0.38594491E-01 0.14176731E+03</pdfrwt>
<totfact> 0.23022511E+03</totfact>
</mgrwt>
</event>
<event>
 6    1  0.9263730E-006  0.1267755E+03  0.7546771E-02  0.1258598E+00
         -4   -1    0    0    0  501 -0.00000000000E+00  0.00000000000E+00  0.22766755185E+03  0.22766755185E+03  0.00000000000E+00 0.  1.
          4   -1    0    0  501    0  0.00000000000E+00 -0.00000000000E+00 -0.44900290054E+02  0.44900290054E+02  0.00000000000E+00 0. -1.
          5    1    1    2  502    0  0.29949306000E+02 -0.12307642877E+01 -0.17916184650E+02  0.35235711757E+02  0.47000000000E+01 0. -1.
         -5    1    1    2    0  502 -0.36313361869E+02  0.20051648032E+02  0.12151364763E+03  0.12848496176E+03  0.47000000000E+01 0. -1.
        -11    1    1    2    0    0 -0.21520274355E+02  0.77741721104E+00 -0.11810286805E+01  0.21566673702E+02  0.00000000000E+00 0. -1.
         11    1    1    2    0    0  0.27884330225E+02 -0.19598300955E+02  0.80350827498E+02  0.87280494682E+02  0.00000000000E+00 0.  1.
<mgrwt>
<rscale>  0 0.11107192E+03</rscale>
<asrwt>0</asrwt>
<pdfrwt beam="2">  1        4 0.69077371E-02 0.12677549E+03</pdfrwt>
<pdfrwt beam="1">  1       -4 0.35025777E-01 0.12677549E+03</pdfrwt>
<totfact> 0.18010075E+03</totfact>
</mgrwt>
</event>
<event>
 6    1  0.9263730E-006  0.1410742E+03  0.7546771E-02  0.1223325E+00
         -3   -1    0    0    0  501 -0.00000000000E+00  0.00000000000E+00  0.41104936021E+02  0.41104936021E+02  0.00000000000E+00 0.  1.
          3   -1    0    0  501    0  0.00000000000E+00 -0.00000000000E+00 -0.39118041314E+03  0.39118041314E+03  0.00000000000E+00 0. -1.
          5    1    1    2  502    0 -0.31330542414E+02 -0.53278882766E+02 -0.50152056788E+02  0.79734315303E+02  0.47000000000E+01 0.  1.
         -5    1    1    2    0  502 -0.33310461525E+02  0.54674178910E+02 -0.17025031162E+03  0.18195084857E+03  0.47000000000E+01 0.  1.
        -11    1    1    2    0    0  0.27888470862E+02 -0.42831679529E+02 -0.38766316140E+02  0.64149410327E+02  0.00000000000E+00 0.  1.
         11    1    1    2    0    0  0.36752533077E+02  0.41436383385E+02 -0.90906792570E+02  0.10645077497E+03  0.00000000000E+00 0. -1.
<mgrwt>
<rscale>  0 0.13282400E+03</rscale>
<asrwt>0</asrwt>
<pdfrwt beam="2">  1        3 0.60181601E-01 0.14107417E+03</pdfrwt>
<pdfrwt beam="1">  1       -3 0.63238364E-02 0.14107417E+03</pdfrwt>
<totfact> 0.99355521E+02</totfact>
</mgrwt>
</event>
<event>
 6    1  0.9263730E-006  0.1586624E+03  0.7546771E-02  0.1212344E+00
         -1   -1    0    0    0  501 -0.00000000000E+00  0.00000000000E+00  0.71997049326E+03  0.71997049326E+03  0.00000000000E+00 0.  1.
          1   -1    0    0  501    0  0.00000000000E+00 -0.00000000000E+00 -0.22980847648E+02  0.22980847648E+02  0.00000000000E+00 0. -1.
          5    1    1    2  502    0  0.11902053738E+02 -0.30961458208E+02  0.98681471041E+01  0.34924792123E+02  0.47000000000E+01 0. -1.
         -5    1    1    2    0  502  0.16404350914E+02  0.57980796163E+02  0.40072935544E+03  0.40526162138E+03  0.47000000000E+01 0.  1.
        -11    1    1    2    0    0 -0.28276461577E+02  0.25437749613E+02  0.65618049586E+02  0.75844352566E+02  0.00000000000E+00 0. -1.
         11    1    1    2    0    0 -0.29943074994E-01 -0.52457087567E+02  0.22077409349E+03  0.22692057484E+03  0.00000000000E+00 0.  1.
<mgrwt>
<rscale>  0 0.14073425E+03</rscale>
<asrwt>0</asrwt>
<pdfrwt beam="2">  1        1 0.35355156E-02 0.15866244E+03</pdfrwt>
<pdfrwt beam="1">  1       -1 0.11076467E+00 0.15866244E+03</pdfrwt>
<totfact> 0.21094694E+03</totfact>
</mgrwt>
</event>
<event>
 6    1  0.9263730E-006  0.1470957E+03  0.7546771E-02  0.1215560E+00
         -4   -1    0    0    0  501 -0.00000000000E+00  0.00000000000E+00  0.28160682478E+02  0.28160682478E+02  0.00000000000E+00 0.  1.
          4   -1    0    0  501    0  0.00000000000E+00 -0.00000000000E+00 -0.62044325897E+03  0.62044325897E+03  0.00000000000E+00 0. -1.
          5    1    1    2  502    0  0.82135836824E+02 -0.32575852619E+02 -0.19403920660E+03  0.21326224599E+03  0.47000000000E+01 0. -1.
         -5    1    1    2    0  502 -0.44214969985E+02 -0.35056696153E+02 -0.17851716117E+03  0.18728161241E+03  0.47000000000E+01 0. -1.
        -11    1    1    2    0    0 -0.51506703913E+02  0.34455808803E+02 -0.19473832603E+03  0.20436036537E+03  0.00000000000E+00 0. -1.
         11    1    1    2    0    0  0.13585837075E+02  0.33176739969E+02 -0.24987882692E+02  0.43699717681E+02  0.00000000000E+00 0.  1.
<mgrwt>
<rscale>  0 0.13835476E+03</rscale>
<asrwt>0</asrwt>
<pdfrwt beam="2">  1        4 0.95452811E-01 0.14709567E+03</pdfrwt>
<pdfrwt beam="1">  1       -4 0.43324126E-02 0.14709567E+03</pdfrwt>
<totfact> 0.48379826E+02</totfact>
</mgrwt>
</event>
<event>
 6    1  0.9263730E-006  0.1339111E+03  0.7546771E-02  0.1233037E+00
          2   -1    0    0  501    0  0.00000000000E+00  0.00000000000E+00  0.36974324719E+03  0.36974324719E+03  0.00000000000E+00 0. -1.
         -2   -1    0    0    0  501 -0.00000000000E+00 -0.00000000000E+00 -0.46796449949E+02  0.46796449949E+02  0.00000000000E+00 0.  1.
          5    1    1    2  502    0  0.19731102796E+02  0.17692969902E+02 -0.81921943078E+00  0.26928028557E+02  0.47000000000E+01 0. -1.
         -5    1    1    2    0  502  0.20470452271E+02 -0.43997196425E+02  0.26289896979E+03  0.26738128399E+03  0.47000000000E+01 0. -1.
        -11    1    1    2    0    0 -0.25531279159E+01  0.48050827644E+02  0.85785334441E+00  0.48126254911E+02  0.00000000000E+00 0.  1.
         11    1    1    2    0    0 -0.37648427151E+02 -0.21746601120E+02  0.60009193532E+02  0.74104129679E+02  0.00000000000E+00 0. -1.
<mgrwt>
<rscale>  0 0.12630958E+03</rscale>
<asrwt>0</asrwt>
<pdfrwt beam="1">  1        2 0.56883575E-01 0.13391107E+03</pdfrwt>
<pdfrwt beam="2">  1       -2 0.71994541E-02 0.13391107E+03</pdfrwt>
<totfact> 0.92111621E+03</totfact>
</mgrwt>
</event>
<event>
 6    1  0.9263730E-006  0.1271023E+03  0.7546771E-02  0.1246895E+00
         -4   -1    0    0    0  501 -0.00000000000E+00  0.00000000000E+00  0.98530577433E+02  0.98530577433E+02  0.00000000000E+00 0. -1.
          4   -1    0    0  501    0  0.00000000000E+00 -0.00000000000E+00 -0.13093838655E+03  0.13093838655E+03  0.00000000000E+00 0.  1.
          5    1    1    2  502    0  0.34578868739E+02 -0.67004442506E+02 -0.34756963284E+02  0.83159064302E+02  0.47000000000E+01 0. -1.
         -5    1    1    2    0  502 -0.26005586335E+02  0.43289597938E+02 -0.10758184196E+02  0.51846970379E+02  0.47000000000E+01 0. -1.
        -11    1    1    2    0    0 -0.27074926614E+02  0.30598934920E+01  0.44747948229E+02  0.52390776574E+02  0.00000000000E+00 0. -1.
         11    1    1    2    0    0  0.18501644210E+02  0.20654951076E+02 -0.31640609865E+02  0.42072152726E+02  0.00000000000E+00 0.  1.
<mgrwt>
<rscale>  0 0.11772673E+03</rscale>
<asrwt>0</asrwt>
<pdfrwt beam="2">  1        4 0.20144367E-01 0.12710232E+03</pdfrwt>
<pdfrwt beam="1">  1       -4 0.15158550E-01 0.12710232E+03</pdfrwt>
<totfact> 0.13379798E+03</totfact>
</mgrwt>
</event>
<event>
 6    1  0.9263730E-006  0.1287179E+03  0.7546771E-02  0.1243957E+00
          1   -1    0    0  501    0  0.00000000000E+00  0.00000000000E+00  0.86648286464E+03  0.86648286464E+03  0.00000000000E+00 0. -1.
         -1   -1    0    0    0  501 -0.00000000000E+00 -0.00000000000E+00 -0.16579883804E+02  0.16579883804E+02  0.00000000000E+00 0.  1.
          5    1    1    2  502    0  0.68846551094E+02 -0.62997796630E+01  0.21858726457E+03  0.22930769078E+03  0.47000000000E+01 0.  1.
         -5    1    1    2    0  502 -0.39674828570E+02  0.15614551092E+02  0.41577492608E+03  0.41798180031E+03  0.47000000000E+01 0.  1.
        -11    1    1    2    0    0 -0.52364220139E+02  0.98464072566E+01  0.74700581408E+02  0.91755872561E+02  0.00000000000E+00 0.  1.
         11    1    1    2    0    0  0.23192497616E+02 -0.19161178686E+02  0.14084020878E+03  0.14401738479E+03  0.00000000000E+00 0. -1.
<mgrwt>
<rscale>  0 0.11947998E+03</rscale>
<asrwt>0</asrwt>
<pdfrwt beam="1">  1        1 0.13330502E+00 0.12871789E+03</pdfrwt>
<pdfrwt beam="2">  1       -1 0.25507520E-02 0.12871789E+03</pdfrwt>
<totfact> 0.93470617E+03</totfact>
</mgrwt>
</event>
<event>
 6    1  0.9263730E-006  0.1841235E+03  0.7546771E-02  0.1188919E+00
         -1   -1    0    0    0  501 -0.00000000000E+00  0.00000000000E+00  0.52830463510E+03  0.52830463510E+03  0.00000000000E+00 0.  1.
          1   -1    0    0  501    0  0.00000000000E+00 -0.00000000000E+00 -0.53851283598E+02  0.53851283598E+02  0.00000000000E+00 0. -1.
          5    1    1    2  502    0 -0.66561837162E+02  0.92457021525E+02  0.93482480314E+02  0.14744437297E+03  0.47000000000E+01 0. -1.
         -5    1    1    2    0  502  0.50558603870E+02 -0.47732983940E+02  0.45205353112E+02  0.83067587729E+02  0.47000000000E+01 0.  1.
        -11    1    1    2    0    0  0.51913173514E+02 -0.44650688464E+02  0.22713641609E+03  0.23723324615E+03  0.00000000000E+00 0.  1.
         11    1    1    2    0    0 -0.35909940222E+02 -0.73349120929E-01  0.10862910199E+03  0.11441071185E+03  0.00000000000E+00 0. -1.
<mgrwt>
<rscale>  0 0.15980294E+03</rscale>
<asrwt>0</asrwt>
<pdfrwt beam="2">  1        1 0.82848132E-02 0.18412346E+03</pdfrwt>
<pdfrwt beam="1">  1       -1 0.81277632E-01 0.18412346E+03</pdfrwt>
<totfact> 0.12939450E+03</totfact>
</mgrwt>
</event>
<event>
 6    1  0.9263730E-006  0.1774828E+03  0.7546771E-02  0.1176041E+00
          2   -1    0    0  501    0  0.00000000000E+00  0.00000000000E+00  0.69587560622E+02  0.69587560622E+02  0.00000000000E+00 0. -1.
         -2   -1    0    0    0  501 -0.00000000000E+00 -0.00000000000E+00 -0.52432790095E+03  0.52432790095E+03  0.00000000000E+00 0.  1.
          5    1    1    2  502    0  0.35790502746E+02  0.53854728276E+02 -0.11779719548E+03  0.13446025846E+03  0.47000000000E+01 0.  1.
         -5    1    1    2    0  502  0.30598446837E+02  0.53218341000E+02  0.24244857220E+02  0.66169176126E+02  0.47000000000E+01 0.  1.
        -11    1    1    2    0    0 -0.20260524579E+02 -0.39191466241E+02 -0.25647809337E+03  0.26024502351E+03  0.00000000000E+00 0.  1.
         11    1    1    2    0    0 -0.46128425004E+02 -0.67881603034E+02 -0.10470990870E+03  0.13304100347E+03  0.00000000000E+00 0. -1.
<mgrwt>
<rscale>  0 0.17174435E+03</rscale>
<asrwt>0</asrwt>
<pdfrwt beam="1">  1        2 0.10705778E-01 0.17748276E+03</pdfrwt>
<pdfrwt beam="2">  1       -2 0.80665833E-01 0.17748276E+03</pdfrwt>
<totfact> 0.81333974E+02</totfact>
</mgrwt>
</event>
<event>
 6    1  0.9263730E-006  0.1731130E+03  0.7546771E-02  0.1181151E+00
         -2   -1    0    0    0  501 -0.00000000000E+00  0.00000000000E+00  0.45031682356E+03  0.45031682356E+03  0.00000000000E+00 0.  1.
          2   -1    0    0  501    0  0.00000000000E+00 -0.00000000000E+00 -0.59841013678E+02  0.59841013678E+02  0.00000000000E+00 0. -1.
          5    1    1    2  502    0  0.79696168376E+02  0.72207450731E+02  0.13410301682E+03  0.17196250846E+03  0.47000000000E+01 0. -1.
         -5    1    1    2    0  502 -0.41533991386E+02  0.41309084526E+02  0.27600820827E+02  0.64926175115E+02  0.47000000000E+01 0. -1.
        -11    1    1    2    0    0 -0.52569866898E+02 -0.10633480518E+03  0.14204488659E+03  0.18506061576E+03  0.00000000000E+00 0. -1.
         11    1    1    2    0    0  0.14407689907E+02 -0.71817300778E+01  0.86727085648E+02  0.88208537910E+02  0.00000000000E+00 0.  1.
<mgrwt>
<rscale>  0 0.16687116E+03</rscale>
<asrwt>0</asrwt>
<pdfrwt beam="2">  1        2 0.92063101E-02 0.17311302E+03</pdfrwt>
<pdfrwt beam="1">  1       -2 0.69279509E-01 0.17311302E+03</pdfrwt>
<totfact> 0.13614638E+03</totfact>
</mgrwt>
</event>
<event>
 6    1  0.9263730E-006  0.1441529E+03  0.7546771E-02  0.1215108E+00
          1   -1    0    0  501    0  0.00000000000E+00  0.00000000000E+00  0.13190817442E+04  0.13190817442E+04  0.00000000000E+00 0. -1.
         -1   -1    0    0    0  501 -0.00000000000E+00 -0.00000000000E+00 -0.14794574331E+02  0.14794574331E+02  0.00000000000E+00 0.  1.
          5    1    1    2  502    0  0.68564563840E+02  0.58372495044E+02  0.78495532262E+03  0.79011733059E+03  0.47000000000E+01 0. -1.
         -5    1    1    2    0  502  0.12603425928E+02 -0.34697547826E+02  0.10416343995E+03  0.11061138455E+03  0.47000000000E+01 0.  1.
        -11    1    1    2    0    0 -0.72347793239E+02  0.22817483105E+02  0.24034818352E+03  0.25203589039E+03  0.00000000000E+00 0. -1.
         11    1    1    2    0    0 -0.88201965284E+01 -0.46492430322E+02  0.17482022383E+03  0.18111171305E+03  0.00000000000E+00 0.  1.
<mgrwt>
<rscale>  0 0.13868625E+03</rscale>
<asrwt>0</asrwt>
<pdfrwt beam="1">  1        1 0.20293556E+00 0.14415285E+03</pdfrwt>
<pdfrwt beam="2">  1       -1 0.22760894E-02 0.14415285E+03</pdfrwt>
<totfact> 0.52751546E+03</totfact>
</mgrwt>
</event>
<event>
 6    1  0.9263730E-006  0.1428531E+03  0.7546771E-02  0.1220165E+00
         -1   -1    0    0    0  501 -0.00000000000E+00  0.00000000000E+00  0.47092131318E+02  0.47092131318E+02  0.00000000000E+00 0.  1.
          1   -1    0    0  501    0  0.00000000000E+00 -0.00000000000E+00 -0.38858846173E+03  0.38858846173E+03  0.00000000000E+00 0. -1.
          5    1    1    2  502    0 -0.17426119820E+02  0.53692815935E+02 -0.16623802917E+03  0.17562391773E+03  0.47000000000E+01 0. -1.
         -5    1    1    2    0  502  0.74333223405E+02 -0.14389148946E+02 -0.89643890652E+02  0.11743335489E+03  0.47000000000E+01 0. -1.
        -11    1    1    2    0    0 -0.27969642943E+02 -0.85176579611E+01  0.15459835073E+02  0.33073523006E+02  0.00000000000E+00 0.  1.
         11    1    1    2    0    0 -0.28937460642E+02 -0.30786009028E+02 -0.10107424566E+03  0.10954979743E+03  0.00000000000E+00 0. -1.
<mgrwt>
<rscale>  0 0.13503879E+03</rscale>
<asrwt>0</asrwt>
<pdfrwt beam="2">  1        1 0.59782841E-01 0.14285310E+03</pdfrwt>
<pdfrwt beam="1">  1       -1 0.72449432E-02 0.14285310E+03</pdfrwt>
<totfact> 0.60574870E+03</totfact>
</mgrwt>
</event>
<event>
 6    1  0.9263730E-006  0.1252738E+03  0.7546771E-02  0.1251546E+00
          1   -1    0    0  501    0  0.00000000000E+00  0.00000000000E+00  0.40097277800E+03  0.40097277800E+03  0.00000000000E+00 0. -1.
         -1   -1    0    0    0  501 -0.00000000000E+00 -0.00000000000E+00 -0.29024154310E+02  0.29024154310E+02  0.00000000000E+00 0.  1.
          5    1    1    2  502    0 -0.58387013792E+01 -0.36098845392E+02  0.23407485332E+03  0.23696063814E+03  0.47000000000E+01 0.  1.
         -5    1    1    2    0  502  0.12867716679E+02  0.31537963308E+02  0.75430108541E+01  0.35202390187E+02  0.47000000000E+01 0.  1.
        -11    1    1    2    0    0  0.38608659388E+02 -0.12069938819E+02  0.59331592934E+02  0.71809121447E+02  0.00000000000E+00 0. -1.
         11    1    1    2    0    0 -0.45637674688E+02  0.16630820904E+02  0.70999166586E+02  0.86024782538E+02  0.00000000000E+00 0.  1.
<mgrwt>
<rscale>  0 0.11501991E+03</rscale>
<asrwt>0</asrwt>
<pdfrwt beam="1">  1        1 0.61688116E-01 0.12527379E+03</pdfrwt>
<pdfrwt beam="2">  1       -1 0.44652548E-02 0.12527379E+03</pdfrwt>
<totfact> 0.11847135E+04</totfact>
</mgrwt>
</event>
<event>
 6    1  0.9263730E-006  0.1296835E+03  0.7546771E-02  0.1241770E+00
         -1   -1    0    0    0  501 -0.00000000000E+00  0.00000000000E+00  0.21835221969E+03  0.21835221969E+03  0.00000000000E+00 0.  1.
          1   -1    0    0  501    0  0.00000000000E+00 -0.00000000000E+00 -0.18009821620E+03  0.18009821620E+03  0.00000000000E+00 0. -1.
          5    1    1    2  502    0  0.33718477732E+01 -0.67306046556E+02 -0.52621345454E+02  0.85630422501E+02  0.47000000000E+01 0. -1.
         -5    1    1    2    0  502  0.27153802202E+02  0.51155503256E+02 -0.90078288398E+02  0.10719329516E+03  0.47000000000E+01 0. -1.
        -11    1    1    2    0    0 -0.23062068216E+02  0.37345023799E+02  0.17755652995E+03  0.18290115123E+03  0.00000000000E+00 0.  1.
         11    1    1    2    0    0 -0.74635817599E+01 -0.21194480499E+02  0.33971073891E+01  0.22725566988E+02  0.00000000000E+00 0. -1.
<mgrwt>
<rscale>  0 0.12080818E+03</rscale>
<asrwt>0</asrwt>
<pdfrwt beam="2">  1        1 0.27707418E-01 0.12968346E+03</pdfrwt>
<pdfrwt beam="1">  1       -1 0.33592649E-01 0.12968346E+03</pdfrwt>
<totfact> 0.13837167E+03</totfact>
</mgrwt>
</event>
<event>
 6    1  0.9263730E-006  0.1435134E+03  0.7546771E-02  0.1219097E+00
         -2   -1    0    0    0  501 -0.00000000000E+00  0.00000000000E+00  0.26633666461E+02  0.26633666461E+02  0.00000000000E+00 0. -1.
          2   -1    0    0  501    0  0.00000000000E+00 -0.00000000000E+00 -0.91636382054E+03  0.91636382054E+03  0.00000000000E+00 0.  1.
          5    1    1    2  502    0  0.17268857432E+02  0.36235800306E+02 -0.59994518981E+03  0.60130488725E+03  0.47000000000E+01 0.  1.
         -5    1    1    2    0  502  0.52886304940E+02 -0.29239097050E+02 -0.14204623212E+03  0.15443803970E+03  0.47000000000E+01 0.  1.
        -11    1    1    2    0    0 -0.56259568035E+02 -0.45690540139E+02 -0.10807981184E+03  0.13013074264E+03  0.00000000000E+00 0. -1.
         11    1    1    2    0    0 -0.13895594337E+02  0.38693836883E+02 -0.39658920315E+02  0.57123817408E+02  0.00000000000E+00 0.  1.
<mgrwt>
<rscale>  0 0.13579860E+03</rscale>
<asrwt>0</asrwt>
<pdfrwt beam="2">  1        2 0.14097903E+00 0.14351342E+03</pdfrwt>
<pdfrwt beam="1">  1       -2 0.40974877E-02 0.14351342E+03</pdfrwt>
<totfact> 0.76206487E+03</totfact>
</mgrwt>
</event>
<event>
 6    1  0.9263730E-006  0.1385239E+03  0.7546771E-02  0.1243406E+00
         -2   -1    0    0    0  501 -0.00000000000E+00  0.00000000000E+00  0.21785688148E+02  0.21785688148E+02  0.00000000000E+00 0. -1.
          2   -1    0    0  501    0  0.00000000000E+00 -0.00000000000E+00 -0.60561174574E+03  0.60561174574E+03  0.00000000000E+00 0.  1.
          5    1    1    2  502    0 -0.73315417536E+02  0.13925565932E+02 -0.24305196978E+03  0.25429396739E+03  0.47000000000E+01 0.  1.
         -5    1    1    2    0  502  0.30578700135E+02 -0.55617783405E+02 -0.22455733824E+03  0.23340197705E+03  0.47000000000E+01 0.  1.
        -11    1    1    2    0    0  0.11144328947E+02  0.43294355198E+02 -0.55756584082E+02  0.71466033388E+02  0.00000000000E+00 0. -1.
         11    1    1    2    0    0  0.31592388454E+02 -0.16021377254E+01 -0.60460165489E+02  0.68235456066E+02  0.00000000000E+00 0.  1.
<mgrwt>
<rscale>  0 0.11981312E+03</rscale>
<asrwt>0</asrwt>
<pdfrwt beam="2">  1        2 0.93171017E-01 0.13852389E+03</pdfrwt>
<pdfrwt beam="1">  1       -2 0.33516451E-02 0.13852389E+03</pdfrwt>
<totfact> 0.16972486E+04</totfact>
</mgrwt>
</event>
<event>
 6    1  0.9263730E-006  0.2893036E+03  0.7546771E-02  0.1092461E+00
         -2   -1    0    0    0  501 -0.00000000000E+00  0.00000000000E+00  0.18461677656E+03  0.18461677656E+03  0.00000000000E+00 0.  1.
          2   -1    0    0  501    0  0.00000000000E+00 -0.00000000000E+00 -0.57546842480E+03  0.57546842480E+03  0.00000000000E+00 0. -1.
          5    1    1    2  502    0  0.16977437290E+03  0.61830309266E+02 -0.16994857279E+03  0.24809460339E+03  0.47000000000E+01 0.  1.
         -5    1    1    2    0  502  0.54418338552E+02  0.71610134087E+02 -0.21780858438E+03  0.23569479482E+03  0.47000000000E+01 0.  1.
        -11    1    1    2    0    0 -0.16262721258E+03 -0.62167190324E+02 -0.33559616962E+02  0.17730938417E+03  0.00000000000E+00 0. -1.
         11    1    1    2    0    0 -0.61565498881E+02 -0.71273253029E+02  0.30465125888E+02  0.98986418993E+02  0.00000000000E+00 0.  1.
<mgrwt>
<rscale>  0 0.28599085E+03</rscale>
<asrwt>0</asrwt>
<pdfrwt beam="2">  1        2 0.88533603E-01 0.28930359E+03</pdfrwt>
<pdfrwt beam="1">  1       -2 0.28402581E-01 0.28930359E+03</pdfrwt>
<totfact> 0.60109690E+02</totfact>
</mgrwt>
</event>
<event>
 6    1  0.9263730E-006  0.1354273E+03  0.7546771E-02  0.1231773E+00
          1   -1    0    0  501    0  0.00000000000E+00  0.00000000000E+00  0.45403207040E+03  0.45403207040E+03  0.00000000000E+00 0.  1.
         -1   -1    0    0    0  501 -0.00000000000E+00 -0.00000000000E+00 -0.34862289727E+02  0.34862289727E+02  0.00000000000E+00 0. -1.
          5    1    1    2  502    0  0.45804222003E+02 -0.10535689323E+01  0.77125668246E+02  0.89830927098E+02  0.47000000000E+01 0. -1.
         -5    1    1    2    0  502 -0.76428282160E+02 -0.41135068623E+02  0.22758840437E+03  0.24362255230E+03  0.47000000000E+01 0. -1.
        -11    1    1    2    0    0 -0.32322286750E+02  0.19073101948E+02  0.33373351570E+02  0.50222445517E+02  0.00000000000E+00 0. -1.
         11    1    1    2    0    0  0.62946346907E+02  0.23115535607E+02  0.81082356486E+02  0.10521843521E+03  0.00000000000E+00 0.  1.
<mgrwt>
<rscale>  0 0.12713283E+03</rscale>
<asrwt>0</asrwt>
<pdfrwt beam="1">  1        1 0.69851083E-01 0.13542731E+03</pdfrwt>
<pdfrwt beam="2">  1       -1 0.53634295E-02 0.13542731E+03</pdfrwt>
<totfact> 0.77630002E+03</totfact>
</mgrwt>
</event>
<event>
 6    1  0.9263730E-006  0.1526891E+03  0.7546771E-02  0.1206406E+00
          1   -1    0    0  501    0  0.00000000000E+00  0.00000000000E+00  0.20919806255E+02  0.20919806255E+02  0.00000000000E+00 0. -1.
         -1   -1    0    0    0  501 -0.00000000000E+00 -0.00000000000E+00 -0.93396587804E+03  0.93396587804E+03  0.00000000000E+00 0.  1.
          5    1    1    2  502    0 -0.30775647829E+02  0.21098752534E+02 -0.97702380500E+02  0.10469070166E+03  0.47000000000E+01 0. -1.
         -5    1    1    2    0  502  0.28416723252E+02 -0.10875489643E+03 -0.45676195610E+03  0.47041334186E+03  0.47000000000E+01 0. -1.
        -11    1    1    2    0    0 -0.19757930387E+02  0.86220801162E+02 -0.33852351833E+03  0.34988937513E+03  0.00000000000E+00 0.  1.
         11    1    1    2    0    0  0.22116854963E+02  0.14353427314E+01 -0.20058216846E+02  0.29892265643E+02  0.00000000000E+00 0. -1.
<mgrwt>
<rscale>  0 0.14527187E+03</rscale>
<asrwt>0</asrwt>
<pdfrwt beam="1">  1        1 0.32184312E-02 0.15268910E+03</pdfrwt>
<pdfrwt beam="2">  1       -1 0.14368708E+00 0.15268910E+03</pdfrwt>
<totfact> 0.12818080E+03</totfact>
</mgrwt>
</event>
<event>
 6    1  0.9263730E-006  0.1940642E+03  0.7546771E-02  0.1159527E+00
         -1   -1    0    0    0  501 -0.00000000000E+00  0.00000000000E+00  0.31864373535E+02  0.31864373535E+02  0.00000000000E+00 0.  1.
          1   -1    0    0  501    0  0.00000000000E+00 -0.00000000000E+00 -0.14772694171E+04  0.14772694171E+04  0.00000000000E+00 0. -1.
          5    1    1    2  502    0 -0.80501120579E+02 -0.11930863564E+02 -0.61889801781E+03  0.62424323974E+03  0.47000000000E+01 0.  1.
         -5    1    1    2    0  502 -0.38103907150E+02  0.10120137485E+03 -0.53163015049E+03  0.54253694153E+03  0.47000000000E+01 0.  1.
        -11    1    1    2    0    0  0.84265167346E+01  0.14067245239E+02 -0.66849077642E+02  0.68830899707E+02  0.00000000000E+00 0. -1.
         11    1    1    2    0    0  0.11017851099E+03 -0.10333775652E+03 -0.22802779761E+03  0.27352270965E+03  0.00000000000E+00 0.  1.
<mgrwt>
<rscale>  0 0.18882361E+03</rscale>
<asrwt>0</asrwt>
<pdfrwt beam="2">  1        1 0.22727224E+00 0.19406423E+03</pdfrwt>
<pdfrwt beam="1">  1       -1 0.49022108E-02 0.19406423E+03</pdfrwt>
<totfact> 0.13479048E+03</totfact>
</mgrwt>
</event>
<event>
 6    1  0.9263730E-006  0.1489422E+03  0.7546771E-02  0.1212234E+00
          1   -1    0    0  501    0  0.00000000000E+00  0.00000000000E+00  0.15777868716E+03  0.15777868716E+03  0.00000000000E+00 0. -1.
         -1   -1    0    0    0  501 -0.00000000000E+00 -0.00000000000E+00 -0.11493437124E+03  0.11493437124E+03  0.00000000000E+00 0.  1.
          5    1    1    2  502    0 -0.40309421938E+02 -0.15030469533E+01 -0.13530391784E+02  0.42805024810E+02  0.47000000000E+01 0. -1.
         -5    1    1    2    0  502  0.61357041180E+02 -0.76701073482E+02  0.51019350426E+02  0.11078269402E+03  0.47000000000E+01 0. -1.
        -11    1    1    2    0    0 -0.39293012302E+02  0.11940231922E+01 -0.36131186463E+01  0.39476843003E+02  0.00000000000E+00 0. -1.
         11    1    1    2    0    0  0.18245393059E+02  0.77010097244E+02  0.89684759310E+01  0.79648496570E+02  0.00000000000E+00 0.  1.
<mgrwt>
<rscale>  0 0.14081679E+03</rscale>
<asrwt>0</asrwt>
<pdfrwt beam="1">  1        1 0.24273644E-01 0.14894215E+03</pdfrwt>
<pdfrwt beam="2">  1       -1 0.17682211E-01 0.14894215E+03</pdfrwt>
<totfact> 0.47133632E+03</totfact>
</mgrwt>
</event>
<event>
 6    1  0.9263730E-006  0.1318347E+03  0.7546771E-02  0.1237838E+00
         -2   -1    0    0    0  501 -0.00000000000E+00  0.00000000000E+00  0.74960552982E+02  0.74960552982E+02  0.00000000000E+00 0. -1.
          2   -1    0    0  501    0  0.00000000000E+00 -0.00000000000E+00 -0.21355830154E+03  0.21355830154E+03  0.00000000000E+00 0.  1.
          5    1    1    2  502    0 -0.23717066365E+02  0.67044668551E+02 -0.55244246514E+02  0.90174850103E+02  0.47000000000E+01 0.  1.
         -5    1    1    2    0  502  0.47733054131E+02 -0.32706582097E+02 -0.78370439487E+02  0.97530409384E+02  0.47000000000E+01 0.  1.
        -11    1    1    2    0    0  0.28961732199E+02 -0.14009047602E+02  0.20983617226E+02  0.38410253039E+02  0.00000000000E+00 0. -1.
         11    1    1    2    0    0 -0.52977719965E+02 -0.20329038853E+02 -0.25966679784E+02  0.62403341997E+02  0.00000000000E+00 0.  1.
<mgrwt>
<rscale>  0 0.12324497E+03</rscale>
<asrwt>0</asrwt>
<pdfrwt beam="2">  1        2 0.32855122E-01 0.13183467E+03</pdfrwt>
<pdfrwt beam="1">  1       -2 0.11532393E-01 0.13183467E+03</pdfrwt>
<totfact> 0.79096723E+03</totfact>
</mgrwt>
</event>
<event>
 6    1  0.9263730E-006  0.1803372E+03  0.7546771E-02  0.1173105E+00
          2   -1    0    0  501    0  0.00000000000E+00  0.00000000000E+00  0.11724520210E+04  0.11724520210E+04  0.00000000000E+00 0. -1.
         -2   -1    0    0    0  501 -0.00000000000E+00 -0.00000000000E+00 -0.27798689625E+02  0.27798689625E+02  0.00000000000E+00 0.  1.
          5    1    1    2  502    0 -0.10489147914E+03 -0.46964645455E+02  0.40816522326E+03  0.42406230650E+03  0.47000000000E+01 0. -1.
         -5    1    1    2    0  502 -0.25060467636E+02  0.50120202195E+02  0.40320854548E+03  0.40711089749E+03  0.47000000000E+01 0. -1.
        -11    1    1    2    0    0  0.11181387976E+03  0.32576413371E+02  0.22009575639E+03  0.24900945443E+03  0.00000000000E+00 0. -1.
         11    1    1    2    0    0  0.18138067020E+02 -0.35731970111E+02  0.11318380626E+03  0.12006805221E+03  0.00000000000E+00 0.  1.
<mgrwt>
<rscale>  0 0.17462884E+03</rscale>
<asrwt>0</asrwt>
<pdfrwt beam="1">  1        2 0.18037720E+00 0.18033719E+03</pdfrwt>
<pdfrwt beam="2">  1       -2 0.42767224E-02 0.18033719E+03</pdfrwt>
<totfact> 0.50872410E+03</totfact>
</mgrwt>
</event>
<event>
 6    1  0.9263730E-006  0.1342619E+03  0.7546771E-02  0.1234820E+00
         -2   -1    0    0    0  501 -0.00000000000E+00  0.00000000000E+00  0.15355928052E+02  0.15355928052E+02  0.00000000000E+00 0.  1.
          2   -1    0    0  501    0  0.00000000000E+00 -0.00000000000E+00 -0.99919314972E+03  0.99919314972E+03  0.00000000000E+00 0. -1.
          5    1    1    2  502    0 -0.37663851371E+02 -0.18896083070E+02 -0.19451933262E+03  0.19908663546E+03  0.47000000000E+01 0.  1.
         -5    1    1    2    0  502  0.82074860773E+02  0.39644991086E+02 -0.51459866052E+03  0.52262977288E+03  0.47000000000E+01 0.  1.
        -11    1    1    2    0    0  0.20445970173E+02 -0.17342429994E+02 -0.32883249432E+02  0.42427652158E+02  0.00000000000E+00 0.  1.
         11    1    1    2    0    0 -0.64856979575E+02 -0.34064780210E+01 -0.24183597909E+03  0.25040501727E+03  0.00000000000E+00 0. -1.
<mgrwt>
<rscale>  0 0.12515993E+03</rscale>
<asrwt>0</asrwt>
<pdfrwt beam="2">  1        2 0.15372206E+00 0.13426186E+03</pdfrwt>
<pdfrwt beam="1">  1       -2 0.23624499E-02 0.13426186E+03</pdfrwt>
<totfact> 0.15204566E+04</totfact>
</mgrwt>
</event>
<event>
 6    1  0.9263730E-006  0.1307760E+03  0.7546771E-02  0.1240270E+00
          1   -1    0    0  501    0  0.00000000000E+00  0.00000000000E+00  0.10393220776E+04  0.10393220776E+04  0.00000000000E+00 0. -1.
         -1   -1    0    0    0  501 -0.00000000000E+00 -0.00000000000E+00 -0.16807362772E+02  0.16807362772E+02  0.00000000000E+00 0.  1.
          5    1    1    2  502    0  0.43651599041E+02 -0.20484060175E+02  0.21683521739E+03  0.22218159311E+03  0.47000000000E+01 0.  1.
         -5    1    1    2    0  502 -0.77515382446E+02  0.23370472737E+01  0.61094238015E+03  0.61586262930E+03  0.47000000000E+01 0.  1.
        -11    1    1    2    0    0  0.33061154806E+02  0.43459344064E+02  0.60576667203E+02  0.81555423811E+02  0.00000000000E+00 0.  1.
         11    1    1    2    0    0  0.80262859890E+00 -0.25312331162E+02  0.13416045013E+03  0.13652979419E+03  0.00000000000E+00 0. -1.
<mgrwt>
<rscale>  0 0.12173009E+03</rscale>
<asrwt>0</asrwt>
<pdfrwt beam="1">  1        1 0.15989565E+00 0.13077602E+03</pdfrwt>
<pdfrwt beam="2">  1       -1 0.25857489E-02 0.13077602E+03</pdfrwt>
<totfact> 0.68114235E+03</totfact>
</mgrwt>
</event>
<event>
 6    1  0.9263730E-006  0.1426885E+03  0.7546771E-02  0.1219892E+00
         -2   -1    0    0    0  501 -0.00000000000E+00  0.00000000000E+00  0.15335355239E+02  0.15335355239E+02  0.00000000000E+00 0.  1.
          2   -1    0    0  501    0  0.00000000000E+00 -0.00000000000E+00 -0.11975174103E+04  0.11975174103E+04  0.00000000000E+00 0. -1.
          5    1    1    2  502    0  0.35116978305E+01  0.53962883421E+02 -0.62262766183E+03  0.62498929598E+03  0.47000000000E+01 0.  1.
         -5    1    1    2    0  502  0.59374516041E+02 -0.26028389342E+02 -0.21176493308E+03  0.22151588451E+03  0.47000000000E+01 0.  1.
        -11    1    1    2    0    0  0.25638547046E+01 -0.15238792958E+02 -0.37415119751E+01  0.15899467715E+02  0.00000000000E+00 0.  1.
         11    1    1    2    0    0 -0.65450068576E+02 -0.12695701122E+02 -0.34404794818E+03  0.35044811735E+03  0.00000000000E+00 0. -1.
<mgrwt>
<rscale>  0 0.13523256E+03</rscale>
<asrwt>0</asrwt>
<pdfrwt beam="2">  1        2 0.18423348E+00 0.14268854E+03</pdfrwt>
<pdfrwt beam="1">  1       -2 0.23592850E-02 0.14268854E+03</pdfrwt>
<totfact> 0.11762802E+04</totfact>
</mgrwt>
</event>
<event>
 6    1  0.9263730E-006  0.1306929E+03  0.7546771E-02  0.1240598E+00
         -2   -1    0    0    0  501 -0.00000000000E+00  0.00000000000E+00  0.12101983219E+03  0.12101983219E+03  0.00000000000E+00 0.  1.
          2   -1    0    0  501    0  0.00000000000E+00 -0.00000000000E+00 -0.11351093433E+03  0.11351093433E+03  0.00000000000E+00 0. -1.
          5    1    1    2  502    0  0.17022065776E+02  0.56803172555E+02 -0.62280020692E+02  0.86123412107E+02  0.47000000000E+01 0.  1.
         -5    1    1    2    0  502 -0.11465626670E+02 -0.19046746966E+02  0.40435309243E+02  0.46382576454E+02  0.47000000000E+01 0.  1.
        -11    1    1    2    0    0  0.31005985690E+02 -0.11708955705E+00 -0.13940608488E+02  0.33995961872E+02  0.00000000000E+00 0.  1.
         11    1    1    2    0    0 -0.36562424796E+02 -0.37639336032E+02  0.43294217799E+02  0.68028816091E+02  0.00000000000E+00 0. -1.
<mgrwt>
<rscale>  0 0.12152758E+03</rscale>
<asrwt>0</asrwt>
<pdfrwt beam="2">  1        2 0.17463221E-01 0.13069294E+03</pdfrwt>
<pdfrwt beam="1">  1       -2 0.18618436E-01 0.13069294E+03</pdfrwt>
<totfact> 0.72955278E+03</totfact>
</mgrwt>
</event>
<event>
 6    1  0.9263730E-006  0.1628546E+03  0.7546771E-02  0.1192676E+00
          1   -1    0    0  501    0  0.00000000000E+00  0.00000000000E+00  0.79249740426E+03  0.79249740426E+03  0.00000000000E+00 0. -1.
         -1   -1    0    0    0  501 -0.00000000000E+00 -0.00000000000E+00 -0.32765756146E+02  0.32765756146E+02  0.00000000000E+00 0.  1.
          5    1    1    2  502    0 -0.56326777114E+02 -0.53095028848E+02  0.19070167265E+03  0.20586647580E+03  0.47000000000E+01 0. -1.
         -5    1    1    2    0  502  0.59002383113E+02 -0.51243479084E+02  0.35977389279E+03  0.36819358942E+03  0.47000000000E+01 0. -1.
        -11    1    1    2    0    0 -0.12968167247E+02  0.65279957453E+02  0.19856201417E+03  0.20941948256E+03  0.00000000000E+00 0. -1.
         11    1    1    2    0    0  0.10292561248E+02  0.39058550478E+02  0.10694068520E+02  0.41783612626E+02  0.00000000000E+00 0.  1.
<mgrwt>
<rscale>  0 0.15652600E+03</rscale>
<asrwt>0</asrwt>
<pdfrwt beam="1">  1        1 0.12192266E+00 0.16285457E+03</pdfrwt>
<pdfrwt beam="2">  1       -1 0.50408862E-02 0.16285457E+03</pdfrwt>
<totfact> 0.39922808E+03</totfact>
</mgrwt>
</event>
<event>
 6    1  0.9263730E-006  0.1924355E+03  0.7546771E-02  0.1162797E+00
         -1   -1    0    0    0  501 -0.00000000000E+00  0.00000000000E+00  0.12591017754E+03  0.12591017754E+03  0.00000000000E+00 0.  1.
          1   -1    0    0  501    0  0.00000000000E+00 -0.00000000000E+00 -0.27692514036E+03  0.27692514036E+03  0.00000000000E+00 0. -1.
          5    1    1    2  502    0 -0.26955422776E+02 -0.72984950662E+01 -0.42735636520E+02  0.51266826272E+02  0.47000000000E+01 0. -1.
         -5    1    1    2    0  502  0.14452418974E+03 -0.66693568232E+02 -0.95622246752E+02  0.18574438764E+03  0.47000000000E+01 0.  1.
        -11    1    1    2    0    0  0.65585550935E+01 -0.78664222498E+01 -0.13732624558E+02  0.17131264436E+02  0.00000000000E+00 0.  1.
         11    1    1    2    0    0 -0.12412732206E+03  0.81858485548E+02  0.10755450050E+01  0.14869283956E+03  0.00000000000E+00 0. -1.
<mgrwt>
<rscale>  0 0.18527148E+03</rscale>
<asrwt>0</asrwt>
<pdfrwt beam="2">  1        1 0.42603867E-01 0.19243547E+03</pdfrwt>
<pdfrwt beam="1">  1       -1 0.19370797E-01 0.19243547E+03</pdfrwt>
<totfact> 0.20371678E+03</totfact>
</mgrwt>
</event>
<event>
 6    1  0.9263730E-006  0.1296458E+03  0.7546771E-02  0.1240843E+00
          2   -1    0    0  501    0  0.00000000000E+00  0.00000000000E+00  0.19990468670E+03  0.19990468670E+03  0.00000000000E+00 0.  1.
         -2   -1    0    0    0  501 -0.00000000000E+00 -0.00000000000E+00 -0.76179168679E+02  0.76179168679E+02  0.00000000000E+00 0. -1.
          5    1    1    2  502    0  0.40526284234E+02  0.67513551901E+02  0.88354702455E+02  0.11844451380E+03  0.47000000000E+01 0. -1.
         -5    1    1    2    0  502 -0.35132560628E+02 -0.33539511706E+02  0.31262580089E+02  0.57953727884E+02  0.47000000000E+01 0. -1.
        -11    1    1    2    0    0  0.11000140815E+02 -0.62831718666E+02 -0.81480429320E+01  0.64305665164E+02  0.00000000000E+00 0.  1.
         11    1    1    2    0    0 -0.16393864422E+02  0.28857678471E+02  0.12256278410E+02  0.35379948529E+02  0.00000000000E+00 0. -1.
<mgrwt>
<rscale>  0 0.12137655E+03</rscale>
<asrwt>0</asrwt>
<pdfrwt beam="1">  1        2 0.30754567E-01 0.12964585E+03</pdfrwt>
<pdfrwt beam="2">  1       -2 0.11719872E-01 0.12964585E+03</pdfrwt>
<totfact> 0.82674919E+03</totfact>
</mgrwt>
</event>
<event>
 6    1  0.9263730E-006  0.1386237E+03  0.7546771E-02  0.1229025E+00
         -1   -1    0    0    0  501 -0.00000000000E+00  0.00000000000E+00  0.52331526695E+02  0.52331526695E+02  0.00000000000E+00 0.  1.
          1   -1    0    0  501    0  0.00000000000E+00 -0.00000000000E+00 -0.30422468057E+03  0.30422468057E+03  0.00000000000E+00 0. -1.
          5    1    1    2  502    0  0.35882980254E+02  0.20048112193E+02 -0.75051687972E+02  0.85699247032E+02  0.47000000000E+01 0.  1.
         -5    1    1    2    0  502 -0.95016238325E+02 -0.10258427591E+02 -0.11666766685E+03  0.15088656458E+03  0.47000000000E+01 0.  1.
        -11    1    1    2    0    0  0.15788004806E+02 -0.30932582308E+02 -0.62702045830E+02  0.71677278793E+02  0.00000000000E+00 0. -1.
         11    1    1    2    0    0  0.43345253265E+02  0.21142897705E+02  0.25282467811E+01  0.48293116857E+02  0.00000000000E+00 0.  1.
<mgrwt>
<rscale>  0 0.12894819E+03</rscale>
<asrwt>0</asrwt>
<pdfrwt beam="2">  1        1 0.46803798E-01 0.13862372E+03</pdfrwt>
<pdfrwt beam="1">  1       -1 0.80510040E-02 0.13862372E+03</pdfrwt>
<totfact> 0.70002714E+03</totfact>
</mgrwt>
</event>
<event>
 6    1  0.9263730E-006  0.1371670E+03  0.7546771E-02  0.1228571E+00
         -1   -1    0    0    0  501 -0.00000000000E+00  0.00000000000E+00  0.54207099225E+03  0.54207099225E+03  0.00000000000E+00 0. -1.
          1   -1    0    0  501    0  0.00000000000E+00 -0.00000000000E+00 -0.27806503913E+02  0.27806503913E+02  0.00000000000E+00 0.  1.
          5    1    1    2  502    0 -0.55897725674E+01  0.56256618422E+02  0.17054299585E+03  0.17973050967E+03  0.47000000000E+01 0.  1.
         -5    1    1    2    0  502 -0.50891515602E+02 -0.56304974756E+02  0.12940576764E+03  0.15009376816E+03  0.47000000000E+01 0.  1.
        -11    1    1    2    0    0  0.82241264777E+02 -0.20851433776E+01  0.16522724025E+03  0.18457522688E+03  0.00000000000E+00 0.  1.
         11    1    1    2    0    0 -0.25759976607E+02  0.21334997113E+01  0.49088484601E+02  0.55477991458E+02  0.00000000000E+00 0. -1.
<mgrwt>
<rscale>  0 0.12925107E+03</rscale>
<asrwt>0</asrwt>
<pdfrwt beam="2">  1        1 0.42779241E-02 0.13716703E+03</pdfrwt>
<pdfrwt beam="1">  1       -1 0.83395529E-01 0.13716703E+03</pdfrwt>
<totfact> 0.29841663E+03</totfact>
</mgrwt>
</event>
<event>
 6    1  0.9263730E-006  0.2221676E+03  0.7546771E-02  0.1132277E+00
          1   -1    0    0  501    0  0.00000000000E+00  0.00000000000E+00  0.13632191598E+03  0.13632191598E+03  0.00000000000E+00 0. -1.
         -1   -1    0    0    0  501 -0.00000000000E+00 -0.00000000000E+00 -0.90518163558E+02  0.90518163558E+02  0.00000000000E+00 0.  1.
          5    1    1    2  502    0 -0.20122207193E+02  0.51507715347E+02  0.77317135417E+02  0.95173406956E+02  0.47000000000E+01 0.  1.
         -5    1    1    2    0  502  0.10791805168E+02 -0.12635298252E+02 -0.38073178641E+02  0.41806348233E+02  0.47000000000E+01 0.  1.
        -11    1    1    2    0    0 -0.16720854364E+02 -0.27526290816E+02 -0.29688117516E+02  0.43802602416E+02  0.00000000000E+00 0.  1.
         11    1    1    2    0    0  0.26051256389E+02 -0.11346126280E+02  0.36247913160E+02  0.46057721931E+02  0.00000000000E+00 0. -1.
<mgrwt>
<rscale>  0 0.22216759E+03</rscale>
<asrwt>0</asrwt>
<pdfrwt beam="1">  1        1 0.20972602E-01 0.22216759E+03</pdfrwt>
<pdfrwt beam="2">  1       -1 0.13925871E-01 0.22216759E+03</pdfrwt>
<totfact> 0.84918449E+03</totfact>
</mgrwt>
</event>
<event>
 6    1  0.9263730E-006  0.1287734E+03  0.7546771E-02  0.1243740E+00
         -2   -1    0    0    0  501 -0.00000000000E+00  0.00000000000E+00  0.43316650957E+02  0.43316650957E+02  0.00000000000E+00 0.  1.
          2   -1    0    0  501    0  0.00000000000E+00 -0.00000000000E+00 -0.33610585860E+03  0.33610585860E+03  0.00000000000E+00 0. -1.
          5    1    1    2  502    0 -0.41069371019E+01 -0.12027585788E+02  0.12556778109E+02  0.18474101567E+02  0.47000000000E+01 0. -1.
         -5    1    1    2    0  502 -0.26216460844E+02  0.18183340833E+02 -0.24622637033E+03  0.24832932197E+03  0.47000000000E+01 0. -1.
        -11    1    1    2    0    0  0.40610279165E+01  0.21673130306E+02  0.16720364601E+02  0.27672858858E+02  0.00000000000E+00 0.  1.
         11    1    1    2    0    0  0.26262370030E+02 -0.27828885351E+02 -0.75839980029E+02  0.84946227169E+02  0.00000000000E+00 0. -1.
<mgrwt>
<rscale>  0 0.11961119E+03</rscale>
<asrwt>0</asrwt>
<pdfrwt beam="2">  1        2 0.51708593E-01 0.12877340E+03</pdfrwt>
<pdfrwt beam="1">  1       -2 0.66641003E-02 0.12877340E+03</pdfrwt>
<totfact> 0.11436711E+04</totfact>
</mgrwt>
</event>
<event>
 6    1  0.9263730E-006  0.2345293E+03  0.7546771E-02  0.1126146E+00
         -1   -1    0    0    0  501 -0.00000000000E+00  0.00000000000E+00  0.31512589432E+02  0.31512589432E+02  0.00000000000E+00 0.  1.
          1   -1    0    0  501    0  0.00000000000E+00 -0.00000000000E+00 -0.16621437596E+04  0.16621437596E+04  0.00000000000E+00 0. -1.
          5    1    1    2  502    0 -0.28277320477E+02 -0.33947942135E+02 -0.39659657246E+03  0.39907768782E+03  0.47000000000E+01 0.  1.
         -5    1    1    2    0  502 -0.63649465326E+02 -0.14191646295E+03 -0.33913697581E+03  0.37313203462E+03  0.47000000000E+01 0.  1.
        -11    1    1    2    0    0  0.24669450968E+02  0.12107606713E+03 -0.64995782818E+03  0.66159895274E+03  0.00000000000E+00 0. -1.
         11    1    1    2    0    0  0.67257334835E+02  0.54788337957E+02 -0.24493979366E+03  0.25984767381E+03  0.00000000000E+00 0.  1.
<mgrwt>
<rscale>  0 0.23070322E+03</rscale>
<asrwt>0</asrwt>
<pdfrwt beam="2">  1        1 0.25571443E+00 0.23452932E+03</pdfrwt>
<pdfrwt beam="1">  1       -1 0.48480907E-02 0.23452932E+03</pdfrwt>
<totfact> 0.10346088E+03</totfact>
</mgrwt>
</event>
<event>
 6    1  0.9263730E-006  0.1829867E+03  0.7546771E-02  0.1170462E+00
         -3   -1    0    0    0  501 -0.00000000000E+00  0.00000000000E+00  0.13221564314E+03  0.13221564314E+03  0.00000000000E+00 0.  1.
          3   -1    0    0  501    0  0.00000000000E+00 -0.00000000000E+00 -0.22463933952E+03  0.22463933952E+03  0.00000000000E+00 0. -1.
          5    1    1    2  502    0 -0.10308746159E+02 -0.38367922155E+02 -0.29260464261E+02  0.49564427431E+02  0.47000000000E+01 0. -1.
         -5    1    1    2    0  502 -0.11871452777E+03  0.73152454101E+02 -0.29314927743E+02  0.14256884524E+03  0.47000000000E+01 0. -1.
        -11    1    1    2    0    0 -0.26460983034E+01 -0.29223362673E+02 -0.81372193714E+01  0.30450305438E+02  0.00000000000E+00 0.  1.
         11    1    1    2    0    0  0.13166937223E+03 -0.55611692731E+01 -0.25711085007E+02  0.13427140455E+03  0.00000000000E+00 0. -1.
<mgrwt>
<rscale>  0 0.17728019E+03</rscale>
<asrwt>0</asrwt>
<pdfrwt beam="2">  1        3 0.34559898E-01 0.18298666E+03</pdfrwt>
<pdfrwt beam="1">  1       -3 0.20340868E-01 0.18298666E+03</pdfrwt>
<totfact> 0.43270611E+02</totfact>
</mgrwt>
</event>
<event>
 6    1  0.9263730E-006  0.1489900E+03  0.7546771E-02  0.1290301E+00
          2   -1    0    0  501    0  0.00000000000E+00  0.00000000000E+00  0.11977391830E+04  0.11977391830E+04  0.00000000000E+00 0. -1.
         -2   -1    0    0    0  501 -0.00000000000E+00 -0.00000000000E+00 -0.16515679596E+02  0.16515679596E+02  0.00000000000E+00 0.  1.
          5    1    1    2  502    0 -0.11851609616E+02 -0.47884207352E+02  0.90228537236E+03  0.90364503050E+03  0.47000000000E+01 0. -1.
         -5    1    1    2    0  502  0.22600768594E+02  0.63067904175E+02  0.27752526347E+03  0.28553584213E+03  0.47000000000E+01 0.  1.
        -11    1    1    2    0    0  0.35775402974E+00 -0.13691602315E+02  0.20517641358E+01  0.13849104591E+02  0.00000000000E+00 0.  1.
         11    1    1    2    0    0 -0.11106913007E+02 -0.14920945082E+01 -0.63889657639E+00  0.11224885363E+02  0.00000000000E+00 0. -1.
<mgrwt>
<rscale>  0 0.95389594E+02</rscale>
<asrwt>0</asrwt>
<pdfrwt beam="1">  1        2 0.18426750E+00 0.14898997E+03</pdfrwt>
<pdfrwt beam="2">  1       -2 0.25408747E-02 0.14898997E+03</pdfrwt>
<totfact> 0.10574092E+04</totfact>
</mgrwt>
</event>
<event>
 6    1  0.9263730E-006  0.1437708E+03  0.7546771E-02  0.1218985E+00
         -1   -1    0    0    0  501 -0.00000000000E+00  0.00000000000E+00  0.37895362659E+02  0.37895362659E+02  0.00000000000E+00 0.  1.
          1   -1    0    0  501    0  0.00000000000E+00 -0.00000000000E+00 -0.48566238572E+03  0.48566238572E+03  0.00000000000E+00 0. -1.
          5    1    1    2  502    0  0.32332720938E+02 -0.74719978000E+01 -0.13293385731E+03  0.13709389488E+03  0.47000000000E+01 0. -1.
         -5    1    1    2    0  502 -0.10334739312E+03  0.83540412491E+01 -0.19293450853E+03  0.21908055197E+03  0.47000000000E+01 0. -1.
        -11    1    1    2    0    0  0.51607429257E+02 -0.13324623916E+02 -0.11399876231E+02  0.54505316577E+02  0.00000000000E+00 0.  1.
         11    1    1    2    0    0  0.19407242922E+02  0.12442580467E+02 -0.11049878100E+03  0.11287798496E+03  0.00000000000E+00 0. -1.
<mgrwt>
<rscale>  0 0.13587867E+03</rscale>
<asrwt>0</asrwt>
<pdfrwt beam="2">  1        1 0.74717287E-01 0.14377081E+03</pdfrwt>
<pdfrwt beam="1">  1       -1 0.58300560E-02 0.14377081E+03</pdfrwt>
<totfact> 0.63094564E+03</totfact>
</mgrwt>
</event>
<event>
 6    1  0.9263730E-006  0.2728698E+03  0.7546771E-02  0.1099648E+00
         -1   -1    0    0    0  501 -0.00000000000E+00  0.00000000000E+00  0.28205124988E+02  0.28205124988E+02  0.00000000000E+00 0.  1.
          1   -1    0    0  501    0  0.00000000000E+00 -0.00000000000E+00 -0.65996792088E+03  0.65996792088E+03  0.00000000000E+00 0. -1.
          5    1    1    2  502    0  0.11132196021E+02 -0.12919195560E+02 -0.22570009431E+00  0.17691024354E+02  0.47000000000E+01 0. -1.
         -5    1    1    2    0  502 -0.80120842039E+02  0.18094857689E+02 -0.41493011205E+03  0.42300810996E+03  0.47000000000E+01 0.  1.
        -11    1    1    2    0    0  0.67544271326E+02  0.21931372330E+02 -0.74994079336E+02  0.10328274598E+03  0.00000000000E+00 0.  1.
         11    1    1    2    0    0  0.14443746923E+01 -0.27107034459E+02 -0.14161290441E+03  0.14419116558E+03  0.00000000000E+00 0. -1.
<mgrwt>
<rscale>  0 0.27286977E+03</rscale>
<asrwt>0</asrwt>
<pdfrwt beam="2">  1        1 0.10153353E+00 0.27286977E+03</pdfrwt>
<pdfrwt beam="1">  1       -1 0.43392500E-02 0.27286977E+03</pdfrwt>
<totfact> 0.66651028E+03</totfact>
</mgrwt>
</event>
<event>
 6    1  0.9263730E-006  0.2489414E+03  0.7546771E-02  0.1113976E+00
          2   -1    0    0  501    0  0.00000000000E+00  0.00000000000E+00  0.45137966346E+02  0.45137966346E+02  0.00000000000E+00 0. -1.
         -2   -1    0    0    0  501 -0.00000000000E+00 -0.00000000000E+00 -0.34323554372E+03  0.34323554372E+03  0.00000000000E+00 0.  1.
          5    1    1    2  502    0 -0.95733737658E+00  0.26398936157E+01  0.22043573211E+02  0.22713314445E+02  0.47000000000E+01 0. -1.
         -5    1    1    2    0  502  0.50172351000E+02  0.23483402418E+02 -0.16987178313E+03  0.17873793022E+03  0.47000000000E+01 0. -1.
        -11    1    1    2    0    0 -0.50533013748E+02  0.16950138518E+02 -0.12747964334E+03  0.13817363041E+03  0.00000000000E+00 0. -1.
         11    1    1    2    0    0  0.13180001242E+01 -0.43073434552E+02 -0.22789724106E+02  0.48748634989E+02  0.00000000000E+00 0.  1.
<mgrwt>
<rscale>  0 0.24894139E+03</rscale>
<asrwt>0</asrwt>
<pdfrwt beam="1">  1        2 0.69443025E-02 0.24894139E+03</pdfrwt>
<pdfrwt beam="2">  1       -2 0.52805468E-01 0.24894139E+03</pdfrwt>
<totfact> 0.34794438E+03</totfact>
</mgrwt>
</event>
<event>
 6    1  0.9263730E-006  0.1257586E+03  0.7546771E-02  0.1245140E+00
          2   -1    0    0  501    0  0.00000000000E+00  0.00000000000E+00  0.40379064282E+03  0.40379064282E+03  0.00000000000E+00 0. -1.
         -2   -1    0    0    0  501 -0.00000000000E+00 -0.00000000000E+00 -0.31570200055E+02  0.31570200055E+02  0.00000000000E+00 0.  1.
          5    1    1    2  502    0 -0.33120424997E+02  0.29964092969E+02  0.19452737688E+03  0.19964418292E+03  0.47000000000E+01 0. -1.
         -5    1    1    2    0  502  0.36334977508E+02 -0.16525383029E+02  0.11626376268E+02  0.41839951002E+02  0.47000000000E+01 0. -1.
        -11    1    1    2    0    0 -0.49667604929E+02 -0.22586051663E+01  0.10635137132E+03  0.11739926090E+03  0.00000000000E+00 0.  1.
         11    1    1    2    0    0  0.46453052418E+02 -0.11180104774E+02  0.59715318293E+02  0.76477448052E+02  0.00000000000E+00 0. -1.
<mgrwt>
<rscale>  0 0.11877024E+03</rscale>
<asrwt>0</asrwt>
<pdfrwt beam="1">  1        2 0.62121634E-01 0.12575857E+03</pdfrwt>
<pdfrwt beam="2">  1       -2 0.48569541E-02 0.12575857E+03</pdfrwt>
<totfact> 0.15142482E+04</totfact>
</mgrwt>
</event>
<event>
 6    1  0.9263730E-006  0.1381461E+03  0.7546771E-02  0.1227237E+00
         -1   -1    0    0    0  501 -0.00000000000E+00  0.00000000000E+00  0.18428596876E+02  0.18428596876E+02  0.00000000000E+00 0.  1.
          1   -1    0    0  501    0  0.00000000000E+00 -0.00000000000E+00 -0.97032911503E+03  0.97032911503E+03  0.00000000000E+00 0. -1.
          5    1    1    2  502    0  0.47848262420E+02  0.11463050585E+02 -0.50806592618E+03  0.51046442882E+03  0.47000000000E+01 0. -1.
         -5    1    1    2    0  502 -0.47968385673E+02  0.47355137340E+02 -0.20463670235E+03  0.21550346866E+03  0.47000000000E+01 0. -1.
        -11    1    1    2    0    0 -0.41787223592E+01 -0.79478846984E+02 -0.22110253472E+03  0.23499080769E+03  0.00000000000E+00 0. -1.
         11    1    1    2    0    0  0.42988456127E+01  0.20660659058E+02 -0.18095354900E+02  0.27799006732E+02  0.00000000000E+00 0.  1.
<mgrwt>
<rscale>  0 0.13014758E+03</rscale>
<asrwt>0</asrwt>
<pdfrwt beam="2">  1        1 0.14928142E+00 0.13814612E+03</pdfrwt>
<pdfrwt beam="1">  1       -1 0.28351685E-02 0.13814612E+03</pdfrwt>
<totfact> 0.67094359E+03</totfact>
</mgrwt>
</event>
<event>
 6    1  0.9263730E-006  0.1171071E+03  0.7546771E-02  0.1259529E+00
          1   -1    0    0  501    0  0.00000000000E+00  0.00000000000E+00  0.57863203820E+03  0.57863203820E+03  0.00000000000E+00 0. -1.
         -1   -1    0    0    0  501 -0.00000000000E+00 -0.00000000000E+00 -0.26466482147E+02  0.26466482147E+02  0.00000000000E+00 0.  1.
          5    1    1    2  502    0 -0.64773878852E+02  0.18588375701E+01  0.28031050586E+03  0.28774151657E+03  0.47000000000E+01 0. -1.
         -5    1    1    2    0  502  0.49740813552E+02  0.12347206152E+02  0.17761901505E+03  0.18492486728E+03  0.47000000000E+01 0.  1.
        -11    1    1    2    0    0  0.42413889955E+02 -0.35549874506E+02  0.40993610873E+02  0.68870950124E+02  0.00000000000E+00 0.  1.
         11    1    1    2    0    0 -0.27380824656E+02  0.21343830783E+02  0.53242424267E+02  0.63561186373E+02  0.00000000000E+00 0. -1.
<mgrwt>
<rscale>  0 0.11056394E+03</rscale>
<asrwt>0</asrwt>
<pdfrwt beam="1">  1        1 0.89020304E-01 0.11710706E+03</pdfrwt>
<pdfrwt beam="2">  1       -1 0.40717669E-02 0.11710706E+03</pdfrwt>
<totfact> 0.84006122E+03</totfact>
</mgrwt>
</event>
<event>
 6    1  0.9263730E-006  0.2120495E+03  0.7546771E-02  0.1144026E+00
         -1   -1    0    0    0  501 -0.00000000000E+00  0.00000000000E+00  0.91017212440E+02  0.91017212440E+02  0.00000000000E+00 0.  1.
          1   -1    0    0  501    0  0.00000000000E+00 -0.00000000000E+00 -0.63963911536E+03  0.63963911536E+03  0.00000000000E+00 0. -1.
          5    1    1    2  502    0 -0.84517376363E+02 -0.69493369754E+02 -0.27725772716E+03  0.29810476785E+03  0.47000000000E+01 0. -1.
         -5    1    1    2    0  502 -0.86090258782E+02  0.53456458261E+02 -0.20573265127E+03  0.22938426142E+03  0.47000000000E+01 0. -1.
        -11    1    1    2    0    0  0.65813131201E+02 -0.36156569120E+02 -0.22293718309E+02  0.78330553458E+02  0.00000000000E+00 0. -1.
         11    1    1    2    0    0  0.10479450394E+03  0.52193480612E+02 -0.43337806180E+02  0.12483674507E+03  0.00000000000E+00 0.  1.
<mgrwt>
<rscale>  0 0.20692275E+03</rscale>
<asrwt>0</asrwt>
<pdfrwt beam="2">  1        1 0.98406013E-01 0.21204945E+03</pdfrwt>
<pdfrwt beam="1">  1       -1 0.14002649E-01 0.21204945E+03</pdfrwt>
<totfact> 0.11527836E+03</totfact>
</mgrwt>
</event>
<event>
 6    1  0.9263730E-006  0.3690314E+03  0.7546771E-02  0.1056053E+00
          2   -1    0    0  501    0  0.00000000000E+00  0.00000000000E+00  0.22964223186E+04  0.22964223186E+04  0.00000000000E+00 0. -1.
         -2   -1    0    0    0  501 -0.00000000000E+00 -0.00000000000E+00 -0.57746891932E+02  0.57746891932E+02  0.00000000000E+00 0.  1.
          5    1    1    2  502    0  0.93245817018E+02 -0.89642519830E+02  0.40969302233E+03  0.42965221552E+03  0.47000000000E+01 0. -1.
         -5    1    1    2    0  502  0.20952957372E+02 -0.23825814376E+03  0.68541364740E+03  0.72596138157E+03  0.47000000000E+01 0. -1.
        -11    1    1    2    0    0 -0.77824912273E+02  0.11933132386E+03  0.36819312571E+03  0.39479470570E+03  0.00000000000E+00 0.  1.
         11    1    1    2    0    0 -0.36373862117E+02  0.20856933973E+03  0.77537563119E+03  0.80376090771E+03  0.00000000000E+00 0. -1.
<mgrwt>
<rscale>  0 0.36646381E+03</rscale>
<asrwt>0</asrwt>
<pdfrwt beam="1">  1        2 0.35329567E+00 0.36903139E+03</pdfrwt>
<pdfrwt beam="2">  1       -2 0.88841390E-02 0.36903139E+03</pdfrwt>
<totfact> 0.40760825E+02</totfact>
</mgrwt>
</event>
<event>
 6    1  0.9263730E-006  0.1440575E+03  0.7546771E-02  0.1223057E+00
         -2   -1    0    0    0  501 -0.00000000000E+00  0.00000000000E+00  0.47012701433E+03  0.47012701433E+03  0.00000000000E+00 0.  1.
          2   -1    0    0  501    0  0.00000000000E+00 -0.00000000000E+00 -0.46810235207E+02  0.46810235207E+02  0.00000000000E+00 0. -1.
          5    1    1    2  502    0 -0.23546398811E+02  0.69965147239E+02  0.37869269326E+02  0.83100699662E+02  0.47000000000E+01 0. -1.
         -5    1    1    2    0  502 -0.27272253463E+02 -0.62962924188E+02  0.57705070973E+02  0.89777897320E+02  0.47000000000E+01 0.  1.
        -11    1    1    2    0    0  0.61753044882E+02  0.25076237485E+02  0.25868459650E+03  0.26713288211E+03  0.00000000000E+00 0. -1.
         11    1    1    2    0    0 -0.10934392608E+02 -0.32078460536E+02  0.69057842329E+02  0.76925770449E+02  0.00000000000E+00 0.  1.
<mgrwt>
<rscale>  0 0.13301002E+03</rscale>
<asrwt>0</asrwt>
<pdfrwt beam="2">  1        2 0.72015749E-02 0.14405747E+03</pdfrwt>
<pdfrwt beam="1">  1       -2 0.72327230E-01 0.14405747E+03</pdfrwt>
<totfact> 0.16772677E+03</totfact>
</mgrwt>
</event>
<event>
 6    1  0.9263730E-006  0.2243582E+03  0.7546771E-02  0.1130675E+00
         -1   -1    0    0    0  501 -0.00000000000E+00  0.00000000000E+00  0.19548595514E+03  0.19548595514E+03  0.00000000000E+00 0.  1.
          1   -1    0    0  501    0  0.00000000000E+00 -0.00000000000E+00 -0.64373661230E+02  0.64373661230E+02  0.00000000000E+00 0. -1.
          5    1    1    2  502    0  0.31500462167E+02  0.49454624743E+01  0.72321431236E+02  0.79178381721E+02  0.47000000000E+01 0. -1.
         -5    1    1    2    0  502 -0.66463311953E+02 -0.21565585892E+01  0.74529270008E+01  0.67079495389E+02  0.47000000000E+01 0.  1.
        -11    1    1    2    0    0  0.13048265783E+02  0.19827731260E+02  0.72083222068E+02  0.75890625710E+02  0.00000000000E+00 0.  1.
         11    1    1    2    0    0  0.21914584003E+02 -0.22616635145E+02 -0.20745286398E+02  0.37711113548E+02  0.00000000000E+00 0. -1.
<mgrwt>
<rscale>  0 0.22435817E+03</rscale>
<asrwt>0</asrwt>
<pdfrwt beam="2">  1        1 0.99036403E-02 0.22435817E+03</pdfrwt>
<pdfrwt beam="1">  1       -1 0.30074762E-01 0.22435817E+03</pdfrwt>
<totfact> 0.64885298E+03</totfact>
</mgrwt>
</event>
<event>
 6    1  0.9263730E-006  0.1654121E+03  0.7546771E-02  0.1192006E+00
          1   -1    0    0  501    0  0.00000000000E+00  0.00000000000E+00  0.11029943043E+03  0.11029943043E+03  0.00000000000E+00 0. -1.
         -1   -1    0    0    0  501 -0.00000000000E+00 -0.00000000000E+00 -0.20454842653E+03  0.20454842653E+03  0.00000000000E+00 0.  1.
          5    1    1    2  502    0  0.30077855946E+02 -0.32661777060E+02  0.22257206252E+02  0.49889300748E+02  0.47000000000E+01 0. -1.
         -5    1    1    2    0  502  0.52604046414E+02  0.86807518257E+02 -0.66153689834E+02  0.12124822310E+03  0.47000000000E+01 0.  1.
        -11    1    1    2    0    0  0.13888941113E+02  0.23589612473E+01 -0.25444731906E+02  0.29084390404E+02  0.00000000000E+00 0. -1.
         11    1    1    2    0    0 -0.96570843473E+02 -0.56504702445E+02 -0.24907780607E+02  0.11462594271E+03  0.00000000000E+00 0.  1.
<mgrwt>
<rscale>  0 0.15710392E+03</rscale>
<asrwt>0</asrwt>
<pdfrwt beam="1">  1        1 0.16969143E-01 0.16541206E+03</pdfrwt>
<pdfrwt beam="2">  1       -1 0.31468989E-01 0.16541206E+03</pdfrwt>
<totfact> 0.29060140E+03</totfact>
</mgrwt>
</event>
<event>
 6    1  0.9263730E-006  0.1374832E+03  0.7546771E-02  0.1228916E+00
         -1   -1    0    0    0  501 -0.00000000000E+00  0.00000000000E+00  0.38842556737E+03  0.38842556737E+03  0.00000000000E+00 0.  1.
          1   -1    0    0  501    0  0.00000000000E+00 -0.00000000000E+00 -0.38729420259E+02  0.38729420259E+02  0.00000000000E+00 0. -1.
          5    1    1    2  502    0  0.96717693789E+01 -0.65242046025E+02  0.69347776450E+02  0.95818953193E+02  0.47000000000E+01 0.  1.
         -5    1    1    2    0  502 -0.55850179313E+02  0.31419574193E+02  0.14821232117E+03  0.16154075126E+03  0.47000000000E+01 0.  1.
        -11    1    1    2    0    0  0.45141213327E+02 -0.65308843519E+01  0.11884474381E+03  0.12729671921E+03  0.00000000000E+00 0. -1.
         11    1    1    2    0    0  0.10371966070E+01  0.40353356184E+02  0.13291305684E+02  0.42498563963E+02  0.00000000000E+00 0.  1.
<mgrwt>
<rscale>  0 0.12902076E+03</rscale>
<asrwt>0</asrwt>
<pdfrwt beam="2">  1        1 0.59583726E-02 0.13748317E+03</pdfrwt>
<pdfrwt beam="1">  1       -1 0.59757777E-01 0.13748317E+03</pdfrwt>
<totfact> 0.36718129E+03</totfact>
</mgrwt>
</event>
<event>
 6    1  0.9263730E-006  0.1503913E+03  0.7546771E-02  0.1211251E+00
          1   -1    0    0  501    0  0.00000000000E+00  0.00000000000E+00  0.28821611536E+03  0.28821611536E+03  0.00000000000E+00 0. -1.
         -1   -1    0    0    0  501 -0.00000000000E+00 -0.00000000000E+00 -0.89278446746E+02  0.89278446746E+02  0.00000000000E+00 0.  1.
          5    1    1    2  502    0  0.87965353489E+02  0.31570292340E+01  0.13694275984E+03  0.16285969335E+03  0.47000000000E+01 0.  1.
         -5    1    1    2    0  502 -0.27599218547E+02  0.54712353601E+02  0.73757929543E+02  0.96007711521E+02  0.47000000000E+01 0.  1.
        -11    1    1    2    0    0 -0.12735259402E+02 -0.44343637927E+02  0.28999011327E+02  0.54493006107E+02  0.00000000000E+00 0. -1.
         11    1    1    2    0    0 -0.47630875540E+02 -0.13525744908E+02 -0.40762032092E+02  0.64134151123E+02  0.00000000000E+00 0.  1.
<mgrwt>
<rscale>  0 0.14155549E+03</rscale>
<asrwt>0</asrwt>
<pdfrwt beam="1">  1        1 0.44340940E-01 0.15039133E+03</pdfrwt>
<pdfrwt beam="2">  1       -1 0.13735146E-01 0.15039133E+03</pdfrwt>
<totfact> 0.33140586E+03</totfact>
</mgrwt>
</event>
<event>
 6    1  0.9263730E-006  0.1352839E+03  0.7546771E-02  0.1232460E+00
         -2   -1    0    0    0  501 -0.00000000000E+00  0.00000000000E+00  0.73963259325E+02  0.73963259325E+02  0.00000000000E+00 0. -1.
          2   -1    0    0  501    0  0.00000000000E+00 -0.00000000000E+00 -0.19970789285E+03  0.19970789285E+03  0.00000000000E+00 0.  1.
          5    1    1    2  502    0 -0.76927515689E+01 -0.69571235320E+02 -0.68945363251E+01  0.70490849348E+02  0.47000000000E+01 0.  1.
         -5    1    1    2    0  502  0.27523989595E+02  0.21788259009E+02 -0.87708096469E+02  0.94589103073E+02  0.47000000000E+01 0.  1.
        -11    1    1    2    0    0 -0.51396185880E+02  0.35376479411E+02 -0.39258861287E+02  0.73717849996E+02  0.00000000000E+00 0.  1.
         11    1    1    2    0    0  0.31564947854E+02  0.12406496900E+02  0.81168605528E+01  0.34873349761E+02  0.00000000000E+00 0. -1.
<mgrwt>
<rscale>  0 0.12668469E+03</rscale>
<asrwt>0</asrwt>
<pdfrwt beam="2">  1        2 0.30724291E-01 0.13528390E+03</pdfrwt>
<pdfrwt beam="1">  1       -2 0.11378963E-01 0.13528390E+03</pdfrwt>
<totfact> 0.87015336E+03</totfact>
</mgrwt>
</event>
<event>
 6    1  0.9263730E-006  0.3541576E+03  0.7546771E-02  0.1060921E+00
          1   -1    0    0  501    0  0.00000000000E+00  0.00000000000E+00  0.29113775514E+02  0.29113775514E+02  0.00000000000E+00 0. -1.
         -1   -1    0    0    0  501 -0.00000000000E+00 -0.00000000000E+00 -0.10770471825E+04  0.10770471825E+04  0.00000000000E+00 0.  1.
          5    1    1    2  502    0 -0.19608084759E+02 -0.13986587073E+03 -0.37445938377E+03  0.40023600397E+03  0.47000000000E+01 0. -1.
         -5    1    1    2    0  502  0.18362502608E+02  0.32670423114E+01 -0.25947588752E+03  0.26018778079E+03  0.47000000000E+01 0. -1.
        -11    1    1    2    0    0 -0.32618190234E+02  0.56101314859E+02 -0.95348154874E+02  0.11533678728E+03  0.00000000000E+00 0. -1.
         11    1    1    2    0    0  0.33863772385E+02  0.80497513561E+02 -0.31864998080E+03  0.33040038595E+03  0.00000000000E+00 0.  1.
<mgrwt>
<rscale>  0 0.35415765E+03</rscale>
<asrwt>0</asrwt>
<pdfrwt beam="1">  1        1 0.44790429E-02 0.35415765E+03</pdfrwt>
<pdfrwt beam="2">  1       -1 0.16569955E+00 0.35415765E+03</pdfrwt>
<totfact> 0.56141730E+02</totfact>
</mgrwt>
</event>
<event>
 6    1  0.9263730E-006  0.3738498E+03  0.7546771E-02  0.1053231E+00
         -2   -1    0    0    0  501 -0.00000000000E+00  0.00000000000E+00  0.73642542341E+02  0.73642542341E+02  0.00000000000E+00 0.  1.
          2   -1    0    0  501    0  0.00000000000E+00 -0.00000000000E+00 -0.47446645387E+03  0.47446645387E+03  0.00000000000E+00 0. -1.
          5    1    1    2  502    0 -0.33952015901E+02  0.27428556149E+02 -0.96234690915E+02  0.10577462272E+03  0.47000000000E+01 0.  1.
         -5    1    1    2    0  502  0.84242493350E+02 -0.28493199711E+02 -0.28334368366E+03  0.29700907930E+03  0.47000000000E+01 0.  1.
        -11    1    1    2    0    0  0.17531334893E+02  0.54368786602E+02 -0.13622004231E+02  0.58727094760E+02  0.00000000000E+00 0.  1.
         11    1    1    2    0    0 -0.67821812343E+02 -0.53304143040E+02 -0.76235327298E+01  0.86598199438E+02  0.00000000000E+00 0. -1.
<mgrwt>
<rscale>  0 0.37384979E+03</rscale>
<asrwt>0</asrwt>
<pdfrwt beam="2">  1        2 0.72994840E-01 0.37384979E+03</pdfrwt>
<pdfrwt beam="1">  1       -2 0.11329622E-01 0.37384979E+03</pdfrwt>
<totfact> 0.36023980E+03</totfact>
</mgrwt>
</event>
<event>
 6    1  0.9263730E-006  0.1430658E+03  0.7546771E-02  0.1219485E+00
         -1   -1    0    0    0  501 -0.00000000000E+00  0.00000000000E+00  0.20375009661E+03  0.20375009661E+03  0.00000000000E+00 0.  1.
          1   -1    0    0  501    0  0.00000000000E+00 -0.00000000000E+00 -0.87999948291E+02  0.87999948291E+02  0.00000000000E+00 0. -1.
          5    1    1    2  502    0  0.30916282568E+02  0.73666458583E+02 -0.22347163457E+02  0.83090609352E+02  0.47000000000E+01 0. -1.
         -5    1    1    2    0  502 -0.39438735792E+02 -0.45932021321E+01  0.47638494740E+02  0.62193468851E+02  0.47000000000E+01 0. -1.
        -11    1    1    2    0    0  0.23140623312E+02  0.11096517282E+02  0.48347747343E+02  0.54736878028E+02  0.00000000000E+00 0.  1.
         11    1    1    2    0    0 -0.14618170088E+02 -0.80169773733E+02  0.42111069690E+02  0.91729088666E+02  0.00000000000E+00 0. -1.
<mgrwt>
<rscale>  0 0.13552160E+03</rscale>
<asrwt>0</asrwt>
<pdfrwt beam="2">  1        1 0.13538454E-01 0.14306576E+03</pdfrwt>
<pdfrwt beam="1">  1       -1 0.31346168E-01 0.14306576E+03</pdfrwt>
<totfact> 0.38930084E+03</totfact>
</mgrwt>
</event>
<event>
 6    1  0.9263730E-006  0.1289051E+03  0.7546771E-02  0.1244208E+00
          2   -1    0    0  501    0  0.00000000000E+00  0.00000000000E+00  0.45502251940E+03  0.45502251940E+03  0.00000000000E+00 0. -1.
         -2   -1    0    0    0  501 -0.00000000000E+00 -0.00000000000E+00 -0.27462001795E+02  0.27462001795E+02  0.00000000000E+00 0.  1.
          5    1    1    2  502    0 -0.68609967037E+00  0.53177865300E+02  0.58484530348E+02  0.79188928397E+02  0.47000000000E+01 0.  1.
         -5    1    1    2    0  502 -0.30573534028E+02 -0.57109609818E+02  0.18910170520E+03  0.19994447586E+03  0.47000000000E+01 0.  1.
        -11    1    1    2    0    0 -0.15253307772E+02  0.35187592148E+02  0.65658813176E+02  0.76038870237E+02  0.00000000000E+00 0.  1.
         11    1    1    2    0    0  0.46512941471E+02 -0.31255847630E+02  0.11431546888E+03  0.12731224670E+03  0.00000000000E+00 0. -1.
<mgrwt>
<rscale>  0 0.11932917E+03</rscale>
<asrwt>0</asrwt>
<pdfrwt beam="1">  1        2 0.70003459E-01 0.12890506E+03</pdfrwt>
<pdfrwt beam="2">  1       -2 0.42249237E-02 0.12890506E+03</pdfrwt>
<totfact> 0.16434597E+04</totfact>
</mgrwt>
</event>
<event>
 6    1  0.9263730E-006  0.1901381E+03  0.7546771E-02  0.1173719E+00
         -1   -1    0    0    0  501 -0.00000000000E+00  0.00000000000E+00  0.10528380961E+03  0.10528380961E+03  0.00000000000E+00 0.  1.
          1   -1    0    0  501    0  0.00000000000E+00 -0.00000000000E+00 -0.30473011020E+03  0.30473011020E+03  0.00000000000E+00 0. -1.
          5    1    1    2  502    0 -0.54596132589E+02 -0.25015567070E+02 -0.94458561908E+02  0.11203136261E+03  0.47000000000E+01 0. -1.
         -5    1    1    2    0  502  0.34675012999E+02  0.12054670067E+03 -0.10642181343E+03  0.16456474696E+03  0.47000000000E+01 0.  1.
        -11    1    1    2    0    0  0.12499030250E+02 -0.10827969583E+03  0.18825706457E+02  0.11061250159E+03  0.00000000000E+00 0.  1.
         11    1    1    2    0    0  0.74220893413E+01  0.12748562227E+02 -0.17391631706E+02  0.22805308646E+02  0.00000000000E+00 0. -1.
<mgrwt>
<rscale>  0 0.17401992E+03</rscale>
<asrwt>0</asrwt>
<pdfrwt beam="2">  1        1 0.46881554E-01 0.19013806E+03</pdfrwt>
<pdfrwt beam="1">  1       -1 0.16197510E-01 0.19013806E+03</pdfrwt>
<totfact> 0.24063759E+03</totfact>
</mgrwt>
</event>
<event>
 6    1  0.9263730E-006  0.2000878E+03  0.7546771E-02  0.1153844E+00
         -1   -1    0    0    0  501 -0.00000000000E+00  0.00000000000E+00  0.69062269512E+02  0.69062269512E+02  0.00000000000E+00 0.  1.
          1   -1    0    0  501    0  0.00000000000E+00 -0.00000000000E+00 -0.66315513859E+03  0.66315513859E+03  0.00000000000E+00 0. -1.
          5    1    1    2  502    0  0.88655509642E+01 -0.10092261475E+03 -0.12595022813E+03  0.16170813872E+03  0.47000000000E+01 0.  1.
         -5    1    1    2    0  502  0.24337050913E+02 -0.51734496121E+02 -0.34877040260E+03  0.35345669305E+03  0.47000000000E+01 0.  1.
        -11    1    1    2    0    0  0.22258478136E+02  0.79495032892E+02 -0.86413760371E+02  0.11950831806E+03  0.00000000000E+00 0.  1.
         11    1    1    2    0    0 -0.55461080014E+02  0.73162077982E+02 -0.32958477979E+02  0.97544258271E+02  0.00000000000E+00 0. -1.
<mgrwt>
<rscale>  0 0.19521013E+03</rscale>
<asrwt>0</asrwt>
<pdfrwt beam="2">  1        1 0.10202386E+00 0.20008780E+03</pdfrwt>
<pdfrwt beam="1">  1       -1 0.10624965E-01 0.20008780E+03</pdfrwt>
<totfact> 0.16842687E+03</totfact>
</mgrwt>
</event>
<event>
 6    1  0.9263730E-006  0.1672118E+03  0.7546771E-02  0.1187532E+00
         -2   -1    0    0    0  501 -0.00000000000E+00  0.00000000000E+00  0.17767490026E+03  0.17767490026E+03  0.00000000000E+00 0.  1.
          2   -1    0    0  501    0  0.00000000000E+00 -0.00000000000E+00 -0.14011478551E+03  0.14011478551E+03  0.00000000000E+00 0. -1.
          5    1    1    2  502    0 -0.17269839074E+02 -0.50194059250E+02 -0.57403288710E+02  0.78325720426E+02  0.47000000000E+01 0. -1.
         -5    1    1    2    0  502  0.44990685604E+02 -0.57357339947E+02  0.50865967888E+02  0.89013835588E+02  0.47000000000E+01 0. -1.
        -11    1    1    2    0    0 -0.14257813687E+02  0.73706821461E+02 -0.19138398099E+02  0.77474247739E+02  0.00000000000E+00 0. -1.
         11    1    1    2    0    0 -0.13463032842E+02  0.33844577736E+02  0.63235833671E+02  0.72975882012E+02  0.00000000000E+00 0.  1.
<mgrwt>
<rscale>  0 0.16103564E+03</rscale>
<asrwt>0</asrwt>
<pdfrwt beam="2">  1        2 0.21556121E-01 0.16721181E+03</pdfrwt>
<pdfrwt beam="1">  1       -2 0.27334600E-01 0.16721181E+03</pdfrwt>
<totfact> 0.30056521E+03</totfact>
</mgrwt>
</event>
<event>
 6    1  0.9263730E-006  0.1309153E+03  0.7546771E-02  0.1240616E+00
          4   -1    0    0  501    0  0.00000000000E+00  0.00000000000E+00  0.66321015614E+02  0.66321015614E+02  0.00000000000E+00 0. -1.
         -4   -1    0    0    0  501 -0.00000000000E+00 -0.00000000000E+00 -0.21194642440E+03  0.21194642440E+03  0.00000000000E+00 0.  1.
          5    1    1    2  502    0  0.38614739646E+02  0.50578028771E+02 -0.36739745194E+02  0.73628350445E+02  0.47000000000E+01 0. -1.
         -5    1    1    2    0  502 -0.61272229684E+02 -0.18940145558E+02 -0.84027893310E+01  0.64851461917E+02  0.47000000000E+01 0. -1.
        -11    1    1    2    0    0 -0.10358035737E+02 -0.55037119579E+02 -0.66534910208E+02  0.86967049578E+02  0.00000000000E+00 0. -1.
         11    1    1    2    0    0  0.33015525776E+02  0.23399236366E+02 -0.33947964049E+02  0.52820578071E+02  0.00000000000E+00 0.  1.
<mgrwt>
<rscale>  0 0.12151669E+03</rscale>
<asrwt>0</asrwt>
<pdfrwt beam="1">  1        4 0.10203233E-01 0.13091528E+03</pdfrwt>
<pdfrwt beam="2">  1       -4 0.32607143E-01 0.13091528E+03</pdfrwt>
<totfact> 0.10886171E+03</totfact>
</mgrwt>
</event>
<event>
 6    1  0.9263730E-006  0.1282131E+03  0.7546771E-02  0.1243515E+00
         -1   -1    0    0    0  501 -0.00000000000E+00  0.00000000000E+00  0.16323306468E+03  0.16323306468E+03  0.00000000000E+00 0.  1.
          1   -1    0    0  501    0  0.00000000000E+00 -0.00000000000E+00 -0.10904988965E+03  0.10904988965E+03  0.00000000000E+00 0. -1.
          5    1    1    2  502    0 -0.66774427613E+02  0.20853255914E+02 -0.39878832791E+02  0.80660360587E+02  0.47000000000E+01 0.  1.
         -5    1    1    2    0  502  0.41691677337E+02 -0.34490638677E+02 -0.24827091501E+01  0.54369605114E+02  0.47000000000E+01 0.  1.
        -11    1    1    2    0    0  0.12673709610E+02 -0.40163699972E+02  0.46455589161E+02  0.62704604895E+02  0.00000000000E+00 0.  1.
         11    1    1    2    0    0  0.12409040666E+02  0.53801082735E+02  0.50089127810E+02  0.74548383741E+02  0.00000000000E+00 0. -1.
<mgrwt>
<rscale>  0 0.11974699E+03</rscale>
<asrwt>0</asrwt>
<pdfrwt beam="2">  1        1 0.16776906E-01 0.12821307E+03</pdfrwt>
<pdfrwt beam="1">  1       -1 0.25112779E-01 0.12821307E+03</pdfrwt>
<totfact> 0.42402031E+03</totfact>
</mgrwt>
</event>
<event>
 6    1  0.9263730E-006  0.1377691E+03  0.7546771E-02  0.1228562E+00
         -4   -1    0    0    0  501 -0.00000000000E+00  0.00000000000E+00  0.10642834089E+04  0.10642834089E+04  0.00000000000E+00 0.  1.
          4   -1    0    0  501    0  0.00000000000E+00 -0.00000000000E+00 -0.14060292889E+02  0.14060292889E+02  0.00000000000E+00 0. -1.
          5    1    1    2  502    0 -0.72316177583E+02 -0.79668722080E+01  0.32010350488E+03  0.32830084439E+03  0.47000000000E+01 0. -1.
         -5    1    1    2    0  502  0.47017107089E+02 -0.44135567479E+02  0.25362794883E+03  0.26173991500E+03  0.47000000000E+01 0. -1.
        -11    1    1    2    0    0 -0.11777801209E+02  0.65950938347E+02  0.28577025916E+03  0.29351811510E+03  0.00000000000E+00 0.  1.
         11    1    1    2    0    0  0.37076871702E+02 -0.13848498660E+02  0.19072140316E+03  0.19478482732E+03  0.00000000000E+00 0. -1.
<mgrwt>
<rscale>  0 0.12925736E+03</rscale>
<asrwt>0</asrwt>
<pdfrwt beam="2">  1        4 0.21631228E-02 0.13776907E+03</pdfrwt>
<pdfrwt beam="1">  1       -4 0.16373585E+00 0.13776907E+03</pdfrwt>
<totfact> 0.38148452E+02</totfact>
</mgrwt>
</event>
<event>
 6    1  0.9263730E-006  0.1360799E+03  0.7546771E-02  0.1230463E+00
          1   -1    0    0  501    0  0.00000000000E+00  0.00000000000E+00  0.70585734595E+03  0.70585734595E+03  0.00000000000E+00 0. -1.
         -1   -1    0    0    0  501 -0.00000000000E+00 -0.00000000000E+00 -0.20892013159E+02  0.20892013159E+02  0.00000000000E+00 0.  1.
          5    1    1    2  502    0  0.44726165387E+02 -0.43930698997E+02  0.84349074667E+02  0.10520072520E+03  0.47000000000E+01 0. -1.
         -5    1    1    2    0  502 -0.30285907435E+02 -0.78745239990E+01  0.31730849897E+03  0.31888245144E+03  0.47000000000E+01 0. -1.
        -11    1    1    2    0    0 -0.22442599771E+02  0.76775587598E+02  0.20322980721E+03  0.21840447723E+03  0.00000000000E+00 0. -1.
         11    1    1    2    0    0  0.80023418190E+01 -0.24970364603E+02  0.80077951942E+02  0.84261705241E+02  0.00000000000E+00 0.  1.
<mgrwt>
<rscale>  0 0.12799381E+03</rscale>
<asrwt>0</asrwt>
<pdfrwt beam="1">  1        1 0.10859342E+00 0.13607988E+03</pdfrwt>
<pdfrwt beam="2">  1       -1 0.32141564E-02 0.13607988E+03</pdfrwt>
<totfact> 0.91018181E+03</totfact>
</mgrwt>
</event>
<event>
 6    1  0.9263730E-006  0.1423666E+03  0.7546771E-02  0.1220983E+00
          2   -1    0    0  501    0  0.00000000000E+00  0.00000000000E+00  0.20386061600E+03  0.20386061600E+03  0.00000000000E+00 0. -1.
         -2   -1    0    0    0  501 -0.00000000000E+00 -0.00000000000E+00 -0.90440366259E+02  0.90440366259E+02  0.00000000000E+00 0.  1.
          5    1    1    2  502    0 -0.46037807433E+02  0.17805309175E+02  0.21207955949E+02  0.53929362537E+02  0.47000000000E+01 0. -1.
         -5    1    1    2    0  502  0.29591043876E+02 -0.83947909666E+02  0.90576275592E+02  0.12707884606E+03  0.47000000000E+01 0. -1.
        -11    1    1    2    0    0  0.18680123073E+02  0.18753957281E+01 -0.34683789439E+02  0.39438931996E+02  0.00000000000E+00 0.  1.
         11    1    1    2    0    0 -0.22333595160E+01  0.64267204763E+02  0.36319807641E+02  0.73853841673E+02  0.00000000000E+00 0. -1.
<mgrwt>
<rscale>  0 0.13446070E+03</rscale>
<asrwt>0</asrwt>
<pdfrwt beam="1">  1        2 0.31363172E-01 0.14236663E+03</pdfrwt>
<pdfrwt beam="2">  1       -2 0.13913903E-01 0.14236663E+03</pdfrwt>
<totfact> 0.61836991E+03</totfact>
</mgrwt>
</event>
<event>
 6    1  0.9263730E-006  0.3776677E+03  0.7546771E-02  0.1092970E+00
         -1   -1    0    0    0  501 -0.00000000000E+00  0.00000000000E+00  0.63392303492E+03  0.63392303492E+03  0.00000000000E+00 0.  1.
          1   -1    0    0  501    0  0.00000000000E+00 -0.00000000000E+00 -0.29577418003E+03  0.29577418003E+03  0.00000000000E+00 0. -1.
          5    1    1    2  502    0 -0.10872606314E+03 -0.76105361676E+02 -0.22220936143E+03  0.25886767506E+03  0.47000000000E+01 0. -1.
         -5    1    1    2    0  502  0.14124116120E+03  0.14021240281E+02  0.57425102216E+02  0.15318418052E+03  0.47000000000E+01 0.  1.
        -11    1    1    2    0    0 -0.49845065723E+02 -0.71670043568E+01  0.23752329681E+03  0.24280282752E+03  0.00000000000E+00 0.  1.
         11    1    1    2    0    0  0.17329967668E+02  0.69251125751E+02  0.26540981730E+03  0.27484253186E+03  0.00000000000E+00 0. -1.
<mgrwt>
<rscale>  0 0.28503490E+03</rscale>
<asrwt>0</asrwt>
<pdfrwt beam="2">  1        1 0.45503720E-01 0.37766768E+03</pdfrwt>
<pdfrwt beam="1">  1       -1 0.97526620E-01 0.37766768E+03</pdfrwt>
<totfact> 0.94620213E+01</totfact>
</mgrwt>
</event>
<event>
 6    1  0.9263730E-006  0.1523124E+03  0.7546771E-02  0.1206735E+00
         -1   -1    0    0    0  501 -0.00000000000E+00  0.00000000000E+00  0.35050640865E+02  0.35050640865E+02  0.00000000000E+00 0.  1.
          1   -1    0    0  501    0  0.00000000000E+00 -0.00000000000E+00 -0.56552993180E+03  0.56552993180E+03  0.00000000000E+00 0. -1.
          5    1    1    2  502    0  0.27970365610E+02  0.63113215207E+02 -0.18817978650E+03  0.20049773398E+03  0.47000000000E+01 0. -1.
         -5    1    1    2    0  502  0.58743796598E+02 -0.55642474979E+02 -0.15316454304E+03  0.17328700443E+03  0.47000000000E+01 0. -1.
        -11    1    1    2    0    0 -0.63706314824E+02 -0.41651496498E+02 -0.15722991112E+03  0.17468424846E+03  0.00000000000E+00 0. -1.
         11    1    1    2    0    0 -0.23007847384E+02  0.34180756271E+02 -0.31905050282E+02  0.52111585794E+02  0.00000000000E+00 0.  1.
<mgrwt>
<rscale>  0 0.14501585E+03</rscale>
<asrwt>0</asrwt>
<pdfrwt beam="2">  1        1 0.87004606E-01 0.15231244E+03</pdfrwt>
<pdfrwt beam="1">  1       -1 0.53924062E-02 0.15231244E+03</pdfrwt>
<totfact> 0.58135561E+03</totfact>
</mgrwt>
</event>
<event>
 6    1  0.9263730E-006  0.1304636E+03  0.7546771E-02  0.1241011E+00
          1   -1    0    0  501    0  0.00000000000E+00  0.00000000000E+00  0.64912397644E+03  0.64912397644E+03  0.00000000000E+00 0. -1.
         -1   -1    0    0    0  501 -0.00000000000E+00 -0.00000000000E+00 -0.23964495632E+02  0.23964495632E+02  0.00000000000E+00 0.  1.
          5    1    1    2  502    0  0.41262003784E+02  0.29886979245E+02  0.94085470950E+02  0.10709785399E+03  0.47000000000E+01 0.  1.
         -5    1    1    2    0  502 -0.14061546973E+02 -0.55523510044E+02  0.39204031957E+03  0.39623009658E+03  0.47000000000E+01 0.  1.
        -11    1    1    2    0    0 -0.13223859345E+02 -0.33719768704E+02  0.46522021197E+02  0.58959237729E+02  0.00000000000E+00 0.  1.
         11    1    1    2    0    0 -0.13976597466E+02  0.59356299502E+02  0.92511669089E+02  0.11080128377E+03  0.00000000000E+00 0. -1.
<mgrwt>
<rscale>  0 0.12127333E+03</rscale>
<asrwt>0</asrwt>
<pdfrwt beam="1">  1        1 0.99865214E-01 0.13046356E+03</pdfrwt>
<pdfrwt beam="2">  1       -1 0.36868460E-02 0.13046356E+03</pdfrwt>
<totfact> 0.83622442E+03</totfact>
</mgrwt>
</event>
<event>
 6    1  0.9263730E-006  0.1398229E+03  0.7546771E-02  0.1221521E+00
          2   -1    0    0  501    0  0.00000000000E+00  0.00000000000E+00  0.62932371020E+03  0.62932371020E+03  0.00000000000E+00 0. -1.
         -2   -1    0    0    0  501 -0.00000000000E+00 -0.00000000000E+00 -0.27152139749E+02  0.27152139749E+02  0.00000000000E+00 0.  1.
          5    1    1    2  502    0  0.46378524924E+02  0.50110418097E+02  0.15623121299E+03  0.17056466072E+03  0.47000000000E+01 0. -1.
         -5    1    1    2    0  502 -0.67112772115E+02  0.18247315523E+02  0.22180757065E+03  0.23250328407E+03  0.47000000000E+01 0.  1.
        -11    1    1    2    0    0 -0.23713380255E+02  0.11297047003E+02  0.38962535063E+02  0.46989645802E+02  0.00000000000E+00 0.  1.
         11    1    1    2    0    0  0.44447627446E+02 -0.79654780623E+02  0.18517025175E+03  0.20641825935E+03  0.00000000000E+00 0. -1.
<mgrwt>
<rscale>  0 0.13408259E+03</rscale>
<asrwt>0</asrwt>
<pdfrwt beam="1">  1        2 0.96819021E-01 0.13982291E+03</pdfrwt>
<pdfrwt beam="2">  1       -2 0.41772528E-02 0.13982291E+03</pdfrwt>
<totfact> 0.11724442E+04</totfact>
</mgrwt>
</event>
<event>
 6    1  0.9263730E-006  0.1983979E+03  0.7546771E-02  0.1154366E+00
          1   -1    0    0  501    0  0.00000000000E+00  0.00000000000E+00  0.12967789884E+04  0.12967789884E+04  0.00000000000E+00 0. -1.
         -1   -1    0    0    0  501 -0.00000000000E+00 -0.00000000000E+00 -0.75135191908E+02  0.75135191908E+02  0.00000000000E+00 0.  1.
          5    1    1    2  502    0 -0.34063803972E+02 -0.70023617295E+02  0.22339329327E+03  0.23662270220E+03  0.47000000000E+01 0.  1.
         -5    1    1    2    0  502 -0.68703485787E+02 -0.44754339202E+02  0.93857090287E+03  0.94215739107E+03  0.47000000000E+01 0.  1.
        -11    1    1    2    0    0  0.49785724753E+02  0.29328126370E+01 -0.10350718604E+02  0.50934832431E+02  0.00000000000E+00 0.  1.
         11    1    1    2    0    0  0.52981565006E+02  0.11184514386E+03  0.70030318952E+02  0.14219925460E+03  0.00000000000E+00 0. -1.
<mgrwt>
<rscale>  0 0.19461194E+03</rscale>
<asrwt>0</asrwt>
<pdfrwt beam="1">  1        1 0.19950444E+00 0.19839787E+03</pdfrwt>
<pdfrwt beam="2">  1       -1 0.11559261E-01 0.19839787E+03</pdfrwt>
<totfact> 0.48287596E+02</totfact>
</mgrwt>
</event>
<event>
 6    1  0.9263730E-006  0.1457008E+03  0.7546771E-02  0.1215789E+00
          2   -1    0    0  501    0  0.00000000000E+00  0.00000000000E+00  0.57192412574E+03  0.57192412574E+03  0.00000000000E+00 0. -1.
         -2   -1    0    0    0  501 -0.00000000000E+00 -0.00000000000E+00 -0.38544087721E+02  0.38544087721E+02  0.00000000000E+00 0.  1.
          5    1    1    2  502    0  0.22083876775E+02  0.27274660084E+02  0.13749374107E+03  0.14197965886E+03  0.47000000000E+01 0.  1.
         -5    1    1    2    0  502 -0.46583748113E+02 -0.98010298707E+02  0.29129418435E+03  0.31088656464E+03  0.47000000000E+01 0.  1.
        -11    1    1    2    0    0 -0.20322000291E+02  0.25531142626E+01  0.62537950202E+02  0.65806514144E+02  0.00000000000E+00 0. -1.
         11    1    1    2    0    0  0.44821871630E+02  0.68182524361E+02  0.42054162394E+02  0.91795475810E+02  0.00000000000E+00 0.  1.
<mgrwt>
<rscale>  0 0.13818757E+03</rscale>
<asrwt>0</asrwt>
<pdfrwt beam="1">  1        2 0.87988321E-01 0.14570083E+03</pdfrwt>
<pdfrwt beam="2">  1       -2 0.59298601E-02 0.14570083E+03</pdfrwt>
<totfact> 0.77419923E+03</totfact>
</mgrwt>
</event>
<event>
 6    1  0.9263730E-006  0.2744421E+03  0.7546771E-02  0.1100748E+00
          3   -1    0    0  501    0  0.00000000000E+00  0.00000000000E+00  0.25914257719E+03  0.25914257719E+03  0.00000000000E+00 0. -1.
         -3   -1    0    0    0  501 -0.00000000000E+00 -0.00000000000E+00 -0.41554588218E+03  0.41554588218E+03  0.00000000000E+00 0.  1.
          5    1    1    2  502    0 -0.58562015166E+02  0.24518018476E+02  0.39622743737E+02  0.74984629568E+02  0.47000000000E+01 0.  1.
         -5    1    1    2    0  502 -0.15825424634E+03 -0.13714325694E+03  0.76115181897E+02  0.22286383808E+03  0.47000000000E+01 0.  1.
        -11    1    1    2    0    0  0.11962518406E+03  0.11139972533E+03 -0.17188390120E+03  0.23720067233E+03  0.00000000000E+00 0.  1.
         11    1    1    2    0    0  0.97191077440E+02  0.12255131396E+01 -0.10025732943E+03  0.13963931939E+03  0.00000000000E+00 0. -1.
<mgrwt>
<rscale>  0 0.27093163E+03</rscale>
<asrwt>0</asrwt>
<pdfrwt beam="1">  1        3 0.39868089E-01 0.27444206E+03</pdfrwt>
<pdfrwt beam="2">  1       -3 0.63930135E-01 0.27444206E+03</pdfrwt>
<totfact> 0.37565549E+01</totfact>
</mgrwt>
</event>
<event>
 6    1  0.1464515E-005  0.3154583E+03  0.7546771E-02  0.1077759E+00
          3   -1    0    0  501    0  0.00000000000E+00  0.00000000000E+00  0.20255299125E+03  0.20255299125E+03  0.00000000000E+00 0. -1.
         -3   -1    0    0    0  501 -0.00000000000E+00 -0.00000000000E+00 -0.12282454851E+03  0.12282454851E+03  0.00000000000E+00 0.  1.
          5    1    1    2  502    0  0.30687271422E+02 -0.29410613548E+02 -0.16854243561E+02  0.45965730089E+02  0.47000000000E+01 0. -1.
         -5    1    1    2    0  502 -0.77751940469E+02 -0.70214891435E+02  0.81294559408E+02  0.13268907497E+03  0.47000000000E+01 0. -1.
        -11    1    1    2    0    0  0.20132914775E+01  0.54365266800E+02 -0.35643798043E+02  0.65039341292E+02  0.00000000000E+00 0.  1.
         11    1    1    2    0    0  0.45051377570E+02  0.45260238183E+02  0.50931924934E+02  0.81683393408E+02  0.00000000000E+00 0. -1.
<mgrwt>
<rscale>  0 0.31545827E+03</rscale>
<asrwt>0</asrwt>
<pdfrwt beam="1">  1        3 0.31161999E-01 0.31545827E+03</pdfrwt>
<pdfrwt beam="2">  1       -3 0.18896084E-01 0.31545827E+03</pdfrwt>
<totfact> 0.63864098E+02</totfact>
</mgrwt>
</event>
<event>
 6    1  0.9263730E-006  0.2639120E+03  0.7546771E-02  0.1107256E+00
         -1   -1    0    0    0  501 -0.00000000000E+00  0.00000000000E+00  0.37607889287E+03  0.37607889287E+03  0.00000000000E+00 0.  1.
          1   -1    0    0  501    0  0.00000000000E+00 -0.00000000000E+00 -0.17747050560E+03  0.17747050560E+03  0.00000000000E+00 0. -1.
          5    1    1    2  502    0 -0.86473454438E+02  0.71339509029E+02 -0.28298563997E+02  0.11571466024E+03  0.47000000000E+01 0.  1.
         -5    1    1    2    0  502 -0.12050235395E+03  0.34397223413E+02  0.92685544210E+02  0.15593808512E+03  0.47000000000E+01 0.  1.
        -11    1    1    2    0    0  0.41493514061E+02 -0.45469421846E+02  0.18544175760E+01  0.61584242276E+02  0.00000000000E+00 0. -1.
         11    1    1    2    0    0  0.16548229433E+03 -0.60267310596E+02  0.13236698948E+03  0.22031241083E+03  0.00000000000E+00 0.  1.
<mgrwt>
<rscale>  0 0.25981239E+03</rscale>
<asrwt>0</asrwt>
<pdfrwt beam="2">  1        1 0.27303155E-01 0.26391198E+03</pdfrwt>
<pdfrwt beam="1">  1       -1 0.57858291E-01 0.26391198E+03</pdfrwt>
<totfact> 0.53440083E+02</totfact>
</mgrwt>
</event>
<event>
 6    1  0.9263730E-006  0.1418512E+03  0.7546771E-02  0.1221378E+00
          2   -1    0    0  501    0  0.00000000000E+00  0.00000000000E+00  0.36477802844E+03  0.36477802844E+03  0.00000000000E+00 0. -1.
         -2   -1    0    0    0  501 -0.00000000000E+00 -0.00000000000E+00 -0.92866612860E+02  0.92866612860E+02  0.00000000000E+00 0.  1.
          5    1    1    2  502    0 -0.31145388296E+02 -0.16647602483E+02  0.12772909259E+03  0.13260463406E+03  0.47000000000E+01 0.  1.
         -5    1    1    2    0  502  0.73446115592E+02  0.68679926522E+02  0.17975575085E+03  0.20602301853E+03  0.47000000000E+01 0.  1.
        -11    1    1    2    0    0 -0.30899445764E+02 -0.64342533824E+02 -0.57324062362E+02  0.91546630375E+02  0.00000000000E+00 0.  1.
         11    1    1    2    0    0 -0.11401281532E+02  0.12310209785E+02  0.21750634510E+02  0.27470358336E+02  0.00000000000E+00 0. -1.
<mgrwt>
<rscale>  0 0.13418274E+03</rscale>
<asrwt>0</asrwt>
<pdfrwt beam="1">  1        2 0.56119696E-01 0.14185118E+03</pdfrwt>
<pdfrwt beam="2">  1       -2 0.14287171E-01 0.14185118E+03</pdfrwt>
<totfact> 0.31841320E+03</totfact>
</mgrwt>
</event>
<event>
 6    1  0.9263730E-006  0.2100314E+03  0.7546771E-02  0.1145041E+00
          1   -1    0    0  501    0  0.00000000000E+00  0.00000000000E+00  0.87848203697E+03  0.87848203697E+03  0.00000000000E+00 0. -1.
         -1   -1    0    0    0  501 -0.00000000000E+00 -0.00000000000E+00 -0.52453974375E+02  0.52453974375E+02  0.00000000000E+00 0.  1.
          5    1    1    2  502    0  0.11211516924E+02 -0.52265312462E+02  0.36348951786E+03  0.36742901436E+03  0.47000000000E+01 0.  1.
         -5    1    1    2    0  502  0.10041979535E+03 -0.74311536931E+02  0.22470427523E+03  0.25713895296E+03  0.47000000000E+01 0.  1.
        -11    1    1    2    0    0 -0.82503552181E+02  0.24647839312E+02  0.12226170660E+03  0.14954021869E+03  0.00000000000E+00 0.  1.
         11    1    1    2    0    0 -0.29127760098E+02  0.10192901008E+03  0.11557256290E+03  0.15682782534E+03  0.00000000000E+00 0. -1.
<mgrwt>
<rscale>  0 0.20567020E+03</rscale>
<asrwt>0</asrwt>
<pdfrwt beam="1">  1        1 0.13515107E+00 0.21003144E+03</pdfrwt>
<pdfrwt beam="2">  1       -1 0.80698428E-02 0.21003144E+03</pdfrwt>
<totfact> 0.16844446E+03</totfact>
</mgrwt>
</event>
<event>
 6    1  0.9263730E-006  0.1418428E+03  0.7546771E-02  0.1221414E+00
         -3   -1    0    0    0  501 -0.00000000000E+00  0.00000000000E+00  0.84432165133E+02  0.84432165133E+02  0.00000000000E+00 0.  1.
          3   -1    0    0  501    0  0.00000000000E+00 -0.00000000000E+00 -0.19320134015E+03  0.19320134015E+03  0.00000000000E+00 0. -1.
          5    1    1    2  502    0  0.66100056850E+02 -0.54880470546E+01 -0.11804855234E+02  0.67533553018E+02  0.47000000000E+01 0.  1.
         -5    1    1    2    0  502 -0.41919299133E+02 -0.57051809818E+02 -0.52176708214E+02  0.88071763485E+02  0.47000000000E+01 0.  1.
        -11    1    1    2    0    0 -0.40140960110E+02  0.35236687970E+02 -0.65277488408E+02  0.84344954505E+02  0.00000000000E+00 0. -1.
         11    1    1    2    0    0  0.15960202392E+02  0.27303168903E+02  0.20489876840E+02  0.37683234275E+02  0.00000000000E+00 0.  1.
<mgrwt>
<rscale>  0 0.13415775E+03</rscale>
<asrwt>0</asrwt>
<pdfrwt beam="2">  1        3 0.29723283E-01 0.14184278E+03</pdfrwt>
<pdfrwt beam="1">  1       -3 0.12989564E-01 0.14184278E+03</pdfrwt>
<totfact> 0.12031154E+03</totfact>
</mgrwt>
</event>
<event>
 6    1  0.9263730E-006  0.1310767E+03  0.7546771E-02  0.1238449E+00
          2   -1    0    0  501    0  0.00000000000E+00  0.00000000000E+00  0.39123481390E+03  0.39123481390E+03  0.00000000000E+00 0. -1.
         -2   -1    0    0    0  501 -0.00000000000E+00 -0.00000000000E+00 -0.35880788161E+02  0.35880788161E+02  0.00000000000E+00 0.  1.
          5    1    1    2  502    0 -0.89316137050E+01  0.35126657038E+02  0.17479299037E+03  0.17857305295E+03  0.47000000000E+01 0. -1.
         -5    1    1    2    0  502 -0.12890915137E+02 -0.67994947405E+02  0.66871532847E+02  0.96350300834E+02  0.47000000000E+01 0. -1.
        -11    1    1    2    0    0  0.38491436128E+02  0.34881836219E+02  0.17901067548E+02  0.54943437939E+02  0.00000000000E+00 0.  1.
         11    1    1    2    0    0 -0.16668907286E+02 -0.20135458525E+01  0.95788434974E+02  0.97248810336E+02  0.00000000000E+00 0. -1.
<mgrwt>
<rscale>  0 0.12286176E+03</rscale>
<asrwt>0</asrwt>
<pdfrwt beam="1">  1        2 0.60189968E-01 0.13107673E+03</pdfrwt>
<pdfrwt beam="2">  1       -2 0.55201215E-02 0.13107673E+03</pdfrwt>
<totfact> 0.12966578E+04</totfact>
</mgrwt>
</event>
<event>
 6    1  0.9263730E-006  0.1718051E+03  0.7546771E-02  0.1183006E+00
         -2   -1    0    0    0  501 -0.00000000000E+00  0.00000000000E+00  0.92535365954E+02  0.92535365954E+02  0.00000000000E+00 0.  1.
          2   -1    0    0  501    0  0.00000000000E+00 -0.00000000000E+00 -0.28261454720E+03  0.28261454720E+03  0.00000000000E+00 0. -1.
          5    1    1    2  502    0  0.46973402864E+02 -0.80020494490E+02 -0.35156495239E+02  0.99337048842E+02  0.47000000000E+01 0. -1.
         -5    1    1    2    0  502 -0.52852013876E+02 -0.37698239964E+02 -0.99735984485E+02  0.11909596663E+03  0.47000000000E+01 0. -1.
        -11    1    1    2    0    0  0.34727755386E+02  0.22906070983E+02 -0.37576728176E+02  0.56059928491E+02  0.00000000000E+00 0. -1.
         11    1    1    2    0    0 -0.28849144374E+02  0.94812663471E+02 -0.17609973349E+02  0.10065696919E+03  0.00000000000E+00 0.  1.
<mgrwt>
<rscale>  0 0.16514627E+03</rscale>
<asrwt>0</asrwt>
<pdfrwt beam="2">  1        2 0.43479160E-01 0.17180513E+03</pdfrwt>
<pdfrwt beam="1">  1       -2 0.14236210E-01 0.17180513E+03</pdfrwt>
<totfact> 0.42412507E+03</totfact>
</mgrwt>
</event>
<event>
 6    1  0.9263730E-006  0.1324522E+03  0.7546771E-02  0.1235901E+00
         -1   -1    0    0    0  501 -0.00000000000E+00  0.00000000000E+00  0.29085039745E+02  0.29085039745E+02  0.00000000000E+00 0.  1.
          1   -1    0    0  501    0  0.00000000000E+00 -0.00000000000E+00 -0.50852662066E+03  0.50852662066E+03  0.00000000000E+00 0. -1.
          5    1    1    2  502    0 -0.42157760701E+02  0.11425143250E+02 -0.13576629928E+03  0.14269684196E+03  0.47000000000E+01 0. -1.
         -5    1    1    2    0  502  0.81822484778E+02 -0.30011075247E+02 -0.19751464567E+03  0.21593913241E+03  0.47000000000E+01 0. -1.
        -11    1    1    2    0    0  0.30703883597E+02  0.10342455336E+02 -0.48306386160E+02  0.58165297164E+02  0.00000000000E+00 0. -1.
         11    1    1    2    0    0 -0.70368607674E+02  0.82434766610E+01 -0.97854249811E+02  0.12081038887E+03  0.00000000000E+00 0.  1.
<mgrwt>
<rscale>  0 0.12446911E+03</rscale>
<asrwt>0</asrwt>
<pdfrwt beam="2">  1        1 0.78234863E-01 0.13245216E+03</pdfrwt>
<pdfrwt beam="1">  1       -1 0.44746216E-02 0.13245216E+03</pdfrwt>
<totfact> 0.87495100E+03</totfact>
</mgrwt>
</event>
<event>
 6    1  0.9263730E-006  0.1261183E+03  0.7546771E-02  0.1246962E+00
          2   -1    0    0  501    0  0.00000000000E+00  0.00000000000E+00  0.35391379128E+03  0.35391379128E+03  0.00000000000E+00 0. -1.
         -2   -1    0    0    0  501 -0.00000000000E+00 -0.00000000000E+00 -0.47282008502E+02  0.47282008502E+02  0.00000000000E+00 0.  1.
          5    1    1    2  502    0 -0.54278555646E+02  0.41037631736E+02  0.14260771794E+03  0.15808004314E+03  0.47000000000E+01 0. -1.
         -5    1    1    2    0  502  0.52245766807E+02 -0.24413172141E+02  0.12881521969E+03  0.14121286750E+03  0.47000000000E+01 0. -1.
        -11    1    1    2    0    0 -0.26344017412E+02  0.23923023248E+02  0.38344660277E+02  0.52312821244E+02  0.00000000000E+00 0. -1.
         11    1    1    2    0    0  0.28376806251E+02 -0.40547482844E+02 -0.31358151326E+01  0.49590067902E+02  0.00000000000E+00 0.  1.
<mgrwt>
<rscale>  0 0.11768711E+03</rscale>
<asrwt>0</asrwt>
<pdfrwt beam="1">  1        2 0.54448274E-01 0.12611834E+03</pdfrwt>
<pdfrwt beam="2">  1       -2 0.72741554E-02 0.12611834E+03</pdfrwt>
<totfact> 0.94565891E+03</totfact>
</mgrwt>
</event>
<event>
 6    1  0.9263730E-006  0.1270537E+03  0.7546771E-02  0.1243660E+00
          1   -1    0    0  501    0  0.00000000000E+00  0.00000000000E+00  0.28355021052E+02  0.28355021052E+02  0.00000000000E+00 0. -1.
         -1   -1    0    0    0  501 -0.00000000000E+00 -0.00000000000E+00 -0.47129227729E+03  0.47129227729E+03  0.00000000000E+00 0.  1.
          5    1    1    2  502    0 -0.54340469054E+01 -0.25605575042E+02 -0.88998079391E+00  0.26609329282E+02  0.47000000000E+01 0. -1.
         -5    1    1    2    0  502  0.16587450326E+02  0.57444805666E+01 -0.29307094208E+03  0.29363380197E+03  0.47000000000E+01 0. -1.
        -11    1    1    2    0    0  0.24952747706E+02  0.47565386917E+02 -0.69726354901E+02  0.88016306548E+02  0.00000000000E+00 0.  1.
         11    1    1    2    0    0 -0.36106151126E+02 -0.27704292441E+02 -0.79249978460E+02  0.91387860543E+02  0.00000000000E+00 0. -1.
<mgrwt>
<rscale>  0 0.11965931E+03</rscale>
<asrwt>0</asrwt>
<pdfrwt beam="1">  1        1 0.43623107E-02 0.12705369E+03</pdfrwt>
<pdfrwt beam="2">  1       -1 0.72506507E-01 0.12705369E+03</pdfrwt>
<totfact> 0.38410699E+03</totfact>
</mgrwt>
</event>
<event>
 6    1  0.9263730E-006  0.1329244E+03  0.7546771E-02  0.1236853E+00
          2   -1    0    0  501    0  0.00000000000E+00  0.00000000000E+00  0.83183228545E+02  0.83183228545E+02  0.00000000000E+00 0. -1.
         -2   -1    0    0    0  501 -0.00000000000E+00 -0.00000000000E+00 -0.16346784416E+03  0.16346784416E+03  0.00000000000E+00 0.  1.
          5    1    1    2  502    0 -0.64354196763E+02 -0.47344434043E+02 -0.70703624077E+00  0.80034667339E+02  0.47000000000E+01 0. -1.
         -5    1    1    2    0  502  0.36311587786E+02  0.11882973861E+02 -0.48007987937E+02  0.61535301909E+02  0.47000000000E+01 0. -1.
        -11    1    1    2    0    0 -0.17584662847E+02  0.48585043639E+02 -0.87515542592E+01  0.52405310178E+02  0.00000000000E+00 0. -1.
         11    1    1    2    0    0  0.45627271825E+02 -0.13123583458E+02 -0.22818037177E+02  0.52675793279E+02  0.00000000000E+00 0.  1.
<mgrwt>
<rscale>  0 0.12386525E+03</rscale>
<asrwt>0</asrwt>
<pdfrwt beam="1">  1        2 0.12797420E-01 0.13292442E+03</pdfrwt>
<pdfrwt beam="2">  1       -2 0.25148899E-01 0.13292442E+03</pdfrwt>
<totfact> 0.62852545E+03</totfact>
</mgrwt>
</event>
<event>
 6    1  0.9263730E-006  0.4140155E+03  0.7546771E-02  0.1039032E+00
          1   -1    0    0  501    0  0.00000000000E+00  0.00000000000E+00  0.91952030478E+03  0.91952030478E+03  0.00000000000E+00 0. -1.
         -1   -1    0    0    0  501 -0.00000000000E+00 -0.00000000000E+00 -0.46602776147E+02  0.46602776147E+02  0.00000000000E+00 0.  1.
          5    1    1    2  502    0 -0.15857157984E+03  0.86912358759E+02  0.33118890305E+03  0.37736836584E+03  0.47000000000E+01 0. -1.
         -5    1    1    2    0  502  0.10199249522E+02  0.79145996611E+01  0.14317138472E+03  0.14382906863E+03  0.47000000000E+01 0. -1.
        -11    1    1    2    0    0  0.69079276362E+02 -0.60967954384E+02  0.10858635590E+03  0.14240798633E+03  0.00000000000E+00 0.  1.
         11    1    1    2    0    0  0.79293053954E+02 -0.33859004036E+02  0.28997088496E+03  0.30251766012E+03  0.00000000000E+00 0. -1.
<mgrwt>
<rscale>  0 0.41401545E+03</rscale>
<asrwt>0</asrwt>
<pdfrwt beam="1">  1        1 0.14146465E+00 0.41401545E+03</pdfrwt>
<pdfrwt beam="2">  1       -1 0.71696585E-02 0.41401545E+03</pdfrwt>
<totfact> 0.18800447E+03</totfact>
</mgrwt>
</event>
<event>
 6    1  0.9263730E-006  0.1615669E+03  0.7546771E-02  0.1194273E+00
          1   -1    0    0  501    0  0.00000000000E+00  0.00000000000E+00  0.95439319426E+02  0.95439319426E+02  0.00000000000E+00 0. -1.
         -1   -1    0    0    0  501 -0.00000000000E+00 -0.00000000000E+00 -0.23574197528E+03  0.23574197528E+03  0.00000000000E+00 0.  1.
          5    1    1    2  502    0 -0.80933827958E+01  0.99725031801E+01  0.36973752523E+02  0.39422100913E+02  0.47000000000E+01 0.  1.
         -5    1    1    2    0  502 -0.54600264093E+02  0.70927358740E+02 -0.99246148606E+02  0.13373020253E+03  0.47000000000E+01 0.  1.
        -11    1    1    2    0    0  0.23034912874E+02  0.19777426168E+01 -0.60133037261E+02  0.64424380844E+02  0.00000000000E+00 0.  1.
         11    1    1    2    0    0  0.39658734015E+02 -0.82877604537E+02 -0.17897222512E+02  0.93604610416E+02  0.00000000000E+00 0. -1.
<mgrwt>
<rscale>  0 0.15515913E+03</rscale>
<asrwt>0</asrwt>
<pdfrwt beam="1">  1        1 0.14682972E-01 0.16156692E+03</pdfrwt>
<pdfrwt beam="2">  1       -1 0.36267996E-01 0.16156692E+03</pdfrwt>
<totfact> 0.27455839E+03</totfact>
</mgrwt>
</event>
<event>
 6    1  0.9263730E-006  0.1263976E+03  0.7546771E-02  0.1249982E+00
          1   -1    0    0  501    0  0.00000000000E+00  0.00000000000E+00  0.14583584779E+03  0.14583584779E+03  0.00000000000E+00 0. -1.
         -1   -1    0    0    0  501 -0.00000000000E+00 -0.00000000000E+00 -0.79889846184E+02  0.79889846184E+02  0.00000000000E+00 0.  1.
          5    1    1    2  502    0  0.41478465442E+02  0.33516317333E+02  0.45495601869E+01  0.53727042733E+02  0.47000000000E+01 0. -1.
         -5    1    1    2    0  502 -0.60047230906E+02 -0.36091299294E+02  0.36714287793E+02  0.79235602808E+02  0.47000000000E+01 0. -1.
        -11    1    1    2    0    0  0.20223625804E+02 -0.35994386748E+02  0.33495189815E+02  0.53165013484E+02  0.00000000000E+00 0. -1.
         11    1    1    2    0    0 -0.16548603402E+01  0.38569368709E+02 -0.88130361839E+01  0.39598034953E+02  0.00000000000E+00 0.  1.
<mgrwt>
<rscale>  0 0.11592090E+03</rscale>
<asrwt>0</asrwt>
<pdfrwt beam="1">  1        1 0.22436284E-01 0.12639763E+03</pdfrwt>
<pdfrwt beam="2">  1       -1 0.12290746E-01 0.12639763E+03</pdfrwt>
<totfact> 0.90966942E+03</totfact>
</mgrwt>
</event>
<event>
 6    1  0.9263730E-006  0.1308392E+03  0.7546771E-02  0.1238894E+00
          2   -1    0    0  501    0  0.00000000000E+00  0.00000000000E+00  0.61859014881E+03  0.61859014881E+03  0.00000000000E+00 0. -1.
         -2   -1    0    0    0  501 -0.00000000000E+00 -0.00000000000E+00 -0.23401596202E+02  0.23401596202E+02  0.00000000000E+00 0.  1.
          5    1    1    2  502    0  0.29679754406E+02  0.75451404066E+02  0.32272450767E+03  0.33278671855E+03  0.47000000000E+01 0.  1.
         -5    1    1    2    0  502 -0.72489488409E+01 -0.43966017782E+02  0.96800476883E+02  0.10666761600E+03  0.47000000000E+01 0.  1.
        -11    1    1    2    0    0  0.29517140014E+02 -0.22425842393E+02  0.30211672561E+02  0.47821805911E+02  0.00000000000E+00 0.  1.
         11    1    1    2    0    0 -0.51947945580E+02 -0.90595438903E+01  0.14545189549E+03  0.15471560454E+03  0.00000000000E+00 0. -1.
<mgrwt>
<rscale>  0 0.12258434E+03</rscale>
<asrwt>0</asrwt>
<pdfrwt beam="1">  1        2 0.95167703E-01 0.13083921E+03</pdfrwt>
<pdfrwt beam="2">  1       -2 0.36002460E-02 0.13083921E+03</pdfrwt>
<totfact> 0.14838895E+04</totfact>
</mgrwt>
</event>
<event>
 6    1  0.9263730E-006  0.1528388E+03  0.7546771E-02  0.1205782E+00
          1   -1    0    0  501    0  0.00000000000E+00  0.00000000000E+00  0.39658752734E+03  0.39658752734E+03  0.00000000000E+00 0. -1.
         -1   -1    0    0    0  501 -0.00000000000E+00 -0.00000000000E+00 -0.66274158736E+02  0.66274158736E+02  0.00000000000E+00 0.  1.
          5    1    1    2  502    0  0.60391737157E+02  0.23267031720E+02  0.24326418051E+03  0.25176987151E+03  0.47000000000E+01 0.  1.
         -5    1    1    2    0  502  0.20570894074E+02 -0.57549955739E+02  0.50677575575E+02  0.79532796724E+02  0.47000000000E+01 0.  1.
        -11    1    1    2    0    0 -0.72748174608E+02  0.10599656974E+02 -0.14421084446E+02  0.74917403275E+02  0.00000000000E+00 0.  1.
         11    1    1    2    0    0 -0.82144566226E+01  0.23683267046E+02  0.50792696961E+02  0.56641614562E+02  0.00000000000E+00 0. -1.
<mgrwt>
<rscale>  0 0.14576019E+03</rscale>
<asrwt>0</asrwt>
<pdfrwt beam="1">  1        1 0.61013465E-01 0.15283881E+03</pdfrwt>
<pdfrwt beam="2">  1       -1 0.10196025E-01 0.15283881E+03</pdfrwt>
<totfact> 0.35273411E+03</totfact>
</mgrwt>
</event>
<event>
 6    1  0.9263730E-006  0.2176276E+03  0.7546771E-02  0.1171107E+00
          2   -1    0    0  501    0  0.00000000000E+00  0.00000000000E+00  0.31052591102E+04  0.31052591102E+04  0.00000000000E+00 0. -1.
         -2   -1    0    0    0  501 -0.00000000000E+00 -0.00000000000E+00 -0.56841739258E+02  0.56841739258E+02  0.00000000000E+00 0.  1.
          5    1    1    2  502    0  0.20572858031E+02  0.73001051240E+02  0.21881182837E+04  0.21894373957E+04  0.47000000000E+01 0. -1.
         -5    1    1    2    0  502 -0.42612305281E+02 -0.96824239509E+02  0.87119798332E+03  0.87760968435E+03  0.47000000000E+01 0.  1.
        -11    1    1    2    0    0 -0.19764584650E+02 -0.20013722294E+02 -0.18994530682E+02  0.33940832080E+02  0.00000000000E+00 0. -1.
         11    1    1    2    0    0  0.41804031901E+02  0.43836910564E+02  0.80956345468E+01  0.61112937334E+02  0.00000000000E+00 0.  1.
<mgrwt>
<rscale>  0 0.17662792E+03</rscale>
<asrwt>0</asrwt>
<pdfrwt beam="1">  1        2 0.47773204E+00 0.21762759E+03</pdfrwt>
<pdfrwt beam="2">  1       -2 0.87448854E-02 0.21762759E+03</pdfrwt>
<totfact> 0.15140664E+02</totfact>
</mgrwt>
</event>
<event>
 6    1  0.2160444E-005  0.3381576E+03  0.7546771E-02  0.1067583E+00
         -3   -1    0    0    0  501 -0.00000000000E+00  0.00000000000E+00  0.20432562966E+03  0.20432562966E+03  0.00000000000E+00 0.  1.
          3   -1    0    0  501    0  0.00000000000E+00 -0.00000000000E+00 -0.13991216510E+03  0.13991216510E+03  0.00000000000E+00 0. -1.
          5    1    1    2  502    0  0.87289165781E+02 -0.88509782747E+02 -0.41307713781E+02  0.13107935506E+03  0.47000000000E+01 0.  1.
         -5    1    1    2    0  502 -0.77590162658E+01 -0.86285821904E+01  0.44376199456E+02  0.46108479070E+02  0.47000000000E+01 0.  1.
        -11    1    1    2    0    0 -0.78874237798E+02  0.34293024129E+02  0.11372387625E+02  0.86755334663E+02  0.00000000000E+00 0. -1.
         11    1    1    2    0    0 -0.65591171675E+00  0.62845340809E+02  0.49972591258E+02  0.80294625963E+02  0.00000000000E+00 0.  1.
<mgrwt>
<rscale>  0 0.33815760E+03</rscale>
<asrwt>0</asrwt>
<pdfrwt beam="2">  1        3 0.21524948E-01 0.33815760E+03</pdfrwt>
<pdfrwt beam="1">  1       -3 0.31434712E-01 0.33815760E+03</pdfrwt>
<totfact> 0.50080079E+02</totfact>
</mgrwt>
</event>
<event>
 6    1  0.9263730E-006  0.3424170E+03  0.7546771E-02  0.1065771E+00
         -2   -1    0    0    0  501 -0.00000000000E+00  0.00000000000E+00  0.28227792916E+02  0.28227792916E+02  0.00000000000E+00 0.  1.
          2   -1    0    0  501    0  0.00000000000E+00 -0.00000000000E+00 -0.10384215028E+04  0.10384215028E+04  0.00000000000E+00 0. -1.
          5    1    1    2  502    0 -0.10764209905E+03 -0.10361416691E+03 -0.44395192042E+03  0.46844222132E+03  0.47000000000E+01 0. -1.
         -5    1    1    2    0  502  0.31509968704E+02 -0.38467910331E+01 -0.96293743741E+02  0.10150000499E+03  0.47000000000E+01 0. -1.
        -11    1    1    2    0    0  0.60640837866E+02  0.25245435793E+02 -0.30216749441E+03  0.30922457523E+03  0.00000000000E+00 0. -1.
         11    1    1    2    0    0  0.15491292481E+02  0.82215522152E+02 -0.16778055132E+03  0.18748249419E+03  0.00000000000E+00 0.  1.
<mgrwt>
<rscale>  0 0.34241698E+03</rscale>
<asrwt>0</asrwt>
<pdfrwt beam="2">  1        2 0.15975713E+00 0.34241698E+03</pdfrwt>
<pdfrwt beam="1">  1       -2 0.43427381E-02 0.34241698E+03</pdfrwt>
<totfact> 0.60586401E+03</totfact>
</mgrwt>
</event>
<event>
 6    1  0.9263730E-006  0.1338279E+03  0.7546771E-02  0.1234772E+00
          2   -1    0    0  501    0  0.00000000000E+00  0.00000000000E+00  0.88622933905E+03  0.88622933905E+03  0.00000000000E+00 0. -1.
         -2   -1    0    0    0  501 -0.00000000000E+00 -0.00000000000E+00 -0.18531457475E+02  0.18531457475E+02  0.00000000000E+00 0.  1.
          5    1    1    2  502    0  0.27522596212E+02  0.54181762176E+02  0.39434684846E+03  0.39902967753E+03  0.47000000000E+01 0. -1.
         -5    1    1    2    0  502  0.18820643136E+02 -0.65773171488E+02  0.26228760279E+03  0.27110367624E+03  0.47000000000E+01 0. -1.
        -11    1    1    2    0    0  0.99291995607E+01  0.23929023025E+02  0.14357971818E+03  0.14589832973E+03  0.00000000000E+00 0. -1.
         11    1    1    2    0    0 -0.56272438908E+02 -0.12337613713E+02  0.67483712143E+02  0.88729113020E+02  0.00000000000E+00 0.  1.
<mgrwt>
<rscale>  0 0.12519022E+03</rscale>
<asrwt>0</asrwt>
<pdfrwt beam="1">  1        2 0.13634294E+00 0.13382791E+03</pdfrwt>
<pdfrwt beam="2">  1       -2 0.28509942E-02 0.13382791E+03</pdfrwt>
<totfact> 0.13552751E+04</totfact>
</mgrwt>
</event>
<event>
 6    1  0.9263730E-006  0.1454992E+03  0.7546771E-02  0.1216403E+00
          2   -1    0    0  501    0  0.00000000000E+00  0.00000000000E+00  0.22680419210E+03  0.22680419210E+03  0.00000000000E+00 0.  1.
         -2   -1    0    0    0  501 -0.00000000000E+00 -0.00000000000E+00 -0.79876605186E+02  0.79876605186E+02  0.00000000000E+00 0. -1.
          5    1    1    2  502    0 -0.63374295054E+02 -0.10965717705E+02  0.31469514762E+02  0.71756313992E+02  0.47000000000E+01 0. -1.
         -5    1    1    2    0  502  0.22886230282E+02  0.73478540084E+02  0.83759854659E+02  0.11384497636E+03  0.47000000000E+01 0. -1.
        -11    1    1    2    0    0 -0.17037979197E+02 -0.73822673722E+00  0.32456672241E+02  0.36664332624E+02  0.00000000000E+00 0.  1.
         11    1    1    2    0    0  0.57526043968E+02 -0.61774595642E+02 -0.75845474283E+00  0.84415174317E+02  0.00000000000E+00 0. -1.
<mgrwt>
<rscale>  0 0.13773962E+03</rscale>
<asrwt>0</asrwt>
<pdfrwt beam="1">  1        2 0.34892952E-01 0.14549925E+03</pdfrwt>
<pdfrwt beam="2">  1       -2 0.12288709E-01 0.14549925E+03</pdfrwt>
<totfact> 0.67447897E+03</totfact>
</mgrwt>
</event>
<event>
 6    1  0.9263730E-006  0.1814313E+03  0.7546771E-02  0.1171472E+00
         -2   -1    0    0    0  501 -0.00000000000E+00  0.00000000000E+00  0.78901051111E+02  0.78901051111E+02  0.00000000000E+00 0.  1.
          2   -1    0    0  501    0  0.00000000000E+00 -0.00000000000E+00 -0.37419281034E+03  0.37419281034E+03  0.00000000000E+00 0. -1.
          5    1    1    2  502    0  0.41300136602E+02  0.37903998770E+02  0.80033531992E-01  0.56253984850E+02  0.47000000000E+01 0. -1.
         -5    1    1    2    0  502  0.88438767077E+02 -0.16475300963E+02 -0.16964796471E+03  0.19208168313E+03  0.47000000000E+01 0. -1.
        -11    1    1    2    0    0 -0.81071180414E+02 -0.15028322094E+02 -0.13162547846E+03  0.15531791055E+03  0.00000000000E+00 0. -1.
         11    1    1    2    0    0 -0.48667723264E+02 -0.64003757131E+01  0.59016504129E+01  0.49440282914E+02  0.00000000000E+00 0.  1.
<mgrwt>
<rscale>  0 0.17626036E+03</rscale>
<asrwt>0</asrwt>
<pdfrwt beam="2">  1        2 0.57568124E-01 0.18143131E+03</pdfrwt>
<pdfrwt beam="1">  1       -2 0.12138623E-01 0.18143131E+03</pdfrwt>
<totfact> 0.40772943E+03</totfact>
</mgrwt>
</event>
<event>
 6    1  0.9263730E-006  0.2984473E+03  0.7546771E-02  0.1086019E+00
         -1   -1    0    0    0  501 -0.00000000000E+00  0.00000000000E+00  0.55233570559E+03  0.55233570559E+03  0.00000000000E+00 0.  1.
          1   -1    0    0  501    0  0.00000000000E+00 -0.00000000000E+00 -0.40315510572E+02  0.40315510572E+02  0.00000000000E+00 0. -1.
          5    1    1    2  502    0 -0.11030718417E+02 -0.28822808694E+01 -0.12055167611E+02  0.17245328583E+02  0.47000000000E+01 0.  1.
         -5    1    1    2    0  502  0.64796203513E+02  0.91330888403E+02  0.21645414712E+03  0.24375062455E+03  0.47000000000E+01 0.  1.
        -11    1    1    2    0    0 -0.33917493130E+02 -0.40322717969E+02  0.24313420771E+03  0.24877813586E+03  0.00000000000E+00 0. -1.
         11    1    1    2    0    0 -0.19847991966E+02 -0.48125889565E+02  0.64487007803E+02  0.82877127163E+02  0.00000000000E+00 0.  1.
<mgrwt>
<rscale>  0 0.29844729E+03</rscale>
<asrwt>0</asrwt>
<pdfrwt beam="2">  1        1 0.62023866E-02 0.29844729E+03</pdfrwt>
<pdfrwt beam="1">  1       -1 0.84974719E-01 0.29844729E+03</pdfrwt>
<totfact> 0.17748038E+03</totfact>
</mgrwt>
</event>
<event>
 6    1  0.9263730E-006  0.1658402E+03  0.7546771E-02  0.1189330E+00
         -2   -1    0    0    0  501 -0.00000000000E+00  0.00000000000E+00  0.15329887514E+02  0.15329887514E+02  0.00000000000E+00 0.  1.
          2   -1    0    0  501    0  0.00000000000E+00 -0.00000000000E+00 -0.29254957698E+04  0.29254957698E+04  0.00000000000E+00 0. -1.
          5    1    1    2  502    0  0.51198072384E+02  0.10877093567E+03 -0.17970777666E+04  0.18011004825E+04  0.47000000000E+01 0.  1.
         -5    1    1    2    0  502 -0.45207629613E+02  0.44508208370E-01 -0.72768828534E+03  0.72910634504E+03  0.47000000000E+01 0.  1.
        -11    1    1    2    0    0 -0.34050858101E+02 -0.14378240573E+02 -0.58519486495E+02  0.69215063672E+02  0.00000000000E+00 0.  1.
         11    1    1    2    0    0  0.28060415330E+02 -0.94437203305E+02 -0.32688034394E+03  0.34140376614E+03  0.00000000000E+00 0. -1.
<mgrwt>
<rscale>  0 0.15944054E+03</rscale>
<asrwt>0</asrwt>
<pdfrwt beam="2">  1        2 0.45007663E+00 0.16584020E+03</pdfrwt>
<pdfrwt beam="1">  1       -2 0.23584424E-02 0.16584020E+03</pdfrwt>
<totfact> 0.14234244E+03</totfact>
</mgrwt>
</event>
<event>
 6    1  0.9263730E-006  0.4225927E+03  0.7546771E-02  0.1036226E+00
          2   -1    0    0  501    0  0.00000000000E+00  0.00000000000E+00  0.81683115672E+03  0.81683115672E+03  0.00000000000E+00 0. -1.
         -2   -1    0    0    0  501 -0.00000000000E+00 -0.00000000000E+00 -0.54657732571E+02  0.54657732571E+02  0.00000000000E+00 0.  1.
          5    1    1    2  502    0 -0.15341785881E+03 -0.10947678400E+03  0.43376663979E+03  0.47296701093E+03  0.47000000000E+01 0.  1.
         -5    1    1    2    0  502  0.17445381083E+02  0.65546286318E+01  0.86774683241E+02  0.88877669464E+02  0.47000000000E+01 0.  1.
        -11    1    1    2    0    0  0.65135945826E+02  0.66819826358E+02  0.58857015675E+02  0.11032555881E+03  0.00000000000E+00 0.  1.
         11    1    1    2    0    0  0.70836531900E+02  0.36102329010E+02  0.18277508544E+03  0.19931865008E+03  0.00000000000E+00 0. -1.
<mgrwt>
<rscale>  0 0.42259266E+03</rscale>
<asrwt>0</asrwt>
<pdfrwt beam="1">  1        2 0.12566632E+00 0.42259266E+03</pdfrwt>
<pdfrwt beam="2">  1       -2 0.84088825E-02 0.42259266E+03</pdfrwt>
<totfact> 0.30330277E+03</totfact>
</mgrwt>
</event>
<event>
 6    1  0.9263730E-006  0.1254181E+03  0.7546771E-02  0.1296625E+00
          2   -1    0    0  501    0  0.00000000000E+00  0.00000000000E+00  0.18672962351E+03  0.18672962351E+03  0.00000000000E+00 0. -1.
         -2   -1    0    0    0  501 -0.00000000000E+00 -0.00000000000E+00 -0.47360467987E+02  0.47360467987E+02  0.00000000000E+00 0.  1.
          5    1    1    2  502    0  0.11202536423E+01 -0.54022938912E+02  0.11064282822E+03  0.12322198803E+03  0.47000000000E+01 0. -1.
         -5    1    1    2    0  502 -0.42751909998E+01  0.60260060526E+02  0.39141154769E+02  0.72136482790E+02  0.47000000000E+01 0.  1.
        -11    1    1    2    0    0  0.19890508878E+02 -0.34263048111E+01 -0.73921316227E+01  0.21494546239E+02  0.00000000000E+00 0. -1.
         11    1    1    2    0    0 -0.16735571520E+02 -0.28108168029E+01 -0.30226958415E+01  0.17237074443E+02  0.00000000000E+00 0.  1.
<mgrwt>
<rscale>  0 0.92621560E+02</rscale>
<asrwt>0</asrwt>
<pdfrwt beam="1">  1        2 0.28727634E-01 0.12541806E+03</pdfrwt>
<pdfrwt beam="2">  1       -2 0.72862259E-02 0.12541806E+03</pdfrwt>
<totfact> 0.18625058E+04</totfact>
</mgrwt>
</event>
<event>
 6    1  0.9263730E-006  0.1269915E+03  0.7546771E-02  0.1242983E+00
         -2   -1    0    0    0  501 -0.00000000000E+00  0.00000000000E+00  0.39393737837E+02  0.39393737837E+02  0.00000000000E+00 0.  1.
          2   -1    0    0  501    0  0.00000000000E+00 -0.00000000000E+00 -0.33128984083E+03  0.33128984083E+03  0.00000000000E+00 0. -1.
          5    1    1    2  502    0 -0.39297978270E+02 -0.51021079202E+02 -0.92433710221E+02  0.11275443408E+03  0.47000000000E+01 0.  1.
         -5    1    1    2    0  502  0.18310401911E+02  0.58957706798E+02 -0.70624461814E+02  0.93921172349E+02  0.47000000000E+01 0.  1.
        -11    1    1    2    0    0  0.18576121750E+00  0.16603511159E+02  0.11391008994E+02  0.20136190701E+02  0.00000000000E+00 0.  1.
         11    1    1    2    0    0  0.20801815142E+02 -0.24540138754E+02 -0.14022893995E+03  0.14387178154E+03  0.00000000000E+00 0. -1.
<mgrwt>
<rscale>  0 0.12006944E+03</rscale>
<asrwt>0</asrwt>
<pdfrwt beam="2">  1        2 0.50967666E-01 0.12699149E+03</pdfrwt>
<pdfrwt beam="1">  1       -2 0.60605752E-02 0.12699149E+03</pdfrwt>
<totfact> 0.13399064E+04</totfact>
</mgrwt>
</event>
<event>
 6    1  0.9263730E-006  0.1347336E+03  0.7546771E-02  0.1232499E+00
         -1   -1    0    0    0  501 -0.00000000000E+00  0.00000000000E+00  0.52553414995E+02  0.52553414995E+02  0.00000000000E+00 0.  1.
          1   -1    0    0  501    0  0.00000000000E+00 -0.00000000000E+00 -0.47901760914E+03  0.47901760914E+03  0.00000000000E+00 0. -1.
          5    1    1    2  502    0 -0.17682697321E+02  0.56033736252E+01 -0.34183784185E+03  0.34237300668E+03  0.47000000000E+01 0.  1.
         -5    1    1    2    0  502  0.36069388159E+02  0.41179190169E+02 -0.59552019474E+02  0.81026288874E+02  0.47000000000E+01 0.  1.
        -11    1    1    2    0    0 -0.15095621207E+02 -0.56900444056E+02  0.19756565696E+02  0.62095573123E+02  0.00000000000E+00 0.  1.
         11    1    1    2    0    0 -0.32910696305E+01  0.10117880262E+02 -0.44830898520E+02  0.46076155465E+02  0.00000000000E+00 0. -1.
<mgrwt>
<rscale>  0 0.12665932E+03</rscale>
<asrwt>0</asrwt>
<pdfrwt beam="2">  1        1 0.73695021E-01 0.13473360E+03</pdfrwt>
<pdfrwt beam="1">  1       -1 0.80851404E-02 0.13473360E+03</pdfrwt>
<totfact> 0.39210531E+03</totfact>
</mgrwt>
</event>
<event>
 6    1  0.9263730E-006  0.1727966E+03  0.7546771E-02  0.1182854E+00
         -2   -1    0    0    0  501 -0.00000000000E+00  0.00000000000E+00  0.43291975527E+02  0.43291975527E+02  0.00000000000E+00 0.  1.
          2   -1    0    0  501    0  0.00000000000E+00 -0.00000000000E+00 -0.13345244188E+04  0.13345244188E+04  0.00000000000E+00 0. -1.
          5    1    1    2  502    0  0.91078862252E+01  0.79702169049E+02 -0.45613269354E+03  0.46315711531E+03  0.47000000000E+01 0. -1.
         -5    1    1    2    0  502 -0.89484669822E+02 -0.45837111555E+01 -0.73087724106E+03  0.73636414093E+03  0.47000000000E+01 0.  1.
        -11    1    1    2    0    0  0.74169373073E+02 -0.51005462887E+01 -0.55193599405E+02  0.92592898701E+02  0.00000000000E+00 0. -1.
         11    1    1    2    0    0  0.62074105234E+01 -0.70017911604E+02 -0.49028909233E+02  0.85702239361E+02  0.00000000000E+00 0.  1.
<mgrwt>
<rscale>  0 0.16528722E+03</rscale>
<asrwt>0</asrwt>
<pdfrwt beam="2">  1        2 0.20531147E+00 0.17279658E+03</pdfrwt>
<pdfrwt beam="1">  1       -2 0.66603031E-02 0.17279658E+03</pdfrwt>
<totfact> 0.21129826E+03</totfact>
</mgrwt>
</event>
<event>
 6    1  0.9263730E-006  0.1259023E+03  0.7546771E-02  0.1249855E+00
          1   -1    0    0  501    0  0.00000000000E+00  0.00000000000E+00  0.17876368349E+03  0.17876368349E+03  0.00000000000E+00 0. -1.
         -1   -1    0    0    0  501 -0.00000000000E+00 -0.00000000000E+00 -0.70257051383E+02  0.70257051383E+02  0.00000000000E+00 0.  1.
          5    1    1    2  502    0  0.53072568304E+02 -0.22215267774E+02  0.27905482776E+02  0.64117248831E+02  0.47000000000E+01 0. -1.
         -5    1    1    2    0  502 -0.53562068066E+02  0.37265685448E+02  0.66176990325E+02  0.93054341628E+02  0.47000000000E+01 0. -1.
        -11    1    1    2    0    0  0.43015886158E+01 -0.31252749452E+02 -0.30536880449E+02  0.43906025560E+02  0.00000000000E+00 0.  1.
         11    1    1    2    0    0 -0.38120888538E+01  0.16202331778E+02  0.44961039452E+02  0.47943118850E+02  0.00000000000E+00 0. -1.
<mgrwt>
<rscale>  0 0.11599479E+03</rscale>
<asrwt>0</asrwt>
<pdfrwt beam="1">  1        1 0.27502105E-01 0.12590233E+03</pdfrwt>
<pdfrwt beam="2">  1       -1 0.10808777E-01 0.12590233E+03</pdfrwt>
<totfact> 0.85840512E+03</totfact>
</mgrwt>
</event>
<event>
 6    1  0.1180120E-005  0.1703796E+03  0.7546771E-02  0.1183918E+00
         -1   -1    0    0    0  501 -0.00000000000E+00  0.00000000000E+00  0.28715553858E+02  0.28715553858E+02  0.00000000000E+00 0.  1.
          1   -1    0    0  501    0  0.00000000000E+00 -0.00000000000E+00 -0.97982231966E+03  0.97982231966E+03  0.00000000000E+00 0. -1.
          5    1    1    2  502    0  0.16084331707E+02  0.42462290325E+02 -0.66264133728E+02  0.80466000552E+02  0.47000000000E+01 0.  1.
         -5    1    1    2    0  502  0.93076450083E+02 -0.38913774811E+01 -0.60161515236E+03  0.60880312904E+03  0.47000000000E+01 0.  1.
        -11    1    1    2    0    0 -0.10331536022E+03 -0.19833364603E+01 -0.15895860136E+03  0.18959386653E+03  0.00000000000E+00 0. -1.
         11    1    1    2    0    0 -0.58454215665E+01 -0.36587576384E+02 -0.12426887836E+03  0.12967487740E+03  0.00000000000E+00 0.  1.
<mgrwt>
<rscale>  0 0.16430750E+03</rscale>
<asrwt>0</asrwt>
<pdfrwt beam="2">  1        1 0.15074189E+00 0.17037955E+03</pdfrwt>
<pdfrwt beam="1">  1       -1 0.44177778E-02 0.17037955E+03</pdfrwt>
<totfact> 0.34696534E+03</totfact>
</mgrwt>
</event>
<event>
 6    1  0.9263730E-006  0.1618722E+03  0.7546771E-02  0.1194098E+00
          1   -1    0    0  501    0  0.00000000000E+00  0.00000000000E+00  0.51361339914E+02  0.51361339914E+02  0.00000000000E+00 0. -1.
         -1   -1    0    0    0  501 -0.00000000000E+00 -0.00000000000E+00 -0.43553971836E+03  0.43553971836E+03  0.00000000000E+00 0.  1.
          5    1    1    2  502    0  0.32027965842E+02 -0.84361278336E+02 -0.11563437345E+03  0.14675153901E+03  0.47000000000E+01 0. -1.
         -5    1    1    2    0  502 -0.70432838769E+02 -0.11046858581E+02 -0.98202252215E+02  0.12144377383E+03  0.47000000000E+01 0. -1.
        -11    1    1    2    0    0  0.52789895194E+02  0.22846067156E+02 -0.10628263802E+03  0.12084996882E+03  0.00000000000E+00 0.  1.
         11    1    1    2    0    0 -0.14385022267E+02  0.72562069761E+02 -0.64059114760E+02  0.97855776618E+02  0.00000000000E+00 0. -1.
<mgrwt>
<rscale>  0 0.15530838E+03</rscale>
<asrwt>0</asrwt>
<pdfrwt beam="1">  1        1 0.79017449E-02 0.16187224E+03</pdfrwt>
<pdfrwt beam="2">  1       -1 0.67006108E-01 0.16187224E+03</pdfrwt>
<totfact> 0.20257917E+03</totfact>
</mgrwt>
</event>
<event>
 6    1  0.9263730E-006  0.1261039E+03  0.7546771E-02  0.1249246E+00
         -1   -1    0    0    0  501 -0.00000000000E+00  0.00000000000E+00  0.10998523944E+02  0.10998523944E+02  0.00000000000E+00 0.  1.
          1   -1    0    0  501    0  0.00000000000E+00 -0.00000000000E+00 -0.18789756922E+04  0.18789756922E+04  0.00000000000E+00 0. -1.
          5    1    1    2  502    0 -0.53757078343E+02  0.24841487823E+02 -0.10803933781E+04  0.10820253529E+04  0.47000000000E+01 0. -1.
         -5    1    1    2    0  502  0.58961954198E+02 -0.90038949224E+01 -0.55248596383E+03  0.55571612572E+03  0.47000000000E+01 0. -1.
        -11    1    1    2    0    0 -0.31102732986E+02  0.25263456223E+02 -0.13739504414E+03  0.14311890293E+03  0.00000000000E+00 0. -1.
         11    1    1    2    0    0  0.25897857130E+02 -0.41101049124E+02 -0.97702782271E+02  0.10911383463E+03  0.00000000000E+00 0.  1.
<mgrwt>
<rscale>  0 0.11634821E+03</rscale>
<asrwt>0</asrwt>
<pdfrwt beam="2">  1        1 0.28907332E+00 0.12610395E+03</pdfrwt>
<pdfrwt beam="1">  1       -1 0.16920798E-02 0.12610395E+03</pdfrwt>
<totfact> 0.35107657E+03</totfact>
</mgrwt>
</event>
<event>
 6    1  0.9263730E-006  0.1321858E+03  0.7546771E-02  0.1237325E+00
         -1   -1    0    0    0  501 -0.00000000000E+00  0.00000000000E+00  0.57320917775E+03  0.57320917775E+03  0.00000000000E+00 0.  1.
          1   -1    0    0  501    0  0.00000000000E+00 -0.00000000000E+00 -0.23871002703E+02  0.23871002703E+02  0.00000000000E+00 0. -1.
          5    1    1    2  502    0  0.14835444054E+02  0.11463535649E+02  0.28599469332E+03  0.28664709602E+03  0.47000000000E+01 0. -1.
         -5    1    1    2    0  502  0.27801367915E+02 -0.58455216027E+01  0.41903534311E+00  0.28798468212E+02  0.47000000000E+01 0. -1.
        -11    1    1    2    0    0  0.22651264645E+02  0.70086092723E+01  0.13888663280E+03  0.14089605092E+03  0.00000000000E+00 0.  1.
         11    1    1    2    0    0 -0.65288076614E+02 -0.12626623319E+02  0.12403781358E+03  0.14073856530E+03  0.00000000000E+00 0. -1.
<mgrwt>
<rscale>  0 0.12356739E+03</rscale>
<asrwt>0</asrwt>
<pdfrwt beam="2">  1        1 0.36724624E-02 0.13218578E+03</pdfrwt>
<pdfrwt beam="1">  1       -1 0.88186017E-01 0.13218578E+03</pdfrwt>
<totfact> 0.32688881E+03</totfact>
</mgrwt>
</event>
<event>
 6    1  0.9263730E-006  0.1298269E+03  0.7546771E-02  0.1242481E+00
         -2   -1    0    0    0  501 -0.00000000000E+00  0.00000000000E+00  0.18213831025E+02  0.18213831025E+02  0.00000000000E+00 0.  1.
          2   -1    0    0  501    0  0.00000000000E+00 -0.00000000000E+00 -0.10922151523E+04  0.10922151523E+04  0.00000000000E+00 0. -1.
          5    1    1    2  502    0 -0.18374503661E+02  0.43942936812E+02 -0.18851416802E+03  0.19449495012E+03  0.47000000000E+01 0. -1.
         -5    1    1    2    0  502 -0.78499849753E+01 -0.67225664028E+02 -0.73054860536E+03  0.73369221542E+03  0.47000000000E+01 0. -1.
        -11    1    1    2    0    0  0.38968327530E+02 -0.23130386286E+02 -0.54593107221E+02  0.70950353602E+02  0.00000000000E+00 0.  1.
         11    1    1    2    0    0 -0.12743838894E+02  0.46413113502E+02 -0.10034544064E+03  0.11129146414E+03  0.00000000000E+00 0. -1.
<mgrwt>
<rscale>  0 0.12037415E+03</rscale>
<asrwt>0</asrwt>
<pdfrwt beam="2">  1        2 0.16803309E+00 0.12982693E+03</pdfrwt>
<pdfrwt beam="1">  1       -2 0.28021280E-02 0.12982693E+03</pdfrwt>
<totfact> 0.10432643E+04</totfact>
</mgrwt>
</event>
<event>
 6    1  0.9263730E-006  0.1250456E+03  0.7546771E-02  0.1251099E+00
         -2   -1    0    0    0  501 -0.00000000000E+00  0.00000000000E+00  0.22562276281E+02  0.22562276281E+02  0.00000000000E+00 0.  1.
          2   -1    0    0  501    0  0.00000000000E+00 -0.00000000000E+00 -0.55802874486E+03  0.55802874486E+03  0.00000000000E+00 0. -1.
          5    1    1    2  502    0 -0.41958541459E+02 -0.37172334527E+02 -0.10437192811E+03  0.11856597755E+03  0.47000000000E+01 0. -1.
         -5    1    1    2    0  502  0.40792023211E+02  0.37915223104E+02 -0.28376789932E+03  0.28921940458E+03  0.47000000000E+01 0. -1.
        -11    1    1    2    0    0 -0.70892912494E+01 -0.44257873608E+02 -0.60047535688E+02  0.74931461809E+02  0.00000000000E+00 0.  1.
         11    1    1    2    0    0  0.82558094969E+01  0.43514985030E+02 -0.87279105461E+02  0.97874177201E+02  0.00000000000E+00 0. -1.
<mgrwt>
<rscale>  0 0.11527634E+03</rscale>
<asrwt>0</asrwt>
<pdfrwt beam="2">  1        2 0.85850566E-01 0.12504556E+03</pdfrwt>
<pdfrwt beam="1">  1       -2 0.34711198E-02 0.12504556E+03</pdfrwt>
<totfact> 0.17529921E+04</totfact>
</mgrwt>
</event>
<event>
 6    1  0.9263730E-006  0.1853788E+03  0.7546771E-02  0.1168860E+00
          2   -1    0    0  501    0  0.00000000000E+00  0.00000000000E+00  0.25488618155E+03  0.25488618155E+03  0.00000000000E+00 0. -1.
         -2   -1    0    0    0  501 -0.00000000000E+00 -0.00000000000E+00 -0.15192088147E+03  0.15192088147E+03  0.00000000000E+00 0.  1.
          5    1    1    2  502    0 -0.63832127865E+02 -0.70919657935E+02  0.11688533014E+03  0.15095830163E+03  0.47000000000E+01 0.  1.
         -5    1    1    2    0  502 -0.69813501567E+02  0.41249283074E+02  0.33959308087E+02  0.88038360735E+02  0.47000000000E+01 0.  1.
        -11    1    1    2    0    0  0.19081492370E+02  0.19587808917E+02 -0.45132649229E+02  0.52770651272E+02  0.00000000000E+00 0.  1.
         11    1    1    2    0    0  0.11456413706E+03  0.10082565944E+02 -0.27466889233E+01  0.11503974938E+03  0.00000000000E+00 0. -1.
<mgrwt>
<rscale>  0 0.17891230E+03</rscale>
<asrwt>0</asrwt>
<pdfrwt beam="1">  1        2 0.39213259E-01 0.18537880E+03</pdfrwt>
<pdfrwt beam="2">  1       -2 0.23372443E-01 0.18537880E+03</pdfrwt>
<totfact> 0.20620604E+03</totfact>
</mgrwt>
</event>
<event>
 6    1  0.9263730E-006  0.1431293E+03  0.7546771E-02  0.1219887E+00
          1   -1    0    0  501    0  0.00000000000E+00  0.00000000000E+00  0.34632073928E+03  0.34632073928E+03  0.00000000000E+00 0. -1.
         -1   -1    0    0    0  501 -0.00000000000E+00 -0.00000000000E+00 -0.51689168378E+02  0.51689168378E+02  0.00000000000E+00 0.  1.
          5    1    1    2  502    0  0.19100016029E+02  0.94336446467E+02  0.98791606895E+02  0.13800741769E+03  0.47000000000E+01 0.  1.
         -5    1    1    2    0  502 -0.16034653633E+02 -0.24678726598E+02  0.11848224899E+03  0.12217316804E+03  0.47000000000E+01 0.  1.
        -11    1    1    2    0    0 -0.14440363419E+02 -0.77170240968E+02  0.89864791844E+02  0.11932917078E+03  0.00000000000E+00 0.  1.
         11    1    1    2    0    0  0.11375001023E+02  0.75125210987E+01 -0.12507076828E+02  0.18500151143E+02  0.00000000000E+00 0. -1.
<mgrwt>
<rscale>  0 0.13523604E+03</rscale>
<asrwt>0</asrwt>
<pdfrwt beam="1">  1        1 0.53280112E-01 0.14312934E+03</pdfrwt>
<pdfrwt beam="2">  1       -1 0.79521800E-02 0.14312934E+03</pdfrwt>
<totfact> 0.60825619E+03</totfact>
</mgrwt>
</event>
<event>
 6    1  0.9263730E-006  0.3631311E+03  0.7546771E-02  0.1057351E+00
          1   -1    0    0  501    0  0.00000000000E+00  0.00000000000E+00  0.70883436858E+03  0.70883436858E+03  0.00000000000E+00 0. -1.
         -1   -1    0    0    0  501 -0.00000000000E+00 -0.00000000000E+00 -0.46507411493E+02  0.46507411493E+02  0.00000000000E+00 0.  1.
          5    1    1    2  502    0 -0.11080381309E+03  0.10773049412E+03  0.24536322231E+03  0.29001473276E+03  0.47000000000E+01 0.  1.
         -5    1    1    2    0  502  0.52493273217E+01 -0.94177939351E+01  0.13539332100E+03  0.13590324371E+03  0.47000000000E+01 0.  1.
        -11    1    1    2    0    0  0.26835604582E+02 -0.49600516118E+02  0.19386925978E+03  0.20190505382E+03  0.00000000000E+00 0. -1.
         11    1    1    2    0    0  0.78718881182E+02 -0.48712184064E+02  0.87701153994E+02  0.12751874977E+03  0.00000000000E+00 0.  1.
<mgrwt>
<rscale>  0 0.36313111E+03</rscale>
<asrwt>0</asrwt>
<pdfrwt beam="1">  1        1 0.10905143E+00 0.36313111E+03</pdfrwt>
<pdfrwt beam="2">  1       -1 0.71549869E-02 0.36313111E+03</pdfrwt>
<totfact> 0.28366701E+03</totfact>
</mgrwt>
</event>
<event>
 6    1  0.9263730E-006  0.3000334E+03  0.7546771E-02  0.1086822E+00
         -2   -1    0    0    0  501 -0.00000000000E+00  0.00000000000E+00  0.17775679286E+03  0.17775679286E+03  0.00000000000E+00 0.  1.
          2   -1    0    0  501    0  0.00000000000E+00 -0.00000000000E+00 -0.48558800791E+03  0.48558800791E+03  0.00000000000E+00 0. -1.
          5    1    1    2  502    0 -0.93430044697E+02  0.13263223641E+03 -0.11199422503E+03  0.19719350858E+03  0.47000000000E+01 0. -1.
         -5    1    1    2    0  502  0.26667216413E+02  0.13182393956E+03 -0.48351771748E+02  0.14299886469E+03  0.47000000000E+01 0. -1.
        -11    1    1    2    0    0  0.30467828235E+02 -0.14756548176E+03 -0.13097981840E+03  0.19964862332E+03  0.00000000000E+00 0. -1.
         11    1    1    2    0    0  0.36295000049E+02 -0.11689069421E+03 -0.16505399867E+02  0.12350380418E+03  0.00000000000E+00 0.  1.
<mgrwt>
<rscale>  0 0.29685839E+03</rscale>
<asrwt>0</asrwt>
<pdfrwt beam="2">  1        2 0.74705846E-01 0.30003335E+03</pdfrwt>
<pdfrwt beam="1">  1       -2 0.27347199E-01 0.30003335E+03</pdfrwt>
<totfact> 0.78100065E+02</totfact>
</mgrwt>
</event>
<event>
 6    1  0.9263730E-006  0.1516822E+03  0.7546771E-02  0.1207193E+00
          2   -1    0    0  501    0  0.00000000000E+00  0.00000000000E+00  0.11658905205E+03  0.11658905205E+03  0.00000000000E+00 0. -1.
         -2   -1    0    0    0  501 -0.00000000000E+00 -0.00000000000E+00 -0.16472819426E+03  0.16472819426E+03  0.00000000000E+00 0.  1.
          5    1    1    2  502    0 -0.33753369700E+02  0.29143039106E+02 -0.38641060189E+02  0.59193143412E+02  0.47000000000E+01 0.  1.
         -5    1    1    2    0  502  0.84731679858E+02  0.40004822861E+02  0.12756058845E+02  0.94681838073E+02  0.47000000000E+01 0.  1.
        -11    1    1    2    0    0 -0.76172941434E+02 -0.40614496227E+02 -0.76141189635E+01  0.86659270238E+02  0.00000000000E+00 0. -1.
         11    1    1    2    0    0  0.25194631277E+02 -0.28533365741E+02 -0.14640021903E+02  0.40782994581E+02  0.00000000000E+00 0.  1.
<mgrwt>
<rscale>  0 0.14465989E+03</rscale>
<asrwt>0</asrwt>
<pdfrwt beam="1">  1        2 0.17936777E-01 0.15168216E+03</pdfrwt>
<pdfrwt beam="2">  1       -2 0.25342799E-01 0.15168216E+03</pdfrwt>
<totfact> 0.42128107E+03</totfact>
</mgrwt>
</event>
<event>
 6    1  0.9263730E-006  0.2575995E+03  0.7546771E-02  0.1110766E+00
         -1   -1    0    0    0  501 -0.00000000000E+00  0.00000000000E+00  0.12680911567E+03  0.12680911567E+03  0.00000000000E+00 0.  1.
          1   -1    0    0  501    0  0.00000000000E+00 -0.00000000000E+00 -0.64837326379E+03  0.64837326379E+03  0.00000000000E+00 0. -1.
          5    1    1    2  502    0 -0.15728628413E+01 -0.19537619443E+03 -0.25925389923E+03  0.32466753074E+03  0.47000000000E+01 0. -1.
         -5    1    1    2    0  502  0.90727626312E+01 -0.29740593756E+02 -0.19520329206E+03  0.19772008793E+03  0.47000000000E+01 0. -1.
        -11    1    1    2    0    0  0.36660001383E+02  0.15656895619E+03 -0.31699747643E+02  0.16389834577E+03  0.00000000000E+00 0.  1.
         11    1    1    2    0    0 -0.44159901173E+02  0.68547831995E+02 -0.35407209178E+02  0.88896415027E+02  0.00000000000E+00 0. -1.
<mgrwt>
<rscale>  0 0.25405849E+03</rscale>
<asrwt>0</asrwt>
<pdfrwt beam="2">  1        1 0.99749736E-01 0.25759947E+03</pdfrwt>
<pdfrwt beam="1">  1       -1 0.19509094E-01 0.25759947E+03</pdfrwt>
<totfact> 0.66476778E+02</totfact>
</mgrwt>
</event>
<event>
 6    1  0.9263730E-006  0.3005654E+03  0.7546771E-02  0.1086545E+00
         -2   -1    0    0    0  501 -0.00000000000E+00  0.00000000000E+00  0.33702920506E+03  0.33702920506E+03  0.00000000000E+00 0.  1.
          2   -1    0    0  501    0  0.00000000000E+00 -0.00000000000E+00 -0.32556482669E+03  0.32556482669E+03  0.00000000000E+00 0. -1.
          5    1    1    2  502    0  0.20897717722E+02  0.25137550293E+03 -0.15718975020E+03  0.29724916425E+03  0.47000000000E+01 0.  1.
         -5    1    1    2    0  502  0.30465451968E+02  0.17093729338E+02  0.11078946793E+02  0.36948239584E+02  0.47000000000E+01 0.  1.
        -11    1    1    2    0    0 -0.49840486375E+00 -0.12019478577E+03  0.11408818986E+03  0.16572009534E+03  0.00000000000E+00 0.  1.
         11    1    1    2    0    0 -0.50864764827E+02 -0.14827444650E+03  0.43486991912E+02  0.16267653258E+03  0.00000000000E+00 0. -1.
<mgrwt>
<rscale>  0 0.29740508E+03</rscale>
<asrwt>0</asrwt>
<pdfrwt beam="2">  1        2 0.50086896E-01 0.30056536E+03</pdfrwt>
<pdfrwt beam="1">  1       -2 0.51850647E-01 0.30056536E+03</pdfrwt>
<totfact> 0.35876423E+02</totfact>
</mgrwt>
</event>
<event>
 6    1  0.9263730E-006  0.2026864E+03  0.7546771E-02  0.1168220E+00
          2   -1    0    0  501    0  0.00000000000E+00  0.00000000000E+00  0.13060726530E+04  0.13060726530E+04  0.00000000000E+00 0. -1.
         -2   -1    0    0    0  501 -0.00000000000E+00 -0.00000000000E+00 -0.20568913928E+02  0.20568913928E+02  0.00000000000E+00 0.  1.
          5    1    1    2  502    0  0.13331903466E+02 -0.63070876427E+02  0.38732531129E+03  0.39268137449E+03  0.47000000000E+01 0. -1.
         -5    1    1    2    0  502 -0.91267952704E+02  0.93525157260E+02  0.43307239512E+03  0.45238322653E+03  0.47000000000E+01 0.  1.
        -11    1    1    2    0    0  0.13549892995E+02  0.21892849773E+02  0.34499149286E+02  0.43047506000E+02  0.00000000000E+00 0.  1.
         11    1    1    2    0    0  0.64386156243E+02 -0.52347130607E+02  0.43060688338E+03  0.43852945992E+03  0.00000000000E+00 0. -1.
<mgrwt>
<rscale>  0 0.17957002E+03</rscale>
<asrwt>0</asrwt>
<pdfrwt beam="1">  1        2 0.20093419E+00 0.20268642E+03</pdfrwt>
<pdfrwt beam="2">  1       -2 0.31644493E-02 0.20268642E+03</pdfrwt>
<totfact> 0.67459434E+03</totfact>
</mgrwt>
</event>
<event>
 6    1  0.9263730E-006  0.1510365E+03  0.7546771E-02  0.1208701E+00
         -2   -1    0    0    0  501 -0.00000000000E+00  0.00000000000E+00  0.14101143501E+02  0.14101143501E+02  0.00000000000E+00 0.  1.
          2   -1    0    0  501    0  0.00000000000E+00 -0.00000000000E+00 -0.17728844932E+04  0.17728844932E+04  0.00000000000E+00 0. -1.
          5    1    1    2  502    0  0.93142724628E+02  0.59678459442E+02 -0.11733033858E+04  0.11785160206E+04  0.47000000000E+01 0. -1.
         -5    1    1    2    0  502 -0.35623234006E+02  0.25922339740E+01 -0.21736395455E+03  0.22032910207E+03  0.47000000000E+01 0. -1.
        -11    1    1    2    0    0  0.10979813173E+01 -0.31562776677E+02 -0.29828169897E+02  0.43441157373E+02  0.00000000000E+00 0.  1.
         11    1    1    2    0    0 -0.58617471940E+02 -0.30707916739E+02 -0.33828783950E+03  0.34469935672E+03  0.00000000000E+00 0. -1.
<mgrwt>
<rscale>  0 0.14349617E+03</rscale>
<asrwt>0</asrwt>
<pdfrwt beam="2">  1        2 0.27275152E+00 0.15103650E+03</pdfrwt>
<pdfrwt beam="1">  1       -2 0.21694062E-02 0.15103650E+03</pdfrwt>
<totfact> 0.66276763E+03</totfact>
</mgrwt>
</event>
<event>
 6    1  0.9263730E-006  0.1593228E+03  0.7546771E-02  0.1199287E+00
         -3   -1    0    0    0  501 -0.00000000000E+00  0.00000000000E+00  0.25656716591E+03  0.25656716591E+03  0.00000000000E+00 0.  1.
          3   -1    0    0  501    0  0.00000000000E+00 -0.00000000000E+00 -0.85500739736E+02  0.85500739736E+02  0.00000000000E+00 0. -1.
          5    1    1    2  502    0 -0.62254036900E+02 -0.46880762241E+02  0.11239749798E+02  0.78878342745E+02  0.47000000000E+01 0. -1.
         -5    1    1    2    0  502  0.58732181305E+02 -0.51837771245E+02  0.42608217107E+02  0.89298229622E+02  0.47000000000E+01 0. -1.
        -11    1    1    2    0    0  0.50924555679E+01  0.37796857762E+02  0.10503332466E+03  0.11174316466E+03  0.00000000000E+00 0.  1.
         11    1    1    2    0    0 -0.15705999732E+01  0.60921675723E+02  0.12185134616E+02  0.62148168620E+02  0.00000000000E+00 0. -1.
<mgrwt>
<rscale>  0 0.15096889E+03</rscale>
<asrwt>0</asrwt>
<pdfrwt beam="2">  1        3 0.13153960E-01 0.15932280E+03</pdfrwt>
<pdfrwt beam="1">  1       -3 0.39471871E-01 0.15932280E+03</pdfrwt>
<totfact> 0.70156889E+02</totfact>
</mgrwt>
</event>
<event>
 6    1  0.9263730E-006  0.2360233E+03  0.7546771E-02  0.1122471E+00
         -2   -1    0    0    0  501 -0.00000000000E+00  0.00000000000E+00  0.43147350634E+02  0.43147350634E+02  0.00000000000E+00 0.  1.
          2   -1    0    0  501    0  0.00000000000E+00 -0.00000000000E+00 -0.32277176581E+03  0.32277176581E+03  0.00000000000E+00 0. -1.
          5    1    1    2  502    0  0.24334548862E+02  0.62281968197E+01 -0.14863320436E+03  0.15081405817E+03  0.47000000000E+01 0. -1.
         -5    1    1    2    0  502 -0.67093681047E+02 -0.10621499804E+02 -0.38271746263E+02  0.78110145670E+02  0.47000000000E+01 0. -1.
        -11    1    1    2    0    0  0.15221657530E+02  0.30526883264E+02  0.27815843225E+01  0.34224650051E+02  0.00000000000E+00 0. -1.
         11    1    1    2    0    0  0.27537474655E+02 -0.26133580280E+02 -0.95501048883E+02  0.10277026256E+03  0.00000000000E+00 0.  1.
<mgrwt>
<rscale>  0 0.23602327E+03</rscale>
<asrwt>0</asrwt>
<pdfrwt beam="2">  1        2 0.49657195E-01 0.23602327E+03</pdfrwt>
<pdfrwt beam="1">  1       -2 0.66380539E-02 0.23602327E+03</pdfrwt>
<totfact> 0.12549533E+04</totfact>
</mgrwt>
</event>
<event>
 6    1  0.9263730E-006  0.1276947E+03  0.7546771E-02  0.1245615E+00
         -4   -1    0    0    0  501 -0.00000000000E+00  0.00000000000E+00  0.11563916517E+03  0.11563916517E+03  0.00000000000E+00 0.  1.
          4   -1    0    0  501    0  0.00000000000E+00 -0.00000000000E+00 -0.11019441081E+03  0.11019441081E+03  0.00000000000E+00 0. -1.
          5    1    1    2  502    0 -0.18035729717E+02  0.50750443130E+02 -0.11525882939E+02  0.55279571288E+02  0.47000000000E+01 0.  1.
         -5    1    1    2    0  502  0.42226220058E+02 -0.59721072060E+02 -0.47134341736E+01  0.73443628519E+02  0.47000000000E+01 0.  1.
        -11    1    1    2    0    0 -0.19918689250E+02 -0.40319777503E+02  0.70849403508E+01  0.45526201457E+02  0.00000000000E+00 0.  1.
         11    1    1    2    0    0 -0.42718010910E+01  0.49290406433E+02  0.14599131123E+02  0.51584174709E+02  0.00000000000E+00 0. -1.
<mgrwt>
<rscale>  0 0.11848671E+03</rscale>
<asrwt>0</asrwt>
<pdfrwt beam="2">  1        4 0.16952986E-01 0.12769474E+03</pdfrwt>
<pdfrwt beam="1">  1       -4 0.17790641E-01 0.12769474E+03</pdfrwt>
<totfact> 0.13740082E+03</totfact>
</mgrwt>
</event>
<event>
 6    1  0.9263730E-006  0.2249358E+03  0.7546771E-02  0.1133969E+00
         -1   -1    0    0    0  501 -0.00000000000E+00  0.00000000000E+00  0.22484918866E+03  0.22484918866E+03  0.00000000000E+00 0.  1.
          1   -1    0    0  501    0  0.00000000000E+00 -0.00000000000E+00 -0.21281237001E+03  0.21281237001E+03  0.00000000000E+00 0. -1.
          5    1    1    2  502    0  0.86885313205E+02 -0.60075780506E+02  0.44445943571E+02  0.11469825175E+03  0.47000000000E+01 0. -1.
         -5    1    1    2    0  502  0.70959456212E+02 -0.40258944766E+02 -0.77552094322E+02  0.11266074912E+03  0.47000000000E+01 0. -1.
        -11    1    1    2    0    0 -0.47905325837E+02 -0.95787963765E+01  0.20153800165E+02  0.52847414740E+02  0.00000000000E+00 0.  1.
         11    1    1    2    0    0 -0.10993944358E+03  0.10991352165E+03  0.24989169229E+02  0.15745514306E+03  0.00000000000E+00 0. -1.
<mgrwt>
<rscale>  0 0.21988426E+03</rscale>
<asrwt>0</asrwt>
<pdfrwt beam="2">  1        1 0.32740365E-01 0.22493576E+03</pdfrwt>
<pdfrwt beam="1">  1       -1 0.34592183E-01 0.22493576E+03</pdfrwt>
<totfact> 0.10799099E+03</totfact>
</mgrwt>
</event>
<event>
 6    1  0.9263730E-006  0.4132394E+03  0.7546771E-02  0.1040049E+00
          2   -1    0    0  501    0  0.00000000000E+00  0.00000000000E+00  0.77688769406E+03  0.77688769406E+03  0.00000000000E+00 0. -1.
         -2   -1    0    0    0  501 -0.00000000000E+00 -0.00000000000E+00 -0.24927483883E+03  0.24927483883E+03  0.00000000000E+00 0.  1.
          5    1    1    2  502    0 -0.57107325042E+02 -0.11482874664E+03  0.21059275419E+03  0.24661363658E+03  0.47000000000E+01 0.  1.
         -5    1    1    2    0  502 -0.22106093594E+03 -0.16403538028E+03  0.24590271409E+03  0.36914194855E+03  0.47000000000E+01 0.  1.
        -11    1    1    2    0    0  0.22518244186E+03  0.25781722159E+03  0.82861092110E+02  0.35219712159E+03  0.00000000000E+00 0. -1.
         11    1    1    2    0    0  0.52985819124E+02  0.21046905328E+02 -0.11743705157E+02  0.58209826172E+02  0.00000000000E+00 0.  1.
<mgrwt>
<rscale>  0 0.41096034E+03</rscale>
<asrwt>0</asrwt>
<pdfrwt beam="1">  1        2 0.11952118E+00 0.41323943E+03</pdfrwt>
<pdfrwt beam="2">  1       -2 0.38349976E-01 0.41323943E+03</pdfrwt>
<totfact> 0.23682945E+02</totfact>
</mgrwt>
</event>
<event>
 6    1  0.9263730E-006  0.1690851E+03  0.7546771E-02  0.1185327E+00
          1   -1    0    0  501    0  0.00000000000E+00  0.00000000000E+00  0.62404186479E+03  0.62404186479E+03  0.00000000000E+00 0. -1.
         -1   -1    0    0    0  501 -0.00000000000E+00 -0.00000000000E+00 -0.43370785475E+02  0.43370785475E+02  0.00000000000E+00 0.  1.
          5    1    1    2  502    0 -0.90691821362E+02  0.29339880965E+02  0.18026403965E+03  0.20396825505E+03  0.47000000000E+01 0.  1.
         -5    1    1    2    0  502 -0.17102129844E+02 -0.66011104493E+02  0.22503453589E+03  0.23518626895E+03  0.47000000000E+01 0.  1.
        -11    1    1    2    0    0  0.46819012951E+01 -0.20360990388E+02  0.59234025684E+02  0.62810508102E+02  0.00000000000E+00 0. -1.
         11    1    1    2    0    0  0.10311204991E+03  0.57032213916E+02  0.11613847809E+03  0.16544761816E+03  0.00000000000E+00 0.  1.
<mgrwt>
<rscale>  0 0.16302123E+03</rscale>
<asrwt>0</asrwt>
<pdfrwt beam="1">  1        1 0.96006434E-01 0.16908507E+03</pdfrwt>
<pdfrwt beam="2">  1       -1 0.66724290E-02 0.16908507E+03</pdfrwt>
<totfact> 0.37123561E+03</totfact>
</mgrwt>
</event>
<event>
 6    1  0.9263730E-006  0.1951480E+03  0.7546771E-02  0.1171719E+00
          2   -1    0    0  501    0  0.00000000000E+00  0.00000000000E+00  0.12778105346E+04  0.12778105346E+04  0.00000000000E+00 0. -1.
         -2   -1    0    0    0  501 -0.00000000000E+00 -0.00000000000E+00 -0.20769088671E+02  0.20769088671E+02  0.00000000000E+00 0.  1.
          5    1    1    2  502    0  0.22495014480E+02 -0.10526713708E+02  0.63989120802E+03  0.64039026030E+03  0.47000000000E+01 0. -1.
         -5    1    1    2    0  502  0.25937387087E+02  0.88102730310E+02  0.17673067527E+03  0.19922515082E+03  0.47000000000E+01 0.  1.
        -11    1    1    2    0    0 -0.73095080020E+02 -0.51552872454E+02  0.35945102809E+03  0.37041278457E+03  0.00000000000E+00 0. -1.
         11    1    1    2    0    0  0.24662678454E+02 -0.26023144149E+02  0.80968534511E+02  0.88551427548E+02  0.00000000000E+00 0.  1.
<mgrwt>
<rscale>  0 0.17601250E+03</rscale>
<asrwt>0</asrwt>
<pdfrwt beam="1">  1        2 0.19658617E+00 0.19514799E+03</pdfrwt>
<pdfrwt beam="2">  1       -2 0.31952454E-02 0.19514799E+03</pdfrwt>
<totfact> 0.68836319E+03</totfact>
</mgrwt>
</event>
<event>
 6    1  0.9263730E-006  0.2255854E+03  0.7546771E-02  0.1129786E+00
         -2   -1    0    0    0  501 -0.00000000000E+00  0.00000000000E+00  0.28122679596E+02  0.28122679596E+02  0.00000000000E+00 0.  1.
          2   -1    0    0  501    0  0.00000000000E+00 -0.00000000000E+00 -0.45238200917E+03  0.45238200917E+03  0.00000000000E+00 0. -1.
          5    1    1    2  502    0  0.27830847952E+02  0.27883014074E+00 -0.21374410077E+01  0.28307110379E+02  0.47000000000E+01 0. -1.
         -5    1    1    2    0  502 -0.67021633154E+01  0.18037109530E+01 -0.29043885760E+03  0.29055979139E+03  0.47000000000E+01 0. -1.
        -11    1    1    2    0    0  0.20840825454E+02  0.16897952054E+02 -0.56060885457E+01  0.27410016746E+02  0.00000000000E+00 0.  1.
         11    1    1    2    0    0 -0.41969510091E+02 -0.18980493148E+02 -0.12607694242E+03  0.13422777026E+03  0.00000000000E+00 0. -1.
<mgrwt>
<rscale>  0 0.22558541E+03</rscale>
<asrwt>0</asrwt>
<pdfrwt beam="2">  1        2 0.69597224E-01 0.22558541E+03</pdfrwt>
<pdfrwt beam="1">  1       -2 0.43265666E-02 0.22558541E+03</pdfrwt>
<totfact> 0.16661529E+04</totfact>
</mgrwt>
</event>
<event>
 6    1  0.9263730E-006  0.1327485E+03  0.7546771E-02  0.1236320E+00
          1   -1    0    0  501    0  0.00000000000E+00  0.00000000000E+00  0.26748329940E+03  0.26748329940E+03  0.00000000000E+00 0. -1.
         -1   -1    0    0    0  501 -0.00000000000E+00 -0.00000000000E+00 -0.52606166842E+02  0.52606166842E+02  0.00000000000E+00 0.  1.
          5    1    1    2  502    0  0.72982653449E+02 -0.20960653296E+02  0.91255122421E+02  0.11880826595E+03  0.47000000000E+01 0. -1.
         -5    1    1    2    0  502 -0.34701318968E+02  0.44028462328E+02  0.54233023392E+02  0.78140884685E+02  0.47000000000E+01 0. -1.
        -11    1    1    2    0    0 -0.21158223634E+02 -0.35104004312E+02 -0.90350581967E+01  0.41971345257E+02  0.00000000000E+00 0.  1.
         11    1    1    2    0    0 -0.17123110847E+02  0.12036195280E+02  0.78424044943E+02  0.81168970346E+02  0.00000000000E+00 0. -1.
<mgrwt>
<rscale>  0 0.12420326E+03</rscale>
<asrwt>0</asrwt>
<pdfrwt beam="1">  1        1 0.41151276E-01 0.13274851E+03</pdfrwt>
<pdfrwt beam="2">  1       -1 0.80932566E-02 0.13274851E+03</pdfrwt>
<totfact> 0.81196204E+03</totfact>
</mgrwt>
</event>
<event>
 6    1  0.9263730E-006  0.4723667E+03  0.7546771E-02  0.1021254E+00
         -1   -1    0    0    0  501 -0.00000000000E+00  0.00000000000E+00  0.14017030429E+03  0.14017030429E+03  0.00000000000E+00 0.  1.
          1   -1    0    0  501    0  0.00000000000E+00 -0.00000000000E+00 -0.39796282442E+03  0.39796282442E+03  0.00000000000E+00 0. -1.
          5    1    1    2  502    0  0.29073387402E+02 -0.83747927413E+01 -0.42144391301E+01  0.30907127101E+02  0.47000000000E+01 0.  1.
         -5    1    1    2    0  502  0.28677462226E+02 -0.81199469732E+02 -0.33595826244E+03  0.34685125750E+03  0.47000000000E+01 0.  1.
        -11    1    1    2    0    0  0.34221465858E+01  0.71946105711E+02  0.30371351446E+02  0.78168869781E+02  0.00000000000E+00 0. -1.
         11    1    1    2    0    0 -0.61172996214E+02  0.17628156763E+02  0.52008829993E+02  0.82205874327E+02  0.00000000000E+00 0.  1.
<mgrwt>
<rscale>  0 0.47236668E+03</rscale>
<asrwt>0</asrwt>
<pdfrwt beam="2">  1        1 0.61225049E-01 0.47236668E+03</pdfrwt>
<pdfrwt beam="1">  1       -1 0.21564662E-01 0.47236668E+03</pdfrwt>
<totfact> 0.10897841E+03</totfact>
</mgrwt>
</event>
<event>
 6    1  0.9263730E-006  0.3118038E+03  0.7546771E-02  0.1079485E+00
          2   -1    0    0  501    0  0.00000000000E+00  0.00000000000E+00  0.22716195825E+03  0.22716195825E+03  0.00000000000E+00 0.  1.
         -2   -1    0    0    0  501 -0.00000000000E+00 -0.00000000000E+00 -0.10699588472E+03  0.10699588472E+03  0.00000000000E+00 0. -1.
          5    1    1    2  502    0  0.10500531619E+02 -0.19329242768E+02 -0.11496767543E+02  0.25261560803E+02  0.47000000000E+01 0. -1.
         -5    1    1    2    0  502 -0.11011523328E+03  0.67522402723E+02  0.10188235932E+03  0.16458051103E+03  0.47000000000E+01 0. -1.
        -11    1    1    2    0    0  0.64671028188E+02 -0.20120728621E+02  0.59814827812E+02  0.90360385310E+02  0.00000000000E+00 0. -1.
         11    1    1    2    0    0  0.34943673476E+02 -0.28072431333E+02 -0.30034346057E+02  0.53955385830E+02  0.00000000000E+00 0.  1.
<mgrwt>
<rscale>  0 0.31180375E+03</rscale>
<asrwt>0</asrwt>
<pdfrwt beam="1">  1        2 0.34947993E-01 0.31180375E+03</pdfrwt>
<pdfrwt beam="2">  1       -2 0.16460905E-01 0.31180375E+03</pdfrwt>
<totfact> 0.43370412E+03</totfact>
</mgrwt>
</event>
<event>
 6    1  0.9263730E-006  0.1360195E+03  0.7546771E-02  0.1230495E+00
          1   -1    0    0  501    0  0.00000000000E+00  0.00000000000E+00  0.14390345205E+03  0.14390345205E+03  0.00000000000E+00 0. -1.
         -1   -1    0    0    0  501 -0.00000000000E+00 -0.00000000000E+00 -0.11371069349E+03  0.11371069349E+03  0.00000000000E+00 0.  1.
          5    1    1    2  502    0 -0.21086105673E+02 -0.76754723204E+02  0.19770751325E+02  0.82151591552E+02  0.47000000000E+01 0. -1.
         -5    1    1    2    0  502  0.44989544249E+02  0.28750895896E+02  0.37602300129E+02  0.65472865231E+02  0.47000000000E+01 0. -1.
        -11    1    1    2    0    0 -0.18098388780E+02  0.34020783905E+02  0.31259983940E+02  0.49620076681E+02  0.00000000000E+00 0. -1.
         11    1    1    2    0    0 -0.58050497953E+01  0.13983043404E+02 -0.58440276836E+02  0.60369612080E+02  0.00000000000E+00 0.  1.
<mgrwt>
<rscale>  0 0.12797298E+03</rscale>
<asrwt>0</asrwt>
<pdfrwt beam="1">  1        1 0.22138993E-01 0.13601953E+03</pdfrwt>
<pdfrwt beam="2">  1       -1 0.17493953E-01 0.13601953E+03</pdfrwt>
<totfact> 0.53553866E+03</totfact>
</mgrwt>
</event>
<event>
 6    1  0.9263730E-006  0.2842625E+03  0.7546771E-02  0.1093383E+00
          2   -1    0    0  501    0  0.00000000000E+00  0.00000000000E+00  0.20386451016E+04  0.20386451016E+04  0.00000000000E+00 0. -1.
         -2   -1    0    0    0  501 -0.00000000000E+00 -0.00000000000E+00 -0.99091768045E+01  0.99091768045E+01  0.00000000000E+00 0.  1.
          5    1    1    2  502    0  0.42807550037E+02  0.23001448386E+02  0.16303936843E+04  0.16311245227E+04  0.47000000000E+01 0. -1.
         -5    1    1    2    0  502  0.74285796130E+01 -0.13195054383E+02  0.23940679711E+02  0.28714794101E+02  0.47000000000E+01 0. -1.
        -11    1    1    2    0    0 -0.31351270858E+02 -0.47770283866E+02  0.27098091561E+03  0.27693963030E+03  0.00000000000E+00 0.  1.
         11    1    1    2    0    0 -0.18884858792E+02  0.37963889863E+02  0.10342064519E+03  0.11177533125E+03  0.00000000000E+00 0. -1.
<mgrwt>
<rscale>  0 0.28426252E+03</rscale>
<asrwt>0</asrwt>
<pdfrwt beam="1">  1        2 0.31363737E+00 0.28426252E+03</pdfrwt>
<pdfrwt beam="2">  1       -2 0.15244904E-02 0.28426252E+03</pdfrwt>
<totfact> 0.81702049E+03</totfact>
</mgrwt>
</event>
<event>
 6    1  0.9263730E-006  0.3056705E+03  0.7546771E-02  0.1082440E+00
          2   -1    0    0  501    0  0.00000000000E+00  0.00000000000E+00  0.23189287854E+04  0.23189287854E+04  0.00000000000E+00 0. -1.
         -2   -1    0    0    0  501 -0.00000000000E+00 -0.00000000000E+00 -0.10073020958E+02  0.10073020958E+02  0.00000000000E+00 0.  1.
          5    1    1    2  502    0 -0.20928247129E+02 -0.15068075253E+02  0.79329490289E+02  0.83548168438E+02  0.47000000000E+01 0. -1.
         -5    1    1    2    0  502 -0.30764640937E+02  0.79727757032E+02  0.16710931576E+04  0.16732834218E+04  0.47000000000E+01 0. -1.
        -11    1    1    2    0    0  0.62853868814E+02 -0.92715156813E+01  0.21759792998E+03  0.22668354364E+03  0.00000000000E+00 0.  1.
         11    1    1    2    0    0 -0.11160980747E+02 -0.55388166099E+02  0.34083518657E+03  0.34548667245E+03  0.00000000000E+00 0. -1.
<mgrwt>
<rscale>  0 0.30567053E+03</rscale>
<asrwt>0</asrwt>
<pdfrwt beam="1">  1        2 0.35675785E+00 0.30567053E+03</pdfrwt>
<pdfrwt beam="2">  1       -2 0.15496974E-02 0.30567053E+03</pdfrwt>
<totfact> 0.56551266E+03</totfact>
</mgrwt>
</event>
<event>
 6    1  0.9263730E-006  0.1489689E+03  0.7546771E-02  0.1210580E+00
         -2   -1    0    0    0  501 -0.00000000000E+00  0.00000000000E+00  0.54450698875E+02  0.54450698875E+02  0.00000000000E+00 0.  1.
          2   -1    0    0  501    0  0.00000000000E+00 -0.00000000000E+00 -0.34092955804E+03  0.34092955804E+03  0.00000000000E+00 0. -1.
          5    1    1    2  502    0 -0.19377281600E+02  0.41665959091E+02 -0.15457798753E+03  0.16133187973E+03  0.47000000000E+01 0. -1.
         -5    1    1    2    0  502 -0.47030468634E+02  0.47908316932E+01  0.73995325491E+01  0.48079726811E+02  0.47000000000E+01 0. -1.
        -11    1    1    2    0    0  0.68461293495E+02 -0.18549028534E+02 -0.14110301299E+03  0.15792743727E+03  0.00000000000E+00 0. -1.
         11    1    1    2    0    0 -0.20535432609E+01 -0.27907762250E+02  0.18026088094E+01  0.28041213102E+02  0.00000000000E+00 0.  1.
<mgrwt>
<rscale>  0 0.14206257E+03</rscale>
<asrwt>0</asrwt>
<pdfrwt beam="2">  1        2 0.52450699E-01 0.14896887E+03</pdfrwt>
<pdfrwt beam="1">  1       -2 0.83770309E-02 0.14896887E+03</pdfrwt>
<totfact> 0.80068502E+03</totfact>
</mgrwt>
</event>
<event>
 6    1  0.9263730E-006  0.1335705E+03  0.7546771E-02  0.1234684E+00
         -1   -1    0    0    0  501 -0.00000000000E+00  0.00000000000E+00  0.10034591520E+03  0.10034591520E+03  0.00000000000E+00 0.  1.
          1   -1    0    0  501    0  0.00000000000E+00 -0.00000000000E+00 -0.14066613403E+03  0.14066613403E+03  0.00000000000E+00 0. -1.
          5    1    1    2  502    0  0.13912474088E+02  0.56466754217E+02 -0.32608003010E+02  0.66838784604E+02  0.47000000000E+01 0. -1.
         -5    1    1    2    0  502 -0.58012273157E+02 -0.39981303817E+02  0.17901842596E+00  0.70611971644E+02  0.47000000000E+01 0. -1.
        -11    1    1    2    0    0  0.28834580060E+02  0.32232000342E+02  0.17363987021E+02  0.46603035293E+02  0.00000000000E+00 0.  1.
         11    1    1    2    0    0  0.15265219010E+02 -0.48717450742E+02 -0.25255221263E+02  0.56958257692E+02  0.00000000000E+00 0. -1.
<mgrwt>
<rscale>  0 0.12524664E+03</rscale>
<asrwt>0</asrwt>
<pdfrwt beam="2">  1        1 0.21640944E-01 0.13357047E+03</pdfrwt>
<pdfrwt beam="1">  1       -1 0.15437833E-01 0.13357047E+03</pdfrwt>
<totfact> 0.67057963E+03</totfact>
</mgrwt>
</event>
<event>
 6    1  0.9263730E-006  0.1390735E+03  0.7546771E-02  0.1227839E+00
         -2   -1    0    0    0  501 -0.00000000000E+00  0.00000000000E+00  0.35260511354E+02  0.35260511354E+02  0.00000000000E+00 0. -1.
          2   -1    0    0  501    0  0.00000000000E+00 -0.00000000000E+00 -0.43765377155E+03  0.43765377155E+03  0.00000000000E+00 0.  1.
          5    1    1    2  502    0 -0.70945464591E+02 -0.46509586946E+02 -0.24247005724E+03  0.25692454006E+03  0.47000000000E+01 0.  1.
         -5    1    1    2    0  502  0.10938526315E+02  0.35960628329E+02 -0.27660413619E+02  0.46904228267E+02  0.47000000000E+01 0.  1.
        -11    1    1    2    0    0  0.10518336923E+02 -0.35808021867E+02 -0.41926347303E+02  0.56130815421E+02  0.00000000000E+00 0. -1.
         11    1    1    2    0    0  0.49488601353E+02  0.46356980485E+02 -0.90336442034E+02  0.11295469916E+03  0.00000000000E+00 0.  1.
<mgrwt>
<rscale>  0 0.12974226E+03</rscale>
<asrwt>0</asrwt>
<pdfrwt beam="2">  1        2 0.67331349E-01 0.13907354E+03</pdfrwt>
<pdfrwt beam="1">  1       -2 0.54246941E-02 0.13907354E+03</pdfrwt>
<totfact> 0.11857937E+04</totfact>
</mgrwt>
</event>
<event>
 6    1  0.9263730E-006  0.1267447E+03  0.7546771E-02  0.1247340E+00
          2   -1    0    0  501    0  0.00000000000E+00  0.00000000000E+00  0.75872729921E+03  0.75872729921E+03  0.00000000000E+00 0. -1.
         -2   -1    0    0    0  501 -0.00000000000E+00 -0.00000000000E+00 -0.16171289279E+02  0.16171289279E+02  0.00000000000E+00 0.  1.
          5    1    1    2  502    0  0.17883267910E+02 -0.23801846768E+02  0.25508307800E+02  0.39485477679E+02  0.47000000000E+01 0.  1.
         -5    1    1    2    0  502 -0.33703061952E+02  0.37462398089E+02  0.44238138447E+03  0.44526700639E+03  0.47000000000E+01 0.  1.
        -11    1    1    2    0    0  0.78427999640E+01  0.35715323673E+02  0.17325255465E+03  0.17706931284E+03  0.00000000000E+00 0.  1.
         11    1    1    2    0    0  0.79769940776E+01 -0.49375874994E+02  0.10141376301E+03  0.11307679158E+03  0.00000000000E+00 0. -1.
<mgrwt>
<rscale>  0 0.11746430E+03</rscale>
<asrwt>0</asrwt>
<pdfrwt beam="1">  1        2 0.11672725E+00 0.12674465E+03</pdfrwt>
<pdfrwt beam="2">  1       -2 0.24878913E-02 0.12674465E+03</pdfrwt>
<totfact> 0.20017830E+04</totfact>
</mgrwt>
</event>
<event>
 6    1  0.9263730E-006  0.4969926E+03  0.7546771E-02  0.1014567E+00
          3   -1    0    0  501    0  0.00000000000E+00  0.00000000000E+00  0.21738265308E+03  0.21738265308E+03  0.00000000000E+00 0. -1.
         -3   -1    0    0    0  501 -0.00000000000E+00 -0.00000000000E+00 -0.28406319331E+03  0.28406319331E+03  0.00000000000E+00 0.  1.
          5    1    1    2  502    0 -0.18516429313E+01  0.28634486702E+02  0.28989236653E+02  0.41058838902E+02  0.47000000000E+01 0. -1.
         -5    1    1    2    0  502 -0.17290979558E+03 -0.68994689076E+02  0.70111872134E+02  0.19898700747E+03  0.47000000000E+01 0. -1.
        -11    1    1    2    0    0  0.13759824208E+03  0.17589356942E+02 -0.16786658828E+03  0.21776559224E+03  0.00000000000E+00 0.  1.
         11    1    1    2    0    0  0.37163196432E+02  0.22770845433E+02  0.20849392554E+01  0.43634407781E+02  0.00000000000E+00 0. -1.
<mgrwt>
<rscale>  0 0.49699260E+03</rscale>
<asrwt>0</asrwt>
<pdfrwt beam="1">  1        3 0.33443485E-01 0.49699260E+03</pdfrwt>
<pdfrwt beam="2">  1       -3 0.43702030E-01 0.49699260E+03</pdfrwt>
<totfact> 0.11954170E+02</totfact>
</mgrwt>
</event>
<event>
 6    1  0.9263730E-006  0.3020233E+03  0.7546771E-02  0.1085755E+00
         -2   -1    0    0    0  501 -0.00000000000E+00  0.00000000000E+00  0.36807269171E+02  0.36807269171E+02  0.00000000000E+00 0.  1.
          2   -1    0    0  501    0  0.00000000000E+00 -0.00000000000E+00 -0.25139625526E+04  0.25139625526E+04  0.00000000000E+00 0. -1.
          5    1    1    2  502    0  0.24642103523E+03 -0.12331350814E+02 -0.11592910587E+04  0.11852650495E+04  0.47000000000E+01 0. -1.
         -5    1    1    2    0  502  0.22775909126E+02 -0.43605863796E+02 -0.39674288991E+03  0.39980898450E+03  0.47000000000E+01 0. -1.
        -11    1    1    2    0    0 -0.15576220227E+03  0.31148784617E+02 -0.37306208009E+03  0.40547185604E+03  0.00000000000E+00 0.  1.
         11    1    1    2    0    0 -0.11343474209E+03  0.24788429993E+02 -0.54805925478E+03  0.56022393177E+03  0.00000000000E+00 0. -1.
<mgrwt>
<rscale>  0 0.29897320E+03</rscale>
<asrwt>0</asrwt>
<pdfrwt beam="2">  1        2 0.38676355E+00 0.30202325E+03</pdfrwt>
<pdfrwt beam="1">  1       -2 0.56626556E-02 0.30202325E+03</pdfrwt>
<totfact> 0.63414303E+02</totfact>
</mgrwt>
</event>
<event>
 6    1  0.9263730E-006  0.1504254E+03  0.7546771E-02  0.1209388E+00
          1   -1    0    0  501    0  0.00000000000E+00  0.00000000000E+00  0.43390788520E+02  0.43390788520E+02  0.00000000000E+00 0. -1.
         -1   -1    0    0    0  501 -0.00000000000E+00 -0.00000000000E+00 -0.43206821974E+03  0.43206821974E+03  0.00000000000E+00 0.  1.
          5    1    1    2  502    0 -0.16810588699E+02 -0.37843205592E+02 -0.26152348445E+01  0.41756838424E+02  0.47000000000E+01 0. -1.
         -5    1    1    2    0  502  0.21801634323E+02 -0.45685696594E+02 -0.22787218453E+03  0.23347444531E+03  0.47000000000E+01 0. -1.
        -11    1    1    2    0    0 -0.42725359878E+02  0.62225500673E+02 -0.74882586490E+02  0.10632436725E+03  0.00000000000E+00 0. -1.
         11    1    1    2    0    0  0.37734314254E+02  0.21303401513E+02 -0.83307425359E+02  0.93903357278E+02  0.00000000000E+00 0.  1.
<mgrwt>
<rscale>  0 0.14296987E+03</rscale>
<asrwt>0</asrwt>
<pdfrwt beam="1">  1        1 0.66755058E-02 0.15042543E+03</pdfrwt>
<pdfrwt beam="2">  1       -1 0.66472035E-01 0.15042543E+03</pdfrwt>
<totfact> 0.25762731E+03</totfact>
</mgrwt>
</event>
<event>
 6    1  0.9263730E-006  0.1274285E+03  0.7546771E-02  0.1246273E+00
         -1   -1    0    0    0  501 -0.00000000000E+00  0.00000000000E+00  0.27219604002E+02  0.27219604002E+02  0.00000000000E+00 0.  1.
          1   -1    0    0  501    0  0.00000000000E+00 -0.00000000000E+00 -0.46304605160E+03  0.46304605160E+03  0.00000000000E+00 0. -1.
          5    1    1    2  502    0 -0.52010821466E+01 -0.41185009276E+02 -0.22346936813E+03  0.22734094382E+03  0.47000000000E+01 0.  1.
         -5    1    1    2    0  502 -0.12813804268E+02  0.58189968668E+02 -0.66615242974E+02  0.89498305179E+02  0.47000000000E+01 0.  1.
        -11    1    1    2    0    0  0.16088046932E+02 -0.27374842925E+02 -0.15570968139E+03  0.15891416601E+03  0.00000000000E+00 0. -1.
         11    1    1    2    0    0  0.19268394827E+01  0.10369883532E+02  0.99678449040E+01  0.14512240588E+02  0.00000000000E+00 0.  1.
<mgrwt>
<rscale>  0 0.11809518E+03</rscale>
<asrwt>0</asrwt>
<pdfrwt beam="2">  1        1 0.71237849E-01 0.12742852E+03</pdfrwt>
<pdfrwt beam="1">  1       -1 0.41876317E-02 0.12742852E+03</pdfrwt>
<totfact> 0.10859025E+04</totfact>
</mgrwt>
</event>
<event>
 6    1  0.9263730E-006  0.1461099E+03  0.7546771E-02  0.1224094E+00
         -1   -1    0    0    0  501 -0.00000000000E+00  0.00000000000E+00  0.54003021579E+02  0.54003021579E+02  0.00000000000E+00 0.  1.
          1   -1    0    0  501    0  0.00000000000E+00 -0.00000000000E+00 -0.69361850687E+03  0.69361850687E+03  0.00000000000E+00 0. -1.
          5    1    1    2  502    0  0.63265993691E+02 -0.50587087962E+02 -0.50687740016E+03  0.51333072012E+03  0.47000000000E+01 0. -1.
         -5    1    1    2    0  502 -0.38649958052E+02  0.33939610843E+02 -0.12563452656E+03  0.13583755263E+03  0.47000000000E+01 0.  1.
        -11    1    1    2    0    0 -0.30675059984E+02  0.53055090206E+02 -0.40189034711E+01  0.61416231461E+02  0.00000000000E+00 0.  1.
         11    1    1    2    0    0  0.60590243450E+01 -0.36407613087E+02 -0.30846550965E+01  0.37037024230E+02  0.00000000000E+00 0. -1.
<mgrwt>
<rscale>  0 0.13229211E+03</rscale>
<asrwt>0</asrwt>
<pdfrwt beam="2">  1        1 0.10671053E+00 0.14610992E+03</pdfrwt>
<pdfrwt beam="1">  1       -1 0.83081578E-02 0.14610992E+03</pdfrwt>
<totfact> 0.22874061E+03</totfact>
</mgrwt>
</event>
<event>
 6    1  0.9263730E-006  0.2575588E+03  0.7546771E-02  0.1116926E+00
         -1   -1    0    0    0  501 -0.00000000000E+00  0.00000000000E+00  0.53319575839E+02  0.53319575839E+02  0.00000000000E+00 0.  1.
          1   -1    0    0  501    0  0.00000000000E+00 -0.00000000000E+00 -0.10211969652E+04  0.10211969652E+04  0.00000000000E+00 0. -1.
          5    1    1    2  502    0 -0.17432543808E+02 -0.10245914813E+03 -0.28150432070E+03  0.30011421692E+03  0.47000000000E+01 0. -1.
         -5    1    1    2    0  502  0.14100553470E+03 -0.38347492744E+02 -0.22918218303E+03  0.27184490805E+03  0.47000000000E+01 0.  1.
        -11    1    1    2    0    0 -0.64311301094E+02  0.58436615062E+02 -0.32201273569E+03  0.33353108307E+03  0.00000000000E+00 0.  1.
         11    1    1    2    0    0 -0.59261689796E+02  0.82370025815E+02 -0.13517814998E+03  0.16902633304E+03  0.00000000000E+00 0. -1.
<mgrwt>
<rscale>  0 0.24435369E+03</rscale>
<asrwt>0</asrwt>
<pdfrwt beam="2">  1        1 0.15710722E+00 0.25755880E+03</pdfrwt>
<pdfrwt beam="1">  1       -1 0.82030119E-02 0.25755880E+03</pdfrwt>
<totfact> 0.12782274E+03</totfact>
</mgrwt>
</event>
<event>
 6    1  0.9263730E-006  0.1334971E+03  0.7546771E-02  0.1235156E+00
         -2   -1    0    0    0  501 -0.00000000000E+00  0.00000000000E+00  0.12344126355E+03  0.12344126355E+03  0.00000000000E+00 0.  1.
          2   -1    0    0  501    0  0.00000000000E+00 -0.00000000000E+00 -0.12005006536E+03  0.12005006536E+03  0.00000000000E+00 0. -1.
          5    1    1    2  502    0 -0.62561187714E+02  0.27669362648E+02 -0.31790131254E+02  0.75579086279E+02  0.47000000000E+01 0. -1.
         -5    1    1    2    0  502  0.57463603250E+02  0.18912917098E+02  0.38882800344E+01  0.60802737218E+02  0.47000000000E+01 0. -1.
        -11    1    1    2    0    0  0.15562737932E+02  0.23849591721E+02  0.20504263167E+02  0.35091689119E+02  0.00000000000E+00 0.  1.
         11    1    1    2    0    0 -0.10465153467E+02 -0.70431871467E+02  0.10788786250E+02  0.72017816297E+02  0.00000000000E+00 0. -1.
<mgrwt>
<rscale>  0 0.12494458E+03</rscale>
<asrwt>0</asrwt>
<pdfrwt beam="2">  1        2 0.18469241E-01 0.13349715E+03</pdfrwt>
<pdfrwt beam="1">  1       -2 0.18990964E-01 0.13349715E+03</pdfrwt>
<totfact> 0.66291617E+03</totfact>
</mgrwt>
</event>
<event>
 6    1  0.9263730E-006  0.1293380E+03  0.7546771E-02  0.1243020E+00
          2   -1    0    0  501    0  0.00000000000E+00  0.00000000000E+00  0.57536038115E+02  0.57536038115E+02  0.00000000000E+00 0. -1.
         -2   -1    0    0    0  501 -0.00000000000E+00 -0.00000000000E+00 -0.22080802895E+03  0.22080802895E+03  0.00000000000E+00 0.  1.
          5    1    1    2  502    0  0.26308595896E+02 -0.10518302493E+02  0.19576940964E+02  0.34758071334E+02  0.47000000000E+01 0. -1.
         -5    1    1    2    0  502 -0.55237968245E+02 -0.58425538003E+01 -0.10917367703E+03  0.12258201470E+03  0.47000000000E+01 0. -1.
        -11    1    1    2    0    0  0.28296907160E+02  0.34066039724E+02 -0.87806354035E+02  0.98342085732E+02  0.00000000000E+00 0.  1.
         11    1    1    2    0    0  0.63246518856E+00 -0.17705183431E+02  0.14131099262E+02  0.22661895307E+02  0.00000000000E+00 0. -1.
<mgrwt>
<rscale>  0 0.12004671E+03</rscale>
<asrwt>0</asrwt>
<pdfrwt beam="1">  1        2 0.88516980E-02 0.12933804E+03</pdfrwt>
<pdfrwt beam="2">  1       -2 0.33970467E-01 0.12933804E+03</pdfrwt>
<totfact> 0.57354929E+03</totfact>
</mgrwt>
</event>
<event>
 6    1  0.9263730E-006  0.2209324E+03  0.7546771E-02  0.1136581E+00
         -1   -1    0    0    0  501 -0.00000000000E+00  0.00000000000E+00  0.14416469406E+03  0.14416469406E+03  0.00000000000E+00 0.  1.
          1   -1    0    0  501    0  0.00000000000E+00 -0.00000000000E+00 -0.37362505833E+03  0.37362505833E+03  0.00000000000E+00 0. -1.
          5    1    1    2  502    0  0.11359701893E+03 -0.10328977718E+03 -0.94618170023E+02  0.18040994673E+03  0.47000000000E+01 0. -1.
         -5    1    1    2    0  502  0.35817735305E+02 -0.93410727445E+00 -0.12889907488E+03  0.13386875746E+03  0.47000000000E+01 0. -1.
        -11    1    1    2    0    0 -0.37203738718E+02  0.59606073300E+02 -0.36173130902E+02  0.79028460368E+02  0.00000000000E+00 0. -1.
         11    1    1    2    0    0 -0.11221101552E+03  0.44617811158E+02  0.30230011528E+02  0.12448258783E+03  0.00000000000E+00 0.  1.
<mgrwt>
<rscale>  0 0.21641896E+03</rscale>
<asrwt>0</asrwt>
<pdfrwt beam="2">  1        1 0.57480779E-01 0.22093244E+03</pdfrwt>
<pdfrwt beam="1">  1       -1 0.22179183E-01 0.22093244E+03</pdfrwt>
<totfact> 0.11239180E+03</totfact>
</mgrwt>
</event>
<event>
 6    1  0.9263730E-006  0.1339173E+03  0.7546771E-02  0.1237629E+00
          2   -1    0    0  501    0  0.00000000000E+00  0.00000000000E+00  0.69130002649E+02  0.69130002649E+02  0.00000000000E+00 0. -1.
         -2   -1    0    0    0  501 -0.00000000000E+00 -0.00000000000E+00 -0.19206250453E+03  0.19206250453E+03  0.00000000000E+00 0.  1.
          5    1    1    2  502    0  0.15652658350E+02 -0.35108135444E+02  0.16756390681E+02  0.42195420563E+02  0.47000000000E+01 0. -1.
         -5    1    1    2    0  502  0.27103988375E+02  0.57046912642E+02 -0.91165862476E+02  0.11100576971E+03  0.47000000000E+01 0. -1.
        -11    1    1    2    0    0 -0.75567573793E+00  0.24696002493E+02 -0.36520793942E+02  0.44093445943E+02  0.00000000000E+00 0.  1.
         11    1    1    2    0    0 -0.42000970987E+02 -0.46634779691E+02 -0.12002236139E+02  0.63897870959E+02  0.00000000000E+00 0. -1.
<mgrwt>
<rscale>  0 0.12337648E+03</rscale>
<asrwt>0</asrwt>
<pdfrwt beam="1">  1        2 0.10635385E-01 0.13391727E+03</pdfrwt>
<pdfrwt beam="2">  1       -2 0.29548077E-01 0.13391727E+03</pdfrwt>
<totfact> 0.59093225E+03</totfact>
</mgrwt>
</event>
<event>
 6    1  0.9263730E-006  0.1480202E+03  0.7546771E-02  0.1212604E+00
          1   -1    0    0  501    0  0.00000000000E+00  0.00000000000E+00  0.98081161295E+03  0.98081161295E+03  0.00000000000E+00 0. -1.
         -1   -1    0    0    0  501 -0.00000000000E+00 -0.00000000000E+00 -0.20809926935E+02  0.20809926935E+02  0.00000000000E+00 0.  1.
          5    1    1    2  502    0 -0.54272006079E+02  0.81902123705E+02  0.49494336839E+03  0.50462306370E+03  0.47000000000E+01 0. -1.
         -5    1    1    2    0  502  0.48670717852E+02 -0.28600250510E+01  0.20016455112E+03  0.20607026968E+03  0.47000000000E+01 0. -1.
        -11    1    1    2    0    0 -0.28149634511E+02 -0.61029084622E+02  0.92485416213E+02  0.11432630190E+03  0.00000000000E+00 0.  1.
         11    1    1    2    0    0  0.33750922737E+02 -0.18013014032E+02  0.17240835030E+03  0.17660190461E+03  0.00000000000E+00 0. -1.
<mgrwt>
<rscale>  0 0.14054045E+03</rscale>
<asrwt>0</asrwt>
<pdfrwt beam="1">  1        1 0.15089406E+00 0.14802025E+03</pdfrwt>
<pdfrwt beam="2">  1       -1 0.32015280E-02 0.14802025E+03</pdfrwt>
<totfact> 0.55369502E+03</totfact>
</mgrwt>
</event>
<event>
 6    1  0.9263730E-006  0.1309847E+03  0.7546771E-02  0.1236556E+00
          1   -1    0    0  501    0  0.00000000000E+00  0.00000000000E+00  0.17671704520E+03  0.17671704520E+03  0.00000000000E+00 0. -1.
         -1   -1    0    0    0  501 -0.00000000000E+00 -0.00000000000E+00 -0.79105660996E+02  0.79105660996E+02  0.00000000000E+00 0.  1.
          5    1    1    2  502    0  0.36952287003E+02  0.66683089063E+02  0.28935154536E+02  0.81678877623E+02  0.47000000000E+01 0. -1.
         -5    1    1    2    0  502 -0.45907381807E+02 -0.28610109242E+02  0.28857734328E+02  0.61488900509E+02  0.47000000000E+01 0. -1.
        -11    1    1    2    0    0  0.21317677978E+02 -0.58891979217E+02 -0.38213640356E+01  0.62747999438E+02  0.00000000000E+00 0.  1.
         11    1    1    2    0    0 -0.12362583173E+02  0.20818999396E+02  0.43639859372E+02  0.49906928623E+02  0.00000000000E+00 0. -1.
<mgrwt>
<rscale>  0 0.12405330E+03</rscale>
<asrwt>0</asrwt>
<pdfrwt beam="1">  1        1 0.27187238E-01 0.13098471E+03</pdfrwt>
<pdfrwt beam="2">  1       -1 0.12170102E-01 0.13098471E+03</pdfrwt>
<totfact> 0.72790779E+03</totfact>
</mgrwt>
</event>
<event>
 6    1  0.9263730E-006  0.1426511E+03  0.7546771E-02  0.1215723E+00
          1   -1    0    0  501    0  0.00000000000E+00  0.00000000000E+00  0.22296482468E+03  0.22296482468E+03  0.00000000000E+00 0. -1.
         -1   -1    0    0    0  501 -0.00000000000E+00 -0.00000000000E+00 -0.83216568125E+02  0.83216568125E+02  0.00000000000E+00 0.  1.
          5    1    1    2  502    0  0.10537642447E+02  0.23350308645E+02  0.32740664944E+02  0.41836825443E+02  0.47000000000E+01 0. -1.
         -5    1    1    2    0  502 -0.58183439130E+02 -0.90407281525E+02  0.15357854948E+02  0.10870484281E+03  0.47000000000E+01 0.  1.
        -11    1    1    2    0    0  0.26616190681E+02  0.89998086462E+02  0.76221203487E+02  0.12090388345E+03  0.00000000000E+00 0. -1.
         11    1    1    2    0    0  0.21029606002E+02 -0.22941113581E+02  0.15428533179E+02  0.34735841101E+02  0.00000000000E+00 0.  1.
<mgrwt>
<rscale>  0 0.13823594E+03</rscale>
<asrwt>0</asrwt>
<pdfrwt beam="1">  1        1 0.34302280E-01 0.14265106E+03</pdfrwt>
<pdfrwt beam="2">  1       -1 0.12802549E-01 0.14265106E+03</pdfrwt>
<totfact> 0.50684827E+03</totfact>
</mgrwt>
</event>
<event>
 6    1  0.9263730E-006  0.1421061E+03  0.7546771E-02  0.1219564E+00
          2   -1    0    0  501    0  0.00000000000E+00  0.00000000000E+00  0.90457433183E+03  0.90457433183E+03  0.00000000000E+00 0.  1.
         -2   -1    0    0    0  501 -0.00000000000E+00 -0.00000000000E+00 -0.23700395005E+02  0.23700395005E+02  0.00000000000E+00 0. -1.
          5    1    1    2  502    0 -0.88467054148E+01 -0.75275291452E+02  0.35126780999E+03  0.35938252328E+03  0.47000000000E+01 0.  1.
         -5    1    1    2    0  502  0.58857043224E+02  0.29504922071E+02  0.33661166349E+03  0.34302214792E+03  0.47000000000E+01 0.  1.
        -11    1    1    2    0    0 -0.70434611224E+02  0.37601834640E+02  0.88961553630E+02  0.11953698361E+03  0.00000000000E+00 0. -1.
         11    1    1    2    0    0  0.20424273415E+02  0.81685347420E+01  0.10403290971E+03  0.10633307203E+03  0.00000000000E+00 0.  1.
<mgrwt>
<rscale>  0 0.13546528E+03</rscale>
<asrwt>0</asrwt>
<pdfrwt beam="1">  1        2 0.13916526E+00 0.14210613E+03</pdfrwt>
<pdfrwt beam="2">  1       -2 0.36462153E-02 0.14210613E+03</pdfrwt>
<totfact> 0.92143818E+03</totfact>
</mgrwt>
</event>
<event>
 6    1  0.9263730E-006  0.1462778E+03  0.7546771E-02  0.1211055E+00
         -2   -1    0    0    0  501 -0.00000000000E+00  0.00000000000E+00  0.52725113239E+02  0.52725113239E+02  0.00000000000E+00 0.  1.
          2   -1    0    0  501    0  0.00000000000E+00 -0.00000000000E+00 -0.54033812207E+03  0.54033812207E+03  0.00000000000E+00 0. -1.
          5    1    1    2  502    0 -0.35687082320E+02  0.10311230885E+03 -0.39503687829E+03  0.40985600067E+03  0.47000000000E+01 0. -1.
         -5    1    1    2    0  502  0.21335450512E+02 -0.14306942603E+02 -0.30673452043E+02  0.40284497209E+02  0.47000000000E+01 0.  1.
        -11    1    1    2    0    0  0.14530098604E+02 -0.74353891895E+02  0.35988207938E+01  0.75845741585E+02  0.00000000000E+00 0.  1.
         11    1    1    2    0    0 -0.17846679660E+00 -0.14451474351E+02 -0.65501499291E+02  0.67076995838E+02  0.00000000000E+00 0. -1.
<mgrwt>
<rscale>  0 0.14170356E+03</rscale>
<asrwt>0</asrwt>
<pdfrwt beam="2">  1        2 0.83128940E-01 0.14627776E+03</pdfrwt>
<pdfrwt beam="1">  1       -2 0.81115561E-02 0.14627776E+03</pdfrwt>
<totfact> 0.51060747E+03</totfact>
</mgrwt>
</event>
<event>
 6    1  0.9263730E-006  0.1335188E+03  0.7546771E-02  0.1236089E+00
          1   -1    0    0  501    0  0.00000000000E+00  0.00000000000E+00  0.73031035808E+03  0.73031035808E+03  0.00000000000E+00 0. -1.
         -1   -1    0    0    0  501 -0.00000000000E+00 -0.00000000000E+00 -0.21188722941E+02  0.21188722941E+02  0.00000000000E+00 0.  1.
          5    1    1    2  502    0  0.34548685361E+02 -0.59888775704E+02  0.41442493666E+03  0.42017900381E+03  0.47000000000E+01 0.  1.
         -5    1    1    2    0  502  0.11119576884E+02  0.49041376710E+02  0.11108079807E+03  0.12202350314E+03  0.47000000000E+01 0.  1.
        -11    1    1    2    0    0 -0.34629196221E+02 -0.37358279116E+02  0.89629098288E+02  0.10309314967E+03  0.00000000000E+00 0.  1.
         11    1    1    2    0    0 -0.11039066023E+02  0.48205678109E+02  0.93986802122E+02  0.10620342440E+03  0.00000000000E+00 0. -1.
<mgrwt>
<rscale>  0 0.12434969E+03</rscale>
<asrwt>0</asrwt>
<pdfrwt beam="1">  1        1 0.11235542E+00 0.13351884E+03</pdfrwt>
<pdfrwt beam="2">  1       -1 0.32598041E-02 0.13351884E+03</pdfrwt>
<totfact> 0.84794684E+03</totfact>
</mgrwt>
</event>
<event>
 6    1  0.9263730E-006  0.1259899E+03  0.7546771E-02  0.1251590E+00
         -2   -1    0    0    0  501 -0.00000000000E+00  0.00000000000E+00  0.50883977385E+02  0.50883977385E+02  0.00000000000E+00 0. -1.
          2   -1    0    0  501    0  0.00000000000E+00 -0.00000000000E+00 -0.24027460086E+03  0.24027460086E+03  0.00000000000E+00 0.  1.
          5    1    1    2  502    0  0.40739113197E+02 -0.25053784674E+02 -0.76177303984E+01  0.48656831863E+02  0.47000000000E+01 0. -1.
         -5    1    1    2    0  502 -0.37402091671E+02  0.96420799505E+01 -0.14054349461E+03  0.14583020964E+03  0.47000000000E+01 0. -1.
        -11    1    1    2    0    0 -0.16660447631E+02  0.44080663230E+02 -0.44594284505E+02  0.64879315630E+02  0.00000000000E+00 0.  1.
         11    1    1    2    0    0  0.13323426106E+02 -0.28668958506E+02  0.33648860383E+01  0.31792221110E+02  0.00000000000E+00 0. -1.
<mgrwt>
<rscale>  0 0.11499468E+03</rscale>
<asrwt>0</asrwt>
<pdfrwt beam="2">  1        2 0.36965322E-01 0.12598992E+03</pdfrwt>
<pdfrwt beam="1">  1       -2 0.78283044E-02 0.12598992E+03</pdfrwt>
<totfact> 0.12730212E+04</totfact>
</mgrwt>
</event>
<event>
 6    1  0.9263730E-006  0.1457352E+03  0.7546771E-02  0.1215516E+00
         -1   -1    0    0    0  501 -0.00000000000E+00  0.00000000000E+00  0.76169073305E+02  0.76169073305E+02  0.00000000000E+00 0.  1.
          1   -1    0    0  501    0  0.00000000000E+00 -0.00000000000E+00 -0.24167448654E+03  0.24167448654E+03  0.00000000000E+00 0. -1.
          5    1    1    2  502    0 -0.17567657547E+02 -0.10520958064E+03 -0.86180551662E+02  0.13721099058E+03  0.47000000000E+01 0.  1.
         -5    1    1    2    0  502  0.23051753909E+02  0.30468546041E+02 -0.40663474332E+02  0.55993962183E+02  0.47000000000E+01 0.  1.
        -11    1    1    2    0    0  0.15726359338E+02  0.78394693021E+02  0.49368139611E+00  0.79958051459E+02  0.00000000000E+00 0.  1.
         11    1    1    2    0    0 -0.21210455700E+02 -0.36536584181E+01 -0.39155068638E+02  0.44680555624E+02  0.00000000000E+00 0. -1.
<mgrwt>
<rscale>  0 0.13838676E+03</rscale>
<asrwt>0</asrwt>
<pdfrwt beam="2">  1        1 0.37180690E-01 0.14573519E+03</pdfrwt>
<pdfrwt beam="1">  1       -1 0.11718319E-01 0.14573519E+03</pdfrwt>
<totfact> 0.52660196E+03</totfact>
</mgrwt>
</event>
<event>
 6    1  0.9263730E-006  0.4505150E+03  0.7546771E-02  0.1027569E+00
         -1   -1    0    0    0  501 -0.00000000000E+00  0.00000000000E+00  0.65074947733E+03  0.65074947733E+03  0.00000000000E+00 0.  1.
          1   -1    0    0  501    0  0.00000000000E+00 -0.00000000000E+00 -0.77973086914E+02  0.77973086914E+02  0.00000000000E+00 0. -1.
          5    1    1    2  502    0 -0.41305904773E+02 -0.14331817365E+03  0.23027157045E+02  0.15099210784E+03  0.47000000000E+01 0.  1.
         -5    1    1    2    0  502  0.58542923491E+01  0.95891380319E+01  0.46395711946E+02  0.47967451403E+02  0.47000000000E+01 0.  1.
        -11    1    1    2    0    0  0.57594914373E+02  0.56202997143E+02  0.30995266541E+03  0.32022898970E+03  0.00000000000E+00 0.  1.
         11    1    1    2    0    0 -0.22143301949E+02  0.77526038474E+02  0.19340085601E+03  0.20953401530E+03  0.00000000000E+00 0. -1.
<mgrwt>
<rscale>  0 0.45051502E+03</rscale>
<asrwt>0</asrwt>
<pdfrwt beam="2">  1        1 0.11995860E-01 0.45051502E+03</pdfrwt>
<pdfrwt beam="1">  1       -1 0.10011530E+00 0.45051502E+03</pdfrwt>
<totfact> 0.50430157E+02</totfact>
</mgrwt>
</event>
<event>
 6    1  0.9263730E-006  0.1345906E+03  0.7546771E-02  0.1232303E+00
          3   -1    0    0  501    0  0.00000000000E+00  0.00000000000E+00  0.84806225466E+02  0.84806225466E+02  0.00000000000E+00 0. -1.
         -3   -1    0    0    0  501 -0.00000000000E+00 -0.00000000000E+00 -0.17873857911E+03  0.17873857911E+03  0.00000000000E+00 0.  1.
          5    1    1    2  502    0 -0.65406135527E+02 -0.19040206973E+02 -0.79230986494E+00  0.68287698754E+02  0.47000000000E+01 0. -1.
         -5    1    1    2    0  502  0.31647527396E+02  0.55775080768E+02 -0.23606107986E+02  0.68496452165E+02  0.47000000000E+01 0. -1.
        -11    1    1    2    0    0  0.12694506860E+01 -0.58030133067E+02 -0.15258741626E+02  0.60016139870E+02  0.00000000000E+00 0. -1.
         11    1    1    2    0    0  0.32489157445E+02  0.21295259272E+02 -0.54275194172E+02  0.66744513792E+02  0.00000000000E+00 0.  1.
<mgrwt>
<rscale>  0 0.12678690E+03</rscale>
<asrwt>0</asrwt>
<pdfrwt beam="1">  1        3 0.13047112E-01 0.13459057E+03</pdfrwt>
<pdfrwt beam="2">  1       -3 0.27498243E-01 0.13459057E+03</pdfrwt>
<totfact> 0.13661044E+03</totfact>
</mgrwt>
</event>
<event>
 6    1  0.9263730E-006  0.1600969E+03  0.7546771E-02  0.1196427E+00
          1   -1    0    0  501    0  0.00000000000E+00  0.00000000000E+00  0.12764499681E+04  0.12764499681E+04  0.00000000000E+00 0. -1.
         -1   -1    0    0    0  501 -0.00000000000E+00 -0.00000000000E+00 -0.19682611388E+02  0.19682611388E+02  0.00000000000E+00 0.  1.
          5    1    1    2  502    0  0.15666316878E+02  0.41992511114E+02  0.50397987391E+03  0.50599071906E+03  0.47000000000E+01 0. -1.
         -5    1    1    2    0  502  0.83654407994E+02 -0.53546849447E+02  0.40854121960E+03  0.42046800494E+03  0.47000000000E+01 0. -1.
        -11    1    1    2    0    0 -0.23508626010E+02 -0.13401097759E+01  0.81889669775E+01  0.24930113743E+02  0.00000000000E+00 0.  1.
         11    1    1    2    0    0 -0.75812098862E+02  0.12894448109E+02  0.33605729626E+03  0.34474374178E+03  0.00000000000E+00 0. -1.
<mgrwt>
<rscale>  0 0.15334039E+03</rscale>
<asrwt>0</asrwt>
<pdfrwt beam="1">  1        1 0.19637685E+00 0.16009691E+03</pdfrwt>
<pdfrwt beam="2">  1       -1 0.30280951E-02 0.16009691E+03</pdfrwt>
<totfact> 0.37299474E+03</totfact>
</mgrwt>
</event>
<event>
 6    1  0.9263730E-006  0.1773459E+03  0.7546771E-02  0.1176233E+00
          2   -1    0    0  501    0  0.00000000000E+00  0.00000000000E+00  0.11240965883E+04  0.11240965883E+04  0.00000000000E+00 0. -1.
         -2   -1    0    0    0  501 -0.00000000000E+00 -0.00000000000E+00 -0.24658833172E+02  0.24658833172E+02  0.00000000000E+00 0.  1.
          5    1    1    2  502    0  0.24638367349E+02  0.98824828236E+02  0.21518860545E+03  0.23812102330E+03  0.47000000000E+01 0. -1.
         -5    1    1    2    0  502  0.55427169080E+02 -0.17901778464E+01  0.34527858001E+03  0.34973527649E+03  0.47000000000E+01 0. -1.
        -11    1    1    2    0    0 -0.82283751650E+02 -0.29169019475E+02  0.31304486539E+03  0.32499005405E+03  0.00000000000E+00 0.  1.
         11    1    1    2    0    0  0.22182152216E+01 -0.67865630915E+02  0.22592570425E+03  0.23590906761E+03  0.00000000000E+00 0. -1.
<mgrwt>
<rscale>  0 0.17155751E+03</rscale>
<asrwt>0</asrwt>
<pdfrwt beam="1">  1        2 0.17293790E+00 0.17734589E+03</pdfrwt>
<pdfrwt beam="2">  1       -2 0.37936675E-02 0.17734589E+03</pdfrwt>
<totfact> 0.64816906E+03</totfact>
</mgrwt>
</event>
<event>
 6    1  0.9263730E-006  0.1252760E+03  0.7546771E-02  0.1250049E+00
         -2   -1    0    0    0  501 -0.00000000000E+00  0.00000000000E+00  0.10258181721E+02  0.10258181721E+02  0.00000000000E+00 0.  1.
          2   -1    0    0  501    0  0.00000000000E+00 -0.00000000000E+00 -0.11506427373E+04  0.11506427373E+04  0.00000000000E+00 0. -1.
          5    1    1    2  502    0 -0.24876202751E+02  0.60278608937E+02 -0.29509663269E+03  0.30225229326E+03  0.47000000000E+01 0. -1.
         -5    1    1    2    0  502  0.21158923288E+02 -0.53053609677E+02 -0.39275686239E+03  0.39691614793E+03  0.47000000000E+01 0. -1.
        -11    1    1    2    0    0  0.16494669456E+01 -0.48850082852E+02 -0.28037872621E+03  0.28460724068E+03  0.00000000000E+00 0. -1.
         11    1    1    2    0    0  0.20678125171E+01  0.41625083593E+02 -0.17215233431E+03  0.17712523717E+03  0.00000000000E+00 0.  1.
<mgrwt>
<rscale>  0 0.11588219E+03</rscale>
<asrwt>0</asrwt>
<pdfrwt beam="2">  1        2 0.17702195E+00 0.12527601E+03</pdfrwt>
<pdfrwt beam="1">  1       -2 0.15781819E-02 0.12527601E+03</pdfrwt>
<totfact> 0.22196389E+04</totfact>
</mgrwt>
</event>
<event>
 6    1  0.9263730E-006  0.1517526E+03  0.7546771E-02  0.1207559E+00
         -2   -1    0    0    0  501 -0.00000000000E+00  0.00000000000E+00  0.26243983563E+02  0.26243983563E+02  0.00000000000E+00 0.  1.
          2   -1    0    0  501    0  0.00000000000E+00 -0.00000000000E+00 -0.76511677283E+03  0.76511677283E+03  0.00000000000E+00 0. -1.
          5    1    1    2  502    0  0.46360373939E+02  0.70984073753E+02 -0.32606303945E+03  0.33693800423E+03  0.47000000000E+01 0. -1.
         -5    1    1    2    0  502 -0.63281908648E+02  0.10414735651E+02 -0.16714908353E+03  0.17909207912E+03  0.47000000000E+01 0.  1.
        -11    1    1    2    0    0  0.28646753690E+02 -0.93300189525E+02 -0.15517987643E+03  0.18332036415E+03  0.00000000000E+00 0.  1.
         11    1    1    2    0    0 -0.11725218981E+02  0.11901380121E+02 -0.90480789855E+02  0.92010308888E+02  0.00000000000E+00 0. -1.
<mgrwt>
<rscale>  0 0.14437620E+03</rscale>
<asrwt>0</asrwt>
<pdfrwt beam="2">  1        2 0.11771027E+00 0.15175259E+03</pdfrwt>
<pdfrwt beam="1">  1       -2 0.40375360E-02 0.15175259E+03</pdfrwt>
<totfact> 0.98290513E+03</totfact>
</mgrwt>
</event>
<event>
 6    1  0.9263730E-006  0.1376203E+03  0.7546771E-02  0.1222643E+00
         -2   -1    0    0    0  501 -0.00000000000E+00  0.00000000000E+00  0.44351944806E+02  0.44351944806E+02  0.00000000000E+00 0.  1.
          2   -1    0    0  501    0  0.00000000000E+00 -0.00000000000E+00 -0.61101763190E+03  0.61101763190E+03  0.00000000000E+00 0. -1.
          5    1    1    2  502    0 -0.53760519477E+02 -0.85438214578E+02 -0.45714127600E+03  0.46817744306E+03  0.47000000000E+01 0. -1.
         -5    1    1    2    0  502  0.43951974344E+00  0.25414264109E+02 -0.39717551292E+02  0.47388309513E+02  0.47000000000E+01 0.  1.
        -11    1    1    2    0    0  0.23401531709E+02 -0.21620038125E+02 -0.72187921072E+01  0.32667548031E+02  0.00000000000E+00 0. -1.
         11    1    1    2    0    0  0.29919468024E+02  0.81643988594E+02 -0.62588067698E+02  0.10713627611E+03  0.00000000000E+00 0.  1.
<mgrwt>
<rscale>  0 0.13329796E+03</rscale>
<asrwt>0</asrwt>
<pdfrwt beam="2">  1        2 0.94002703E-01 0.13762031E+03</pdfrwt>
<pdfrwt beam="1">  1       -2 0.68233768E-02 0.13762031E+03</pdfrwt>
<totfact> 0.57814335E+03</totfact>
</mgrwt>
</event>
<event>
 6    1  0.9263730E-006  0.1973028E+03  0.7546771E-02  0.1156634E+00
          2   -1    0    0  501    0  0.00000000000E+00  0.00000000000E+00  0.26232639094E+03  0.26232639094E+03  0.00000000000E+00 0. -1.
         -2   -1    0    0    0  501 -0.00000000000E+00 -0.00000000000E+00 -0.15309681613E+03  0.15309681613E+03  0.00000000000E+00 0.  1.
          5    1    1    2  502    0  0.73192044300E+02 -0.30805258528E+02  0.90023457232E+01  0.80057301543E+02  0.47000000000E+01 0.  1.
         -5    1    1    2    0  502  0.76249998745E+02  0.61967335310E+02  0.12226358522E+03  0.15692191442E+03  0.47000000000E+01 0.  1.
        -11    1    1    2    0    0 -0.13062349354E+03 -0.13351578338E+02  0.16153576551E+02  0.13229398983E+03  0.00000000000E+00 0. -1.
         11    1    1    2    0    0 -0.18818549502E+02 -0.17810498444E+02 -0.38189932687E+02  0.46150001287E+02  0.00000000000E+00 0.  1.
<mgrwt>
<rscale>  0 0.19203978E+03</rscale>
<asrwt>0</asrwt>
<pdfrwt beam="1">  1        2 0.40357906E-01 0.19730282E+03</pdfrwt>
<pdfrwt beam="2">  1       -2 0.23553356E-01 0.19730282E+03</pdfrwt>
<totfact> 0.19765658E+03</totfact>
</mgrwt>
</event>
<event>
 6    1  0.9263730E-006  0.1778785E+03  0.7546771E-02  0.1175108E+00
         -3   -1    0    0    0  501 -0.00000000000E+00  0.00000000000E+00  0.29380463380E+03  0.29380463380E+03  0.00000000000E+00 0.  1.
          3   -1    0    0  501    0  0.00000000000E+00 -0.00000000000E+00 -0.10087759234E+03  0.10087759234E+03  0.00000000000E+00 0. -1.
          5    1    1    2  502    0 -0.99461584722E+01  0.36515064698E+02 -0.14488701883E+02  0.40795692181E+02  0.47000000000E+01 0. -1.
         -5    1    1    2    0  502  0.12385898217E+03  0.27754930450E+02  0.72775479939E+02  0.14638901635E+03  0.47000000000E+01 0.  1.
        -11    1    1    2    0    0  0.69348733539E+00 -0.26753914788E+02  0.59943623885E+02  0.65646712984E+02  0.00000000000E+00 0.  1.
         11    1    1    2    0    0 -0.11460631103E+03 -0.37516080359E+02  0.74696639521E+02  0.14185080461E+03  0.00000000000E+00 0. -1.
<mgrwt>
<rscale>  0 0.17265408E+03</rscale>
<asrwt>0</asrwt>
<pdfrwt beam="2">  1        3 0.15519630E-01 0.17787852E+03</pdfrwt>
<pdfrwt beam="1">  1       -3 0.45200712E-01 0.17787852E+03</pdfrwt>
<totfact> 0.41170194E+02</totfact>
</mgrwt>
</event>
<event>
 6    1  0.9263730E-006  0.2357988E+03  0.7546771E-02  0.1125034E+00
          2   -1    0    0  501    0  0.00000000000E+00  0.00000000000E+00  0.15703479377E+04  0.15703479377E+04  0.00000000000E+00 0. -1.
         -2   -1    0    0    0  501 -0.00000000000E+00 -0.00000000000E+00 -0.36313631492E+02  0.36313631492E+02  0.00000000000E+00 0.  1.
          5    1    1    2  502    0 -0.45571080010E+02 -0.18498751815E+03  0.66340315106E+03  0.69023397195E+03  0.47000000000E+01 0. -1.
         -5    1    1    2    0  502 -0.10517466114E+00 -0.96643455807E+01  0.35296298607E+03  0.35312656396E+03  0.47000000000E+01 0. -1.
        -11    1    1    2    0    0  0.70797169508E+02  0.97280652207E+02  0.31113843012E+03  0.33359089796E+03  0.00000000000E+00 0. -1.
         11    1    1    2    0    0 -0.25120914836E+02  0.97371211522E+02  0.20652973898E+03  0.22971013534E+03  0.00000000000E+00 0.  1.
<mgrwt>
<rscale>  0 0.23229646E+03</rscale>
<asrwt>0</asrwt>
<pdfrwt beam="1">  1        2 0.24159194E+00 0.23579882E+03</pdfrwt>
<pdfrwt beam="2">  1       -2 0.55867138E-02 0.23579882E+03</pdfrwt>
<totfact> 0.20691855E+03</totfact>
</mgrwt>
</event>
<event>
 6    1  0.9263730E-006  0.1432897E+03  0.7546771E-02  0.1219418E+00
         -3   -1    0    0    0  501 -0.00000000000E+00  0.00000000000E+00  0.27271534782E+03  0.27271534782E+03  0.00000000000E+00 0.  1.
          3   -1    0    0  501    0  0.00000000000E+00 -0.00000000000E+00 -0.61093598568E+02  0.61093598568E+02  0.00000000000E+00 0. -1.
          5    1    1    2  502    0 -0.37549186486E+02  0.53149732954E+02  0.84613741213E+01  0.65791491630E+02  0.47000000000E+01 0.  1.
         -5    1    1    2    0  502  0.48271744596E+02  0.16073931437E+02  0.10575011634E+03  0.11744662491E+03  0.47000000000E+01 0.  1.
        -11    1    1    2    0    0  0.22929481199E+02 -0.75813537359E+02  0.78014996630E+02  0.11117460706E+03  0.00000000000E+00 0.  1.
         11    1    1    2    0    0 -0.33652039308E+02  0.65898729682E+01  0.19395262158E+02  0.39396222783E+02  0.00000000000E+00 0. -1.
<mgrwt>
<rscale>  0 0.13556959E+03</rscale>
<asrwt>0</asrwt>
<pdfrwt beam="2">  1        3 0.93990153E-02 0.14328972E+03</pdfrwt>
<pdfrwt beam="1">  1       -3 0.41956207E-01 0.14328972E+03</pdfrwt>
<totfact> 0.10757085E+03</totfact>
</mgrwt>
</event>
<event>
 6    1  0.9263730E-006  0.1235640E+03  0.7546771E-02  0.1248206E+00
         -1   -1    0    0    0  501 -0.00000000000E+00  0.00000000000E+00  0.43486083326E+02  0.43486083326E+02  0.00000000000E+00 0.  1.
          1   -1    0    0  501    0  0.00000000000E+00 -0.00000000000E+00 -0.30685346855E+03  0.30685346855E+03  0.00000000000E+00 0. -1.
          5    1    1    2  502    0  0.65851936362E+02  0.27622095666E+02 -0.11314795442E+03  0.13388057096E+03  0.47000000000E+01 0. -1.
         -5    1    1    2    0  502 -0.36068727051E+02 -0.37123218454E+02 -0.78185750684E+02  0.93883907191E+02  0.47000000000E+01 0.  1.
        -11    1    1    2    0    0 -0.46728654650E+01  0.50652727201E+02 -0.39733284988E+02  0.64546637252E+02  0.00000000000E+00 0. -1.
         11    1    1    2    0    0 -0.25110343846E+02 -0.41151604413E+02 -0.32300395135E+02  0.58028436475E+02  0.00000000000E+00 0.  1.
<mgrwt>
<rscale>  0 0.11695539E+03</rscale>
<asrwt>0</asrwt>
<pdfrwt beam="2">  1        1 0.47208226E-01 0.12356404E+03</pdfrwt>
<pdfrwt beam="1">  1       -1 0.66901667E-02 0.12356404E+03</pdfrwt>
<totfact> 0.90716050E+03</totfact>
</mgrwt>
</event>
<event>
 6    1  0.9263730E-006  0.1298794E+03  0.7546771E-02  0.1241580E+00
          1   -1    0    0  501    0  0.00000000000E+00  0.00000000000E+00  0.12645599368E+03  0.12645599368E+03  0.00000000000E+00 0. -1.
         -1   -1    0    0    0  501 -0.00000000000E+00 -0.00000000000E+00 -0.10259992460E+03  0.10259992460E+03  0.00000000000E+00 0.  1.
          5    1    1    2  502    0 -0.34703306699E+02 -0.38810959445E+02  0.54174675685E+02  0.75283434795E+02  0.47000000000E+01 0. -1.
         -5    1    1    2    0  502 -0.20404397720E+00  0.44039129619E+02 -0.34416948737E+02  0.56090132215E+02  0.47000000000E+01 0. -1.
        -11    1    1    2    0    0  0.16573145718E+02 -0.15719212664E+01 -0.43482549153E+02  0.46560414263E+02  0.00000000000E+00 0.  1.
         11    1    1    2    0    0  0.18334204957E+02 -0.36562489073E+01  0.47580891283E+02  0.51121937002E+02  0.00000000000E+00 0. -1.
<mgrwt>
<rscale>  0 0.12092427E+03</rscale>
<asrwt>0</asrwt>
<pdfrwt beam="1">  1        1 0.19454768E-01 0.12987935E+03</pdfrwt>
<pdfrwt beam="2">  1       -1 0.15784604E-01 0.12987935E+03</pdfrwt>
<totfact> 0.73969927E+03</totfact>
</mgrwt>
</event>
<event>
 6    1  0.9263730E-006  0.2185259E+03  0.7546771E-02  0.1138367E+00
          2   -1    0    0  501    0  0.00000000000E+00  0.00000000000E+00  0.10257398772E+04  0.10257398772E+04  0.00000000000E+00 0. -1.
         -2   -1    0    0    0  501 -0.00000000000E+00 -0.00000000000E+00 -0.49884153875E+02  0.49884153875E+02  0.00000000000E+00 0.  1.
          5    1    1    2  502    0 -0.11812003184E+03  0.62886256210E+02  0.28165230870E+03  0.31186076403E+03  0.47000000000E+01 0. -1.
         -5    1    1    2    0  502 -0.28786707121E+02  0.39831269094E+02  0.42371105690E+03  0.42657748915E+03  0.47000000000E+01 0. -1.
        -11    1    1    2    0    0  0.70077392628E+02 -0.17198579595E+02  0.16928524335E+03  0.18402207942E+03  0.00000000000E+00 0. -1.
         11    1    1    2    0    0  0.76829346332E+02 -0.85518945709E+02  0.10120711436E+03  0.15316369847E+03  0.00000000000E+00 0.  1.
<mgrwt>
<rscale>  0 0.21409020E+03</rscale>
<asrwt>0</asrwt>
<pdfrwt beam="1">  1        2 0.15780612E+00 0.21852592E+03</pdfrwt>
<pdfrwt beam="2">  1       -2 0.76744860E-02 0.21852592E+03</pdfrwt>
<totfact> 0.25458195E+03</totfact>
</mgrwt>
</event>
<event>
 6    1  0.9263730E-006  0.3952664E+03  0.7546771E-02  0.1045431E+00
          2   -1    0    0  501    0  0.00000000000E+00  0.00000000000E+00  0.19465632683E+04  0.19465632683E+04  0.00000000000E+00 0.  1.
         -2   -1    0    0    0  501 -0.00000000000E+00 -0.00000000000E+00 -0.20065563418E+02  0.20065563418E+02  0.00000000000E+00 0. -1.
          5    1    1    2  502    0 -0.21874858159E+02 -0.11804668734E+02  0.36516208237E+03  0.36603728775E+03  0.47000000000E+01 0. -1.
         -5    1    1    2    0  502 -0.83755162094E+02  0.12926110126E+03  0.56105101451E+03  0.58182788723E+03  0.47000000000E+01 0. -1.
        -11    1    1    2    0    0  0.33284682878E+02  0.16496869918E+02  0.12753501976E+03  0.13283522912E+03  0.00000000000E+00 0. -1.
         11    1    1    2    0    0  0.72345337375E+02 -0.13395330244E+03  0.87274958829E+03  0.88592842766E+03  0.00000000000E+00 0.  1.
<mgrwt>
<rscale>  0 0.39526644E+03</rscale>
<asrwt>0</asrwt>
<pdfrwt beam="1">  1        2 0.29947112E+00 0.39526644E+03</pdfrwt>
<pdfrwt beam="2">  1       -2 0.30870113E-02 0.39526644E+03</pdfrwt>
<totfact> 0.32044086E+03</totfact>
</mgrwt>
</event>
<event>
 6    1  0.9263730E-006  0.2389629E+03  0.7546771E-02  0.1122986E+00
         -2   -1    0    0    0  501 -0.00000000000E+00  0.00000000000E+00  0.43094112376E+02  0.43094112376E+02  0.00000000000E+00 0.  1.
          2   -1    0    0  501    0  0.00000000000E+00 -0.00000000000E+00 -0.13303777894E+04  0.13303777894E+04  0.00000000000E+00 0. -1.
          5    1    1    2  502    0 -0.21311767735E+02 -0.21968869898E+03 -0.78635936693E+03  0.81676218073E+03  0.47000000000E+01 0.  1.
         -5    1    1    2    0  502  0.11964362489E+01  0.17020214239E+02 -0.48718052655E+02  0.51832979915E+02  0.47000000000E+01 0.  1.
        -11    1    1    2    0    0  0.14017058754E+02  0.85658270308E+02 -0.30286614911E+03  0.31505828268E+03  0.00000000000E+00 0. -1.
         11    1    1    2    0    0  0.60982727329E+01  0.11701021443E+03 -0.14934010829E+03  0.18981845842E+03  0.00000000000E+00 0.  1.
<mgrwt>
<rscale>  0 0.23526777E+03</rscale>
<asrwt>0</asrwt>
<pdfrwt beam="2">  1        2 0.20467349E+00 0.23896288E+03</pdfrwt>
<pdfrwt beam="1">  1       -2 0.66298641E-02 0.23896288E+03</pdfrwt>
<totfact> 0.21403789E+03</totfact>
</mgrwt>
</event>
<event>
 6    1  0.9263730E-006  0.1574364E+03  0.7546771E-02  0.1199242E+00
          1   -1    0    0  501    0  0.00000000000E+00  0.00000000000E+00  0.60443025280E+02  0.60443025280E+02  0.00000000000E+00 0. -1.
         -1   -1    0    0    0  501 -0.00000000000E+00 -0.00000000000E+00 -0.42565296529E+03  0.42565296529E+03  0.00000000000E+00 0.  1.
          5    1    1    2  502    0 -0.98923811510E+02  0.58016449655E+02 -0.37742674580E+02  0.12082395623E+03  0.47000000000E+01 0. -1.
         -5    1    1    2    0  502  0.27556814886E+02  0.57666705722E+01 -0.54823307065E+02  0.61808717295E+02  0.47000000000E+01 0. -1.
        -11    1    1    2    0    0  0.51426892773E+02 -0.52802510553E+02 -0.27076976393E+03  0.28062269238E+03  0.00000000000E+00 0.  1.
         11    1    1    2    0    0  0.19940103850E+02 -0.10980609673E+02 -0.18741944371E+01  0.22840624666E+02  0.00000000000E+00 0. -1.
<mgrwt>
<rscale>  0 0.15100621E+03</rscale>
<asrwt>0</asrwt>
<pdfrwt beam="1">  1        1 0.92989269E-02 0.15743644E+03</pdfrwt>
<pdfrwt beam="2">  1       -1 0.65485072E-01 0.15743644E+03</pdfrwt>
<totfact> 0.17008707E+03</totfact>
</mgrwt>
</event>
<event>
 6    1  0.9263730E-006  0.1298791E+03  0.7546771E-02  0.1234516E+00
          1   -1    0    0  501    0  0.00000000000E+00  0.00000000000E+00  0.18155672015E+03  0.18155672015E+03  0.00000000000E+00 0. -1.
         -1   -1    0    0    0  501 -0.00000000000E+00 -0.00000000000E+00 -0.15664591839E+03  0.15664591839E+03  0.00000000000E+00 0.  1.
          5    1    1    2  502    0  0.37694769891E+02 -0.23251957594E+01  0.13905575812E+03  0.14416967808E+03  0.47000000000E+01 0. -1.
         -5    1    1    2    0  502  0.24611109039E+02  0.29597225968E+02 -0.88096178175E+01  0.39766843466E+02  0.47000000000E+01 0.  1.
        -11    1    1    2    0    0 -0.21885398179E+02  0.10399730501E+01  0.13400468319E+02  0.25683160798E+02  0.00000000000E+00 0. -1.
         11    1    1    2    0    0 -0.40420480752E+02 -0.28312003259E+02 -0.11873580686E+03  0.12858295619E+03  0.00000000000E+00 0.  1.
<mgrwt>
<rscale>  0 0.12535471E+03</rscale>
<asrwt>0</asrwt>
<pdfrwt beam="1">  1        1 0.27931803E-01 0.12987912E+03</pdfrwt>
<pdfrwt beam="2">  1       -1 0.24099372E-01 0.12987912E+03</pdfrwt>
<totfact> 0.23833939E+03</totfact>
</mgrwt>
</event>
<event>
 6    1  0.9263730E-006  0.1548422E+03  0.7546771E-02  0.1202944E+00
          1   -1    0    0  501    0  0.00000000000E+00  0.00000000000E+00  0.52005377598E+03  0.52005377598E+03  0.00000000000E+00 0.  1.
         -1   -1    0    0    0  501 -0.00000000000E+00 -0.00000000000E+00 -0.49323886975E+02  0.49323886975E+02  0.00000000000E+00 0. -1.
          5    1    1    2  502    0 -0.35256511888E+02 -0.26177690227E+00  0.15088917036E+02  0.38637489243E+02  0.47000000000E+01 0.  1.
         -5    1    1    2    0  502 -0.32504526279E+02  0.61580952832E+02  0.36803179181E+03  0.37459077373E+03  0.47000000000E+01 0.  1.
        -11    1    1    2    0    0 -0.67392915118E+01 -0.48449689012E+02  0.55582644155E+02  0.74042020142E+02  0.00000000000E+00 0.  1.
         11    1    1    2    0    0  0.74500329679E+02 -0.12869486918E+02  0.32026536004E+02  0.82107379840E+02  0.00000000000E+00 0. -1.
<mgrwt>
<rscale>  0 0.14800632E+03</rscale>
<asrwt>0</asrwt>
<pdfrwt beam="1">  1        1 0.80008270E-01 0.15484224E+03</pdfrwt>
<pdfrwt beam="2">  1       -1 0.75882907E-02 0.15484224E+03</pdfrwt>
<totfact> 0.38994928E+03</totfact>
</mgrwt>
</event>
<event>
 6    1  0.9263730E-006  0.1270247E+03  0.7546771E-02  0.1247534E+00
         -2   -1    0    0    0  501 -0.00000000000E+00  0.00000000000E+00  0.39828169629E+02  0.39828169629E+02  0.00000000000E+00 0. -1.
          2   -1    0    0  501    0  0.00000000000E+00 -0.00000000000E+00 -0.32370242311E+03  0.32370242311E+03  0.00000000000E+00 0.  1.
          5    1    1    2  502    0  0.17826155170E+02 -0.57616817025E+02 -0.10232075471E+03  0.11886587507E+03  0.47000000000E+01 0.  1.
         -5    1    1    2    0  502  0.30172933538E+01  0.66259492223E+02 -0.10636911651E+03  0.12544282887E+03  0.47000000000E+01 0.  1.
        -11    1    1    2    0    0 -0.39029220222E+02 -0.40001168501E+02 -0.50874373853E+02  0.75574965613E+02  0.00000000000E+00 0. -1.
         11    1    1    2    0    0  0.18185771698E+02  0.31358493303E+02 -0.24310008419E+02  0.43646923188E+02  0.00000000000E+00 0.  1.
<mgrwt>
<rscale>  0 0.11734993E+03</rscale>
<asrwt>0</asrwt>
<pdfrwt beam="2">  1        2 0.49800374E-01 0.12702472E+03</pdfrwt>
<pdfrwt beam="1">  1       -2 0.61274105E-02 0.12702472E+03</pdfrwt>
<totfact> 0.13505581E+04</totfact>
</mgrwt>
</event>
<event>
 6    1  0.9263730E-006  0.1438811E+03  0.7546771E-02  0.1218950E+00
         -2   -1    0    0    0  501 -0.00000000000E+00  0.00000000000E+00  0.63945904031E+02  0.63945904031E+02  0.00000000000E+00 0.  1.
          2   -1    0    0  501    0  0.00000000000E+00 -0.00000000000E+00 -0.26982043833E+03  0.26982043833E+03  0.00000000000E+00 0. -1.
          5    1    1    2  502    0 -0.34100236346E+02 -0.69873775620E+01  0.40615844297E+01  0.35358676900E+02  0.47000000000E+01 0.  1.
         -5    1    1    2    0  502  0.49180659773E+02 -0.62623984878E+02 -0.14819499913E+03  0.16829839139E+03  0.47000000000E+01 0.  1.
        -11    1    1    2    0    0 -0.76289371986E+00  0.42485812250E+02  0.16875603894E+02  0.45721026412E+02  0.00000000000E+00 0.  1.
         11    1    1    2    0    0 -0.14317529707E+02  0.27125550190E+02 -0.78616723494E+02  0.84388247659E+02  0.00000000000E+00 0. -1.
<mgrwt>
<rscale>  0 0.13590324E+03</rscale>
<asrwt>0</asrwt>
<pdfrwt beam="2">  1        2 0.41510836E-01 0.14388106E+03</pdfrwt>
<pdfrwt beam="1">  1       -2 0.98378316E-02 0.14388106E+03</pdfrwt>
<totfact> 0.79681991E+03</totfact>
</mgrwt>
</event>
<event>
 6    1  0.9263730E-006  0.1320363E+03  0.7546771E-02  0.1237747E+00
          2   -1    0    0  501    0  0.00000000000E+00  0.00000000000E+00  0.77482309118E+03  0.77482309118E+03  0.00000000000E+00 0.  1.
         -2   -1    0    0    0  501 -0.00000000000E+00 -0.00000000000E+00 -0.17710284205E+02  0.17710284205E+02  0.00000000000E+00 0. -1.
          5    1    1    2  502    0 -0.31800715260E+02  0.29476099305E+02  0.96426909950E+02  0.10583177634E+03  0.47000000000E+01 0. -1.
         -5    1    1    2    0  502  0.74256661054E+02 -0.31883546318E+02  0.38185166604E+03  0.39033754251E+03  0.47000000000E+01 0. -1.
        -11    1    1    2    0    0 -0.66695868013E+02  0.91007320170E+00  0.13596334773E+03  0.15144371551E+03  0.00000000000E+00 0. -1.
         11    1    1    2    0    0  0.24239922219E+02  0.14973738106E+01  0.14287088326E+03  0.14492034102E+03  0.00000000000E+00 0.  1.
<mgrwt>
<rscale>  0 0.12330183E+03</rscale>
<asrwt>0</asrwt>
<pdfrwt beam="1">  1        2 0.11920353E+00 0.13203635E+03</pdfrwt>
<pdfrwt beam="2">  1       -2 0.27246597E-02 0.13203635E+03</pdfrwt>
<totfact> 0.17139902E+04</totfact>
</mgrwt>
</event>
<event>
 6    1  0.1020630E-005  0.2889486E+03  0.7546771E-02  0.1092795E+00
          2   -1    0    0  501    0  0.00000000000E+00  0.00000000000E+00  0.11198449712E+04  0.11198449712E+04  0.00000000000E+00 0. -1.
         -2   -1    0    0    0  501 -0.00000000000E+00 -0.00000000000E+00 -0.71030671565E+02  0.71030671565E+02  0.00000000000E+00 0.  1.
          5    1    1    2  502    0 -0.41834152456E-02  0.16420242479E+02  0.16289035228E+03  0.16378333629E+03  0.47000000000E+01 0.  1.
         -5    1    1    2    0  502  0.22593747020E+02  0.24311045640E+03  0.39229580036E+03  0.46209442368E+03  0.47000000000E+01 0.  1.
        -11    1    1    2    0    0 -0.52454820849E+02 -0.16993761649E+03  0.35781351445E+03  0.39957579112E+03  0.00000000000E+00 0. -1.
         11    1    1    2    0    0  0.29865257245E+02 -0.89593082387E+02  0.13581463256E+03  0.16542209169E+03  0.00000000000E+00 0.  1.
<mgrwt>
<rscale>  0 0.28536293E+03</rscale>
<asrwt>0</asrwt>
<pdfrwt beam="1">  1        2 0.17228383E+00 0.28894862E+03</pdfrwt>
<pdfrwt beam="2">  1       -2 0.10927796E-01 0.28894862E+03</pdfrwt>
<totfact> 0.12800305E+03</totfact>
</mgrwt>
</event>
<event>
 6    1  0.9263730E-006  0.1645416E+03  0.7546771E-02  0.1190608E+00
          2   -1    0    0  501    0  0.00000000000E+00  0.00000000000E+00  0.48950010525E+03  0.48950010525E+03  0.00000000000E+00 0.  1.
         -2   -1    0    0    0  501 -0.00000000000E+00 -0.00000000000E+00 -0.50398993232E+02  0.50398993232E+02  0.00000000000E+00 0. -1.
          5    1    1    2  502    0  0.13470005026E+02  0.75535498214E+02  0.25943753223E+03  0.27058635527E+03  0.47000000000E+01 0.  1.
         -5    1    1    2    0  502  0.57854331941E+02  0.42089059809E+01  0.38537293505E+02  0.69800083127E+02  0.47000000000E+01 0.  1.
        -11    1    1    2    0    0 -0.32242962927E+02 -0.50641337868E+02  0.11628082057E+02  0.61150356105E+02  0.00000000000E+00 0. -1.
         11    1    1    2    0    0 -0.39081374040E+02 -0.29103066327E+02  0.12949820423E+03  0.13836230399E+03  0.00000000000E+00 0.  1.
<mgrwt>
<rscale>  0 0.15831879E+03</rscale>
<asrwt>0</asrwt>
<pdfrwt beam="1">  1        2 0.75307705E-01 0.16454158E+03</pdfrwt>
<pdfrwt beam="2">  1       -2 0.77536916E-02 0.16454158E+03</pdfrwt>
<totfact> 0.61466359E+03</totfact>
</mgrwt>
</event>
<event>
 6    1  0.9263730E-006  0.1949567E+03  0.7546771E-02  0.1158448E+00
          1   -1    0    0  501    0  0.00000000000E+00  0.00000000000E+00  0.10159822267E+04  0.10159822267E+04  0.00000000000E+00 0. -1.
         -1   -1    0    0    0  501 -0.00000000000E+00 -0.00000000000E+00 -0.33916375594E+02  0.33916375594E+02  0.00000000000E+00 0.  1.
          5    1    1    2  502    0 -0.87925687752E+02 -0.49843719146E+02  0.44204460632E+03  0.45347640168E+03  0.47000000000E+01 0. -1.
         -5    1    1    2    0  502 -0.60930217796E+02  0.34873461895E+02  0.97707731313E+02  0.12040573302E+03  0.47000000000E+01 0. -1.
        -11    1    1    2    0    0  0.34247141808E+00  0.20616414160E+02  0.11095387111E+03  0.11285351272E+03  0.00000000000E+00 0. -1.
         11    1    1    2    0    0  0.14851343413E+03 -0.56461569083E+01  0.33135964237E+03  0.36316295488E+03  0.00000000000E+00 0.  1.
<mgrwt>
<rscale>  0 0.19001460E+03</rscale>
<asrwt>0</asrwt>
<pdfrwt beam="1">  1        1 0.15630493E+00 0.19495671E+03</pdfrwt>
<pdfrwt beam="2">  1       -1 0.52179047E-02 0.19495671E+03</pdfrwt>
<totfact> 0.25536710E+03</totfact>
</mgrwt>
</event>
<event>
 6    1  0.9263730E-006  0.1411064E+03  0.7546771E-02  0.1223340E+00
          2   -1    0    0  501    0  0.00000000000E+00  0.00000000000E+00  0.16015210293E+03  0.16015210293E+03  0.00000000000E+00 0. -1.
         -2   -1    0    0    0  501 -0.00000000000E+00 -0.00000000000E+00 -0.10000552221E+03  0.10000552221E+03  0.00000000000E+00 0.  1.
          5    1    1    2  502    0 -0.48189441718E+01 -0.49297019191E+02  0.72731204746E+02  0.88121146542E+02  0.47000000000E+01 0. -1.
         -5    1    1    2    0  502 -0.13107399518E+01 -0.15838456275E+02 -0.51929804112E+02  0.54510267762E+02  0.47000000000E+01 0. -1.
        -11    1    1    2    0    0  0.10447104693E+02  0.43488416693E+02 -0.23778991988E+02  0.50653971640E+02  0.00000000000E+00 0.  1.
         11    1    1    2    0    0 -0.43174205699E+01  0.21647058772E+02  0.63124172079E+02  0.66872239192E+02  0.00000000000E+00 0. -1.
<mgrwt>
<rscale>  0 0.13281304E+03</rscale>
<asrwt>0</asrwt>
<pdfrwt beam="1">  1        2 0.24638785E-01 0.14110642E+03</pdfrwt>
<pdfrwt beam="2">  1       -2 0.15385465E-01 0.14110642E+03</pdfrwt>
<totfact> 0.68278005E+03</totfact>
</mgrwt>
</event>
<event>
 6    1  0.9263730E-006  0.1450758E+03  0.7546771E-02  0.1227541E+00
          1   -1    0    0  501    0  0.00000000000E+00  0.00000000000E+00  0.21866871175E+03  0.21866871175E+03  0.00000000000E+00 0. -1.
         -1   -1    0    0    0  501 -0.00000000000E+00 -0.00000000000E+00 -0.66617451371E+02  0.66617451371E+02  0.00000000000E+00 0.  1.
          5    1    1    2  502    0 -0.40683467695E+02 -0.47185327616E+02  0.40259605143E+02  0.74327151783E+02  0.47000000000E+01 0. -1.
         -5    1    1    2    0  502  0.52831834494E+02  0.62378358109E+02  0.73535498066E+02  0.11005372221E+03  0.47000000000E+01 0.  1.
        -11    1    1    2    0    0  0.33172324703E+02 -0.24053485859E+02  0.36208585279E+02  0.54681212094E+02  0.00000000000E+00 0. -1.
         11    1    1    2    0    0 -0.45320691501E+02  0.88604553665E+01  0.20475718962E+01  0.46224077039E+02  0.00000000000E+00 0.  1.
<mgrwt>
<rscale>  0 0.12994226E+03</rscale>
<asrwt>0</asrwt>
<pdfrwt beam="1">  1        1 0.33641340E-01 0.14507578E+03</pdfrwt>
<pdfrwt beam="2">  1       -1 0.10248839E-01 0.14507578E+03</pdfrwt>
<totfact> 0.73232214E+03</totfact>
</mgrwt>
</event>
<event>
 6    1  0.9263730E-006  0.1339118E+03  0.7546771E-02  0.1234520E+00
          4   -1    0    0  501    0  0.00000000000E+00  0.00000000000E+00  0.26924167383E+03  0.26924167383E+03  0.00000000000E+00 0. -1.
         -4   -1    0    0    0  501 -0.00000000000E+00 -0.00000000000E+00 -0.54213105204E+02  0.54213105204E+02  0.00000000000E+00 0.  1.
          5    1    1    2  502    0  0.44417932703E+02 -0.22417994720E+01  0.58816073160E+02  0.73887745076E+02  0.47000000000E+01 0. -1.
         -5    1    1    2    0  502 -0.85899747888E+02 -0.22001921464E+02  0.94395061239E+02  0.12959694758E+03  0.47000000000E+01 0. -1.
        -11    1    1    2    0    0  0.61192220748E+02  0.36591610163E+02  0.65017734475E+02  0.96492173831E+02  0.00000000000E+00 0. -1.
         11    1    1    2    0    0 -0.19710405564E+02 -0.12347889227E+02 -0.32003002502E+01  0.23477912546E+02  0.00000000000E+00 0.  1.
<mgrwt>
<rscale>  0 0.12535187E+03</rscale>
<asrwt>0</asrwt>
<pdfrwt beam="1">  1        4 0.41421795E-01 0.13391179E+03</pdfrwt>
<pdfrwt beam="2">  1       -4 0.83404779E-02 0.13391179E+03</pdfrwt>
<totfact> 0.96291589E+02</totfact>
</mgrwt>
</event>
<event>
 6    1  0.9263730E-006  0.1953358E+03  0.7546771E-02  0.1158201E+00
          1   -1    0    0  501    0  0.00000000000E+00  0.00000000000E+00  0.19294761646E+03  0.19294761646E+03  0.00000000000E+00 0. -1.
         -1   -1    0    0    0  501 -0.00000000000E+00 -0.00000000000E+00 -0.18468098183E+03  0.18468098183E+03  0.00000000000E+00 0.  1.
          5    1    1    2  502    0  0.88844067891E+02 -0.79800880738E+02  0.20235090552E+01  0.11953088954E+03  0.47000000000E+01 0.  1.
         -5    1    1    2    0  502 -0.35917007618E+02 -0.60687214956E+02  0.36586723696E+02  0.79584218575E+02  0.47000000000E+01 0.  1.
        -11    1    1    2    0    0 -0.19956648052E+02  0.92829133059E+02 -0.61095497437E+02  0.11290781883E+03  0.00000000000E+00 0.  1.
         11    1    1    2    0    0 -0.32970412222E+02  0.47658962635E+02  0.30751899311E+02  0.65605671345E+02  0.00000000000E+00 0. -1.
<mgrwt>
<rscale>  0 0.19028850E+03</rscale>
<asrwt>0</asrwt>
<pdfrwt beam="1">  1        1 0.29684249E-01 0.19533580E+03</pdfrwt>
<pdfrwt beam="2">  1       -1 0.28412459E-01 0.19533580E+03</pdfrwt>
<totfact> 0.17048349E+03</totfact>
</mgrwt>
</event>
<event>
 6    1  0.9263730E-006  0.2186017E+03  0.7546771E-02  0.1138261E+00
          1   -1    0    0  501    0  0.00000000000E+00  0.00000000000E+00  0.23622744057E+03  0.23622744057E+03  0.00000000000E+00 0. -1.
         -1   -1    0    0    0  501 -0.00000000000E+00 -0.00000000000E+00 -0.28030532259E+03  0.28030532259E+03  0.00000000000E+00 0.  1.
          5    1    1    2  502    0  0.12500795561E+03 -0.56875153738E+02  0.14229253127E+03  0.19781563774E+03  0.47000000000E+01 0. -1.
         -5    1    1    2    0  502  0.20617741873E+02 -0.47863617924E+02 -0.15907618346E+02  0.54691494057E+02  0.47000000000E+01 0. -1.
        -11    1    1    2    0    0 -0.29160763290E+02  0.44195538427E+02 -0.10443960610E+03  0.11709494888E+03  0.00000000000E+00 0.  1.
         11    1    1    2    0    0 -0.11646493419E+03  0.60543233235E+02 -0.66023188849E+02  0.14693068248E+03  0.00000000000E+00 0. -1.
<mgrwt>
<rscale>  0 0.21422757E+03</rscale>
<asrwt>0</asrwt>
<pdfrwt beam="1">  1        1 0.36342683E-01 0.21860170E+03</pdfrwt>
<pdfrwt beam="2">  1       -1 0.43123896E-01 0.21860170E+03</pdfrwt>
<totfact> 0.64186198E+02</totfact>
</mgrwt>
</event>
<event>
 6    1  0.9263730E-006  0.1278280E+03  0.7546771E-02  0.1245081E+00
          2   -1    0    0  501    0  0.00000000000E+00  0.00000000000E+00  0.43326316017E+03  0.43326316017E+03  0.00000000000E+00 0. -1.
         -2   -1    0    0    0  501 -0.00000000000E+00 -0.00000000000E+00 -0.32902910126E+02  0.32902910126E+02  0.00000000000E+00 0.  1.
          5    1    1    2  502    0  0.31018137466E+02  0.39417896851E+02  0.26202776157E+03  0.26682678515E+03  0.47000000000E+01 0.  1.
         -5    1    1    2    0  502 -0.44939935434E+02 -0.16610402969E+02  0.45631552939E+02  0.66331228748E+02  0.47000000000E+01 0.  1.
        -11    1    1    2    0    0  0.18313050674E+02  0.33331156828E+02  0.27947855903E+02  0.47195513453E+02  0.00000000000E+00 0. -1.
         11    1    1    2    0    0 -0.43912527055E+01 -0.56138650710E+02  0.64753079636E+02  0.85812542943E+02  0.00000000000E+00 0.  1.
<mgrwt>
<rscale>  0 0.11880533E+03</rscale>
<asrwt>0</asrwt>
<pdfrwt beam="1">  1        2 0.66655867E-01 0.12782804E+03</pdfrwt>
<pdfrwt beam="2">  1       -2 0.50619865E-02 0.12782804E+03</pdfrwt>
<totfact> 0.13216866E+04</totfact>
</mgrwt>
</event>
<event>
 6    1  0.9263730E-006  0.1417795E+03  0.7546771E-02  0.1216713E+00
         -1   -1    0    0    0  501 -0.00000000000E+00  0.00000000000E+00  0.72762667470E+02  0.72762667470E+02  0.00000000000E+00 0.  1.
          1   -1    0    0  501    0  0.00000000000E+00 -0.00000000000E+00 -0.24676230025E+03  0.24676230025E+03  0.00000000000E+00 0. -1.
          5    1    1    2  502    0  0.49507024711E+00 -0.40643185235E+02 -0.10419728715E+03  0.11194319207E+03  0.47000000000E+01 0. -1.
         -5    1    1    2    0  502 -0.50394515170E+01 -0.44668416375E+02  0.23763183320E+02  0.51063121473E+02  0.47000000000E+01 0.  1.
        -11    1    1    2    0    0  0.47456982969E+02  0.50657532263E+02 -0.61362071984E+02  0.92648015012E+02  0.00000000000E+00 0.  1.
         11    1    1    2    0    0 -0.42912601699E+02  0.34654069346E+02 -0.32203456960E+02  0.63870639163E+02  0.00000000000E+00 0. -1.
<mgrwt>
<rscale>  0 0.13751432E+03</rscale>
<asrwt>0</asrwt>
<pdfrwt beam="2">  1        1 0.37963431E-01 0.14177945E+03</pdfrwt>
<pdfrwt beam="1">  1       -1 0.11194257E-01 0.14177945E+03</pdfrwt>
<totfact> 0.54976004E+03</totfact>
</mgrwt>
</event>
<event>
 6    1  0.9263730E-006  0.3800484E+03  0.7546771E-02  0.1051873E+00
          2   -1    0    0  501    0  0.00000000000E+00  0.00000000000E+00  0.99349307128E+02  0.99349307128E+02  0.00000000000E+00 0. -1.
         -2   -1    0    0    0  501 -0.00000000000E+00 -0.00000000000E+00 -0.14505180711E+04  0.14505180711E+04  0.00000000000E+00 0.  1.
          5    1    1    2  502    0 -0.77672537765E+02 -0.17479686260E+03 -0.25567689117E+03  0.31934265135E+03  0.47000000000E+01 0. -1.
         -5    1    1    2    0  502  0.42514738246E+02 -0.18238306019E+03 -0.30765564606E+03  0.36020156880E+03  0.47000000000E+01 0. -1.
        -11    1    1    2    0    0  0.31032355838E+02  0.12228389544E+03 -0.37068996240E+03  0.39157043609E+03  0.00000000000E+00 0.  1.
         11    1    1    2    0    0  0.41254436810E+01  0.23489602734E+03 -0.41714626430E+03  0.47875272194E+03  0.00000000000E+00 0. -1.
<mgrwt>
<rscale>  0 0.37746842E+03</rscale>
<asrwt>0</asrwt>
<pdfrwt beam="1">  1        2 0.15284510E-01 0.38004842E+03</pdfrwt>
<pdfrwt beam="2">  1       -2 0.22315662E+00 0.38004842E+03</pdfrwt>
<totfact> 0.39002680E+01</totfact>
</mgrwt>
</event>
<event>
 6    1  0.9263730E-006  0.3373781E+03  0.7546771E-02  0.1067918E+00
         -1   -1    0    0    0  501 -0.00000000000E+00  0.00000000000E+00  0.26016929115E+02  0.26016929115E+02  0.00000000000E+00 0.  1.
          1   -1    0    0  501    0  0.00000000000E+00 -0.00000000000E+00 -0.10937488924E+04  0.10937488924E+04  0.00000000000E+00 0. -1.
          5    1    1    2  502    0 -0.12229356796E+02  0.10740034594E+03 -0.16955534674E+03  0.20113551920E+03  0.47000000000E+01 0. -1.
         -5    1    1    2    0  502 -0.10585486901E+02  0.11707726104E+02 -0.28761134618E+03  0.28808245319E+03  0.47000000000E+01 0. -1.
        -11    1    1    2    0    0 -0.28723020822E+02 -0.79762913286E+02 -0.43960102187E+03  0.44770100814E+03  0.00000000000E+00 0. -1.
         11    1    1    2    0    0  0.51537864519E+02 -0.39345158755E+02 -0.17096424852E+03  0.18284684102E+03  0.00000000000E+00 0.  1.
<mgrwt>
<rscale>  0 0.33737805E+03</rscale>
<asrwt>0</asrwt>
<pdfrwt beam="2">  1        1 0.16826904E+00 0.33737805E+03</pdfrwt>
<pdfrwt beam="1">  1       -1 0.40026049E-02 0.33737805E+03</pdfrwt>
<totfact> 0.33579544E+03</totfact>
</mgrwt>
</event>
<event>
 6    1  0.9263730E-006  0.1323440E+03  0.7546771E-02  0.1237105E+00
         -2   -1    0    0    0  501 -0.00000000000E+00  0.00000000000E+00  0.18897444067E+02  0.18897444067E+02  0.00000000000E+00 0.  1.
          2   -1    0    0  501    0  0.00000000000E+00 -0.00000000000E+00 -0.73207941633E+03  0.73207941633E+03  0.00000000000E+00 0. -1.
          5    1    1    2  502    0  0.10020641799E+02 -0.53881658696E+02 -0.31263932472E+03  0.31744146511E+03  0.47000000000E+01 0. -1.
         -5    1    1    2    0  502  0.33444891058E+02  0.54642847873E+02 -0.13779548498E+03  0.15203317810E+03  0.47000000000E+01 0. -1.
        -11    1    1    2    0    0 -0.53129607813E+02 -0.33325689859E+02 -0.12799265468E+03  0.14253236995E+03  0.00000000000E+00 0.  1.
         11    1    1    2    0    0  0.96640749558E+01  0.32564500682E+02 -0.13475450787E+03  0.13896984724E+03  0.00000000000E+00 0. -1.
<mgrwt>
<rscale>  0 0.12370653E+03</rscale>
<asrwt>0</asrwt>
<pdfrwt beam="2">  1        2 0.11262761E+00 0.13234396E+03</pdfrwt>
<pdfrwt beam="1">  1       -2 0.29072989E-02 0.13234396E+03</pdfrwt>
<totfact> 0.16700815E+04</totfact>
</mgrwt>
</event>
<event>
 6    1  0.9263730E-006  0.1251496E+03  0.7546771E-02  0.1249501E+00
         -2   -1    0    0    0  501 -0.00000000000E+00  0.00000000000E+00  0.23258775084E+03  0.23258775084E+03  0.00000000000E+00 0.  1.
          2   -1    0    0  501    0  0.00000000000E+00 -0.00000000000E+00 -0.51665760565E+02  0.51665760565E+02  0.00000000000E+00 0. -1.
          5    1    1    2  502    0  0.55811601223E+02  0.16665942864E+02  0.28513458647E+02  0.65021502648E+02  0.47000000000E+01 0. -1.
         -5    1    1    2    0  502 -0.61375439862E+02 -0.19490041726E+02  0.61195265064E+02  0.88959298620E+02  0.47000000000E+01 0. -1.
        -11    1    1    2    0    0  0.26886460055E+02 -0.12545517789E+02  0.98602252537E+02  0.10296929618E+03  0.00000000000E+00 0.  1.
         11    1    1    2    0    0 -0.21322621415E+02  0.15369616651E+02 -0.73889859702E+01  0.27303413957E+02  0.00000000000E+00 0. -1.
<mgrwt>
<rscale>  0 0.11620003E+03</rscale>
<asrwt>0</asrwt>
<pdfrwt beam="2">  1        2 0.79485787E-02 0.12514964E+03</pdfrwt>
<pdfrwt beam="1">  1       -2 0.35782730E-01 0.12514964E+03</pdfrwt>
<totfact> 0.59448836E+03</totfact>
</mgrwt>
</event>
<event>
 6    1  0.9263730E-006  0.1696004E+03  0.7546771E-02  0.1184380E+00
         -2   -1    0    0    0  501 -0.00000000000E+00  0.00000000000E+00  0.36837675255E+02  0.36837675255E+02  0.00000000000E+00 0. -1.
          2   -1    0    0  501    0  0.00000000000E+00 -0.00000000000E+00 -0.10102645929E+04  0.10102645929E+04  0.00000000000E+00 0.  1.
          5    1    1    2  502    0 -0.11246709820E+02  0.25503816405E+02 -0.57679735165E+03  0.57748957393E+03  0.47000000000E+01 0. -1.
         -5    1    1    2    0  502  0.10238812636E+02  0.89120153994E+02 -0.22954227096E+03  0.24649336561E+03  0.47000000000E+01 0. -1.
        -11    1    1    2    0    0  0.19631046354E+02 -0.11062258087E+03 -0.17007946663E+03  0.20383757835E+03  0.00000000000E+00 0.  1.
         11    1    1    2    0    0 -0.18623149170E+02 -0.40013895331E+01  0.29921715726E+01  0.19281750281E+02  0.00000000000E+00 0. -1.
<mgrwt>
<rscale>  0 0.16388400E+03</rscale>
<asrwt>0</asrwt>
<pdfrwt beam="2">  1        2 0.15542531E+00 0.16960041E+03</pdfrwt>
<pdfrwt beam="1">  1       -2 0.56673350E-02 0.16960041E+03</pdfrwt>
<totfact> 0.41247944E+03</totfact>
</mgrwt>
</event>
<event>
 6    1  0.9263730E-006  0.4387012E+03  0.7546771E-02  0.1031146E+00
         -2   -1    0    0    0  501 -0.00000000000E+00  0.00000000000E+00  0.77370956907E+02  0.77370956907E+02  0.00000000000E+00 0.  1.
          2   -1    0    0  501    0  0.00000000000E+00 -0.00000000000E+00 -0.62187014014E+03  0.62187014014E+03  0.00000000000E+00 0. -1.
          5    1    1    2  502    0  0.86907860185E+01  0.16826694694E+02  0.72896721530E+01  0.20830188094E+02  0.47000000000E+01 0.  1.
         -5    1    1    2    0  502 -0.10137598892E+03  0.14708490109E+03 -0.29699872790E+03  0.34661418556E+03  0.47000000000E+01 0.  1.
        -11    1    1    2    0    0  0.21526738247E+02 -0.21318134745E+02  0.11268058723E+01  0.30317206666E+02  0.00000000000E+00 0.  1.
         11    1    1    2    0    0  0.71158464659E+02 -0.14259346104E+03 -0.25591693336E+03  0.30147951672E+03  0.00000000000E+00 0. -1.
<mgrwt>
<rscale>  0 0.43870121E+03</rscale>
<asrwt>0</asrwt>
<pdfrwt beam="2">  1        2 0.95672333E-01 0.43870121E+03</pdfrwt>
<pdfrwt beam="1">  1       -2 0.11903224E-01 0.43870121E+03</pdfrwt>
<totfact> 0.24365533E+03</totfact>
</mgrwt>
</event>
<event>
 6    1  0.9263730E-006  0.1355977E+03  0.7546771E-02  0.1232155E+00
          1   -1    0    0  501    0  0.00000000000E+00  0.00000000000E+00  0.56043500694E+03  0.56043500694E+03  0.00000000000E+00 0. -1.
         -1   -1    0    0    0  501 -0.00000000000E+00 -0.00000000000E+00 -0.42012109073E+02  0.42012109073E+02  0.00000000000E+00 0.  1.
          5    1    1    2  502    0  0.14002347711E+02 -0.77034398421E+02  0.36330790264E+03  0.37167874085E+03  0.47000000000E+01 0. -1.
         -5    1    1    2    0  502  0.24952469504E+02  0.41747176755E+02  0.10403619044E+03  0.11493942502E+03  0.47000000000E+01 0. -1.
        -11    1    1    2    0    0  0.26791687006E+01  0.52048117464E+02  0.64140056364E+01  0.52510227049E+02  0.00000000000E+00 0.  1.
         11    1    1    2    0    0 -0.41633985916E+02 -0.16760895798E+02  0.44664799148E+02  0.63318723093E+02  0.00000000000E+00 0. -1.
<mgrwt>
<rscale>  0 0.12688314E+03</rscale>
<asrwt>0</asrwt>
<pdfrwt beam="1">  1        1 0.86220765E-01 0.13559771E+03</pdfrwt>
<pdfrwt beam="2">  1       -1 0.64634018E-02 0.13559771E+03</pdfrwt>
<totfact> 0.44660727E+03</totfact>
</mgrwt>
</event>
<event>
 6    1  0.9263730E-006  0.1610950E+03  0.7546771E-02  0.1194094E+00
          2   -1    0    0  501    0  0.00000000000E+00  0.00000000000E+00  0.43316222489E+02  0.43316222489E+02  0.00000000000E+00 0. -1.
         -2   -1    0    0    0  501 -0.00000000000E+00 -0.00000000000E+00 -0.53586997160E+03  0.53586997160E+03  0.00000000000E+00 0.  1.
          5    1    1    2  502    0  0.19519604433E+02 -0.37871615096E+02 -0.40148243106E+02  0.58730278491E+02  0.47000000000E+01 0.  1.
         -5    1    1    2    0  502  0.73772581448E+02  0.78180721076E+02 -0.27269320251E+03  0.29315233518E+03  0.47000000000E+01 0.  1.
        -11    1    1    2    0    0  0.34170310102E+01 -0.36475857149E+02 -0.23456503276E+02  0.43501399996E+02  0.00000000000E+00 0. -1.
         11    1    1    2    0    0 -0.96709216891E+02 -0.38332488309E+01 -0.15625580021E+03  0.18380218043E+03  0.00000000000E+00 0.  1.
<mgrwt>
<rscale>  0 0.15531161E+03</rscale>
<asrwt>0</asrwt>
<pdfrwt beam="1">  1        2 0.66640339E-02 0.16109501E+03</pdfrwt>
<pdfrwt beam="2">  1       -2 0.82441538E-01 0.16109501E+03</pdfrwt>
<totfact> 0.14007850E+03</totfact>
</mgrwt>
</event>
<event>
 6    1  0.9263730E-006  0.3568403E+03  0.7546771E-02  0.1059842E+00
          3   -1    0    0  501    0  0.00000000000E+00  0.00000000000E+00  0.58069676855E+02  0.58069676855E+02  0.00000000000E+00 0.  1.
         -3   -1    0    0    0  501 -0.00000000000E+00 -0.00000000000E+00 -0.54819934414E+03  0.54819934414E+03  0.00000000000E+00 0. -1.
          5    1    1    2  502    0 -0.21686354323E+02  0.21596449521E+02 -0.22299792206E+02  0.38158555112E+02  0.47000000000E+01 0. -1.
         -5    1    1    2    0  502  0.14322828005E+03  0.48462061302E+02 -0.26468478585E+03  0.30486560556E+03  0.47000000000E+01 0. -1.
        -11    1    1    2    0    0 -0.79391656299E+02 -0.93491459819E+01 -0.53053004506E+02  0.95943019067E+02  0.00000000000E+00 0.  1.
         11    1    1    2    0    0 -0.42150269427E+02 -0.60709364842E+02 -0.15009208472E+03  0.16730184126E+03  0.00000000000E+00 0. -1.
<mgrwt>
<rscale>  0 0.35684035E+03</rscale>
<asrwt>0</asrwt>
<pdfrwt beam="1">  1        3 0.89337965E-02 0.35684035E+03</pdfrwt>
<pdfrwt beam="2">  1       -3 0.84338360E-01 0.35684035E+03</pdfrwt>
<totfact> 0.30537685E+02</totfact>
</mgrwt>
</event>
<event>
 6    1  0.9263730E-006  0.1516221E+03  0.7546771E-02  0.1207002E+00
         -2   -1    0    0    0  501 -0.00000000000E+00  0.00000000000E+00  0.17923212680E+03  0.17923212680E+03  0.00000000000E+00 0.  1.
          2   -1    0    0  501    0  0.00000000000E+00 -0.00000000000E+00 -0.19151471398E+03  0.19151471398E+03  0.00000000000E+00 0. -1.
          5    1    1    2  502    0 -0.80167871434E+02  0.10135920131E+02 -0.14605816840E+03  0.16698713436E+03  0.47000000000E+01 0.  1.
         -5    1    1    2    0  502  0.25627202967E+01  0.26441339925E+02  0.17200083564E+02  0.31994450565E+02  0.47000000000E+01 0.  1.
        -11    1    1    2    0    0 -0.19425910789E+02 -0.19909751912E+01  0.36110515002E+02  0.41052396836E+02  0.00000000000E+00 0.  1.
         11    1    1    2    0    0  0.97031061927E+02 -0.34586284865E+02  0.80464982653E+02  0.13071285902E+03  0.00000000000E+00 0. -1.
<mgrwt>
<rscale>  0 0.14480797E+03</rscale>
<asrwt>0</asrwt>
<pdfrwt beam="2">  1        2 0.29463802E-01 0.15162211E+03</pdfrwt>
<pdfrwt beam="1">  1       -2 0.27574173E-01 0.15162211E+03</pdfrwt>
<totfact> 0.20846380E+03</totfact>
</mgrwt>
</event>
<event>
 6    1  0.9263730E-006  0.1271702E+03  0.7546771E-02  0.1247790E+00
          2   -1    0    0  501    0  0.00000000000E+00  0.00000000000E+00  0.22287132865E+02  0.22287132865E+02  0.00000000000E+00 0. -1.
         -2   -1    0    0    0  501 -0.00000000000E+00 -0.00000000000E+00 -0.53895713784E+03  0.53895713784E+03  0.00000000000E+00 0.  1.
          5    1    1    2  502    0 -0.44303352520E+02  0.54371022870E+01 -0.34676799167E+02  0.56717894233E+02  0.47000000000E+01 0. -1.
         -5    1    1    2    0  502  0.41189164083E+02 -0.28351978341E+02 -0.25115076528E+03  0.25612336640E+03  0.47000000000E+01 0. -1.
        -11    1    1    2    0    0 -0.32612052812E+01 -0.33835984238E+02 -0.10068219180E+03  0.10626576605E+03  0.00000000000E+00 0.  1.
         11    1    1    2    0    0  0.63753937182E+01  0.56750860292E+02 -0.13016024872E+03  0.14213724402E+03  0.00000000000E+00 0. -1.
<mgrwt>
<rscale>  0 0.11719958E+03</rscale>
<asrwt>0</asrwt>
<pdfrwt beam="1">  1        2 0.34287899E-02 0.12717019E+03</pdfrwt>
<pdfrwt beam="2">  1       -2 0.82916477E-01 0.12717019E+03</pdfrwt>
<totfact> 0.32553108E+03</totfact>
</mgrwt>
</event>
<event>
 6    1  0.9263730E-006  0.1393814E+03  0.7546771E-02  0.1225442E+00
         -2   -1    0    0    0  501 -0.00000000000E+00  0.00000000000E+00  0.25952373210E+03  0.25952373210E+03  0.00000000000E+00 0.  1.
          2   -1    0    0  501    0  0.00000000000E+00 -0.00000000000E+00 -0.60415652492E+02  0.60415652492E+02  0.00000000000E+00 0. -1.
          5    1    1    2  502    0  0.83929782125E+02 -0.20918843515E+02  0.74085652072E+02  0.11398499982E+03  0.47000000000E+01 0. -1.
         -5    1    1    2    0  502 -0.26417029781E+02  0.43160722250E+02  0.22429512060E+02  0.55550701335E+02  0.47000000000E+01 0. -1.
        -11    1    1    2    0    0 -0.16877329386E+02 -0.20937147305E+02  0.10623362860E+03  0.10958463500E+03  0.00000000000E+00 0.  1.
         11    1    1    2    0    0 -0.40635422958E+02 -0.13047314298E+01 -0.36407131172E+01  0.40819048434E+02  0.00000000000E+00 0. -1.
<mgrwt>
<rscale>  0 0.13136622E+03</rscale>
<asrwt>0</asrwt>
<pdfrwt beam="2">  1        2 0.92947160E-02 0.13938141E+03</pdfrwt>
<pdfrwt beam="1">  1       -2 0.39926727E-01 0.13938141E+03</pdfrwt>
<totfact> 0.40165159E+03</totfact>
</mgrwt>
</event>
<event>
 6    1  0.9263730E-006  0.1472432E+03  0.7546771E-02  0.1213289E+00
         -3   -1    0    0    0  501 -0.00000000000E+00  0.00000000000E+00  0.11174041771E+03  0.11174041771E+03  0.00000000000E+00 0.  1.
          3   -1    0    0  501    0  0.00000000000E+00 -0.00000000000E+00 -0.17212726694E+03  0.17212726694E+03  0.00000000000E+00 0. -1.
          5    1    1    2  502    0  0.93140013383E+02  0.46549109284E+02 -0.43759731258E+02  0.11304373378E+03  0.47000000000E+01 0. -1.
         -5    1    1    2    0  502 -0.40817804101E+02  0.11058015139E+02 -0.26256863614E+02  0.49998857160E+02  0.47000000000E+01 0. -1.
        -11    1    1    2    0    0 -0.46632740147E+02 -0.48883446556E+02  0.46824699449E+02  0.82199490748E+02  0.00000000000E+00 0.  1.
         11    1    1    2    0    0 -0.56894691356E+01 -0.87236778674E+01 -0.37194953808E+02  0.38625602951E+02  0.00000000000E+00 0. -1.
<mgrwt>
<rscale>  0 0.14002959E+03</rscale>
<asrwt>0</asrwt>
<pdfrwt beam="2">  1        3 0.26481118E-01 0.14724321E+03</pdfrwt>
<pdfrwt beam="1">  1       -3 0.17190834E-01 0.14724321E+03</pdfrwt>
<totfact> 0.92574005E+02</totfact>
</mgrwt>
</event>
<event>
 6    1  0.9263730E-006  0.1442192E+03  0.7546771E-02  0.1218237E+00
         -2   -1    0    0    0  501 -0.00000000000E+00  0.00000000000E+00  0.35559391195E+03  0.35559391195E+03  0.00000000000E+00 0.  1.
          2   -1    0    0  501    0  0.00000000000E+00 -0.00000000000E+00 -0.54581421175E+02  0.54581421175E+02  0.00000000000E+00 0. -1.
          5    1    1    2  502    0  0.77145916716E+02  0.37431139652E+02  0.11067740091E+02  0.86586185690E+02  0.47000000000E+01 0. -1.
         -5    1    1    2    0  502 -0.64100260894E+01 -0.24352677185E+02  0.79946656519E+02  0.83950575990E+02  0.47000000000E+01 0. -1.
        -11    1    1    2    0    0  0.10205301688E+01 -0.35540944059E+02  0.10219801908E+03  0.10820644755E+03  0.00000000000E+00 0.  1.
         11    1    1    2    0    0 -0.71756420795E+02  0.22462481591E+02  0.10780007508E+03  0.13143212390E+03  0.00000000000E+00 0. -1.
<mgrwt>
<rscale>  0 0.13641452E+03</rscale>
<asrwt>0</asrwt>
<pdfrwt beam="2">  1        2 0.83971419E-02 0.14421916E+03</pdfrwt>
<pdfrwt beam="1">  1       -2 0.54706754E-01 0.14421916E+03</pdfrwt>
<totfact> 0.24687708E+03</totfact>
</mgrwt>
</event>
<event>
 6    1  0.9263730E-006  0.3160342E+03  0.7546771E-02  0.1077489E+00
          2   -1    0    0  501    0  0.00000000000E+00  0.00000000000E+00  0.61304506816E+03  0.61304506816E+03  0.00000000000E+00 0. -1.
         -2   -1    0    0    0  501 -0.00000000000E+00 -0.00000000000E+00 -0.40730116914E+02  0.40730116914E+02  0.00000000000E+00 0.  1.
          5    1    1    2  502    0 -0.16002647819E+02  0.41995055043E+02  0.10388747183E+03  0.11328886172E+03  0.47000000000E+01 0.  1.
         -5    1    1    2    0  502  0.12040227366E+03 -0.83046098482E+01  0.23653202034E+03  0.26558456411E+03  0.47000000000E+01 0.  1.
        -11    1    1    2    0    0 -0.45359907975E+02 -0.41448339742E+02  0.38414892955E+02  0.72465095871E+02  0.00000000000E+00 0.  1.
         11    1    1    2    0    0 -0.59039717866E+02  0.77578945479E+01  0.19348056611E+03  0.20243666337E+03  0.00000000000E+00 0. -1.
<mgrwt>
<rscale>  0 0.31603416E+03</rscale>
<asrwt>0</asrwt>
<pdfrwt beam="1">  1        2 0.94314619E-01 0.31603416E+03</pdfrwt>
<pdfrwt beam="2">  1       -2 0.62661723E-02 0.31603416E+03</pdfrwt>
<totfact> 0.68170901E+03</totfact>
</mgrwt>
</event>
<event>
 6    1  0.9263730E-006  0.1402093E+03  0.7546771E-02  0.1220484E+00
         -2   -1    0    0    0  501 -0.00000000000E+00  0.00000000000E+00  0.16711381103E+02  0.16711381103E+02  0.00000000000E+00 0.  1.
          2   -1    0    0  501    0  0.00000000000E+00 -0.00000000000E+00 -0.11035705508E+04  0.11035705508E+04  0.00000000000E+00 0. -1.
          5    1    1    2  502    0 -0.60659977846E+01  0.23470967367E+02 -0.22846337698E+02  0.33641162056E+02  0.47000000000E+01 0. -1.
         -5    1    1    2    0  502  0.19899029322E+02  0.53978421632E+02 -0.72080413872E+03  0.72311156661E+03  0.47000000000E+01 0.  1.
        -11    1    1    2    0    0 -0.15426573396E+02 -0.96792326195E+02 -0.30930646859E+03  0.32446452054E+03  0.00000000000E+00 0. -1.
         11    1    1    2    0    0  0.15935418588E+01  0.19342937195E+02 -0.33902224655E+02  0.39064682663E+02  0.00000000000E+00 0.  1.
<mgrwt>
<rscale>  0 0.13481302E+03</rscale>
<asrwt>0</asrwt>
<pdfrwt beam="2">  1        2 0.16978013E+00 0.14020935E+03</pdfrwt>
<pdfrwt beam="1">  1       -2 0.25709810E-02 0.14020935E+03</pdfrwt>
<totfact> 0.11707612E+04</totfact>
</mgrwt>
</event>
<event>
 6    1  0.9263730E-006  0.1353200E+03  0.7546771E-02  0.1231865E+00
          2   -1    0    0  501    0  0.00000000000E+00  0.00000000000E+00  0.49054596856E+03  0.49054596856E+03  0.00000000000E+00 0. -1.
         -2   -1    0    0    0  501 -0.00000000000E+00 -0.00000000000E+00 -0.34065576633E+02  0.34065576633E+02  0.00000000000E+00 0.  1.
          5    1    1    2  502    0  0.58421296860E+02 -0.15885773243E+02  0.28553559539E+03  0.29192134549E+03  0.47000000000E+01 0. -1.
         -5    1    1    2    0  502 -0.40607787579E+02 -0.32792293016E+02  0.62913851502E+02  0.81881436260E+02  0.47000000000E+01 0. -1.
        -11    1    1    2    0    0  0.20462263975E+02  0.41746547013E+02  0.13229510702E+02  0.48337339479E+02  0.00000000000E+00 0.  1.
         11    1    1    2    0    0 -0.38275773256E+02  0.69315192453E+01  0.94801434335E+02  0.10247142396E+03  0.00000000000E+00 0. -1.
<mgrwt>
<rscale>  0 0.12707283E+03</rscale>
<asrwt>0</asrwt>
<pdfrwt beam="1">  1        2 0.75468605E-01 0.13532000E+03</pdfrwt>
<pdfrwt beam="2">  1       -2 0.52408583E-02 0.13532000E+03</pdfrwt>
<totfact> 0.11012413E+04</totfact>
</mgrwt>
</event>
<event>
 6    1  0.9263730E-006  0.6075709E+03  0.7546771E-02  0.9889822E-01
         -2   -1    0    0    0  501 -0.00000000000E+00  0.00000000000E+00  0.54497344316E+02  0.54497344316E+02  0.00000000000E+00 0.  1.
          2   -1    0    0  501    0  0.00000000000E+00 -0.00000000000E+00 -0.16933962039E+04  0.16933962039E+04  0.00000000000E+00 0. -1.
          5    1    1    2  502    0 -0.39979172791E+02  0.36784458786E+02 -0.16355663705E+04  0.16364751367E+04  0.47000000000E+01 0. -1.
         -5    1    1    2    0  502 -0.48167630505E+00 -0.97613179749E+00  0.12782413140E+01  0.49908662781E+01  0.47000000000E+01 0.  1.
        -11    1    1    2    0    0  0.67403950727E+02 -0.85064475319E+01 -0.17084178099E+01  0.67960068531E+02  0.00000000000E+00 0.  1.
         11    1    1    2    0    0 -0.26943101632E+02 -0.27301879457E+02 -0.29023125897E+01  0.38467476728E+02  0.00000000000E+00 0. -1.
<mgrwt>
<rscale>  0 0.60757089E+03</rscale>
<asrwt>0</asrwt>
<pdfrwt beam="2">  1        2 0.26052250E+00 0.60757089E+03</pdfrwt>
<pdfrwt beam="1">  1       -2 0.83842065E-02 0.60757089E+03</pdfrwt>
<totfact> 0.92399603E+02</totfact>
</mgrwt>
</event>
<event>
 6    1  0.9263730E-006  0.1295688E+03  0.7546771E-02  0.1241833E+00
         -3   -1    0    0    0  501 -0.00000000000E+00  0.00000000000E+00  0.30432438520E+02  0.30432438520E+02  0.00000000000E+00 0.  1.
          3   -1    0    0  501    0  0.00000000000E+00 -0.00000000000E+00 -0.74906492201E+03  0.74906492201E+03  0.00000000000E+00 0. -1.
          5    1    1    2  502    0  0.60001054424E+01  0.30054589714E+02 -0.44860884058E+02  0.54533187571E+02  0.47000000000E+01 0. -1.
         -5    1    1    2    0  502 -0.29809354933E+02 -0.54710895654E+02 -0.59797991917E+03  0.60123535614E+03  0.47000000000E+01 0. -1.
        -11    1    1    2    0    0  0.14696202934E+02 -0.34500462557E+02 -0.23545428209E+02  0.44279199257E+02  0.00000000000E+00 0.  1.
         11    1    1    2    0    0  0.91130465569E+01  0.59156768497E+02 -0.52246252051E+02  0.79449617557E+02  0.00000000000E+00 0. -1.
<mgrwt>
<rscale>  0 0.12076967E+03</rscale>
<asrwt>0</asrwt>
<pdfrwt beam="2">  1        3 0.11524077E+00 0.12956884E+03</pdfrwt>
<pdfrwt beam="1">  1       -3 0.46819132E-02 0.12956884E+03</pdfrwt>
<totfact> 0.38173834E+02</totfact>
</mgrwt>
</event>
<event>
 6    1  0.9263730E-006  0.1510355E+03  0.7546771E-02  0.1208638E+00
         -2   -1    0    0    0  501 -0.00000000000E+00  0.00000000000E+00  0.34940240764E+02  0.34940240764E+02  0.00000000000E+00 0.  1.
          2   -1    0    0  501    0  0.00000000000E+00 -0.00000000000E+00 -0.53989337328E+03  0.53989337328E+03  0.00000000000E+00 0. -1.
          5    1    1    2  502    0 -0.37886356116E+02 -0.82650340796E+02 -0.16928836505E+03  0.19221627235E+03  0.47000000000E+01 0. -1.
         -5    1    1    2    0  502 -0.38255195559E+02  0.45421851986E+02 -0.92722351892E+02  0.11020947856E+03  0.47000000000E+01 0. -1.
        -11    1    1    2    0    0  0.82868788024E+02  0.15110881729E+01 -0.13398550996E+03  0.15754883781E+03  0.00000000000E+00 0.  1.
         11    1    1    2    0    0 -0.67272363495E+01  0.35717400637E+02 -0.10895690561E+03  0.11485902532E+03  0.00000000000E+00 0. -1.
<mgrwt>
<rscale>  0 0.14354438E+03</rscale>
<asrwt>0</asrwt>
<pdfrwt beam="2">  1        2 0.83060506E-01 0.15103549E+03</pdfrwt>
<pdfrwt beam="1">  1       -2 0.53754225E-02 0.15103549E+03</pdfrwt>
<totfact> 0.96044174E+03</totfact>
</mgrwt>
</event>
<event>
 6    1  0.9263730E-006  0.1546513E+03  0.7546771E-02  0.1200789E+00
         -2   -1    0    0    0  501 -0.00000000000E+00  0.00000000000E+00  0.95718571518E+02  0.95718571518E+02  0.00000000000E+00 0. -1.
          2   -1    0    0  501    0  0.00000000000E+00 -0.00000000000E+00 -0.23840676769E+03  0.23840676769E+03  0.00000000000E+00 0.  1.
          5    1    1    2  502    0  0.67132440691E+01 -0.22344193169E+02 -0.84876129783E+02  0.88149747710E+02  0.47000000000E+01 0.  1.
         -5    1    1    2    0  502  0.64760292742E+02  0.78762891601E+02 -0.36363578848E+02  0.10835999481E+03  0.47000000000E+01 0.  1.
        -11    1    1    2    0    0 -0.87058097738E+02 -0.41288628398E+02 -0.44334278510E+02  0.10606314849E+03  0.00000000000E+00 0.  1.
         11    1    1    2    0    0  0.15584560927E+02 -0.15130070034E+02  0.22885790972E+02  0.31552448192E+02  0.00000000000E+00 0. -1.
<mgrwt>
<rscale>  0 0.14974317E+03</rscale>
<asrwt>0</asrwt>
<pdfrwt beam="2">  1        2 0.36677964E-01 0.15465126E+03</pdfrwt>
<pdfrwt beam="1">  1       -2 0.14725934E-01 0.15465126E+03</pdfrwt>
<totfact> 0.47875805E+03</totfact>
</mgrwt>
</event>
<event>
 6    1  0.9263730E-006  0.1644153E+03  0.7546771E-02  0.1190705E+00
         -2   -1    0    0    0  501 -0.00000000000E+00  0.00000000000E+00  0.33567836454E+02  0.33567836454E+02  0.00000000000E+00 0.  1.
          2   -1    0    0  501    0  0.00000000000E+00 -0.00000000000E+00 -0.79277221663E+03  0.79277221663E+03  0.00000000000E+00 0. -1.
          5    1    1    2  502    0  0.75092025776E+02 -0.70600108116E+02 -0.44799358183E+03  0.45972114044E+03  0.47000000000E+01 0.  1.
         -5    1    1    2    0  502  0.28092780806E+02  0.43031617672E+02 -0.10183654458E+03  0.11416521478E+03  0.47000000000E+01 0.  1.
        -11    1    1    2    0    0 -0.30917130554E+02  0.50742181964E+02 -0.12835484604E+03  0.14144116973E+03  0.00000000000E+00 0.  1.
         11    1    1    2    0    0 -0.72267676029E+02 -0.23173691520E+02 -0.81019407728E+02  0.11101252815E+03  0.00000000000E+00 0. -1.
<mgrwt>
<rscale>  0 0.15823422E+03</rscale>
<asrwt>0</asrwt>
<pdfrwt beam="2">  1        2 0.12196496E+00 0.16441527E+03</pdfrwt>
<pdfrwt beam="1">  1       -2 0.51642822E-02 0.16441527E+03</pdfrwt>
<totfact> 0.65283699E+03</totfact>
</mgrwt>
</event>
<event>
 6    1  0.9263730E-006  0.4114602E+03  0.7546771E-02  0.1080081E+00
          2   -1    0    0  501    0  0.00000000000E+00  0.00000000000E+00  0.96346076289E+03  0.96346076289E+03  0.00000000000E+00 0. -1.
         -2   -1    0    0    0  501 -0.00000000000E+00 -0.00000000000E+00 -0.78047714081E+02  0.78047714081E+02  0.00000000000E+00 0.  1.
          5    1    1    2  502    0 -0.13943209142E+03 -0.49815633997E+02  0.41231849994E+03  0.43812274638E+03  0.47000000000E+01 0. -1.
         -5    1    1    2    0  502  0.23439824374E+03  0.55740647865E+02  0.30361699698E+03  0.38762730470E+03  0.47000000000E+01 0.  1.
        -11    1    1    2    0    0 -0.58992468988E+01  0.34571961287E+02  0.54196094265E+02  0.64554149788E+02  0.00000000000E+00 0. -1.
         11    1    1    2    0    0 -0.89066905426E+02 -0.40496975155E+02  0.11528145763E+03  0.15120427610E+03  0.00000000000E+00 0.  1.
<mgrwt>
<rscale>  0 0.31055386E+03</rscale>
<asrwt>0</asrwt>
<pdfrwt beam="1">  1        2 0.14822472E+00 0.41146022E+03</pdfrwt>
<pdfrwt beam="2">  1       -2 0.12007341E-01 0.41146022E+03</pdfrwt>
<totfact> 0.13648406E+03</totfact>
</mgrwt>
</event>
<event>
 6    1  0.9263730E-006  0.1446149E+03  0.7546771E-02  0.1217509E+00
          2   -1    0    0  501    0  0.00000000000E+00  0.00000000000E+00  0.12581698945E+03  0.12581698945E+03  0.00000000000E+00 0. -1.
         -2   -1    0    0    0  501 -0.00000000000E+00 -0.00000000000E+00 -0.15333586706E+03  0.15333586706E+03  0.00000000000E+00 0.  1.
          5    1    1    2  502    0  0.31579341118E+02  0.91869836211E+01 -0.45986088224E+02  0.56731523544E+02  0.47000000000E+01 0. -1.
         -5    1    1    2    0  502  0.39428251612E+02 -0.24884032690E+02  0.78610274499E+02  0.91517579541E+02  0.47000000000E+01 0. -1.
        -11    1    1    2    0    0  0.99673969562E+01 -0.58194971502E+01 -0.44114562405E+02  0.45599453565E+02  0.00000000000E+00 0.  1.
         11    1    1    2    0    0 -0.80974989687E+02  0.21516546219E+02 -0.16028501476E+02  0.85304299866E+02  0.00000000000E+00 0. -1.
<mgrwt>
<rscale>  0 0.13693869E+03</rscale>
<asrwt>0</asrwt>
<pdfrwt beam="1">  1        2 0.19356460E-01 0.14461486E+03</pdfrwt>
<pdfrwt beam="2">  1       -2 0.23590133E-01 0.14461486E+03</pdfrwt>
<totfact> 0.43630285E+03</totfact>
</mgrwt>
</event>
<event>
 6    1  0.9263730E-006  0.2092226E+03  0.7546771E-02  0.1145970E+00
         -2   -1    0    0    0  501 -0.00000000000E+00  0.00000000000E+00  0.26825533098E+03  0.26825533098E+03  0.00000000000E+00 0.  1.
          2   -1    0    0  501    0  0.00000000000E+00 -0.00000000000E+00 -0.14938443864E+03  0.14938443864E+03  0.00000000000E+00 0. -1.
          5    1    1    2  502    0 -0.48134985389E+02 -0.15177786309E+02  0.31637064277E+02  0.59752287418E+02  0.47000000000E+01 0. -1.
         -5    1    1    2    0  502  0.34087809786E+02 -0.15201464684E+03  0.34016301695E+02  0.15952940297E+03  0.47000000000E+01 0. -1.
        -11    1    1    2    0    0  0.23834607656E+00  0.53804400787E+02  0.64014530791E+02  0.83623145751E+02  0.00000000000E+00 0. -1.
         11    1    1    2    0    0  0.13808829526E+02  0.11338803236E+03 -0.10797004422E+02  0.11473493348E+03  0.00000000000E+00 0.  1.
<mgrwt>
<rscale>  0 0.20453310E+03</rscale>
<asrwt>0</asrwt>
<pdfrwt beam="2">  1        2 0.22982221E-01 0.20922260E+03</pdfrwt>
<pdfrwt beam="1">  1       -2 0.41270051E-01 0.20922260E+03</pdfrwt>
<totfact> 0.13177455E+03</totfact>
</mgrwt>
</event>
<event>
 6    1  0.9263730E-006  0.2496457E+03  0.7546771E-02  0.1113529E+00
          1   -1    0    0  501    0  0.00000000000E+00  0.00000000000E+00  0.34262654913E+03  0.34262654913E+03  0.00000000000E+00 0. -1.
         -1   -1    0    0    0  501 -0.00000000000E+00 -0.00000000000E+00 -0.45474414371E+02  0.45474414371E+02  0.00000000000E+00 0.  1.
          5    1    1    2  502    0  0.71167056427E+01 -0.43680714958E+02  0.11540765905E+02  0.45977512287E+02  0.47000000000E+01 0. -1.
         -5    1    1    2    0  502  0.12022980914E+00  0.68263028548E+01  0.21739876460E+03  0.21755671839E+03  0.47000000000E+01 0. -1.
        -11    1    1    2    0    0 -0.48820838932E+02  0.29501209601E+02  0.19932718654E+02  0.60424406947E+02  0.00000000000E+00 0.  1.
         11    1    1    2    0    0  0.41583903480E+02  0.73532025021E+01  0.48279885603E+02  0.64142325881E+02  0.00000000000E+00 0. -1.
<mgrwt>
<rscale>  0 0.24964568E+03</rscale>
<asrwt>0</asrwt>
<pdfrwt beam="1">  1        1 0.52711775E-01 0.24964568E+03</pdfrwt>
<pdfrwt beam="2">  1       -1 0.69960640E-02 0.24964568E+03</pdfrwt>
<totfact> 0.77267802E+03</totfact>
</mgrwt>
</event>
<event>
 6    1  0.9263730E-006  0.1261182E+03  0.7546771E-02  0.1246025E+00
          4   -1    0    0  501    0  0.00000000000E+00  0.00000000000E+00  0.72206439708E+02  0.72206439708E+02  0.00000000000E+00 0. -1.
         -4   -1    0    0    0  501 -0.00000000000E+00 -0.00000000000E+00 -0.19705215589E+03  0.19705215589E+03  0.00000000000E+00 0.  1.
          5    1    1    2  502    0 -0.40472753522E+02  0.55356153183E+02  0.54559092422E+01  0.68950739072E+02  0.47000000000E+01 0.  1.
         -5    1    1    2    0  502  0.30500945565E+02 -0.41893611730E+02 -0.28260871325E+02  0.59212745522E+02  0.47000000000E+01 0.  1.
        -11    1    1    2    0    0 -0.75909747228E+01 -0.36141745157E+02 -0.10589776600E+03  0.11215250993E+03  0.00000000000E+00 0.  1.
         11    1    1    2    0    0  0.17562782680E+02  0.22679203704E+02  0.38570118989E+01  0.28942601074E+02  0.00000000000E+00 0. -1.
<mgrwt>
<rscale>  0 0.11824241E+03</rscale>
<asrwt>0</asrwt>
<pdfrwt beam="1">  1        4 0.11108683E-01 0.12611825E+03</pdfrwt>
<pdfrwt beam="2">  1       -4 0.30315716E-01 0.12611825E+03</pdfrwt>
<totfact> 0.10739269E+03</totfact>
</mgrwt>
</event>
<event>
 6    1  0.9263730E-006  0.1651412E+03  0.7546771E-02  0.1206417E+00
          2   -1    0    0  501    0  0.00000000000E+00  0.00000000000E+00  0.18643431093E+04  0.18643431093E+04  0.00000000000E+00 0. -1.
         -2   -1    0    0    0  501 -0.00000000000E+00 -0.00000000000E+00 -0.40274287263E+02  0.40274287263E+02  0.00000000000E+00 0.  1.
          5    1    1    2  502    0  0.21046968996E+02 -0.31946890309E+02  0.17855219496E+04  0.17859379332E+04  0.47000000000E+01 0. -1.
         -5    1    1    2    0  502  0.10696216315E+02  0.54994288935E+01  0.80415318071E+01  0.15212133165E+02  0.47000000000E+01 0.  1.
        -11    1    1    2    0    0 -0.24833806312E+02  0.59784905662E+02  0.17948699300E+02  0.67179674661E+02  0.00000000000E+00 0.  1.
         11    1    1    2    0    0 -0.69093789989E+01 -0.33337444247E+02  0.12556641403E+02  0.36287655620E+02  0.00000000000E+00 0. -1.
<mgrwt>
<rscale>  0 0.14526319E+03</rscale>
<asrwt>0</asrwt>
<pdfrwt beam="1">  1        2 0.28682195E+00 0.16514115E+03</pdfrwt>
<pdfrwt beam="2">  1       -2 0.61960456E-02 0.16514115E+03</pdfrwt>
<totfact> 0.12474182E+03</totfact>
</mgrwt>
</event>
<event>
 6    1  0.9263730E-006  0.3846383E+03  0.7546771E-02  0.1049233E+00
          1   -1    0    0  501    0  0.00000000000E+00  0.00000000000E+00  0.77029291323E+03  0.77029291323E+03  0.00000000000E+00 0. -1.
         -1   -1    0    0    0  501 -0.00000000000E+00 -0.00000000000E+00 -0.48016353371E+02  0.48016353371E+02  0.00000000000E+00 0.  1.
          5    1    1    2  502    0 -0.16160909766E+03  0.37045751710E+02  0.39908376094E+03  0.43218031701E+03  0.47000000000E+01 0. -1.
         -5    1    1    2    0  502  0.50113885725E+01 -0.16950616338E+02  0.44722580740E+01  0.18828927265E+02  0.47000000000E+01 0. -1.
        -11    1    1    2    0    0  0.12181423129E+03 -0.36178742527E+02  0.16162184226E+03  0.20559481572E+03  0.00000000000E+00 0.  1.
         11    1    1    2    0    0  0.34783477801E+02  0.16083607156E+02  0.15709869858E+03  0.16170520660E+03  0.00000000000E+00 0. -1.
<mgrwt>
<rscale>  0 0.38463831E+03</rscale>
<asrwt>0</asrwt>
<pdfrwt beam="1">  1        1 0.11850659E+00 0.38463831E+03</pdfrwt>
<pdfrwt beam="2">  1       -1 0.73871318E-02 0.38463831E+03</pdfrwt>
<totfact> 0.23837718E+03</totfact>
</mgrwt>
</event>
<event>
 6    1  0.9263730E-006  0.3782612E+03  0.7546771E-02  0.1052161E+00
          2   -1    0    0  501    0  0.00000000000E+00  0.00000000000E+00  0.21887499619E+04  0.21887499619E+04  0.00000000000E+00 0. -1.
         -2   -1    0    0    0  501 -0.00000000000E+00 -0.00000000000E+00 -0.67537592497E+02  0.67537592497E+02  0.00000000000E+00 0.  1.
          5    1    1    2  502    0 -0.11697871224E+03 -0.95693593724E+02  0.34520998266E+03  0.37687306235E+03  0.47000000000E+01 0. -1.
         -5    1    1    2    0  502 -0.16556998997E+03 -0.12253260936E+03  0.97066184252E+03  0.99228733967E+03  0.47000000000E+01 0. -1.
        -11    1    1    2    0    0  0.16783994282E+03  0.70689814606E+02  0.45421841345E+03  0.48936863754E+03  0.00000000000E+00 0.  1.
         11    1    1    2    0    0  0.11470875939E+03  0.14753638848E+03  0.35112213074E+03  0.39775851481E+03  0.00000000000E+00 0. -1.
<mgrwt>
<rscale>  0 0.37669875E+03</rscale>
<asrwt>0</asrwt>
<pdfrwt beam="1">  1        2 0.33673071E+00 0.37826121E+03</pdfrwt>
<pdfrwt beam="2">  1       -2 0.10390400E-01 0.37826121E+03</pdfrwt>
<totfact> 0.36208573E+02</totfact>
</mgrwt>
</event>
<event>
 6    1  0.9263730E-006  0.1267172E+03  0.7546771E-02  0.1294854E+00
          1   -1    0    0  501    0  0.00000000000E+00  0.00000000000E+00  0.53482550139E+02  0.53482550139E+02  0.00000000000E+00 0. -1.
         -1   -1    0    0    0  501 -0.00000000000E+00 -0.00000000000E+00 -0.24674719830E+03  0.24674719830E+03  0.00000000000E+00 0.  1.
          5    1    1    2  502    0 -0.75194560905E+01  0.11094796218E+02  0.49146808269E+02  0.51157946461E+02  0.47000000000E+01 0. -1.
         -5    1    1    2    0  502  0.17809259880E+02  0.70004946369E+01 -0.75816708279E+02  0.78335432065E+02  0.47000000000E+01 0. -1.
        -11    1    1    2    0    0  0.91059747821E+01 -0.14763100786E+02 -0.89814513967E+02  0.91474121153E+02  0.00000000000E+00 0.  1.
         11    1    1    2    0    0 -0.19395778571E+02 -0.33321900684E+01 -0.76780234180E+02  0.79262248756E+02  0.00000000000E+00 0. -1.
<mgrwt>
<rscale>  0 0.93385631E+02</rscale>
<asrwt>0</asrwt>
<pdfrwt beam="1">  1        1 0.82280848E-02 0.12671721E+03</pdfrwt>
<pdfrwt beam="2">  1       -1 0.37961107E-01 0.12671721E+03</pdfrwt>
<totfact> 0.53739865E+03</totfact>
</mgrwt>
</event>
<event>
 6    1  0.9263730E-006  0.1753605E+03  0.7546771E-02  0.1178154E+00
         -1   -1    0    0    0  501 -0.00000000000E+00  0.00000000000E+00  0.85299984738E+02  0.85299984738E+02  0.00000000000E+00 0.  1.
          1   -1    0    0  501    0  0.00000000000E+00 -0.00000000000E+00 -0.33419662008E+03  0.33419662008E+03  0.00000000000E+00 0. -1.
          5    1    1    2  502    0  0.26204215538E+02 -0.20431415658E+02 -0.58626950988E+02  0.67552298554E+02  0.47000000000E+01 0.  1.
         -5    1    1    2    0  502  0.12267878027E+02  0.13724288713E+03 -0.12024275214E+03  0.18293856986E+03  0.47000000000E+01 0.  1.
        -11    1    1    2    0    0 -0.29289241765E+02 -0.82061173453E+02  0.34594497239E+01  0.87200135688E+02  0.00000000000E+00 0.  1.
         11    1    1    2    0    0 -0.91828518003E+01 -0.34750298015E+02 -0.73486381937E+02  0.81805600722E+02  0.00000000000E+00 0. -1.
<mgrwt>
<rscale>  0 0.16970661E+03</rscale>
<asrwt>0</asrwt>
<pdfrwt beam="2">  1        1 0.51414865E-01 0.17536050E+03</pdfrwt>
<pdfrwt beam="1">  1       -1 0.13123075E-01 0.17536050E+03</pdfrwt>
<totfact> 0.29778914E+03</totfact>
</mgrwt>
</event>
<event>
 6    1  0.9263730E-006  0.1375622E+03  0.7546771E-02  0.1228535E+00
         -1   -1    0    0    0  501 -0.00000000000E+00  0.00000000000E+00  0.31892093174E+02  0.31892093174E+02  0.00000000000E+00 0.  1.
          1   -1    0    0  501    0  0.00000000000E+00 -0.00000000000E+00 -0.47430271021E+03  0.47430271021E+03  0.00000000000E+00 0. -1.
          5    1    1    2  502    0  0.57286333235E+02 -0.72208749367E+02 -0.13151257516E+03  0.16066572406E+03  0.47000000000E+01 0. -1.
         -5    1    1    2    0  502 -0.39435529280E+02  0.17628967494E+02 -0.92788037308E+02  0.10245804669E+03  0.47000000000E+01 0. -1.
        -11    1    1    2    0    0 -0.25103828804E+02  0.69187058302E+02 -0.21392742611E+03  0.22623438046E+03  0.00000000000E+00 0. -1.
         11    1    1    2    0    0  0.72530248500E+01 -0.14607276429E+02 -0.41825784537E+01  0.16836652181E+02  0.00000000000E+00 0.  1.
<mgrwt>
<rscale>  0 0.12927544E+03</rscale>
<asrwt>0</asrwt>
<pdfrwt beam="2">  1        1 0.72969642E-01 0.13756218E+03</pdfrwt>
<pdfrwt beam="1">  1       -1 0.49064762E-02 0.13756218E+03</pdfrwt>
<totfact> 0.83815459E+03</totfact>
</mgrwt>
</event>
<event>
 6    1  0.9263730E-006  0.1409464E+03  0.7546771E-02  0.1226035E+00
         -1   -1    0    0    0  501 -0.00000000000E+00  0.00000000000E+00  0.76812568247E+02  0.76812568247E+02  0.00000000000E+00 0.  1.
          1   -1    0    0  501    0  0.00000000000E+00 -0.00000000000E+00 -0.23351282682E+03  0.23351282682E+03  0.00000000000E+00 0. -1.
          5    1    1    2  502    0  0.44697069650E+02  0.92120242480E+01 -0.31894387982E+02  0.55875141259E+02  0.47000000000E+01 0. -1.
         -5    1    1    2    0  502 -0.88806196155E+02 -0.25482806694E+02 -0.11693056276E+03  0.14909983373E+03  0.47000000000E+01 0.  1.
        -11    1    1    2    0    0  0.36779155544E+02  0.37313704457E+02  0.30756014301E+02  0.60753199410E+02  0.00000000000E+00 0.  1.
         11    1    1    2    0    0  0.73299709608E+01 -0.21042922011E+02 -0.38631322129E+02  0.44597220659E+02  0.00000000000E+00 0. -1.
<mgrwt>
<rscale>  0 0.13096198E+03</rscale>
<asrwt>0</asrwt>
<pdfrwt beam="2">  1        1 0.35925050E-01 0.14094635E+03</pdfrwt>
<pdfrwt beam="1">  1       -1 0.11817318E-01 0.14094635E+03</pdfrwt>
<totfact> 0.54135152E+03</totfact>
</mgrwt>
</event>
<event>
 6    1  0.9263730E-006  0.1341770E+03  0.7546771E-02  0.1237992E+00
         -1   -1    0    0    0  501 -0.00000000000E+00  0.00000000000E+00  0.79076990242E+02  0.79076990242E+02  0.00000000000E+00 0.  1.
          1   -1    0    0  501    0  0.00000000000E+00 -0.00000000000E+00 -0.18368018398E+03  0.18368018398E+03  0.00000000000E+00 0. -1.
          5    1    1    2  502    0 -0.43234181934E+02  0.61699825544E+02 -0.14223551293E+02  0.76814467199E+02  0.47000000000E+01 0. -1.
         -5    1    1    2    0  502  0.22163679036E+02 -0.17708156353E+02 -0.85946736596E+02  0.90629680576E+02  0.47000000000E+01 0. -1.
        -11    1    1    2    0    0 -0.10467380934E+02 -0.55907265041E+02  0.11490871922E+02  0.58027825097E+02  0.00000000000E+00 0.  1.
         11    1    1    2    0    0  0.31537883832E+02  0.11915595850E+02 -0.15923777765E+02  0.37285201345E+02  0.00000000000E+00 0. -1.
<mgrwt>
<rscale>  0 0.12314845E+03</rscale>
<asrwt>0</asrwt>
<pdfrwt beam="2">  1        1 0.28258490E-01 0.13417696E+03</pdfrwt>
<pdfrwt beam="1">  1       -1 0.12165691E-01 0.13417696E+03</pdfrwt>
<totfact> 0.69522880E+03</totfact>
</mgrwt>
</event>
<event>
 6    1  0.9263730E-006  0.1353010E+03  0.7546771E-02  0.1231510E+00
         -2   -1    0    0    0  501 -0.00000000000E+00  0.00000000000E+00  0.22809739745E+02  0.22809739745E+02  0.00000000000E+00 0.  1.
          2   -1    0    0  501    0  0.00000000000E+00 -0.00000000000E+00 -0.65281321863E+03  0.65281321863E+03  0.00000000000E+00 0. -1.
          5    1    1    2  502    0 -0.46578470300E+02  0.34929509796E+02 -0.33084568125E+03  0.33596216952E+03  0.47000000000E+01 0. -1.
         -5    1    1    2    0  502 -0.23951043371E+01 -0.51889790507E+02 -0.71344992917E+02  0.88376947774E+02  0.47000000000E+01 0. -1.
        -11    1    1    2    0    0  0.38698208028E+02  0.49289791271E+02 -0.92115205766E+02  0.11141025968E+03  0.00000000000E+00 0.  1.
         11    1    1    2    0    0  0.10275366610E+02 -0.32329510561E+02 -0.13569759896E+03  0.13987358141E+03  0.00000000000E+00 0. -1.
<mgrwt>
<rscale>  0 0.12730488E+03</rscale>
<asrwt>0</asrwt>
<pdfrwt beam="2">  1        2 0.10043281E+00 0.13530095E+03</pdfrwt>
<pdfrwt beam="1">  1       -2 0.35091906E-02 0.13530095E+03</pdfrwt>
<totfact> 0.14519751E+04</totfact>
</mgrwt>
</event>
<event>
 6    1  0.9263730E-006  0.1419456E+03  0.7546771E-02  0.1219305E+00
          1   -1    0    0  501    0  0.00000000000E+00  0.00000000000E+00  0.35497924226E+03  0.35497924226E+03  0.00000000000E+00 0. -1.
         -1   -1    0    0    0  501 -0.00000000000E+00 -0.00000000000E+00 -0.52497936502E+02  0.52497936502E+02  0.00000000000E+00 0.  1.
          5    1    1    2  502    0  0.39721543760E+02 -0.65201322109E+02  0.18502227334E+03  0.20021075165E+03  0.47000000000E+01 0. -1.
         -5    1    1    2    0  502  0.31325410687E+02  0.41546097214E+02  0.39821805853E+02  0.65690378061E+02  0.47000000000E+01 0.  1.
        -11    1    1    2    0    0 -0.63372411853E+02 -0.25087542957E+02  0.53491918110E+02  0.86641980003E+02  0.00000000000E+00 0.  1.
         11    1    1    2    0    0 -0.76745425939E+01  0.48742767851E+02  0.24145308452E+02  0.54934069047E+02  0.00000000000E+00 0. -1.
<mgrwt>
<rscale>  0 0.13565018E+03</rscale>
<asrwt>0</asrwt>
<pdfrwt beam="1">  1        1 0.54612190E-01 0.14194559E+03</pdfrwt>
<pdfrwt beam="2">  1       -1 0.80766058E-02 0.14194559E+03</pdfrwt>
<totfact> 0.57582205E+03</totfact>
</mgrwt>
</event>
<event>
 6    1  0.9263730E-006  0.1279448E+03  0.7546771E-02  0.1244093E+00
         -2   -1    0    0    0  501 -0.00000000000E+00  0.00000000000E+00  0.25023031165E+02  0.25023031165E+02  0.00000000000E+00 0.  1.
          2   -1    0    0  501    0  0.00000000000E+00 -0.00000000000E+00 -0.50844628038E+03  0.50844628038E+03  0.00000000000E+00 0. -1.
          5    1    1    2  502    0 -0.19517554748E+02 -0.46684311981E+02 -0.25646890060E+03  0.26145505714E+03  0.47000000000E+01 0. -1.
         -5    1    1    2    0  502  0.11530917735E+02  0.20590024062E+02  0.11903029274E+01  0.24091865344E+02  0.47000000000E+01 0. -1.
        -11    1    1    2    0    0  0.12100887319E+02  0.60580898077E+02 -0.15806145436E+03  0.16970533298E+03  0.00000000000E+00 0. -1.
         11    1    1    2    0    0 -0.41142503059E+01 -0.34486610157E+02 -0.70083197182E+02  0.78217056087E+02  0.00000000000E+00 0.  1.
<mgrwt>
<rscale>  0 0.11939817E+03</rscale>
<asrwt>0</asrwt>
<pdfrwt beam="2">  1        2 0.78222501E-01 0.12794484E+03</pdfrwt>
<pdfrwt beam="1">  1       -2 0.38496973E-02 0.12794484E+03</pdfrwt>
<totfact> 0.16707645E+04</totfact>
</mgrwt>
</event>
<event>
 6    1  0.9263730E-006  0.1657959E+03  0.7546771E-02  0.1190251E+00
         -1   -1    0    0    0  501 -0.00000000000E+00  0.00000000000E+00  0.42521312070E+03  0.42521312070E+03  0.00000000000E+00 0.  1.
          1   -1    0    0  501    0  0.00000000000E+00 -0.00000000000E+00 -0.55466719402E+02  0.55466719402E+02  0.00000000000E+00 0. -1.
          5    1    1    2  502    0 -0.18759081039E+02  0.35334624774E+01 -0.15497963424E+02  0.25033284818E+02  0.47000000000E+01 0.  1.
         -5    1    1    2    0  502 -0.41010969137E+02 -0.94597341916E+02  0.18645325340E+03  0.21311373112E+03  0.47000000000E+01 0.  1.
        -11    1    1    2    0    0  0.25870365215E+02 -0.10975895610E+02  0.65535865175E+02  0.71307052281E+02  0.00000000000E+00 0.  1.
         11    1    1    2    0    0  0.33899684960E+02  0.10203977505E+03  0.13325524615E+03  0.17122577188E+03  0.00000000000E+00 0. -1.
<mgrwt>
<rscale>  0 0.15863063E+03</rscale>
<asrwt>0</asrwt>
<pdfrwt beam="2">  1        1 0.85333417E-02 0.16579593E+03</pdfrwt>
<pdfrwt beam="1">  1       -1 0.65417401E-01 0.16579593E+03</pdfrwt>
<totfact> 0.19159912E+03</totfact>
</mgrwt>
</event>
<event>
 6    1  0.9263730E-006  0.3121024E+03  0.7546771E-02  0.1079343E+00
         -2   -1    0    0    0  501 -0.00000000000E+00  0.00000000000E+00  0.29790699802E+02  0.29790699802E+02  0.00000000000E+00 0.  1.
          2   -1    0    0  501    0  0.00000000000E+00 -0.00000000000E+00 -0.81743551429E+03  0.81743551429E+03  0.00000000000E+00 0. -1.
          5    1    1    2  502    0  0.68129915982E+02 -0.71736228304E+02 -0.21632036573E+03  0.23791671344E+03  0.47000000000E+01 0.  1.
         -5    1    1    2    0  502  0.37695307920E+01  0.50297799784E+01 -0.35502868929E+03  0.35511542950E+03  0.47000000000E+01 0.  1.
        -11    1    1    2    0    0 -0.55356854589E+02  0.36138971794E+02 -0.46369936472E+02  0.80750093750E+02  0.00000000000E+00 0.  1.
         11    1    1    2    0    0 -0.16542592185E+02  0.30567476531E+02 -0.16992582300E+03  0.17344397741E+03  0.00000000000E+00 0. -1.
<mgrwt>
<rscale>  0 0.31210239E+03</rscale>
<asrwt>0</asrwt>
<pdfrwt beam="2">  1        2 0.12575930E+00 0.31210239E+03</pdfrwt>
<pdfrwt beam="1">  1       -2 0.45831850E-02 0.31210239E+03</pdfrwt>
<totfact> 0.77269248E+03</totfact>
</mgrwt>
</event>
<event>
 6    1  0.9263730E-006  0.1296218E+03  0.7546771E-02  0.1242274E+00
         -2   -1    0    0    0  501 -0.00000000000E+00  0.00000000000E+00  0.42295125474E+02  0.42295125474E+02  0.00000000000E+00 0.  1.
          2   -1    0    0  501    0  0.00000000000E+00 -0.00000000000E+00 -0.30475428866E+03  0.30475428866E+03  0.00000000000E+00 0. -1.
          5    1    1    2  502    0 -0.73255631811E+02 -0.11376005460E+02 -0.14761973133E+03  0.16525579013E+03  0.47000000000E+01 0.  1.
         -5    1    1    2    0  502  0.39554823588E+02  0.49388995619E+01 -0.15340624717E+02  0.42969775014E+02  0.47000000000E+01 0.  1.
        -11    1    1    2    0    0 -0.14066310937E+02  0.63084716339E+00  0.11282709843E+02  0.18043242861E+02  0.00000000000E+00 0.  1.
         11    1    1    2    0    0  0.47767119159E+02  0.58062587348E+01 -0.11078151698E+03  0.12078060613E+03  0.00000000000E+00 0. -1.
<mgrwt>
<rscale>  0 0.12050022E+03</rscale>
<asrwt>0</asrwt>
<pdfrwt beam="2">  1        2 0.46885275E-01 0.12962179E+03</pdfrwt>
<pdfrwt beam="1">  1       -2 0.65069424E-02 0.12962179E+03</pdfrwt>
<totfact> 0.13161902E+04</totfact>
</mgrwt>
</event>
<event>
 6    1  0.9263730E-006  0.3794243E+03  0.7546771E-02  0.1051147E+00
          2   -1    0    0  501    0  0.00000000000E+00  0.00000000000E+00  0.71961633161E+03  0.71961633161E+03  0.00000000000E+00 0. -1.
         -2   -1    0    0    0  501 -0.00000000000E+00 -0.00000000000E+00 -0.50013742715E+02  0.50013742715E+02  0.00000000000E+00 0.  1.
          5    1    1    2  502    0 -0.10464575108E+03 -0.33081763194E+02  0.52704212349E+03  0.53836848552E+03  0.47000000000E+01 0.  1.
         -5    1    1    2    0  502 -0.20243120309E+02  0.71357761549E+01  0.45712676891E+01  0.22443032537E+02  0.47000000000E+01 0.  1.
        -11    1    1    2    0    0  0.75836593023E+02  0.57634687681E+02  0.64880386687E+02  0.11524934118E+03  0.00000000000E+00 0.  1.
         11    1    1    2    0    0  0.49052278367E+02 -0.31688700642E+02  0.73108811037E+02  0.93569215091E+02  0.00000000000E+00 0. -1.
<mgrwt>
<rscale>  0 0.37942433E+03</rscale>
<asrwt>0</asrwt>
<pdfrwt beam="1">  1        2 0.11071020E+00 0.37942433E+03</pdfrwt>
<pdfrwt beam="2">  1       -2 0.76944225E-02 0.37942433E+03</pdfrwt>
<totfact> 0.40957808E+03</totfact>
</mgrwt>
</event>
<event>
 6    1  0.9263730E-006  0.2295586E+03  0.7546771E-02  0.1129470E+00
          2   -1    0    0  501    0  0.00000000000E+00  0.00000000000E+00  0.14574994480E+04  0.14574994480E+04  0.00000000000E+00 0. -1.
         -2   -1    0    0    0  501 -0.00000000000E+00 -0.00000000000E+00 -0.44540940427E+02  0.44540940427E+02  0.00000000000E+00 0.  1.
          5    1    1    2  502    0 -0.27618813041E+02  0.63909175804E+02  0.45467970174E+03  0.46000315516E+03  0.47000000000E+01 0. -1.
         -5    1    1    2    0  502  0.10735957981E+03  0.11134968965E+03  0.63353300548E+03  0.65215871672E+03  0.47000000000E+01 0. -1.
        -11    1    1    2    0    0  0.37489410346E+00 -0.43548925727E+02  0.15306432849E+03  0.15913936701E+03  0.00000000000E+00 0. -1.
         11    1    1    2    0    0 -0.80115660874E+02 -0.13170993973E+03  0.17168147183E+03  0.23073914949E+03  0.00000000000E+00 0.  1.
<mgrwt>
<rscale>  0 0.22602410E+03</rscale>
<asrwt>0</asrwt>
<pdfrwt beam="1">  1        2 0.22423065E+00 0.22955856E+03</pdfrwt>
<pdfrwt beam="2">  1       -2 0.68524535E-02 0.22955856E+03</pdfrwt>
<totfact> 0.17357263E+03</totfact>
</mgrwt>
</event>
<event>
 6    1  0.9263730E-006  0.4379396E+03  0.7546771E-02  0.1031381E+00
         -2   -1    0    0    0  501 -0.00000000000E+00  0.00000000000E+00  0.21857447052E+03  0.21857447052E+03  0.00000000000E+00 0. -1.
          2   -1    0    0  501    0  0.00000000000E+00 -0.00000000000E+00 -0.21936580198E+03  0.21936580198E+03  0.00000000000E+00 0.  1.
          5    1    1    2  502    0 -0.31808073171E+01  0.85731406218E+01 -0.15469609427E+03  0.15503737568E+03  0.47000000000E+01 0.  1.
         -5    1    1    2    0  502  0.64675767978E+02  0.25277166312E+02 -0.23043786733E+02  0.73314365627E+02  0.47000000000E+01 0.  1.
        -11    1    1    2    0    0 -0.40622003749E+01 -0.47368193802E+02  0.11292006849E+03  0.12252015803E+03  0.00000000000E+00 0. -1.
         11    1    1    2    0    0 -0.57432760286E+02  0.13517886868E+02  0.64028481051E+02  0.87068373163E+02  0.00000000000E+00 0.  1.
<mgrwt>
<rscale>  0 0.43793956E+03</rscale>
<asrwt>0</asrwt>
<pdfrwt beam="2">  1        2 0.33748585E-01 0.43793956E+03</pdfrwt>
<pdfrwt beam="1">  1       -2 0.33626842E-01 0.43793956E+03</pdfrwt>
<totfact> 0.12841540E+03</totfact>
</mgrwt>
</event>
<event>
 6    1  0.9263730E-006  0.1284890E+03  0.7546771E-02  0.1243862E+00
         -2   -1    0    0    0  501 -0.00000000000E+00  0.00000000000E+00  0.60222472386E+03  0.60222472386E+03  0.00000000000E+00 0.  1.
          2   -1    0    0  501    0  0.00000000000E+00 -0.00000000000E+00 -0.21639184761E+02  0.21639184761E+02  0.00000000000E+00 0. -1.
          5    1    1    2  502    0  0.44414528978E+02  0.44891937096E+02  0.76682650570E+02  0.99449762690E+02  0.47000000000E+01 0.  1.
         -5    1    1    2    0  502 -0.45121675709E+02 -0.15168745262E+02  0.19956225001E+03  0.20521510198E+03  0.47000000000E+01 0.  1.
        -11    1    1    2    0    0  0.41897895435E+02  0.49409224600E+01  0.14474545288E+03  0.15076834046E+03  0.00000000000E+00 0.  1.
         11    1    1    2    0    0 -0.41190748704E+02 -0.34664114294E+02  0.15959518563E+03  0.16843070348E+03  0.00000000000E+00 0. -1.
<mgrwt>
<rscale>  0 0.11953748E+03</rscale>
<asrwt>0</asrwt>
<pdfrwt beam="2">  1        2 0.33291058E-02 0.12848904E+03</pdfrwt>
<pdfrwt beam="1">  1       -2 0.92649945E-01 0.12848904E+03</pdfrwt>
<totfact> 0.26460940E+03</totfact>
</mgrwt>
</event>
<event>
 6    1  0.9263730E-006  0.1315913E+03  0.7546771E-02  0.1239646E+00
          1   -1    0    0  501    0  0.00000000000E+00  0.00000000000E+00  0.79176580202E+03  0.79176580202E+03  0.00000000000E+00 0. -1.
         -1   -1    0    0    0  501 -0.00000000000E+00 -0.00000000000E+00 -0.20555027055E+02  0.20555027055E+02  0.00000000000E+00 0.  1.
          5    1    1    2  502    0 -0.38301672405E+02  0.21501366008E+02  0.45158914378E+03  0.45374461058E+03  0.47000000000E+01 0.  1.
         -5    1    1    2    0  502  0.60766851076E+02  0.12950773631E+02  0.15708100908E+03  0.16898776920E+03  0.47000000000E+01 0.  1.
        -11    1    1    2    0    0 -0.13614986324E+02 -0.57808871324E+02  0.61456687138E+02  0.85464365968E+02  0.00000000000E+00 0.  1.
         11    1    1    2    0    0 -0.88501923464E+01  0.23356731685E+02  0.10108393496E+03  0.10412408332E+03  0.00000000000E+00 0. -1.
<mgrwt>
<rscale>  0 0.12211657E+03</rscale>
<asrwt>0</asrwt>
<pdfrwt beam="1">  1        1 0.12181010E+00 0.13159127E+03</pdfrwt>
<pdfrwt beam="2">  1       -1 0.31623125E-02 0.13159127E+03</pdfrwt>
<totfact> 0.78616889E+03</totfact>
</mgrwt>
</event>
<event>
 6    1  0.9263730E-006  0.1466629E+03  0.7546771E-02  0.1214232E+00
          2   -1    0    0  501    0  0.00000000000E+00  0.00000000000E+00  0.82893608102E+03  0.82893608102E+03  0.00000000000E+00 0. -1.
         -2   -1    0    0    0  501 -0.00000000000E+00 -0.00000000000E+00 -0.30695090240E+02  0.30695090240E+02  0.00000000000E+00 0.  1.
          5    1    1    2  502    0  0.55830568429E+02 -0.22661009904E+01  0.29115448319E+03  0.29650499265E+03  0.47000000000E+01 0.  1.
         -5    1    1    2    0  502 -0.44035229000E+02  0.78075532163E+02  0.37252542048E+03  0.38318685914E+03  0.47000000000E+01 0.  1.
        -11    1    1    2    0    0  0.21650698763E+02 -0.23553891024E+02  0.25323016985E+00  0.31993791036E+02  0.00000000000E+00 0.  1.
         11    1    1    2    0    0 -0.33446038192E+02 -0.52255540148E+02  0.13430785694E+03  0.14794552843E+03  0.00000000000E+00 0. -1.
<mgrwt>
<rscale>  0 0.13933132E+03</rscale>
<asrwt>0</asrwt>
<pdfrwt beam="1">  1        2 0.12752861E+00 0.14666287E+03</pdfrwt>
<pdfrwt beam="2">  1       -2 0.47223222E-02 0.14666287E+03</pdfrwt>
<totfact> 0.70240078E+03</totfact>
</mgrwt>
</event>
<event>
 6    1  0.9263730E-006  0.1707418E+03  0.7546771E-02  0.1183362E+00
         -2   -1    0    0    0  501 -0.00000000000E+00  0.00000000000E+00  0.19861626075E+02  0.19861626075E+02  0.00000000000E+00 0.  1.
          2   -1    0    0  501    0  0.00000000000E+00 -0.00000000000E+00 -0.14063762500E+04  0.14063762500E+04  0.00000000000E+00 0. -1.
          5    1    1    2  502    0 -0.58222035249E+02 -0.13770911422E+02 -0.55396189937E+03  0.55720312216E+03  0.47000000000E+01 0. -1.
         -5    1    1    2    0  502  0.19854794768E+02 -0.96023655417E+02 -0.39639327487E+03  0.40836806148E+03  0.47000000000E+01 0. -1.
        -11    1    1    2    0    0  0.62960296049E+02  0.53492709651E+02 -0.19448907608E+03  0.21130894344E+03  0.00000000000E+00 0.  1.
         11    1    1    2    0    0 -0.24593055567E+02  0.56301857188E+02 -0.24167037362E+03  0.24935774900E+03  0.00000000000E+00 0. -1.
<mgrwt>
<rscale>  0 0.16481821E+03</rscale>
<asrwt>0</asrwt>
<pdfrwt beam="2">  1        2 0.21636563E+00 0.17074177E+03</pdfrwt>
<pdfrwt beam="1">  1       -2 0.30556340E-02 0.17074177E+03</pdfrwt>
<totfact> 0.62405448E+03</totfact>
</mgrwt>
</event>
<event>
 6    1  0.9263730E-006  0.2768994E+03  0.7546771E-02  0.1097395E+00
         -2   -1    0    0    0  501 -0.00000000000E+00  0.00000000000E+00  0.34340688647E+02  0.34340688647E+02  0.00000000000E+00 0.  1.
          2   -1    0    0  501    0  0.00000000000E+00 -0.00000000000E+00 -0.55818095634E+03  0.55818095634E+03  0.00000000000E+00 0. -1.
          5    1    1    2  502    0  0.65371244049E+02  0.10121900497E+02 -0.78888367707E+02  0.10305977381E+03  0.47000000000E+01 0.  1.
         -5    1    1    2    0  502 -0.17320128387E+01  0.11833960666E+02 -0.32147790289E+03  0.32173463373E+03  0.47000000000E+01 0.  1.
        -11    1    1    2    0    0  0.18687677704E+02 -0.21205398514E+02 -0.16461952950E+02  0.32709235990E+02  0.00000000000E+00 0.  1.
         11    1    1    2    0    0 -0.82326908915E+02 -0.75046264943E+00 -0.10701204414E+03  0.13501800145E+03  0.00000000000E+00 0. -1.
<mgrwt>
<rscale>  0 0.27689939E+03</rscale>
<asrwt>0</asrwt>
<pdfrwt beam="2">  1        2 0.85873990E-01 0.27689939E+03</pdfrwt>
<pdfrwt beam="1">  1       -2 0.52831831E-02 0.27689939E+03</pdfrwt>
<totfact> 0.98312069E+03</totfact>
</mgrwt>
</event>
<event>
 6    1  0.9263730E-006  0.1282899E+03  0.7546771E-02  0.1244681E+00
          2   -1    0    0  501    0  0.00000000000E+00  0.00000000000E+00  0.16833570739E+03  0.16833570739E+03  0.00000000000E+00 0. -1.
         -2   -1    0    0    0  501 -0.00000000000E+00 -0.00000000000E+00 -0.75697442298E+02  0.75697442298E+02  0.00000000000E+00 0.  1.
          5    1    1    2  502    0 -0.62123964357E+02 -0.14586466777E+02  0.73924345715E+02  0.97770398638E+02  0.47000000000E+01 0.  1.
         -5    1    1    2    0  502  0.47165749374E+02 -0.10103156485E+02 -0.34778060630E+01  0.48588751991E+02  0.47000000000E+01 0.  1.
        -11    1    1    2    0    0 -0.15491743030E+02  0.21335189414E+02  0.49855158782E+02  0.56397883530E+02  0.00000000000E+00 0. -1.
         11    1    1    2    0    0  0.30449958013E+02  0.33544338476E+01 -0.27663433339E+02  0.41276115533E+02  0.00000000000E+00 0.  1.
<mgrwt>
<rscale>  0 0.11904516E+03</rscale>
<asrwt>0</asrwt>
<pdfrwt beam="1">  1        2 0.25897801E-01 0.12828985E+03</pdfrwt>
<pdfrwt beam="2">  1       -2 0.11645760E-01 0.12828985E+03</pdfrwt>
<totfact> 0.10059769E+04</totfact>
</mgrwt>
</event>
<event>
 6    1  0.9263730E-006  0.1284601E+03  0.7546771E-02  0.1243816E+00
         -1   -1    0    0    0  501 -0.00000000000E+00  0.00000000000E+00  0.59307028033E+02  0.59307028033E+02  0.00000000000E+00 0.  1.
          1   -1    0    0  501    0  0.00000000000E+00 -0.00000000000E+00 -0.22352437098E+03  0.22352437098E+03  0.00000000000E+00 0. -1.
          5    1    1    2  502    0  0.88951151844E+01  0.35397596952E+02 -0.11966582058E+03  0.12519629211E+03  0.47000000000E+01 0.  1.
         -5    1    1    2    0  502  0.16975154754E+02 -0.49797176965E+02 -0.37674775612E+01  0.52954684399E+02  0.47000000000E+01 0.  1.
        -11    1    1    2    0    0 -0.24212393023E+02  0.43337205883E+02  0.56287923726E+01  0.49960351212E+02  0.00000000000E+00 0.  1.
         11    1    1    2    0    0 -0.16578769149E+01 -0.28937625870E+02 -0.46412837181E+02  0.54720071290E+02  0.00000000000E+00 0. -1.
<mgrwt>
<rscale>  0 0.11956533E+03</rscale>
<asrwt>0</asrwt>
<pdfrwt beam="2">  1        1 0.34388365E-01 0.12846008E+03</pdfrwt>
<pdfrwt beam="1">  1       -1 0.91241581E-02 0.12846008E+03</pdfrwt>
<totfact> 0.84344688E+03</totfact>
</mgrwt>
</event>
<event>
 6    1  0.9263730E-006  0.1368906E+03  0.7546771E-02  0.1228538E+00
          3   -1    0    0  501    0  0.00000000000E+00  0.00000000000E+00  0.99553341731E+02  0.99553341731E+02  0.00000000000E+00 0. -1.
         -3   -1    0    0    0  501 -0.00000000000E+00 -0.00000000000E+00 -0.17394612854E+03  0.17394612854E+03  0.00000000000E+00 0.  1.
          5    1    1    2  502    0  0.26920799319E+02 -0.23360043196E+02 -0.49064828113E+02  0.60826543645E+02  0.47000000000E+01 0. -1.
         -5    1    1    2    0  502 -0.40203663069E+02 -0.30852141949E+02  0.56823640805E+02  0.76283716095E+02  0.47000000000E+01 0. -1.
        -11    1    1    2    0    0 -0.26109857117E+02  0.59217537167E+02 -0.68896175093E+02  0.94525786371E+02  0.00000000000E+00 0.  1.
         11    1    1    2    0    0  0.39392720867E+02 -0.50053520217E+01 -0.13255424411E+02  0.41863424161E+02  0.00000000000E+00 0. -1.
<mgrwt>
<rscale>  0 0.12927342E+03</rscale>
<asrwt>0</asrwt>
<pdfrwt beam="1">  1        3 0.15315899E-01 0.13689056E+03</pdfrwt>
<pdfrwt beam="2">  1       -3 0.26760943E-01 0.13689056E+03</pdfrwt>
<totfact> 0.10958689E+03</totfact>
</mgrwt>
</event>
<event>
 6    1  0.9263730E-006  0.1353864E+03  0.7546771E-02  0.1232138E+00
          2   -1    0    0  501    0  0.00000000000E+00  0.00000000000E+00  0.27331370692E+03  0.27331370692E+03  0.00000000000E+00 0.  1.
         -2   -1    0    0    0  501 -0.00000000000E+00 -0.00000000000E+00 -0.52885041507E+02  0.52885041507E+02  0.00000000000E+00 0. -1.
          5    1    1    2  502    0  0.18052574831E+01 -0.34413869952E+02  0.13352402254E+03  0.13797944772E+03  0.47000000000E+01 0.  1.
         -5    1    1    2    0  502 -0.50681510712E+02  0.16789994203E+02  0.20759985624E+01  0.53636920152E+02  0.47000000000E+01 0.  1.
        -11    1    1    2    0    0  0.69580552957E+02 -0.38799251496E+01  0.76727987761E+02  0.10365177893E+03  0.00000000000E+00 0.  1.
         11    1    1    2    0    0 -0.20704299729E+02  0.21503800899E+02  0.81006565563E+01  0.30930601627E+02  0.00000000000E+00 0. -1.
<mgrwt>
<rscale>  0 0.12689418E+03</rscale>
<asrwt>0</asrwt>
<pdfrwt beam="1">  1        2 0.42048262E-01 0.13538636E+03</pdfrwt>
<pdfrwt beam="2">  1       -2 0.81361604E-02 0.13538636E+03</pdfrwt>
<totfact> 0.10521342E+04</totfact>
</mgrwt>
</event>
<event>
 6    1  0.9263730E-006  0.1228494E+03  0.7546771E-02  0.1250568E+00
         -1   -1    0    0    0  501 -0.00000000000E+00  0.00000000000E+00  0.59793174210E+02  0.59793174210E+02  0.00000000000E+00 0.  1.
          1   -1    0    0  501    0  0.00000000000E+00 -0.00000000000E+00 -0.22231648460E+03  0.22231648460E+03  0.00000000000E+00 0. -1.
          5    1    1    2  502    0  0.31100252315E+02 -0.22288155113E+02 -0.22571448420E+01  0.38615699596E+02  0.47000000000E+01 0. -1.
         -5    1    1    2    0  502 -0.19631726530E+02  0.52389671623E+02 -0.13156754143E+03  0.14304611262E+03  0.47000000000E+01 0.  1.
        -11    1    1    2    0    0 -0.33977773837E+01  0.28438335850E+02  0.93926164064E+01  0.30141418017E+02  0.00000000000E+00 0.  1.
         11    1    1    2    0    0 -0.80707484015E+01 -0.58539852361E+02 -0.38091240530E+02  0.70306428577E+02  0.00000000000E+00 0. -1.
<mgrwt>
<rscale>  0 0.11558252E+03</rscale>
<asrwt>0</asrwt>
<pdfrwt beam="2">  1        1 0.34202536E-01 0.12284937E+03</pdfrwt>
<pdfrwt beam="1">  1       -1 0.91989499E-02 0.12284937E+03</pdfrwt>
<totfact> 0.83583522E+03</totfact>
</mgrwt>
</event>
<event>
 6    1  0.9263730E-006  0.2679873E+03  0.7546771E-02  0.1102437E+00
          4   -1    0    0  501    0  0.00000000000E+00  0.00000000000E+00  0.40676665068E+03  0.40676665068E+03  0.00000000000E+00 0. -1.
         -4   -1    0    0    0  501 -0.00000000000E+00 -0.00000000000E+00 -0.44139052514E+02  0.44139052514E+02  0.00000000000E+00 0.  1.
          5    1    1    2  502    0 -0.58368326365E+02  0.47135678131E+02  0.21210305428E+03  0.22502984094E+03  0.47000000000E+01 0. -1.
         -5    1    1    2    0  502  0.11034825373E+02  0.14965005653E+02 -0.12650397832E+02  0.22974797725E+02  0.47000000000E+01 0. -1.
        -11    1    1    2    0    0  0.62087573266E+02 -0.92410813161E+01  0.10902022004E+03  0.12580013003E+03  0.00000000000E+00 0.  1.
         11    1    1    2    0    0 -0.14754072275E+02 -0.52859602468E+02  0.54154721677E+02  0.77100934506E+02  0.00000000000E+00 0. -1.
<mgrwt>
<rscale>  0 0.26798727E+03</rscale>
<asrwt>0</asrwt>
<pdfrwt beam="1">  1        4 0.62579482E-01 0.26798727E+03</pdfrwt>
<pdfrwt beam="2">  1       -4 0.67906237E-02 0.26798727E+03</pdfrwt>
<totfact> 0.65650904E+02</totfact>
</mgrwt>
</event>
<event>
 6    1  0.9263730E-006  0.2365515E+03  0.7546771E-02  0.1124704E+00
          2   -1    0    0  501    0  0.00000000000E+00  0.00000000000E+00  0.16400123329E+03  0.16400123329E+03  0.00000000000E+00 0. -1.
         -2   -1    0    0    0  501 -0.00000000000E+00 -0.00000000000E+00 -0.32781810060E+03  0.32781810060E+03  0.00000000000E+00 0.  1.
          5    1    1    2  502    0  0.12828226486E+03  0.12987780226E+03  0.53754676171E+01  0.18268981540E+03  0.47000000000E+01 0. -1.
         -5    1    1    2    0  502  0.25404357915E+02 -0.59865161906E+00 -0.52491909122E+02  0.58508378102E+02  0.47000000000E+01 0. -1.
        -11    1    1    2    0    0 -0.78455626613E+02 -0.41141197000E+02 -0.99915217165E+02  0.13353252060E+03  0.00000000000E+00 0.  1.
         11    1    1    2    0    0 -0.75230996157E+02 -0.88137953645E+02 -0.16785208636E+02  0.11708861979E+03  0.00000000000E+00 0. -1.
<mgrwt>
<rscale>  0 0.23277216E+03</rscale>
<asrwt>0</asrwt>
<pdfrwt beam="1">  1        2 0.25230959E-01 0.23655149E+03</pdfrwt>
<pdfrwt beam="2">  1       -2 0.50433554E-01 0.23655149E+03</pdfrwt>
<totfact> 0.80311240E+02</totfact>
</mgrwt>
</event>
<event>
 6    1  0.9263730E-006  0.2418367E+03  0.7546771E-02  0.1142069E+00
          2   -1    0    0  501    0  0.00000000000E+00  0.00000000000E+00  0.10353950520E+03  0.10353950520E+03  0.00000000000E+00 0. -1.
         -2   -1    0    0    0  501 -0.00000000000E+00 -0.00000000000E+00 -0.38407119528E+03  0.38407119528E+03  0.00000000000E+00 0.  1.
          5    1    1    2  502    0  0.13956712063E+03 -0.28663139300E+02 -0.82453931125E+01  0.14279577453E+03  0.47000000000E+01 0. -1.
         -5    1    1    2    0  502 -0.46212230629E+02  0.59631845282E+02 -0.91806694663E+02  0.11892050461E+03  0.47000000000E+01 0.  1.
        -11    1    1    2    0    0 -0.20381336665E+01  0.24625278101E+02 -0.59611791323E+02  0.64530023828E+02  0.00000000000E+00 0. -1.
         11    1    1    2    0    0 -0.91316756334E+02 -0.55593984084E+02 -0.12086781098E+03  0.16136439751E+03  0.00000000000E+00 0.  1.
<mgrwt>
<rscale>  0 0.20936646E+03</rscale>
<asrwt>0</asrwt>
<pdfrwt beam="1">  1        2 0.15929155E-01 0.24183670E+03</pdfrwt>
<pdfrwt beam="2">  1       -2 0.59087876E-01 0.24183670E+03</pdfrwt>
<totfact> 0.98743602E+02</totfact>
</mgrwt>
</event>
<event>
 6    1  0.9263730E-006  0.1288127E+03  0.7546771E-02  0.1241310E+00
          2   -1    0    0  501    0  0.00000000000E+00  0.00000000000E+00  0.10509003932E+04  0.10509003932E+04  0.00000000000E+00 0. -1.
         -2   -1    0    0    0  501 -0.00000000000E+00 -0.00000000000E+00 -0.16154984422E+02  0.16154984422E+02  0.00000000000E+00 0.  1.
          5    1    1    2  502    0  0.44455990555E+02  0.66246524176E+01  0.70594673394E+03  0.70739176012E+03  0.47000000000E+01 0.  1.
         -5    1    1    2    0  502 -0.37785641745E+02  0.23756980864E+02  0.11236665384E+03  0.12099794939E+03  0.47000000000E+01 0.  1.
        -11    1    1    2    0    0 -0.44352029371E+02  0.86189918988E+00  0.14816324794E+03  0.15466154474E+03  0.00000000000E+00 0. -1.
         11    1    1    2    0    0  0.37681680561E+02 -0.31243532471E+02  0.68268773078E+02  0.84004123403E+02  0.00000000000E+00 0.  1.
<mgrwt>
<rscale>  0 0.12109004E+03</rscale>
<asrwt>0</asrwt>
<pdfrwt beam="1">  1        2 0.16167693E+00 0.12881269E+03</pdfrwt>
<pdfrwt beam="2">  1       -2 0.24853830E-02 0.12881269E+03</pdfrwt>
<totfact> 0.13127944E+04</totfact>
</mgrwt>
</event>
<event>
 6    1  0.9263730E-006  0.1269441E+03  0.7546771E-02  0.1261469E+00
         -2   -1    0    0    0  501 -0.00000000000E+00  0.00000000000E+00  0.28317007154E+02  0.28317007154E+02  0.00000000000E+00 0. -1.
          2   -1    0    0  501    0  0.00000000000E+00 -0.00000000000E+00 -0.47936539807E+03  0.47936539807E+03  0.00000000000E+00 0.  1.
          5    1    1    2  502    0 -0.30438325484E+02 -0.14107529365E+02 -0.40318516743E+03  0.40460583693E+03  0.47000000000E+01 0.  1.
         -5    1    1    2    0  502  0.83454688822E+01  0.15122145727E+02  0.19948537829E+00  0.17901283101E+02  0.47000000000E+01 0.  1.
        -11    1    1    2    0    0 -0.13888154471E+02  0.14022657589E+02  0.39895724248E+01  0.20135353203E+02  0.00000000000E+00 0. -1.
         11    1    1    2    0    0  0.35981011073E+02 -0.15037273951E+02 -0.52052281288E+02  0.65039931988E+02  0.00000000000E+00 0.  1.
<mgrwt>
<rscale>  0 0.10951612E+03</rscale>
<asrwt>0</asrwt>
<pdfrwt beam="2">  1        2 0.73748517E-01 0.12694411E+03</pdfrwt>
<pdfrwt beam="1">  1       -2 0.43564630E-02 0.12694411E+03</pdfrwt>
<totfact> 0.14819511E+04</totfact>
</mgrwt>
</event>
<event>
 6    1  0.9263730E-006  0.1975367E+03  0.7546771E-02  0.1156241E+00
         -1   -1    0    0    0  501 -0.00000000000E+00  0.00000000000E+00  0.17432524967E+02  0.17432524967E+02  0.00000000000E+00 0.  1.
          1   -1    0    0  501    0  0.00000000000E+00 -0.00000000000E+00 -0.20314848101E+04  0.20314848101E+04  0.00000000000E+00 0. -1.
          5    1    1    2  502    0 -0.35196570300E+02 -0.55835319064E+02 -0.53990081230E+03  0.54394058365E+03  0.47000000000E+01 0. -1.
         -5    1    1    2    0  502 -0.11547462382E+03  0.29484327925E+02 -0.45440990350E+03  0.46980226132E+03  0.47000000000E+01 0. -1.
        -11    1    1    2    0    0  0.16333611184E+03  0.26053021006E+02 -0.95036477972E+03  0.96465053769E+03  0.00000000000E+00 0.  1.
         11    1    1    2    0    0 -0.12664917720E+02  0.29797013344E+00 -0.69376789652E+02  0.70523952452E+02  0.00000000000E+00 0. -1.
<mgrwt>
<rscale>  0 0.19248246E+03</rscale>
<asrwt>0</asrwt>
<pdfrwt beam="2">  1        1 0.31253599E+00 0.19753672E+03</pdfrwt>
<pdfrwt beam="1">  1       -1 0.26819281E-02 0.19753672E+03</pdfrwt>
<totfact> 0.14391804E+03</totfact>
</mgrwt>
</event>
<event>
 6    1  0.9263730E-006  0.4972125E+03  0.7546771E-02  0.1014509E+00
          2   -1    0    0  501    0  0.00000000000E+00  0.00000000000E+00  0.87568564299E+03  0.87568564299E+03  0.00000000000E+00 0.  1.
         -2   -1    0    0    0  501 -0.00000000000E+00 -0.00000000000E+00 -0.70579043637E+02  0.70579043637E+02  0.00000000000E+00 0. -1.
          5    1    1    2  502    0 -0.12068915106E+03 -0.48203935536E+02  0.65326198899E+03  0.66608018049E+03  0.47000000000E+01 0. -1.
         -5    1    1    2    0  502 -0.13002629830E+02  0.41884228430E+02  0.10312794047E+03  0.11216425045E+03  0.47000000000E+01 0. -1.
        -11    1    1    2    0    0  0.68022864566E+02 -0.40851395802E+02  0.31385327526E+02  0.85328690525E+02  0.00000000000E+00 0.  1.
         11    1    1    2    0    0  0.65668916321E+02  0.47171102908E+02  0.17331342368E+02  0.82691565160E+02  0.00000000000E+00 0. -1.
<mgrwt>
<rscale>  0 0.49721245E+03</rscale>
<asrwt>0</asrwt>
<pdfrwt beam="1">  1        2 0.13472086E+00 0.49721245E+03</pdfrwt>
<pdfrwt beam="2">  1       -2 0.10858315E-01 0.49721245E+03</pdfrwt>
<totfact> 0.18344692E+03</totfact>
</mgrwt>
</event>
<event>
 6    1  0.9263730E-006  0.2733631E+03  0.7546771E-02  0.1117875E+00
          2   -1    0    0  501    0  0.00000000000E+00  0.00000000000E+00  0.64602498297E+03  0.64602498297E+03  0.00000000000E+00 0. -1.
         -2   -1    0    0    0  501 -0.00000000000E+00 -0.00000000000E+00 -0.27355818114E+03  0.27355818114E+03  0.00000000000E+00 0.  1.
          5    1    1    2  502    0  0.12728407181E+03  0.11493866400E+03  0.51953155851E+03  0.54712636722E+03  0.47000000000E+01 0. -1.
         -5    1    1    2    0  502  0.93973959347E+01 -0.73244666164E+02  0.66327868532E+02  0.99370862510E+02  0.47000000000E+01 0.  1.
        -11    1    1    2    0    0 -0.10008414124E+03  0.51381044429E+01 -0.17697658607E+03  0.20338128592E+03  0.00000000000E+00 0.  1.
         11    1    1    2    0    0 -0.36597326504E+02 -0.46832102280E+02 -0.36416039138E+02  0.69704648465E+02  0.00000000000E+00 0. -1.
<mgrwt>
<rscale>  0 0.24290062E+03</rscale>
<asrwt>0</asrwt>
<pdfrwt beam="1">  1        2 0.99388459E-01 0.27336313E+03</pdfrwt>
<pdfrwt beam="2">  1       -2 0.42085874E-01 0.27336313E+03</pdfrwt>
<totfact> 0.25175639E+02</totfact>
</mgrwt>
</event>
<event>
 6    1  0.9263730E-006  0.1273191E+03  0.7546771E-02  0.1248020E+00
         -3   -1    0    0    0  501 -0.00000000000E+00  0.00000000000E+00  0.34778089781E+03  0.34778089781E+03  0.00000000000E+00 0.  1.
          3   -1    0    0  501    0  0.00000000000E+00 -0.00000000000E+00 -0.36079127375E+02  0.36079127375E+02  0.00000000000E+00 0. -1.
          5    1    1    2  502    0  0.47073278996E+02  0.18716191727E+02  0.23406666926E+02  0.56001352526E+02  0.47000000000E+01 0. -1.
         -5    1    1    2    0  502 -0.48661707954E+02 -0.42900619123E+02  0.11454920276E+03  0.13172712248E+03  0.47000000000E+01 0. -1.
        -11    1    1    2    0    0  0.41626632518E+02  0.45078409589E+01  0.53900882263E+02  0.68252489139E+02  0.00000000000E+00 0. -1.
         11    1    1    2    0    0 -0.40038203560E+02  0.19676586437E+02  0.11984501849E+03  0.12787906105E+03  0.00000000000E+00 0.  1.
<mgrwt>
<rscale>  0 0.11706408E+03</rscale>
<asrwt>0</asrwt>
<pdfrwt beam="2">  1        3 0.55506352E-02 0.12731912E+03</pdfrwt>
<pdfrwt beam="1">  1       -3 0.53504751E-01 0.12731912E+03</pdfrwt>
<totfact> 0.15278136E+03</totfact>
</mgrwt>
</event>
<event>
 6    1  0.9263730E-006  0.1335323E+03  0.7546771E-02  0.1234081E+00
         -1   -1    0    0    0  501 -0.00000000000E+00  0.00000000000E+00  0.83418212648E+03  0.83418212648E+03  0.00000000000E+00 0.  1.
          1   -1    0    0  501    0  0.00000000000E+00 -0.00000000000E+00 -0.17201899400E+02  0.17201899400E+02  0.00000000000E+00 0. -1.
          5    1    1    2  502    0  0.27114186866E+02  0.78688574888E+02  0.24627061291E+03  0.25999687639E+03  0.47000000000E+01 0.  1.
         -5    1    1    2    0  502 -0.37379230015E+02 -0.32856668901E+02  0.16540328228E+03  0.17279208117E+03  0.47000000000E+01 0.  1.
        -11    1    1    2    0    0 -0.11732152634E+02 -0.69434813990E+02  0.23769825327E+03  0.24790985540E+03  0.00000000000E+00 0.  1.
         11    1    1    2    0    0  0.21997195783E+02  0.23602908004E+02  0.16760807862E+03  0.17068521291E+03  0.00000000000E+00 0. -1.
<mgrwt>
<rscale>  0 0.12563473E+03</rscale>
<asrwt>0</asrwt>
<pdfrwt beam="2">  1        1 0.26464467E-02 0.13353234E+03</pdfrwt>
<pdfrwt beam="1">  1       -1 0.12833568E+00 0.13353234E+03</pdfrwt>
<totfact> 0.22119106E+03</totfact>
</mgrwt>
</event>
<event>
 6    1  0.9263730E-006  0.1448343E+03  0.7546771E-02  0.1216864E+00
         -1   -1    0    0    0  501 -0.00000000000E+00  0.00000000000E+00  0.28872954943E+03  0.28872954943E+03  0.00000000000E+00 0.  1.
          1   -1    0    0  501    0  0.00000000000E+00 -0.00000000000E+00 -0.99758990616E+02  0.99758990616E+02  0.00000000000E+00 0. -1.
          5    1    1    2  502    0  0.21363683711E+02  0.32007269601E+02 -0.24949284930E+02  0.46102376376E+02  0.47000000000E+01 0. -1.
         -5    1    1    2    0  502  0.50770519678E+01 -0.10021466550E+03  0.23712700644E+01  0.10048118510E+03  0.47000000000E+01 0. -1.
        -11    1    1    2    0    0 -0.14227105441E+02 -0.21250307671E+02  0.32268480822E+02  0.41173303971E+02  0.00000000000E+00 0. -1.
         11    1    1    2    0    0 -0.12213630238E+02  0.89457703569E+02  0.17928009285E+03  0.20073167459E+03  0.00000000000E+00 0.  1.
<mgrwt>
<rscale>  0 0.13740466E+03</rscale>
<asrwt>0</asrwt>
<pdfrwt beam="2">  1        1 0.15347537E-01 0.14483430E+03</pdfrwt>
<pdfrwt beam="1">  1       -1 0.44419930E-01 0.14483430E+03</pdfrwt>
<totfact> 0.18062290E+03</totfact>
</mgrwt>
</event>
<event>
 6    1  0.9263730E-006  0.1622358E+03  0.7546771E-02  0.1193287E+00
          1   -1    0    0  501    0  0.00000000000E+00  0.00000000000E+00  0.21652093153E+03  0.21652093153E+03  0.00000000000E+00 0. -1.
         -1   -1    0    0    0  501 -0.00000000000E+00 -0.00000000000E+00 -0.10645503714E+03  0.10645503714E+03  0.00000000000E+00 0.  1.
          5    1    1    2  502    0  0.99156709987E+02  0.46322355055E+02  0.10663390428E+03  0.15287476330E+03  0.47000000000E+01 0.  1.
         -5    1    1    2    0  502 -0.92546102369E+01  0.48068248806E+01 -0.25918756238E+02  0.28330642439E+02  0.47000000000E+01 0.  1.
        -11    1    1    2    0    0 -0.92276443034E+02 -0.61518368007E+02  0.38180130250E+00  0.11090354960E+03  0.00000000000E+00 0.  1.
         11    1    1    2    0    0  0.23743432844E+01  0.10389188071E+02  0.28968945049E+02  0.30867013332E+02  0.00000000000E+00 0. -1.
<mgrwt>
<rscale>  0 0.15600138E+03</rscale>
<asrwt>0</asrwt>
<pdfrwt beam="1">  1        1 0.33310912E-01 0.16223583E+03</pdfrwt>
<pdfrwt beam="2">  1       -1 0.16377698E-01 0.16223583E+03</pdfrwt>
<totfact> 0.35977507E+03</totfact>
</mgrwt>
</event>
<event>
 6    1  0.9263730E-006  0.1302457E+03  0.7546771E-02  0.1241387E+00
          2   -1    0    0  501    0  0.00000000000E+00  0.00000000000E+00  0.28401523496E+03  0.28401523496E+03  0.00000000000E+00 0. -1.
         -2   -1    0    0    0  501 -0.00000000000E+00 -0.00000000000E+00 -0.56046763453E+02  0.56046763453E+02  0.00000000000E+00 0.  1.
          5    1    1    2  502    0 -0.49388994272E+02  0.54959573208E+02  0.11810388814E+03  0.13939313410E+03  0.47000000000E+01 0. -1.
         -5    1    1    2    0  502  0.12798551551E+02 -0.54447761988E+02  0.82413187746E+02  0.99711509976E+02  0.47000000000E+01 0. -1.
        -11    1    1    2    0    0  0.54301788575E+02  0.24437756499E+02 -0.44975480624E+00  0.59549059309E+02  0.00000000000E+00 0.  1.
         11    1    1    2    0    0 -0.17711345854E+02 -0.24949567719E+02  0.27901150427E+02  0.41408295020E+02  0.00000000000E+00 0. -1.
<mgrwt>
<rscale>  0 0.12104228E+03</rscale>
<asrwt>0</asrwt>
<pdfrwt beam="1">  1        2 0.43694651E-01 0.13024566E+03</pdfrwt>
<pdfrwt beam="2">  1       -2 0.86225792E-02 0.13024566E+03</pdfrwt>
<totfact> 0.92063099E+03</totfact>
</mgrwt>
</event>
<event>
 6    1  0.9263730E-006  0.1943017E+03  0.7546771E-02  0.1181702E+00
          1   -1    0    0  501    0  0.00000000000E+00  0.00000000000E+00  0.69674745852E+02  0.69674745852E+02  0.00000000000E+00 0. -1.
         -1   -1    0    0    0  501 -0.00000000000E+00 -0.00000000000E+00 -0.32486836252E+03  0.32486836252E+03  0.00000000000E+00 0.  1.
          5    1    1    2  502    0 -0.70564389984E+02  0.21407152658E+02 -0.69491002075E+02  0.10143317351E+03  0.47000000000E+01 0. -1.
         -5    1    1    2    0  502  0.12029478186E+03 -0.59167133816E+00 -0.11863208981E+03  0.16901729897E+03  0.47000000000E+01 0.  1.
        -11    1    1    2    0    0 -0.20855767262E+02 -0.44250772956E+02 -0.71508744013E+02  0.86640604832E+02  0.00000000000E+00 0.  1.
         11    1    1    2    0    0 -0.28874624617E+02  0.23435291637E+02  0.44382192269E+01  0.37452031063E+02  0.00000000000E+00 0. -1.
<mgrwt>
<rscale>  0 0.16635598E+03</rscale>
<asrwt>0</asrwt>
<pdfrwt beam="1">  1        1 0.10719192E-01 0.19430173E+03</pdfrwt>
<pdfrwt beam="2">  1       -1 0.49979749E-01 0.19430173E+03</pdfrwt>
<totfact> 0.23640502E+03</totfact>
</mgrwt>
</event>
<event>
 6    1  0.9263730E-006  0.1396056E+03  0.7546771E-02  0.1225130E+00
          2   -1    0    0  501    0  0.00000000000E+00  0.00000000000E+00  0.23445049643E+03  0.23445049643E+03  0.00000000000E+00 0. -1.
         -2   -1    0    0    0  501 -0.00000000000E+00 -0.00000000000E+00 -0.68788145431E+02  0.68788145431E+02  0.00000000000E+00 0.  1.
          5    1    1    2  502    0 -0.15092217990E+02  0.72400261621E+02  0.36407391138E+02  0.82566101132E+02  0.47000000000E+01 0. -1.
         -5    1    1    2    0  502  0.52698947848E+02 -0.23119737869E+02  0.83187035204E+02  0.10126141521E+03  0.47000000000E+01 0. -1.
        -11    1    1    2    0    0  0.81318761518E+01 -0.26516860540E+02 -0.21222150136E+02  0.34923501529E+02  0.00000000000E+00 0.  1.
         11    1    1    2    0    0 -0.45738606010E+02 -0.22763663213E+02  0.67290074792E+02  0.84487623994E+02  0.00000000000E+00 0. -1.
<mgrwt>
<rscale>  0 0.13158005E+03</rscale>
<asrwt>0</asrwt>
<pdfrwt beam="1">  1        2 0.36069307E-01 0.13960562E+03</pdfrwt>
<pdfrwt beam="2">  1       -2 0.10582792E-01 0.13960562E+03</pdfrwt>
<totfact> 0.82335895E+03</totfact>
</mgrwt>
</event>
<event>
 6    1  0.9263730E-006  0.2656510E+03  0.7546771E-02  0.1105904E+00
          1   -1    0    0  501    0  0.00000000000E+00  0.00000000000E+00  0.60041967451E+03  0.60041967451E+03  0.00000000000E+00 0. -1.
         -1   -1    0    0    0  501 -0.00000000000E+00 -0.00000000000E+00 -0.11620095876E+03  0.11620095876E+03  0.00000000000E+00 0.  1.
          5    1    1    2  502    0 -0.10618229040E+02  0.90084611580E+01  0.34506151962E+02  0.37505515375E+02  0.47000000000E+01 0.  1.
         -5    1    1    2    0  502  0.18343566264E+03 -0.16737762061E+03  0.28660362791E+03  0.37924614663E+03  0.47000000000E+01 0.  1.
        -11    1    1    2    0    0 -0.13531163172E+03  0.13206112992E+03  0.80689418969E+02  0.20557276582E+03  0.00000000000E+00 0.  1.
         11    1    1    2    0    0 -0.37505801879E+02  0.26308029531E+02  0.82419516917E+02  0.94296205444E+02  0.00000000000E+00 0. -1.
<mgrwt>
<rscale>  0 0.26207376E+03</rscale>
<asrwt>0</asrwt>
<pdfrwt beam="1">  1        1 0.92372256E-01 0.26565101E+03</pdfrwt>
<pdfrwt beam="2">  1       -1 0.17877071E-01 0.26565101E+03</pdfrwt>
<totfact> 0.85328696E+02</totfact>
</mgrwt>
</event>
<event>
 6    1  0.9263730E-006  0.1533356E+03  0.7546771E-02  0.1205635E+00
         -2   -1    0    0    0  501 -0.00000000000E+00  0.00000000000E+00  0.16114393471E+02  0.16114393471E+02  0.00000000000E+00 0.  1.
          2   -1    0    0  501    0  0.00000000000E+00 -0.00000000000E+00 -0.12254204390E+04  0.12254204390E+04  0.00000000000E+00 0. -1.
          5    1    1    2  502    0 -0.54305536085E+02  0.26260456096E+02 -0.38288888628E+03  0.38763989996E+03  0.47000000000E+01 0.  1.
         -5    1    1    2    0  502  0.63879345480E+02  0.62029567155E+02 -0.35653231957E+03  0.36751275199E+03  0.47000000000E+01 0.  1.
        -11    1    1    2    0    0 -0.36805447816E+02 -0.64609085831E+02 -0.40819343391E+03  0.41491065840E+03  0.00000000000E+00 0. -1.
         11    1    1    2    0    0  0.27231638421E+02 -0.23680937420E+02 -0.61691405726E+02  0.71471522081E+02  0.00000000000E+00 0.  1.
<mgrwt>
<rscale>  0 0.14587518E+03</rscale>
<asrwt>0</asrwt>
<pdfrwt beam="2">  1        2 0.18852622E+00 0.15333561E+03</pdfrwt>
<pdfrwt beam="1">  1       -2 0.24791375E-02 0.15333561E+03</pdfrwt>
<totfact> 0.10596492E+04</totfact>
</mgrwt>
</event>
<event>
 6    1  0.9263730E-006  0.1312479E+03  0.7546771E-02  0.1240922E+00
         -1   -1    0    0    0  501 -0.00000000000E+00  0.00000000000E+00  0.63260281509E+02  0.63260281509E+02  0.00000000000E+00 0.  1.
          1   -1    0    0  501    0  0.00000000000E+00 -0.00000000000E+00 -0.28410764248E+03  0.28410764248E+03  0.00000000000E+00 0. -1.
          5    1    1    2  502    0 -0.28536923968E+02  0.20223921539E+02 -0.15662392323E+03  0.16055063488E+03  0.47000000000E+01 0. -1.
         -5    1    1    2    0  502  0.36509332820E+02 -0.59612097382E+02 -0.57679625557E+02  0.90750001331E+02  0.47000000000E+01 0. -1.
        -11    1    1    2    0    0 -0.11421544378E+01  0.57160885123E+02  0.22415492090E+02  0.61409491045E+02  0.00000000000E+00 0.  1.
         11    1    1    2    0    0 -0.68302544142E+01 -0.17772709280E+02 -0.28959304280E+02  0.34657796740E+02  0.00000000000E+00 0. -1.
<mgrwt>
<rscale>  0 0.12132787E+03</rscale>
<asrwt>0</asrwt>
<pdfrwt beam="2">  1        1 0.43708868E-01 0.13124785E+03</pdfrwt>
<pdfrwt beam="1">  1       -1 0.97323510E-02 0.13124785E+03</pdfrwt>
<totfact> 0.56950834E+03</totfact>
</mgrwt>
</event>
<event>
 6    1  0.9263730E-006  0.1565332E+03  0.7546771E-02  0.1210966E+00
          2   -1    0    0  501    0  0.00000000000E+00  0.00000000000E+00  0.29541783603E+03  0.29541783603E+03  0.00000000000E+00 0. -1.
         -2   -1    0    0    0  501 -0.00000000000E+00 -0.00000000000E+00 -0.60461938306E+02  0.60461938306E+02  0.00000000000E+00 0.  1.
          5    1    1    2  502    0 -0.59435591016E+02  0.17851628236E+02  0.44470121908E+02  0.76491514906E+02  0.47000000000E+01 0. -1.
         -5    1    1    2    0  502 -0.17790912548E+01 -0.89479892833E+02  0.13010385141E+03  0.15798391861E+03  0.47000000000E+01 0. -1.
        -11    1    1    2    0    0  0.12573457940E+02  0.47782063351E+02  0.17862432125E+02  0.52538404088E+02  0.00000000000E+00 0.  1.
         11    1    1    2    0    0  0.48641224331E+02  0.23846201246E+02  0.42519492274E+02  0.68865936729E+02  0.00000000000E+00 0. -1.
<mgrwt>
<rscale>  0 0.14177062E+03</rscale>
<asrwt>0</asrwt>
<pdfrwt beam="1">  1        2 0.45448897E-01 0.15653324E+03</pdfrwt>
<pdfrwt beam="2">  1       -2 0.93018369E-02 0.15653324E+03</pdfrwt>
<totfact> 0.79461538E+03</totfact>
</mgrwt>
</event>
<event>
 6    1  0.9263730E-006  0.2755713E+03  0.7546771E-02  0.1100022E+00
          2   -1    0    0  501    0  0.00000000000E+00  0.00000000000E+00  0.31056873915E+03  0.31056873915E+03  0.00000000000E+00 0. -1.
         -2   -1    0    0    0  501 -0.00000000000E+00 -0.00000000000E+00 -0.23357531749E+03  0.23357531749E+03  0.00000000000E+00 0.  1.
          5    1    1    2  502    0 -0.39261402953E+02  0.25928797142E+02  0.20114403690E+02  0.51385207199E+02  0.47000000000E+01 0. -1.
         -5    1    1    2    0  502 -0.17770695493E+03 -0.14099048272E+03  0.33477613244E+02  0.22934890154E+03  0.47000000000E+01 0. -1.
        -11    1    1    2    0    0  0.89351323151E+02  0.85958325286E+02 -0.19830713728E+02  0.12556173717E+03  0.00000000000E+00 0.  1.
         11    1    1    2    0    0  0.12761703473E+03  0.29103360288E+02  0.43232118457E+02  0.13784821073E+03  0.00000000000E+00 0. -1.
<mgrwt>
<rscale>  0 0.27220955E+03</rscale>
<asrwt>0</asrwt>
<pdfrwt beam="1">  1        2 0.47779806E-01 0.27557129E+03</pdfrwt>
<pdfrwt beam="2">  1       -2 0.35934664E-01 0.27557129E+03</pdfrwt>
<totfact> 0.77159810E+02</totfact>
</mgrwt>
</event>
<event>
 6    1  0.9263730E-006  0.1553267E+03  0.7546771E-02  0.1202898E+00
         -2   -1    0    0    0  501 -0.00000000000E+00  0.00000000000E+00  0.58918105730E+02  0.58918105730E+02  0.00000000000E+00 0. -1.
          2   -1    0    0  501    0  0.00000000000E+00 -0.00000000000E+00 -0.50035456888E+03  0.50035456888E+03  0.00000000000E+00 0.  1.
          5    1    1    2  502    0 -0.46781680204E+02 -0.56404802574E+02 -0.32668893847E+03  0.33483993172E+03  0.47000000000E+01 0. -1.
         -5    1    1    2    0  502  0.44501387776E+02 -0.35792458770E+02 -0.65726255030E+02  0.87198074629E+02  0.47000000000E+01 0. -1.
        -11    1    1    2    0    0 -0.19026815781E+02  0.48640132094E+02  0.17351862868E+02  0.55036072842E+02  0.00000000000E+00 0. -1.
         11    1    1    2    0    0  0.21307108208E+02  0.43557129250E+02 -0.66373132521E+02  0.82198595422E+02  0.00000000000E+00 0.  1.
<mgrwt>
<rscale>  0 0.14804381E+03</rscale>
<asrwt>0</asrwt>
<pdfrwt beam="2">  1        2 0.76977629E-01 0.15532674E+03</pdfrwt>
<pdfrwt beam="1">  1       -2 0.90643236E-02 0.15532674E+03</pdfrwt>
<totfact> 0.46920141E+03</totfact>
</mgrwt>
</event>
<event>
 6    1  0.9263730E-006  0.3819593E+03  0.7546771E-02  0.1050212E+00
         -1   -1    0    0    0  501 -0.00000000000E+00  0.00000000000E+00  0.77930659223E+02  0.77930659223E+02  0.00000000000E+00 0. -1.
          1   -1    0    0  501    0  0.00000000000E+00 -0.00000000000E+00 -0.46802142220E+03  0.46802142220E+03  0.00000000000E+00 0.  1.
          5    1    1    2  502    0 -0.37254007087E+02 -0.24525632239E+02 -0.97152734408E+02  0.10700519372E+03  0.47000000000E+01 0.  1.
         -5    1    1    2    0  502 -0.68019640275E+02  0.12797910925E+03 -0.18451046127E+03  0.23467322853E+03  0.47000000000E+01 0.  1.
        -11    1    1    2    0    0  0.10734736003E+02 -0.71612243246E+02 -0.35132831908E+02  0.80485177627E+02  0.00000000000E+00 0.  1.
         11    1    1    2    0    0  0.94538911359E+02 -0.31841233762E+02 -0.73294735385E+02  0.12378848155E+03  0.00000000000E+00 0. -1.
<mgrwt>
<rscale>  0 0.38195925E+03</rscale>
<asrwt>0</asrwt>
<pdfrwt beam="2">  1        1 0.72003297E-01 0.38195925E+03</pdfrwt>
<pdfrwt beam="1">  1       -1 0.11989332E-01 0.38195925E+03</pdfrwt>
<totfact> 0.22715709E+03</totfact>
</mgrwt>
</event>
<event>
 6    1  0.9263730E-006  0.1566055E+03  0.7546771E-02  0.1200582E+00
          2   -1    0    0  501    0  0.00000000000E+00  0.00000000000E+00  0.14301766263E+04  0.14301766263E+04  0.00000000000E+00 0. -1.
         -2   -1    0    0    0  501 -0.00000000000E+00 -0.00000000000E+00 -0.25792891599E+02  0.25792891599E+02  0.00000000000E+00 0.  1.
          5    1    1    2  502    0  0.16417796941E+02 -0.32142460414E+02  0.41058158032E+03  0.41219171015E+03  0.47000000000E+01 0. -1.
         -5    1    1    2    0  502 -0.11061413087E+03  0.37433165769E+02  0.80650714020E+03  0.81493103085E+03  0.47000000000E+01 0. -1.
        -11    1    1    2    0    0  0.81531309462E+02 -0.28186861360E+02  0.77463679196E+02  0.11594168866E+03  0.00000000000E+00 0.  1.
         11    1    1    2    0    0  0.12665024472E+02  0.22896156005E+02  0.10983133498E+03  0.11290508823E+03  0.00000000000E+00 0. -1.
<mgrwt>
<rscale>  0 0.14991117E+03</rscale>
<asrwt>0</asrwt>
<pdfrwt beam="1">  1        2 0.22002711E+00 0.15660545E+03</pdfrwt>
<pdfrwt beam="2">  1       -2 0.39681383E-02 0.15660545E+03</pdfrwt>
<totfact> 0.41038363E+03</totfact>
</mgrwt>
</event>
<event>
 6    1  0.9263730E-006  0.1832739E+03  0.7546771E-02  0.1169184E+00
         -1   -1    0    0    0  501 -0.00000000000E+00  0.00000000000E+00  0.18324142532E+03  0.18324142532E+03  0.00000000000E+00 0.  1.
          1   -1    0    0  501    0  0.00000000000E+00 -0.00000000000E+00 -0.21924195086E+03  0.21924195086E+03  0.00000000000E+00 0. -1.
          5    1    1    2  502    0 -0.10480193860E+03  0.38323493605E+02 -0.39329248728E+02  0.11841037244E+03  0.47000000000E+01 0.  1.
         -5    1    1    2    0  502  0.13011877796E+02  0.59407788784E+02 -0.78740375095E+02  0.99602866435E+02  0.47000000000E+01 0.  1.
        -11    1    1    2    0    0  0.93242758527E+02 -0.47989347724E+02  0.23230991705E+02  0.10740981561E+03  0.00000000000E+00 0. -1.
         11    1    1    2    0    0 -0.14526977202E+01 -0.49741934666E+02  0.58838106576E+02  0.77060321699E+02  0.00000000000E+00 0.  1.
<mgrwt>
<rscale>  0 0.17858037E+03</rscale>
<asrwt>0</asrwt>
<pdfrwt beam="2">  1        1 0.33729531E-01 0.18327394E+03</pdfrwt>
<pdfrwt beam="1">  1       -1 0.28190989E-01 0.18327394E+03</pdfrwt>
<totfact> 0.14693190E+03</totfact>
</mgrwt>
</event>
<event>
 6    1  0.9263730E-006  0.2577404E+03  0.7546771E-02  0.1110621E+00
         -2   -1    0    0    0  501 -0.00000000000E+00  0.00000000000E+00  0.82212611266E+02  0.82212611266E+02  0.00000000000E+00 0. -1.
          2   -1    0    0  501    0  0.00000000000E+00 -0.00000000000E+00 -0.98007485703E+03  0.98007485703E+03  0.00000000000E+00 0.  1.
          5    1    1    2  502    0 -0.98350525625E+02 -0.12926905288E+03 -0.35075691740E+03  0.38656929396E+03  0.47000000000E+01 0. -1.
         -5    1    1    2    0  502 -0.83578687314E+02 -0.37949805030E+01 -0.35565417755E+03  0.36539264204E+03  0.47000000000E+01 0. -1.
        -11    1    1    2    0    0  0.14926645651E+03  0.59653749692E+02 -0.10342782764E+03  0.19114486763E+03  0.00000000000E+00 0.  1.
         11    1    1    2    0    0  0.32662756427E+02  0.73410283689E+02 -0.88023323178E+02  0.11918066467E+03  0.00000000000E+00 0. -1.
<mgrwt>
<rscale>  0 0.25429436E+03</rscale>
<asrwt>0</asrwt>
<pdfrwt beam="2">  1        2 0.15078075E+00 0.25774041E+03</pdfrwt>
<pdfrwt beam="1">  1       -2 0.12648094E-01 0.25774041E+03</pdfrwt>
<totfact> 0.12270632E+03</totfact>
</mgrwt>
</event>
<event>
 6    1  0.9263730E-006  0.2583529E+03  0.7546771E-02  0.1110463E+00
         -1   -1    0    0    0  501 -0.00000000000E+00  0.00000000000E+00  0.21153446494E+03  0.21153446494E+03  0.00000000000E+00 0.  1.
          1   -1    0    0  501    0  0.00000000000E+00 -0.00000000000E+00 -0.29917549025E+03  0.29917549025E+03  0.00000000000E+00 0. -1.
          5    1    1    2  502    0  0.24920862531E+02  0.19121516427E+03 -0.93224355898E+02  0.21423622235E+03  0.47000000000E+01 0.  1.
         -5    1    1    2    0  502  0.31893849488E+02  0.27627654024E+02  0.29697432601E+02  0.51812473452E+02  0.47000000000E+01 0.  1.
        -11    1    1    2    0    0 -0.24015167157E+02 -0.19294480630E+03  0.36850647040E+01  0.19446852248E+03  0.00000000000E+00 0.  1.
         11    1    1    2    0    0 -0.32799544863E+02 -0.25898011986E+02 -0.27799166723E+02  0.50192736910E+02  0.00000000000E+00 0. -1.
<mgrwt>
<rscale>  0 0.25454901E+03</rscale>
<asrwt>0</asrwt>
<pdfrwt beam="2">  1        1 0.46026999E-01 0.25835293E+03</pdfrwt>
<pdfrwt beam="1">  1       -1 0.32543764E-01 0.25835293E+03</pdfrwt>
<totfact> 0.78261580E+02</totfact>
</mgrwt>
</event>
<event>
 6    1  0.9263730E-006  0.1300160E+03  0.7546771E-02  0.1241026E+00
          3   -1    0    0  501    0  0.00000000000E+00  0.00000000000E+00  0.81698986913E+03  0.81698986913E+03  0.00000000000E+00 0. -1.
         -3   -1    0    0    0  501 -0.00000000000E+00 -0.00000000000E+00 -0.18880281495E+02  0.18880281495E+02  0.00000000000E+00 0.  1.
          5    1    1    2  502    0  0.36352568366E+02 -0.35104518111E+02  0.29465729988E+03  0.29899640599E+03  0.47000000000E+01 0.  1.
         -5    1    1    2    0  502 -0.71582491079E+02  0.28996110196E+02  0.31405541266E+03  0.32344662567E+03  0.47000000000E+01 0.  1.
        -11    1    1    2    0    0  0.41837187075E+02  0.18112280106E+02  0.19375684099E+03  0.19904803024E+03  0.00000000000E+00 0. -1.
         11    1    1    2    0    0 -0.66072643622E+01 -0.12003872190E+02 -0.43599658999E+01  0.14379088725E+02  0.00000000000E+00 0.  1.
<mgrwt>
<rscale>  0 0.12126397E+03</rscale>
<asrwt>0</asrwt>
<pdfrwt beam="1">  1        3 0.12569072E+00 0.13001600E+03</pdfrwt>
<pdfrwt beam="2">  1       -3 0.29046593E-02 0.13001600E+03</pdfrwt>
<totfact> 0.65499924E+02</totfact>
</mgrwt>
</event>
<event>
 6    1  0.9263730E-006  0.2266815E+03  0.7546771E-02  0.1133093E+00
         -2   -1    0    0    0  501 -0.00000000000E+00  0.00000000000E+00  0.16991701790E+03  0.16991701790E+03  0.00000000000E+00 0.  1.
          2   -1    0    0  501    0  0.00000000000E+00 -0.00000000000E+00 -0.30076174745E+03  0.30076174745E+03  0.00000000000E+00 0. -1.
          5    1    1    2  502    0 -0.21666166421E+02 -0.64396908990E+02  0.59024321237E+02  0.90124054238E+02  0.47000000000E+01 0.  1.
         -5    1    1    2    0  502 -0.76620546095E+02 -0.97155267917E+02 -0.57595327362E+02  0.13656194895E+03  0.47000000000E+01 0.  1.
        -11    1    1    2    0    0  0.22788951965E+01  0.66844246125E+02 -0.65079746305E+02  0.93320522837E+02  0.00000000000E+00 0. -1.
         11    1    1    2    0    0  0.96007817319E+02  0.94707930782E+02 -0.67193977118E+02  0.15067223932E+03  0.00000000000E+00 0.  1.
<mgrwt>
<rscale>  0 0.22106241E+03</rscale>
<asrwt>0</asrwt>
<pdfrwt beam="2">  1        2 0.46271038E-01 0.22668150E+03</pdfrwt>
<pdfrwt beam="1">  1       -2 0.26141080E-01 0.22668150E+03</pdfrwt>
<totfact> 0.14252642E+03</totfact>
</mgrwt>
</event>
<event>
 6    1  0.9263730E-006  0.3418173E+03  0.7546771E-02  0.1066025E+00
          2   -1    0    0  501    0  0.00000000000E+00  0.00000000000E+00  0.18064572337E+03  0.18064572337E+03  0.00000000000E+00 0. -1.
         -2   -1    0    0    0  501 -0.00000000000E+00 -0.00000000000E+00 -0.16169646200E+03  0.16169646200E+03  0.00000000000E+00 0.  1.
          5    1    1    2  502    0  0.10375149272E+03  0.32525001942E+02  0.71882526679E+00  0.10883406958E+03  0.47000000000E+01 0. -1.
         -5    1    1    2    0  502  0.15104540379E+02 -0.35621668042E+02  0.64970061615E+02  0.75764432819E+02  0.47000000000E+01 0. -1.
        -11    1    1    2    0    0 -0.60132393266E+02 -0.40724948691E+02 -0.35980824805E+01  0.72714320208E+02  0.00000000000E+00 0. -1.
         11    1    1    2    0    0 -0.58723639828E+02  0.43821614791E+02 -0.43141543026E+02  0.85029362765E+02  0.00000000000E+00 0.  1.
<mgrwt>
<rscale>  0 0.34181735E+03</rscale>
<asrwt>0</asrwt>
<pdfrwt beam="1">  1        2 0.27791650E-01 0.34181735E+03</pdfrwt>
<pdfrwt beam="2">  1       -2 0.24876379E-01 0.34181735E+03</pdfrwt>
<totfact> 0.27481266E+03</totfact>
</mgrwt>
</event>
<event>
 6    1  0.9263730E-006  0.2125869E+03  0.7546771E-02  0.1158125E+00
         -1   -1    0    0    0  501 -0.00000000000E+00  0.00000000000E+00  0.13671680874E+03  0.13671680874E+03  0.00000000000E+00 0.  1.
          1   -1    0    0  501    0  0.00000000000E+00 -0.00000000000E+00 -0.36023392316E+03  0.36023392316E+03  0.00000000000E+00 0. -1.
          5    1    1    2  502    0  0.38514777878E+02 -0.49940174633E+02 -0.29596511471E+03  0.30264640801E+03  0.47000000000E+01 0. -1.
         -5    1    1    2    0  502  0.40973688122E+02 -0.14064539408E+02  0.18125126686E+02  0.47193904315E+02  0.47000000000E+01 0.  1.
        -11    1    1    2    0    0 -0.33829403736E+02  0.80894406052E+02  0.39912022258E+02  0.96339519453E+02  0.00000000000E+00 0.  1.
         11    1    1    2    0    0 -0.45659062264E+02 -0.16889692010E+02  0.14410851342E+02  0.50770900125E+02  0.00000000000E+00 0. -1.
<mgrwt>
<rscale>  0 0.19037283E+03</rscale>
<asrwt>0</asrwt>
<pdfrwt beam="2">  1        1 0.55420604E-01 0.21258689E+03</pdfrwt>
<pdfrwt beam="1">  1       -1 0.21033355E-01 0.21258689E+03</pdfrwt>
<totfact> 0.12833814E+03</totfact>
</mgrwt>
</event>
<event>
 6    1  0.9263730E-006  0.1261665E+03  0.7546771E-02  0.1248567E+00
         -2   -1    0    0    0  501 -0.00000000000E+00  0.00000000000E+00  0.15627650137E+02  0.15627650137E+02  0.00000000000E+00 0.  1.
          2   -1    0    0  501    0  0.00000000000E+00 -0.00000000000E+00 -0.83305602987E+03  0.83305602987E+03  0.00000000000E+00 0. -1.
          5    1    1    2  502    0 -0.21754248970E+02 -0.60737454256E+02 -0.20559995907E+03  0.21553588765E+03  0.47000000000E+01 0.  1.
         -5    1    1    2    0  502  0.81042659980E+01  0.50746861066E+02 -0.38098566767E+03  0.38446468239E+03  0.47000000000E+01 0.  1.
        -11    1    1    2    0    0  0.25332584111E+02  0.33144891247E+02 -0.21337414493E+03  0.21741400451E+03  0.00000000000E+00 0. -1.
         11    1    1    2    0    0 -0.11682601140E+02 -0.23154298057E+02 -0.17468608065E+02  0.31269105450E+02  0.00000000000E+00 0.  1.
<mgrwt>
<rscale>  0 0.11674411E+03</rscale>
<asrwt>0</asrwt>
<pdfrwt beam="2">  1        2 0.12816249E+00 0.12616650E+03</pdfrwt>
<pdfrwt beam="1">  1       -2 0.24042534E-02 0.12616650E+03</pdfrwt>
<totfact> 0.18736299E+04</totfact>
</mgrwt>
</event>
<event>
 6    1  0.9263730E-006  0.1368011E+03  0.7546771E-02  0.1228896E+00
         -4   -1    0    0    0  501 -0.00000000000E+00  0.00000000000E+00  0.47515760983E+02  0.47515760983E+02  0.00000000000E+00 0.  1.
          4   -1    0    0  501    0  0.00000000000E+00 -0.00000000000E+00 -0.31796639338E+03  0.31796639338E+03  0.00000000000E+00 0. -1.
          5    1    1    2  502    0 -0.22790153731E+02  0.36065113657E+02 -0.17155307545E+03  0.17684069448E+03  0.47000000000E+01 0. -1.
         -5    1    1    2    0  502  0.31440412626E+02  0.18835832384E+02  0.65179118633E+01  0.37521477886E+02  0.47000000000E+01 0. -1.
        -11    1    1    2    0    0  0.13189976026E+02  0.23460015815E+02 -0.27468451672E+02  0.38455996241E+02  0.00000000000E+00 0. -1.
         11    1    1    2    0    0 -0.21840234921E+02 -0.78360961856E+02 -0.77947017144E+02  0.11266398575E+03  0.00000000000E+00 0.  1.
<mgrwt>
<rscale>  0 0.12903438E+03</rscale>
<asrwt>0</asrwt>
<pdfrwt beam="2">  1        4 0.48917906E-01 0.13680108E+03</pdfrwt>
<pdfrwt beam="1">  1       -4 0.73101172E-02 0.13680108E+03</pdfrwt>
<totfact> 0.86188827E+02</totfact>
</mgrwt>
</event>
<event>
 6    1  0.9263730E-006  0.1195030E+03  0.7546771E-02  0.1297955E+00
          1   -1    0    0  501    0  0.00000000000E+00  0.00000000000E+00  0.13248629711E+03  0.13248629711E+03  0.00000000000E+00 0. -1.
         -1   -1    0    0    0  501 -0.00000000000E+00 -0.00000000000E+00 -0.80470372057E+02  0.80470372057E+02  0.00000000000E+00 0.  1.
          5    1    1    2  502    0  0.44483217155E+02 -0.47539269029E+01  0.79289532805E+02  0.91160717647E+02  0.47000000000E+01 0. -1.
         -5    1    1    2    0  502 -0.41134827707E+02  0.42736695434E+02  0.15818797502E+02  0.61569664134E+02  0.47000000000E+01 0.  1.
        -11    1    1    2    0    0  0.46244579301E+01 -0.26387553197E+02 -0.21028932820E+02  0.34057372042E+02  0.00000000000E+00 0. -1.
         11    1    1    2    0    0 -0.79728473789E+01 -0.11595215335E+02 -0.22063472439E+02  0.26168915340E+02  0.00000000000E+00 0.  1.
<mgrwt>
<rscale>  0 0.92053124E+02</rscale>
<asrwt>0</asrwt>
<pdfrwt beam="1">  1        1 0.20382507E-01 0.11950303E+03</pdfrwt>
<pdfrwt beam="2">  1       -1 0.12380057E-01 0.11950303E+03</pdfrwt>
<totfact> 0.10107930E+04</totfact>
</mgrwt>
</event>
<event>
 6    1  0.9263730E-006  0.2345537E+03  0.7546771E-02  0.1123475E+00
         -2   -1    0    0    0  501 -0.00000000000E+00  0.00000000000E+00  0.41141885193E+02  0.41141885193E+02  0.00000000000E+00 0.  1.
          2   -1    0    0  501    0  0.00000000000E+00 -0.00000000000E+00 -0.33430307542E+03  0.33430307542E+03  0.00000000000E+00 0. -1.
          5    1    1    2  502    0 -0.28275329590E+02 -0.11204555435E+02 -0.14333450644E+03  0.14660118370E+03  0.47000000000E+01 0. -1.
         -5    1    1    2    0  502  0.66001000953E+02  0.19018336231E+02 -0.43397614613E+02  0.81383488460E+02  0.47000000000E+01 0. -1.
        -11    1    1    2    0    0 -0.33901479510E+02  0.40643855853E+02 -0.62956102215E+02  0.82247821477E+02  0.00000000000E+00 0. -1.
         11    1    1    2    0    0 -0.38241918531E+01 -0.48457636649E+02 -0.43472966961E+02  0.65212466978E+02  0.00000000000E+00 0.  1.
<mgrwt>
<rscale>  0 0.23455369E+03</rscale>
<asrwt>0</asrwt>
<pdfrwt beam="2">  1        2 0.51431242E-01 0.23455369E+03</pdfrwt>
<pdfrwt beam="1">  1       -2 0.63295209E-02 0.23455369E+03</pdfrwt>
<totfact> 0.12998675E+04</totfact>
</mgrwt>
</event>
<event>
 6    1  0.9263730E-006  0.2551779E+03  0.7546771E-02  0.1110076E+00
         -1   -1    0    0    0  501 -0.00000000000E+00  0.00000000000E+00  0.17458075648E+03  0.17458075648E+03  0.00000000000E+00 0.  1.
          1   -1    0    0  501    0  0.00000000000E+00 -0.00000000000E+00 -0.93245930251E+02  0.93245930251E+02  0.00000000000E+00 0. -1.
          5    1    1    2  502    0  0.54500555029E+02  0.75630842084E+02 -0.25043047587E+00  0.93340706491E+02  0.47000000000E+01 0. -1.
         -5    1    1    2    0  502 -0.38030100369E+02 -0.12004710883E+02  0.32114729205E+02  0.51418357125E+02  0.47000000000E+01 0. -1.
        -11    1    1    2    0    0  0.32729757036E+02 -0.33921054931E+02 -0.15209838666E+00  0.47137014089E+02  0.00000000000E+00 0. -1.
         11    1    1    2    0    0 -0.49200211696E+02 -0.29705076269E+02  0.49622625882E+02  0.75930609022E+02  0.00000000000E+00 0.  1.
<mgrwt>
<rscale>  0 0.25517794E+03</rscale>
<asrwt>0</asrwt>
<pdfrwt beam="2">  1        1 0.14345528E-01 0.25517794E+03</pdfrwt>
<pdfrwt beam="1">  1       -1 0.26858578E-01 0.25517794E+03</pdfrwt>
<totfact> 0.48280055E+03</totfact>
</mgrwt>
</event>
<event>
 6    1  0.9263730E-006  0.1614343E+03  0.7546771E-02  0.1194193E+00
         -2   -1    0    0    0  501 -0.00000000000E+00  0.00000000000E+00  0.50159334589E+02  0.50159334589E+02  0.00000000000E+00 0. -1.
          2   -1    0    0  501    0  0.00000000000E+00 -0.00000000000E+00 -0.44773746773E+03  0.44773746773E+03  0.00000000000E+00 0.  1.
          5    1    1    2  502    0  0.48116042483E+02 -0.56468651719E+02 -0.40692262921E+02  0.84745574710E+02  0.47000000000E+01 0. -1.
         -5    1    1    2    0  502 -0.31174451705E+02 -0.44261430906E+02 -0.18447811752E+03  0.19231533102E+03  0.47000000000E+01 0. -1.
        -11    1    1    2    0    0  0.90136389581E+01  0.93995729893E+02 -0.16928534533E+03  0.19384006570E+03  0.00000000000E+00 0.  1.
         11    1    1    2    0    0 -0.25955229736E+02  0.67343527319E+01 -0.31224073705E+01  0.26995830885E+02  0.00000000000E+00 0. -1.
<mgrwt>
<rscale>  0 0.15522686E+03</rscale>
<asrwt>0</asrwt>
<pdfrwt beam="2">  1        2 0.68882687E-01 0.16143434E+03</pdfrwt>
<pdfrwt beam="1">  1       -2 0.77168208E-02 0.16143434E+03</pdfrwt>
<totfact> 0.68202229E+03</totfact>
</mgrwt>
</event>
<event>
 6    1  0.9263730E-006  0.1493554E+03  0.7546771E-02  0.1210652E+00
          1   -1    0    0  501    0  0.00000000000E+00  0.00000000000E+00  0.13464397939E+03  0.13464397939E+03  0.00000000000E+00 0. -1.
         -1   -1    0    0    0  501 -0.00000000000E+00 -0.00000000000E+00 -0.13683244796E+03  0.13683244796E+03  0.00000000000E+00 0.  1.
          5    1    1    2  502    0  0.39065696812E+02 -0.42570603107E+02  0.25693194124E+02  0.63408320752E+02  0.47000000000E+01 0. -1.
         -5    1    1    2    0  502  0.36508522117E+02  0.73750314569E+02 -0.24368923726E+02  0.85952984415E+02  0.47000000000E+01 0. -1.
        -11    1    1    2    0    0 -0.93496131056E+02 -0.40448710617E+02 -0.21742900434E+01  0.10189382832E+03  0.00000000000E+00 0. -1.
         11    1    1    2    0    0  0.17921912128E+02  0.92689991550E+01 -0.13384489263E+01  0.20221293855E+02  0.00000000000E+00 0.  1.
<mgrwt>
<rscale>  0 0.14200813E+03</rscale>
<asrwt>0</asrwt>
<pdfrwt beam="1">  1        1 0.20714458E-01 0.14935543E+03</pdfrwt>
<pdfrwt beam="2">  1       -1 0.21051146E-01 0.14935543E+03</pdfrwt>
<totfact> 0.43559905E+03</totfact>
</mgrwt>
</event>
<event>
 6    1  0.9263730E-006  0.1354743E+03  0.7546771E-02  0.1231768E+00
          1   -1    0    0  501    0  0.00000000000E+00  0.00000000000E+00  0.71914725238E+02  0.71914725238E+02  0.00000000000E+00 0. -1.
         -1   -1    0    0    0  501 -0.00000000000E+00 -0.00000000000E+00 -0.28041215875E+03  0.28041215875E+03  0.00000000000E+00 0.  1.
          5    1    1    2  502    0 -0.23242786906E+02  0.30064381853E+02  0.50658663596E+02  0.63501845617E+02  0.47000000000E+01 0. -1.
         -5    1    1    2    0  502  0.16806414270E+01  0.17492819045E+02 -0.71241305263E+02  0.73527116422E+02  0.47000000000E+01 0. -1.
        -11    1    1    2    0    0 -0.21050408127E+02  0.14748051455E+02 -0.25533448014E+02  0.36229569022E+02  0.00000000000E+00 0. -1.
         11    1    1    2    0    0  0.42612553607E+02 -0.62305252353E+02 -0.16238134383E+03  0.17906835293E+03  0.00000000000E+00 0.  1.
<mgrwt>
<rscale>  0 0.12713640E+03</rscale>
<asrwt>0</asrwt>
<pdfrwt beam="1">  1        1 0.11063804E-01 0.13547432E+03</pdfrwt>
<pdfrwt beam="2">  1       -1 0.43140332E-01 0.13547432E+03</pdfrwt>
<totfact> 0.29098160E+03</totfact>
</mgrwt>
</event>
<event>
 6    1  0.9263730E-006  0.1358528E+03  0.7546771E-02  0.1231974E+00
          3   -1    0    0  501    0  0.00000000000E+00  0.00000000000E+00  0.77231422430E+02  0.77231422430E+02  0.00000000000E+00 0. -1.
         -3   -1    0    0    0  501 -0.00000000000E+00 -0.00000000000E+00 -0.18587542022E+03  0.18587542022E+03  0.00000000000E+00 0.  1.
          5    1    1    2  502    0 -0.24023228419E+02 -0.14689330170E+02 -0.88535820660E+02  0.93024585269E+02  0.47000000000E+01 0. -1.
         -5    1    1    2    0  502 -0.18107112918E+02  0.47152117533E+02  0.25458735789E+02  0.56757615824E+02  0.47000000000E+01 0. -1.
        -11    1    1    2    0    0  0.89634147050E+00 -0.19607816820E+02 -0.63570095698E+02  0.66531398419E+02  0.00000000000E+00 0.  1.
         11    1    1    2    0    0  0.41233999867E+02 -0.12854970543E+02  0.18003182783E+02  0.46793243134E+02  0.00000000000E+00 0. -1.
<mgrwt>
<rscale>  0 0.12700153E+03</rscale>
<asrwt>0</asrwt>
<pdfrwt beam="1">  1        3 0.11881757E-01 0.13585282E+03</pdfrwt>
<pdfrwt beam="2">  1       -3 0.28596218E-01 0.13585282E+03</pdfrwt>
<totfact> 0.14904045E+03</totfact>
</mgrwt>
</event>
<event>
 6    1  0.9263730E-006  0.1477237E+03  0.7546771E-02  0.1222099E+00
         -2   -1    0    0    0  501 -0.00000000000E+00  0.00000000000E+00  0.16805310926E+02  0.16805310926E+02  0.00000000000E+00 0.  1.
          2   -1    0    0  501    0  0.00000000000E+00 -0.00000000000E+00 -0.95919318755E+03  0.95919318755E+03  0.00000000000E+00 0. -1.
          5    1    1    2  502    0  0.71595100011E+02 -0.12419637351E+02 -0.45511847232E+03  0.46090673632E+03  0.47000000000E+01 0.  1.
         -5    1    1    2    0  502 -0.13790958317E+02  0.65878001134E+02 -0.21666736197E+03  0.22692936634E+03  0.47000000000E+01 0.  1.
        -11    1    1    2    0    0 -0.46497502484E+02 -0.27450121164E+01 -0.14270046532E+03  0.15010987852E+03  0.00000000000E+00 0. -1.
         11    1    1    2    0    0 -0.11306639211E+02 -0.50713351667E+02 -0.12790157701E+03  0.13805251729E+03  0.00000000000E+00 0.  1.
<mgrwt>
<rscale>  0 0.13367738E+03</rscale>
<asrwt>0</asrwt>
<pdfrwt beam="2">  1        2 0.14756821E+00 0.14772372E+03</pdfrwt>
<pdfrwt beam="1">  1       -2 0.25854320E-02 0.14772372E+03</pdfrwt>
<totfact> 0.14176177E+04</totfact>
</mgrwt>
</event>
<event>
 6    1  0.9263730E-006  0.7430778E+03  0.7546771E-02  0.1026922E+00
          2   -1    0    0  501    0  0.00000000000E+00  0.00000000000E+00  0.15738382660E+04  0.15738382660E+04  0.00000000000E+00 0. -1.
         -2   -1    0    0    0  501 -0.00000000000E+00 -0.00000000000E+00 -0.12220755191E+03  0.12220755191E+03  0.00000000000E+00 0.  1.
          5    1    1    2  502    0 -0.92317632482E+02  0.18972667069E+03  0.13125935102E+04  0.13294519803E+04  0.47000000000E+01 0. -1.
         -5    1    1    2    0  502  0.12889448580E+03 -0.19633363142E+03  0.78520913720E+02  0.24768590430E+03  0.47000000000E+01 0.  1.
        -11    1    1    2    0    0 -0.62906455616E+02  0.22117371568E+02  0.23034509803E+02  0.70547777605E+02  0.00000000000E+00 0.  1.
         11    1    1    2    0    0  0.26329602295E+02 -0.15510410836E+02  0.37481780306E+02  0.48360155668E+02  0.00000000000E+00 0. -1.
<mgrwt>
<rscale>  0 0.45269393E+03</rscale>
<asrwt>0</asrwt>
<pdfrwt beam="1">  1        2 0.24212895E+00 0.74307777E+03</pdfrwt>
<pdfrwt beam="2">  1       -2 0.18801163E-01 0.74307777E+03</pdfrwt>
<totfact> 0.27841892E+02</totfact>
</mgrwt>
</event>
<event>
 6    1  0.9263730E-006  0.1476520E+03  0.7546771E-02  0.1208095E+00
          1   -1    0    0  501    0  0.00000000000E+00  0.00000000000E+00  0.11363432850E+03  0.11363432850E+03  0.00000000000E+00 0. -1.
         -1   -1    0    0    0  501 -0.00000000000E+00 -0.00000000000E+00 -0.30501247527E+03  0.30501247527E+03  0.00000000000E+00 0.  1.
          5    1    1    2  502    0  0.15877406018E+02 -0.67930393419E+02  0.66698079044E+02  0.96629985615E+02  0.47000000000E+01 0. -1.
         -5    1    1    2    0  502  0.47896467398E+02 -0.62968305762E+01 -0.27966723876E+02  0.56017401840E+02  0.47000000000E+01 0.  1.
        -11    1    1    2    0    0 -0.86030937303E+02  0.48302967701E+02 -0.15933801008E+03  0.18741158000E+03  0.00000000000E+00 0.  1.
         11    1    1    2    0    0  0.22257063888E+02  0.25924256294E+02 -0.70771491855E+02  0.78587836315E+02  0.00000000000E+00 0. -1.
<mgrwt>
<rscale>  0 0.14396209E+03</rscale>
<asrwt>0</asrwt>
<pdfrwt beam="1">  1        1 0.17482204E-01 0.14765198E+03</pdfrwt>
<pdfrwt beam="2">  1       -1 0.46924996E-01 0.14765198E+03</pdfrwt>
<totfact> 0.13843922E+03</totfact>
</mgrwt>
</event>
<event>
 6    1  0.9263730E-006  0.4748569E+03  0.7546771E-02  0.1020558E+00
         -2   -1    0    0    0  501 -0.00000000000E+00  0.00000000000E+00  0.16485102473E+03  0.16485102473E+03  0.00000000000E+00 0.  1.
          2   -1    0    0  501    0  0.00000000000E+00 -0.00000000000E+00 -0.34195892127E+03  0.34195892127E+03  0.00000000000E+00 0. -1.
          5    1    1    2  502    0 -0.53426320698E+01  0.30482429706E+02 -0.52975840403E+02  0.61532527208E+02  0.47000000000E+01 0.  1.
         -5    1    1    2    0  502  0.13458023251E+03 -0.72599816741E+02 -0.21127256086E+03  0.26084623314E+03  0.47000000000E+01 0.  1.
        -11    1    1    2    0    0 -0.22823010244E+02  0.45523727886E+02  0.50802242174E+02  0.71931685697E+02  0.00000000000E+00 0. -1.
         11    1    1    2    0    0 -0.10641459020E+03 -0.34063408511E+01  0.36338262552E+02  0.11249949995E+03  0.00000000000E+00 0.  1.
<mgrwt>
<rscale>  0 0.47485694E+03</rscale>
<asrwt>0</asrwt>
<pdfrwt beam="2">  1        2 0.52609065E-01 0.47485694E+03</pdfrwt>
<pdfrwt beam="1">  1       -2 0.25361696E-01 0.47485694E+03</pdfrwt>
<totfact> 0.13219990E+03</totfact>
</mgrwt>
</event>
<event>
 6    1  0.9263730E-006  0.2376343E+03  0.7546771E-02  0.1124111E+00
         -1   -1    0    0    0  501 -0.00000000000E+00  0.00000000000E+00  0.17899945828E+03  0.17899945828E+03  0.00000000000E+00 0.  1.
          1   -1    0    0  501    0  0.00000000000E+00 -0.00000000000E+00 -0.36129510787E+03  0.36129510787E+03  0.00000000000E+00 0. -1.
          5    1    1    2  502    0  0.52072778486E+02 -0.18942075740E+03 -0.18349306824E+03  0.26885608359E+03  0.47000000000E+01 0. -1.
         -5    1    1    2    0  502 -0.38059396016E+02 -0.12196317824E+02 -0.25780063774E+02  0.47790893294E+02  0.47000000000E+01 0. -1.
        -11    1    1    2    0    0  0.29750482097E+02  0.21905527421E+02  0.19266137390E+01  0.36995339667E+02  0.00000000000E+00 0.  1.
         11    1    1    2    0    0 -0.43763864567E+02  0.17971154780E+03  0.25050868681E+02  0.18665224959E+03  0.00000000000E+00 0. -1.
<mgrwt>
<rscale>  0 0.23362925E+03</rscale>
<asrwt>0</asrwt>
<pdfrwt beam="2">  1        1 0.55583862E-01 0.23763431E+03</pdfrwt>
<pdfrwt beam="1">  1       -1 0.27538378E-01 0.23763431E+03</pdfrwt>
<totfact> 0.81902581E+02</totfact>
</mgrwt>
</event>
<event>
 6    1  0.9263730E-006  0.2686780E+03  0.7546771E-02  0.1102039E+00
          2   -1    0    0  501    0  0.00000000000E+00  0.00000000000E+00  0.89819131174E+03  0.89819131174E+03  0.00000000000E+00 0.  1.
         -2   -1    0    0    0  501 -0.00000000000E+00 -0.00000000000E+00 -0.20092559289E+02  0.20092559289E+02  0.00000000000E+00 0. -1.
          5    1    1    2  502    0  0.56412257249E+02 -0.63908421845E+02  0.56445333896E+03  0.57087327054E+03  0.47000000000E+01 0. -1.
         -5    1    1    2    0  502 -0.38218875863E+02 -0.25832934592E+01  0.75360481748E+02  0.84667869269E+02  0.47000000000E+01 0. -1.
        -11    1    1    2    0    0  0.20326902497E+02  0.40252524736E+02  0.19137212300E+03  0.19661316888E+03  0.00000000000E+00 0. -1.
         11    1    1    2    0    0 -0.38520283883E+02  0.26239190569E+02  0.46912808735E+02  0.66129562342E+02  0.00000000000E+00 0.  1.
<mgrwt>
<rscale>  0 0.26867796E+03</rscale>
<asrwt>0</asrwt>
<pdfrwt beam="1">  1        2 0.13818325E+00 0.26867796E+03</pdfrwt>
<pdfrwt beam="2">  1       -2 0.30911637E-02 0.26867796E+03</pdfrwt>
<totfact> 0.12287315E+04</totfact>
</mgrwt>
</event>
<event>
 6    1  0.9263730E-006  0.2200040E+03  0.7546771E-02  0.1157510E+00
         -1   -1    0    0    0  501 -0.00000000000E+00  0.00000000000E+00  0.68312715949E+03  0.68312715949E+03  0.00000000000E+00 0.  1.
          1   -1    0    0  501    0  0.00000000000E+00 -0.00000000000E+00 -0.43624950851E+02  0.43624950851E+02  0.00000000000E+00 0. -1.
          5    1    1    2  502    0  0.48889458154E+02 -0.64114256779E+02  0.16882273935E+03  0.18714706614E+03  0.47000000000E+01 0. -1.
         -5    1    1    2    0  502 -0.68861650255E+01  0.13849773449E+03  0.24809490017E+03  0.28425729756E+03  0.47000000000E+01 0.  1.
        -11    1    1    2    0    0  0.76840389229E+01 -0.55824733475E+02  0.17584095332E+03  0.18464963088E+03  0.00000000000E+00 0.  1.
         11    1    1    2    0    0 -0.49687332051E+02 -0.18558744234E+02  0.46743615800E+02  0.70698115760E+02  0.00000000000E+00 0. -1.
<mgrwt>
<rscale>  0 0.19105877E+03</rscale>
<asrwt>0</asrwt>
<pdfrwt beam="2">  1        1 0.67115314E-02 0.22000399E+03</pdfrwt>
<pdfrwt beam="1">  1       -1 0.10509648E+00 0.22000399E+03</pdfrwt>
<totfact> 0.99252746E+02</totfact>
</mgrwt>
</event>
<event>
 6    1  0.9263730E-006  0.1425691E+03  0.7546771E-02  0.1220129E+00
         -2   -1    0    0    0  501 -0.00000000000E+00  0.00000000000E+00  0.50305741380E+02  0.50305741380E+02  0.00000000000E+00 0.  1.
          2   -1    0    0  501    0  0.00000000000E+00 -0.00000000000E+00 -0.33583297982E+03  0.33583297982E+03  0.00000000000E+00 0. -1.
          5    1    1    2  502    0 -0.25130011175E+02 -0.34942663796E+02 -0.19529682189E+03  0.20003861091E+03  0.47000000000E+01 0.  1.
         -5    1    1    2    0  502 -0.30790820697E+02 -0.47320497656E+01  0.10638253831E+02  0.33252509360E+02  0.47000000000E+01 0.  1.
        -11    1    1    2    0    0  0.31981219961E+01 -0.25376491014E+02 -0.59237659324E+01  0.26254243149E+02  0.00000000000E+00 0.  1.
         11    1    1    2    0    0  0.52722709876E+02  0.65051204576E+02 -0.94944904451E+02  0.12659335778E+03  0.00000000000E+00 0. -1.
<mgrwt>
<rscale>  0 0.13506447E+03</rscale>
<asrwt>0</asrwt>
<pdfrwt beam="2">  1        2 0.51666610E-01 0.14256914E+03</pdfrwt>
<pdfrwt beam="1">  1       -2 0.77393452E-02 0.14256914E+03</pdfrwt>
<totfact> 0.91694954E+03</totfact>
</mgrwt>
</event>
<event>
 6    1  0.9263730E-006  0.1347574E+03  0.7546771E-02  0.1238551E+00
          2   -1    0    0  501    0  0.00000000000E+00  0.00000000000E+00  0.36744309845E+03  0.36744309845E+03  0.00000000000E+00 0. -1.
         -2   -1    0    0    0  501 -0.00000000000E+00 -0.00000000000E+00 -0.48732233225E+02  0.48732233225E+02  0.00000000000E+00 0.  1.
          5    1    1    2  502    0  0.44273399517E+01  0.38700777781E+02  0.23897016370E+03  0.24216973527E+03  0.47000000000E+01 0. -1.
         -5    1    1    2    0  502 -0.23504349784E+02 -0.52816423077E+02  0.49609064050E+02  0.76322855301E+02  0.47000000000E+01 0.  1.
        -11    1    1    2    0    0  0.56980041051E+01  0.51751433145E+02  0.23779958004E+02  0.57237788969E+02  0.00000000000E+00 0. -1.
         11    1    1    2    0    0  0.13379005727E+02 -0.37635787849E+02  0.63516794678E+01  0.40444952136E+02  0.00000000000E+00 0.  1.
<mgrwt>
<rscale>  0 0.12279792E+03</rscale>
<asrwt>0</asrwt>
<pdfrwt beam="1">  1        2 0.56529706E-01 0.13475741E+03</pdfrwt>
<pdfrwt beam="2">  1       -2 0.74972669E-02 0.13475741E+03</pdfrwt>
<totfact> 0.87169979E+03</totfact>
</mgrwt>
</event>
<event>
 6    1  0.9263730E-006  0.1299332E+03  0.7546771E-02  0.1274039E+00
         -2   -1    0    0    0  501 -0.00000000000E+00  0.00000000000E+00  0.56581164740E+01  0.56581164740E+01  0.00000000000E+00 0.  1.
          2   -1    0    0  501    0  0.00000000000E+00 -0.00000000000E+00 -0.22021068028E+04  0.22021068028E+04  0.00000000000E+00 0. -1.
          5    1    1    2  502    0  0.22971536232E+02  0.97515167679E+01 -0.16702906661E+04  0.16704836972E+04  0.47000000000E+01 0. -1.
         -5    1    1    2    0  502 -0.35585244733E+02  0.38458837289E+02 -0.34463006522E+03  0.34862209290E+03  0.47000000000E+01 0.  1.
        -11    1    1    2    0    0 -0.70110001796E+00 -0.20681578429E+02 -0.79292745870E+02  0.81948512953E+02  0.00000000000E+00 0.  1.
         11    1    1    2    0    0  0.13314808519E+02 -0.27528775627E+02 -0.10223520920E+03  0.10671061622E+03  0.00000000000E+00 0. -1.
<mgrwt>
<rscale>  0 0.10303574E+03</rscale>
<asrwt>0</asrwt>
<pdfrwt beam="2">  1        2 0.33878637E+00 0.12993321E+03</pdfrwt>
<pdfrwt beam="1">  1       -2 0.87047763E-03 0.12993321E+03</pdfrwt>
<totfact> 0.14807847E+04</totfact>
</mgrwt>
</event>
<event>
 6    1  0.9263730E-006  0.2780489E+03  0.7546771E-02  0.1096759E+00
          2   -1    0    0  501    0  0.00000000000E+00  0.00000000000E+00  0.18872461332E+03  0.18872461332E+03  0.00000000000E+00 0. -1.
         -2   -1    0    0    0  501 -0.00000000000E+00 -0.00000000000E+00 -0.10241271226E+03  0.10241271226E+03  0.00000000000E+00 0.  1.
          5    1    1    2  502    0  0.11630229794E+03  0.47241472929E+01  0.57218286921E+02  0.12978661114E+03  0.47000000000E+01 0. -1.
         -5    1    1    2    0  502 -0.32865188622E+02  0.79212451405E+01  0.12233525627E+02  0.36257632258E+02  0.47000000000E+01 0. -1.
        -11    1    1    2    0    0 -0.59084272877E+02  0.17496408173E+02 -0.26380475861E+02  0.67029882194E+02  0.00000000000E+00 0.  1.
         11    1    1    2    0    0 -0.24352836437E+02 -0.30141800607E+02  0.43240564372E+02  0.58063199994E+02  0.00000000000E+00 0. -1.
<mgrwt>
<rscale>  0 0.27804891E+03</rscale>
<asrwt>0</asrwt>
<pdfrwt beam="1">  1        2 0.29034556E-01 0.27804891E+03</pdfrwt>
<pdfrwt beam="2">  1       -2 0.15755802E-01 0.27804891E+03</pdfrwt>
<totfact> 0.56961249E+03</totfact>
</mgrwt>
</event>
<event>
 6    1  0.9263730E-006  0.3911991E+03  0.7546771E-02  0.1046870E+00
         -2   -1    0    0    0  501 -0.00000000000E+00  0.00000000000E+00  0.18300079301E+03  0.18300079301E+03  0.00000000000E+00 0. -1.
          2   -1    0    0  501    0  0.00000000000E+00 -0.00000000000E+00 -0.20906571619E+03  0.20906571619E+03  0.00000000000E+00 0.  1.
          5    1    1    2  502    0 -0.14459375331E+03 -0.67237058308E+02  0.16597350963E+02  0.16039244859E+03  0.47000000000E+01 0.  1.
         -5    1    1    2    0  502  0.28597057026E+01 -0.11930719823E+02 -0.44491814661E+02  0.46391072029E+02  0.47000000000E+01 0.  1.
        -11    1    1    2    0    0  0.85815501563E+02  0.84864042362E+01  0.29279393104E+02  0.91069216675E+02  0.00000000000E+00 0. -1.
         11    1    1    2    0    0  0.55918546048E+02  0.70681373894E+02 -0.27449852584E+02  0.94213771894E+02  0.00000000000E+00 0.  1.
<mgrwt>
<rscale>  0 0.39119914E+03</rscale>
<asrwt>0</asrwt>
<pdfrwt beam="2">  1        2 0.32163957E-01 0.39119914E+03</pdfrwt>
<pdfrwt beam="1">  1       -2 0.28153968E-01 0.39119914E+03</pdfrwt>
<totfact> 0.18763148E+03</totfact>
</mgrwt>
</event>
<event>
 6    1  0.9263730E-006  0.2381581E+03  0.7546771E-02  0.1123765E+00
         -1   -1    0    0    0  501 -0.00000000000E+00  0.00000000000E+00  0.56306754815E+03  0.56306754815E+03  0.00000000000E+00 0.  1.
          1   -1    0    0  501    0  0.00000000000E+00 -0.00000000000E+00 -0.14211029982E+03  0.14211029982E+03  0.00000000000E+00 0. -1.
          5    1    1    2  502    0  0.42091389603E+02 -0.77560764182E+02  0.46752355814E+02  0.99976147122E+02  0.47000000000E+01 0. -1.
         -5    1    1    2    0  502  0.13032968957E+03 -0.29046573081E+02 -0.36162505185E+02  0.13841729723E+03  0.47000000000E+01 0. -1.
        -11    1    1    2    0    0 -0.11106936562E+03  0.11203697537E+03  0.32767391521E+03  0.36367414334E+03  0.00000000000E+00 0.  1.
         11    1    1    2    0    0 -0.61351713557E+02 -0.54296381067E+01  0.82693482496E+02  0.10311026027E+03  0.00000000000E+00 0. -1.
<mgrwt>
<rscale>  0 0.23413139E+03</rscale>
<asrwt>0</asrwt>
<pdfrwt beam="2">  1        1 0.21863123E-01 0.23815812E+03</pdfrwt>
<pdfrwt beam="1">  1       -1 0.86625775E-01 0.23815812E+03</pdfrwt>
<totfact> 0.31557430E+02</totfact>
</mgrwt>
</event>
<event>
 6    1  0.9263730E-006  0.1326120E+03  0.7546771E-02  0.1235706E+00
         -2   -1    0    0    0  501 -0.00000000000E+00  0.00000000000E+00  0.19747446428E+02  0.19747446428E+02  0.00000000000E+00 0.  1.
          2   -1    0    0  501    0  0.00000000000E+00 -0.00000000000E+00 -0.72818850866E+03  0.72818850866E+03  0.00000000000E+00 0. -1.
          5    1    1    2  502    0 -0.39480137362E+02  0.36537422271E+01 -0.74463323724E+02  0.84492056777E+02  0.47000000000E+01 0.  1.
         -5    1    1    2    0  502  0.81221897023E+02  0.11127821795E+02 -0.38887400430E+03  0.39744924983E+03  0.47000000000E+01 0.  1.
        -11    1    1    2    0    0  0.10946199034E+02 -0.28595957336E+02 -0.25836711735E+02  0.40063496135E+02  0.00000000000E+00 0.  1.
         11    1    1    2    0    0 -0.52687958695E+02  0.13814393314E+02 -0.21926702248E+03  0.22593115235E+03  0.00000000000E+00 0. -1.
<mgrwt>
<rscale>  0 0.12459335E+03</rscale>
<asrwt>0</asrwt>
<pdfrwt beam="2">  1        2 0.11202903E+00 0.13261200E+03</pdfrwt>
<pdfrwt beam="1">  1       -2 0.30380680E-02 0.13261200E+03</pdfrwt>
<totfact> 0.15759014E+04</totfact>
</mgrwt>
</event>
<event>
 6    1  0.9263730E-006  0.4241680E+03  0.7546771E-02  0.1035718E+00
          1   -1    0    0  501    0  0.00000000000E+00  0.00000000000E+00  0.96421881599E+03  0.96421881599E+03  0.00000000000E+00 0. -1.
         -1   -1    0    0    0  501 -0.00000000000E+00 -0.00000000000E+00 -0.46648767530E+02  0.46648767530E+02  0.00000000000E+00 0.  1.
          5    1    1    2  502    0  0.13328560658E+03  0.35703550253E+02  0.63471426409E+03  0.64955683621E+03  0.47000000000E+01 0. -1.
         -5    1    1    2    0  502  0.63434852099E+01 -0.38521986994E+02  0.12681062412E+03  0.13276749481E+03  0.47000000000E+01 0.  1.
        -11    1    1    2    0    0 -0.10385017987E+03 -0.29370186386E+02  0.66170661478E+02  0.12659393409E+03  0.00000000000E+00 0.  1.
         11    1    1    2    0    0 -0.35778911914E+02  0.32188623128E+02  0.89874498767E+02  0.10194931842E+03  0.00000000000E+00 0. -1.
<mgrwt>
<rscale>  0 0.42416798E+03</rscale>
<asrwt>0</asrwt>
<pdfrwt beam="1">  1        1 0.14834134E+00 0.42416798E+03</pdfrwt>
<pdfrwt beam="2">  1       -1 0.71767342E-02 0.42416798E+03</pdfrwt>
<totfact> 0.17319349E+03</totfact>
</mgrwt>
</event>
<event>
 6    1  0.9263730E-006  0.1435336E+03  0.7546771E-02  0.1220730E+00
         -1   -1    0    0    0  501 -0.00000000000E+00  0.00000000000E+00  0.68022590353E+02  0.68022590353E+02  0.00000000000E+00 0.  1.
          1   -1    0    0  501    0  0.00000000000E+00 -0.00000000000E+00 -0.26230736004E+03  0.26230736004E+03  0.00000000000E+00 0. -1.
          5    1    1    2  502    0 -0.82012094285E+02 -0.37362852088E+02 -0.13368906337E+03  0.16129730930E+03  0.47000000000E+01 0. -1.
         -5    1    1    2    0  502  0.11811802604E+02  0.44342634111E+02 -0.24233207773E+02  0.52106873248E+02  0.47000000000E+01 0. -1.
        -11    1    1    2    0    0  0.77953356723E+02  0.13798626081E+02 -0.60904585354E+01  0.79399128404E+02  0.00000000000E+00 0.  1.
         11    1    1    2    0    0 -0.77530650428E+01 -0.20778408105E+02 -0.30272040013E+02  0.37526639437E+02  0.00000000000E+00 0. -1.
<mgrwt>
<rscale>  0 0.13463903E+03</rscale>
<asrwt>0</asrwt>
<pdfrwt beam="2">  1        1 0.40354978E-01 0.14353362E+03</pdfrwt>
<pdfrwt beam="1">  1       -1 0.10465014E-01 0.14353362E+03</pdfrwt>
<totfact> 0.56565770E+03</totfact>
</mgrwt>
</event>
<event>
 6    1  0.9263730E-006  0.2990063E+03  0.7546771E-02  0.1087125E+00
         -2   -1    0    0    0  501 -0.00000000000E+00  0.00000000000E+00  0.57826982907E+02  0.57826982907E+02  0.00000000000E+00 0.  1.
          2   -1    0    0  501    0  0.00000000000E+00 -0.00000000000E+00 -0.15560662094E+04  0.15560662094E+04  0.00000000000E+00 0. -1.
          5    1    1    2  502    0  0.22193386712E+03  0.11252050457E+03 -0.90200161740E+03  0.93570535593E+03  0.47000000000E+01 0. -1.
         -5    1    1    2    0  502  0.11262403221E+02  0.26754189966E+02 -0.25911713115E+02  0.39193561762E+02  0.47000000000E+01 0. -1.
        -11    1    1    2    0    0 -0.10831783898E+03 -0.10754210878E+02 -0.20659317688E+03  0.23351477046E+03  0.00000000000E+00 0. -1.
         11    1    1    2    0    0 -0.12487843136E+03 -0.12852048366E+03 -0.36373271908E+03  0.40547950413E+03  0.00000000000E+00 0.  1.
<mgrwt>
<rscale>  0 0.29625964E+03</rscale>
<asrwt>0</asrwt>
<pdfrwt beam="2">  1        2 0.23939481E+00 0.29900627E+03</pdfrwt>
<pdfrwt beam="1">  1       -2 0.88964585E-02 0.29900627E+03</pdfrwt>
<totfact> 0.10172594E+03</totfact>
</mgrwt>
</event>
<event>
 6    1  0.9263730E-006  0.1290212E+03  0.7546771E-02  0.1243189E+00
          2   -1    0    0  501    0  0.00000000000E+00  0.00000000000E+00  0.96485376952E+03  0.96485376952E+03  0.00000000000E+00 0. -1.
         -2   -1    0    0    0  501 -0.00000000000E+00 -0.00000000000E+00 -0.13407540544E+02  0.13407540544E+02  0.00000000000E+00 0.  1.
          5    1    1    2  502    0 -0.13951362408E+02  0.27288607553E+02  0.58704039789E+03  0.58785867976E+03  0.47000000000E+01 0. -1.
         -5    1    1    2    0  502 -0.17157829328E+02 -0.19931773499E+02  0.21741165929E+02  0.34444665741E+02  0.47000000000E+01 0. -1.
        -11    1    1    2    0    0  0.26945587574E+02 -0.43283175873E+02  0.27021184415E+03  0.27497988785E+03  0.00000000000E+00 0. -1.
         11    1    1    2    0    0  0.41636041615E+01  0.35926341819E+02  0.72452821007E+02  0.80978076712E+02  0.00000000000E+00 0.  1.
<mgrwt>
<rscale>  0 0.11994445E+03</rscale>
<asrwt>0</asrwt>
<pdfrwt beam="1">  1        2 0.14843899E+00 0.12902117E+03</pdfrwt>
<pdfrwt beam="2">  1       -2 0.20626993E-02 0.12902117E+03</pdfrwt>
<totfact> 0.19370424E+04</totfact>
</mgrwt>
</event>
<event>
 6    1  0.9263730E-006  0.1256314E+03  0.7546771E-02  0.1249496E+00
          2   -1    0    0  501    0  0.00000000000E+00  0.00000000000E+00  0.10042375047E+03  0.10042375047E+03  0.00000000000E+00 0. -1.
         -2   -1    0    0    0  501 -0.00000000000E+00 -0.00000000000E+00 -0.11875008608E+03  0.11875008608E+03  0.00000000000E+00 0.  1.
          5    1    1    2  502    0 -0.16560126527E+02 -0.51285158938E+02  0.17217712019E+02  0.56770986649E+02  0.47000000000E+01 0.  1.
         -5    1    1    2    0  502  0.22982935492E+02  0.62076061679E+02 -0.18406191755E+02  0.68866034098E+02  0.47000000000E+01 0.  1.
        -11    1    1    2    0    0  0.20865663253E+02 -0.75320595056E+01  0.30992104022E+02  0.38113230446E+02  0.00000000000E+00 0. -1.
         11    1    1    2    0    0 -0.27288472218E+02 -0.32588432351E+01 -0.48129959894E+02  0.55423585365E+02  0.00000000000E+00 0.  1.
<mgrwt>
<rscale>  0 0.11620254E+03</rscale>
<asrwt>0</asrwt>
<pdfrwt beam="1">  1        2 0.15449808E-01 0.12563140E+03</pdfrwt>
<pdfrwt beam="2">  1       -2 0.18269244E-01 0.12563140E+03</pdfrwt>
<totfact> 0.86485923E+03</totfact>
</mgrwt>
</event>
<event>
 6    1  0.9263730E-006  0.1383259E+03  0.7546771E-02  0.1227859E+00
          1   -1    0    0  501    0  0.00000000000E+00  0.00000000000E+00  0.13587131360E+03  0.13587131360E+03  0.00000000000E+00 0. -1.
         -1   -1    0    0    0  501 -0.00000000000E+00 -0.00000000000E+00 -0.11716995476E+03  0.11716995476E+03  0.00000000000E+00 0.  1.
          5    1    1    2  502    0 -0.14687692826E+02 -0.53578889706E+02  0.11388024640E+02  0.56905209321E+02  0.47000000000E+01 0. -1.
         -5    1    1    2    0  502  0.72230543555E+02  0.39083468128E+02  0.28477149080E+02  0.87050599785E+02  0.47000000000E+01 0. -1.
        -11    1    1    2    0    0 -0.45767342114E+02 -0.15448283516E+02  0.23756799483E+02  0.53830145731E+02  0.00000000000E+00 0. -1.
         11    1    1    2    0    0 -0.11775508615E+02  0.29943705094E+02 -0.44920614363E+02  0.55255313524E+02  0.00000000000E+00 0.  1.
<mgrwt>
<rscale>  0 0.12972881E+03</rscale>
<asrwt>0</asrwt>
<pdfrwt beam="1">  1        1 0.20903279E-01 0.13832586E+03</pdfrwt>
<pdfrwt beam="2">  1       -1 0.18026147E-01 0.13832586E+03</pdfrwt>
<totfact> 0.54972922E+03</totfact>
</mgrwt>
</event>
<event>
 6    1  0.9263730E-006  0.4667032E+03  0.7546771E-02  0.1022855E+00
          2   -1    0    0  501    0  0.00000000000E+00  0.00000000000E+00  0.21298648614E+04  0.21298648614E+04  0.00000000000E+00 0. -1.
         -2   -1    0    0    0  501 -0.00000000000E+00 -0.00000000000E+00 -0.25566392887E+02  0.25566392887E+02  0.00000000000E+00 0.  1.
          5    1    1    2  502    0 -0.94956238139E+02 -0.73355212382E+02  0.18039153474E+04  0.18079077258E+04  0.47000000000E+01 0. -1.
         -5    1    1    2    0  502  0.10737635757E+02  0.13538926326E+02  0.54648340571E+01  0.18723080916E+02  0.47000000000E+01 0.  1.
        -11    1    1    2    0    0  0.18706495273E+02  0.71311681394E+02  0.11126293574E+03  0.13347183125E+03  0.00000000000E+00 0. -1.
         11    1    1    2    0    0  0.65512107109E+02 -0.11495395338E+02  0.18365535125E+03  0.19532861627E+03  0.00000000000E+00 0.  1.
<mgrwt>
<rscale>  0 0.46670317E+03</rscale>
<asrwt>0</asrwt>
<pdfrwt beam="1">  1        2 0.32767138E+00 0.46670317E+03</pdfrwt>
<pdfrwt beam="2">  1       -2 0.39332929E-02 0.46670317E+03</pdfrwt>
<totfact> 0.17638360E+03</totfact>
</mgrwt>
</event>
<event>
 6    1  0.9263730E-006  0.1306023E+03  0.7546771E-02  0.1240599E+00
          3   -1    0    0  501    0  0.00000000000E+00  0.00000000000E+00  0.14230651399E+03  0.14230651399E+03  0.00000000000E+00 0. -1.
         -3   -1    0    0    0  501 -0.00000000000E+00 -0.00000000000E+00 -0.92623334563E+02  0.92623334563E+02  0.00000000000E+00 0.  1.
          5    1    1    2  502    0  0.42378018166E+02 -0.34952423743E+02  0.67657220808E+02  0.87276330564E+02  0.47000000000E+01 0.  1.
         -5    1    1    2    0  502 -0.48581880687E+01  0.39990125034E+02 -0.27918738578E+02  0.49237770617E+02  0.47000000000E+01 0.  1.
        -11    1    1    2    0    0 -0.21046130122E+02 -0.46386481598E+02  0.16238449570E+02  0.53463375432E+02  0.00000000000E+00 0. -1.
         11    1    1    2    0    0 -0.16473699976E+02  0.41348780307E+02 -0.62937523765E+01  0.44952371937E+02  0.00000000000E+00 0.  1.
<mgrwt>
<rscale>  0 0.12152679E+03</rscale>
<asrwt>0</asrwt>
<pdfrwt beam="1">  1        3 0.21893310E-01 0.13060227E+03</pdfrwt>
<pdfrwt beam="2">  1       -3 0.14249744E-01 0.13060227E+03</pdfrwt>
<totfact> 0.17651171E+03</totfact>
</mgrwt>
</event>
<event>
 6    1  0.9263730E-006  0.3178544E+03  0.7546771E-02  0.1078451E+00
         -1   -1    0    0    0  501 -0.00000000000E+00  0.00000000000E+00  0.75781179124E+03  0.75781179124E+03  0.00000000000E+00 0.  1.
          1   -1    0    0  501    0  0.00000000000E+00 -0.00000000000E+00 -0.13054162867E+03  0.13054162867E+03  0.00000000000E+00 0. -1.
          5    1    1    2  502    0  0.87016420128E+02  0.12246947986E+03  0.48678141025E+02  0.15799456409E+03  0.47000000000E+01 0. -1.
         -5    1    1    2    0  502  0.40197875138E+02  0.13681074482E+03  0.19952984772E+03  0.24529023460E+03  0.47000000000E+01 0.  1.
        -11    1    1    2    0    0 -0.49939084526E+02 -0.43124062026E+02  0.45493691966E+02  0.80145323617E+02  0.00000000000E+00 0.  1.
         11    1    1    2    0    0 -0.77275210741E+02 -0.21615616265E+03  0.33356848186E+03  0.40492329760E+03  0.00000000000E+00 0. -1.
<mgrwt>
<rscale>  0 0.31398590E+03</rscale>
<asrwt>0</asrwt>
<pdfrwt beam="2">  1        1 0.20083328E-01 0.31785441E+03</pdfrwt>
<pdfrwt beam="1">  1       -1 0.11658643E+00 0.31785441E+03</pdfrwt>
<totfact> 0.18000552E+02</totfact>
</mgrwt>
</event>
<event>
 6    1  0.9263730E-006  0.1601467E+03  0.7546771E-02  0.1195746E+00
          2   -1    0    0  501    0  0.00000000000E+00  0.00000000000E+00  0.66887290342E+03  0.66887290342E+03  0.00000000000E+00 0. -1.
         -2   -1    0    0    0  501 -0.00000000000E+00 -0.00000000000E+00 -0.35430518888E+02  0.35430518888E+02  0.00000000000E+00 0.  1.
          5    1    1    2  502    0 -0.37191286984E+02  0.25776472460E+02  0.14826455571E+03  0.15508735229E+03  0.47000000000E+01 0.  1.
         -5    1    1    2    0  502 -0.12076794520E+02 -0.11292231156E+03  0.28525047429E+03  0.30706224206E+03  0.47000000000E+01 0.  1.
        -11    1    1    2    0    0  0.18187154204E+02 -0.17501495956E+02  0.56726053916E+02  0.62088003121E+02  0.00000000000E+00 0.  1.
         11    1    1    2    0    0  0.31080927300E+02  0.10464733506E+03  0.14320130061E+03  0.18006582483E+03  0.00000000000E+00 0. -1.
<mgrwt>
<rscale>  0 0.15391266E+03</rscale>
<asrwt>0</asrwt>
<pdfrwt beam="1">  1        2 0.10290351E+00 0.16014670E+03</pdfrwt>
<pdfrwt beam="2">  1       -2 0.54508496E-02 0.16014670E+03</pdfrwt>
<totfact> 0.73831873E+03</totfact>
</mgrwt>
</event>
<event>
 6    1  0.9263730E-006  0.1391626E+03  0.7546771E-02  0.1218759E+00
         -2   -1    0    0    0  501 -0.00000000000E+00  0.00000000000E+00  0.21544766514E+03  0.21544766514E+03  0.00000000000E+00 0.  1.
          2   -1    0    0  501    0  0.00000000000E+00 -0.00000000000E+00 -0.86462839544E+02  0.86462839544E+02  0.00000000000E+00 0. -1.
          5    1    1    2  502    0 -0.11715141281E+02 -0.15248160208E+02  0.75586561753E+02  0.78135582436E+02  0.47000000000E+01 0.  1.
         -5    1    1    2    0  502  0.20958835123E+02 -0.55533904488E+01 -0.47136472128E+02  0.52096544222E+02  0.47000000000E+01 0.  1.
        -11    1    1    2    0    0  0.90772173211E+01 -0.36100785666E+02  0.10532324646E+03  0.11170787280E+03  0.00000000000E+00 0. -1.
         11    1    1    2    0    0 -0.18320911163E+02  0.56902336323E+02 -0.47885104882E+01  0.59970505230E+02  0.00000000000E+00 0.  1.
<mgrwt>
<rscale>  0 0.13604007E+03</rscale>
<asrwt>0</asrwt>
<pdfrwt beam="2">  1        2 0.13301975E-01 0.13916261E+03</pdfrwt>
<pdfrwt beam="1">  1       -2 0.33145794E-01 0.13916261E+03</pdfrwt>
<totfact> 0.36755420E+03</totfact>
</mgrwt>
</event>
<event>
 6    1  0.9263730E-006  0.1408229E+03  0.7546771E-02  0.1222649E+00
          2   -1    0    0  501    0  0.00000000000E+00  0.00000000000E+00  0.15844509630E+04  0.15844509630E+04  0.00000000000E+00 0. -1.
         -2   -1    0    0    0  501 -0.00000000000E+00 -0.00000000000E+00 -0.10967289554E+02  0.10967289554E+02  0.00000000000E+00 0.  1.
          5    1    1    2  502    0  0.84693170768E+02 -0.41951917838E+02  0.54112142068E+03  0.54933357671E+03  0.47000000000E+01 0.  1.
         -5    1    1    2    0  502 -0.23430132497E+02  0.20671837468E+02  0.53957405870E+03  0.54049842811E+03  0.47000000000E+01 0.  1.
        -11    1    1    2    0    0 -0.70442784546E+02 -0.16881083144E+02  0.28064272865E+03  0.28984046993E+03  0.00000000000E+00 0.  1.
         11    1    1    2    0    0  0.91797462753E+01  0.38161163514E+02  0.21214546547E+03  0.21574577786E+03  0.00000000000E+00 0. -1.
<mgrwt>
<rscale>  0 0.13329368E+03</rscale>
<asrwt>0</asrwt>
<pdfrwt beam="1">  1        2 0.24376151E+00 0.14082287E+03</pdfrwt>
<pdfrwt beam="2">  1       -2 0.16872766E-02 0.14082287E+03</pdfrwt>
<totfact> 0.11909863E+04</totfact>
</mgrwt>
</event>
<event>
 6    1  0.9263730E-006  0.1467123E+03  0.7546771E-02  0.1227347E+00
         -1   -1    0    0    0  501 -0.00000000000E+00  0.00000000000E+00  0.10061952709E+03  0.10061952709E+03  0.00000000000E+00 0.  1.
          1   -1    0    0  501    0  0.00000000000E+00 -0.00000000000E+00 -0.20601186942E+03  0.20601186942E+03  0.00000000000E+00 0. -1.
          5    1    1    2  502    0  0.69614629377E+02 -0.11834021645E+02 -0.38987802317E+02  0.80798387491E+02  0.47000000000E+01 0. -1.
         -5    1    1    2    0  502 -0.61294933903E+02  0.26084820915E+02 -0.10730278106E+03  0.12638616866E+03  0.47000000000E+01 0.  1.
        -11    1    1    2    0    0  0.12484917674E+02 -0.48696063099E+02  0.20002245032E+02  0.54104246941E+02  0.00000000000E+00 0.  1.
         11    1    1    2    0    0 -0.20804613149E+02  0.34445263829E+02  0.20895996013E+02  0.45342593418E+02  0.00000000000E+00 0. -1.
<mgrwt>
<rscale>  0 0.13007360E+03</rscale>
<asrwt>0</asrwt>
<pdfrwt beam="2">  1        1 0.31694133E-01 0.14671232E+03</pdfrwt>
<pdfrwt beam="1">  1       -1 0.15479927E-01 0.14671232E+03</pdfrwt>
<totfact> 0.41626902E+03</totfact>
</mgrwt>
</event>
<event>
 6    1  0.9263730E-006  0.1859054E+03  0.7546771E-02  0.1168086E+00
         -1   -1    0    0    0  501 -0.00000000000E+00  0.00000000000E+00  0.24715764812E+03  0.24715764812E+03  0.00000000000E+00 0.  1.
          1   -1    0    0  501    0  0.00000000000E+00 -0.00000000000E+00 -0.13194419016E+03  0.13194419016E+03  0.00000000000E+00 0. -1.
          5    1    1    2  502    0  0.78822217165E+02 -0.15007324106E+02  0.81184139711E+01  0.80784654118E+02  0.47000000000E+01 0. -1.
         -5    1    1    2    0  502  0.28261439688E+02  0.10144042390E+03  0.29443637112E+01  0.10544964605E+03  0.47000000000E+01 0. -1.
        -11    1    1    2    0    0 -0.40290706159E+02 -0.80080430403E+02  0.34216833768E+02  0.95953155495E+02  0.00000000000E+00 0.  1.
         11    1    1    2    0    0 -0.66792950694E+02 -0.63526693905E+01  0.69933846511E+02  0.96914382619E+02  0.00000000000E+00 0. -1.
<mgrwt>
<rscale>  0 0.17970813E+03</rscale>
<asrwt>0</asrwt>
<pdfrwt beam="2">  1        1 0.20299106E-01 0.18590543E+03</pdfrwt>
<pdfrwt beam="1">  1       -1 0.38024253E-01 0.18590543E+03</pdfrwt>
<totfact> 0.16725217E+03</totfact>
</mgrwt>
</event>
<event>
 6    1  0.9263730E-006  0.1491594E+03  0.7546771E-02  0.1211123E+00
          3   -1    0    0  501    0  0.00000000000E+00  0.00000000000E+00  0.26782717950E+03  0.26782717950E+03  0.00000000000E+00 0. -1.
         -3   -1    0    0    0  501 -0.00000000000E+00 -0.00000000000E+00 -0.10729697640E+03  0.10729697640E+03  0.00000000000E+00 0.  1.
          5    1    1    2  502    0 -0.43129922218E+02  0.48209191514E+02  0.61647064008E+02  0.89480538877E+02  0.47000000000E+01 0. -1.
         -5    1    1    2    0  502  0.76093641546E+02  0.26202022905E+02  0.13658249024E+03  0.15859903823E+03  0.47000000000E+01 0. -1.
        -11    1    1    2    0    0  0.10453717329E+02 -0.76022634753E+01  0.23335656818E+02  0.26676347109E+02  0.00000000000E+00 0. -1.
         11    1    1    2    0    0 -0.43417436658E+02 -0.66808950944E+02 -0.61035007967E+02  0.10036823168E+03  0.00000000000E+00 0.  1.
<mgrwt>
<rscale>  0 0.14165210E+03</rscale>
<asrwt>0</asrwt>
<pdfrwt beam="1">  1        3 0.41204181E-01 0.14915938E+03</pdfrwt>
<pdfrwt beam="2">  1       -3 0.16507227E-01 0.14915938E+03</pdfrwt>
<totfact> 0.43377118E+02</totfact>
</mgrwt>
</event>
<event>
 6    1  0.9263730E-006  0.1579703E+03  0.7546771E-02  0.1198710E+00
          1   -1    0    0  501    0  0.00000000000E+00  0.00000000000E+00  0.12529027719E+04  0.12529027719E+04  0.00000000000E+00 0. -1.
         -1   -1    0    0    0  501 -0.00000000000E+00 -0.00000000000E+00 -0.30914115471E+02  0.30914115471E+02  0.00000000000E+00 0.  1.
          5    1    1    2  502    0  0.42063626722E+02  0.34076876440E+02  0.21479426642E+03  0.22156093764E+03  0.47000000000E+01 0.  1.
         -5    1    1    2    0  502 -0.69624059741E+02  0.58470998670E+02  0.85506323209E+03  0.85989626598E+03  0.47000000000E+01 0.  1.
        -11    1    1    2    0    0 -0.31820346289E+02 -0.31427087101E+02  0.75516296442E+02  0.87766208019E+02  0.00000000000E+00 0.  1.
         11    1    1    2    0    0  0.59380779307E+02 -0.61120788008E+02  0.76614861444E+02  0.11459347570E+03  0.00000000000E+00 0. -1.
<mgrwt>
<rscale>  0 0.15144363E+03</rscale>
<asrwt>0</asrwt>
<pdfrwt beam="1">  1        1 0.19275423E+00 0.15797030E+03</pdfrwt>
<pdfrwt beam="2">  1       -1 0.47560187E-02 0.15797030E+03</pdfrwt>
<totfact> 0.19903347E+03</totfact>
</mgrwt>
</event>
<event>
 6    1  0.9263730E-006  0.3397400E+03  0.7546771E-02  0.1066907E+00
         -2   -1    0    0    0  501 -0.00000000000E+00  0.00000000000E+00  0.14515414030E+02  0.14515414030E+02  0.00000000000E+00 0.  1.
          2   -1    0    0  501    0  0.00000000000E+00 -0.00000000000E+00 -0.19879430518E+04  0.19879430518E+04  0.00000000000E+00 0. -1.
          5    1    1    2  502    0 -0.22788190546E+02  0.58629484689E+01 -0.89371089956E+03  0.89403296236E+03  0.47000000000E+01 0.  1.
         -5    1    1    2    0  502  0.96694595234E+02 -0.82631719494E+01 -0.79593668333E+03  0.80184500910E+03  0.47000000000E+01 0.  1.
        -11    1    1    2    0    0 -0.60476674071E+02 -0.39168777506E+02 -0.16614537888E+03  0.18109640571E+03  0.00000000000E+00 0.  1.
         11    1    1    2    0    0 -0.13429730617E+02  0.41569000987E+02 -0.11763467599E+03  0.12548408865E+03  0.00000000000E+00 0. -1.
<mgrwt>
<rscale>  0 0.33974000E+03</rscale>
<asrwt>0</asrwt>
<pdfrwt beam="2">  1        2 0.30583742E+00 0.33974000E+03</pdfrwt>
<pdfrwt beam="1">  1       -2 0.22331404E-02 0.33974000E+03</pdfrwt>
<totfact> 0.49501089E+03</totfact>
</mgrwt>
</event>
<event>
 6    1  0.9263730E-006  0.1259142E+03  0.7546771E-02  0.1241845E+00
          2   -1    0    0  501    0  0.00000000000E+00  0.00000000000E+00  0.95462273957E+03  0.95462273957E+03  0.00000000000E+00 0. -1.
         -2   -1    0    0    0  501 -0.00000000000E+00 -0.00000000000E+00 -0.14503612001E+02  0.14503612001E+02  0.00000000000E+00 0.  1.
          5    1    1    2  502    0 -0.25249577427E+02  0.56098461477E+02  0.17566432454E+03  0.18618438027E+03  0.47000000000E+01 0.  1.
         -5    1    1    2    0  502  0.26108562998E+02 -0.40955898766E+02  0.40797247099E+03  0.41088035946E+03  0.47000000000E+01 0.  1.
        -11    1    1    2    0    0 -0.18376520923E+02 -0.55120333158E+02  0.25596721817E+03  0.26247888377E+03  0.00000000000E+00 0. -1.
         11    1    1    2    0    0  0.17517535352E+02  0.39977770447E+02  0.10051511387E+03  0.10958272807E+03  0.00000000000E+00 0.  1.
<mgrwt>
<rscale>  0 0.12076234E+03</rscale>
<asrwt>0</asrwt>
<pdfrwt beam="1">  1        2 0.14686499E+00 0.12591423E+03</pdfrwt>
<pdfrwt beam="2">  1       -2 0.22313257E-02 0.12591423E+03</pdfrwt>
<totfact> 0.17498959E+04</totfact>
</mgrwt>
</event>
<event>
 6    1  0.9263730E-006  0.2414259E+03  0.7546771E-02  0.1118847E+00
          2   -1    0    0  501    0  0.00000000000E+00  0.00000000000E+00  0.54316511615E+03  0.54316511615E+03  0.00000000000E+00 0. -1.
         -2   -1    0    0    0  501 -0.00000000000E+00 -0.00000000000E+00 -0.26827232562E+02  0.26827232562E+02  0.00000000000E+00 0.  1.
          5    1    1    2  502    0 -0.25574801644E+01  0.63517098608E+01 -0.95944813040E+01  0.12689720030E+02  0.47000000000E+01 0. -1.
         -5    1    1    2    0  502 -0.46134607758E+02 -0.23287509392E+02  0.34600160422E+03  0.34987127669E+03  0.47000000000E+01 0. -1.
        -11    1    1    2    0    0  0.11969282994E+02  0.36681347974E+02  0.22701592824E+02  0.44767704222E+02  0.00000000000E+00 0.  1.
         11    1    1    2    0    0  0.36722804928E+02 -0.19745548443E+02  0.15722916785E+03  0.16266364777E+03  0.00000000000E+00 0. -1.
<mgrwt>
<rscale>  0 0.24142590E+03</rscale>
<asrwt>0</asrwt>
<pdfrwt beam="1">  1        2 0.83563856E-01 0.24142590E+03</pdfrwt>
<pdfrwt beam="2">  1       -2 0.41272670E-02 0.24142590E+03</pdfrwt>
<totfact> 0.14646038E+04</totfact>
</mgrwt>
</event>
<event>
 6    1  0.9263730E-006  0.1391826E+03  0.7546771E-02  0.1227765E+00
         -1   -1    0    0    0  501 -0.00000000000E+00  0.00000000000E+00  0.26741881141E+02  0.26741881141E+02  0.00000000000E+00 0.  1.
          1   -1    0    0  501    0  0.00000000000E+00 -0.00000000000E+00 -0.56056245072E+03  0.56056245072E+03  0.00000000000E+00 0. -1.
          5    1    1    2  502    0  0.48317705603E+02 -0.12961661884E+02 -0.17219818639E+03  0.17937923723E+03  0.47000000000E+01 0.  1.
         -5    1    1    2    0  502 -0.70434296512E+02 -0.44115199478E+02 -0.14895112256E+03  0.17063313823E+03  0.47000000000E+01 0.  1.
        -11    1    1    2    0    0  0.39028333412E+02  0.30796098127E+02 -0.19531691758E+03  0.20154480584E+03  0.00000000000E+00 0. -1.
         11    1    1    2    0    0 -0.16911742504E+02  0.26280763235E+02 -0.17354343057E+02  0.35747150567E+02  0.00000000000E+00 0.  1.
<mgrwt>
<rscale>  0 0.12979211E+03</rscale>
<asrwt>0</asrwt>
<pdfrwt beam="2">  1        1 0.86240384E-01 0.13918256E+03</pdfrwt>
<pdfrwt beam="1">  1       -1 0.41141353E-02 0.13918256E+03</pdfrwt>
<totfact> 0.87318276E+03</totfact>
</mgrwt>
</event>
<event>
 6    1  0.9263730E-006  0.1447515E+03  0.7546771E-02  0.1219136E+00
          1   -1    0    0  501    0  0.00000000000E+00  0.00000000000E+00  0.10115350165E+03  0.10115350165E+03  0.00000000000E+00 0. -1.
         -1   -1    0    0    0  501 -0.00000000000E+00 -0.00000000000E+00 -0.17032995716E+03  0.17032995716E+03  0.00000000000E+00 0.  1.
          5    1    1    2  502    0 -0.89374408620E+02  0.61522947752E+02 -0.68781045928E+01  0.10882213166E+03  0.47000000000E+01 0.  1.
         -5    1    1    2    0  502  0.31547295658E+02 -0.16949482503E+02 -0.39253162255E+01  0.36332009688E+02  0.47000000000E+01 0.  1.
        -11    1    1    2    0    0  0.71941732223E+02 -0.74696276356E+01 -0.36964290522E+02  0.81226639386E+02  0.00000000000E+00 0. -1.
         11    1    1    2    0    0 -0.14114619261E+02 -0.37103837613E+02 -0.21408744172E+02  0.45102678074E+02  0.00000000000E+00 0.  1.
<mgrwt>
<rscale>  0 0.13577042E+03</rscale>
<asrwt>0</asrwt>
<pdfrwt beam="1">  1        1 0.15562077E-01 0.14475155E+03</pdfrwt>
<pdfrwt beam="2">  1       -1 0.26204609E-01 0.14475155E+03</pdfrwt>
<totfact> 0.43865794E+03</totfact>
</mgrwt>
</event>
<event>
 6    1  0.9263730E-006  0.1794856E+03  0.7546771E-02  0.1173165E+00
         -1   -1    0    0    0  501 -0.00000000000E+00  0.00000000000E+00  0.91434523386E+02  0.91434523386E+02  0.00000000000E+00 0.  1.
          1   -1    0    0  501    0  0.00000000000E+00 -0.00000000000E+00 -0.54563176070E+03  0.54563176070E+03  0.00000000000E+00 0. -1.
          5    1    1    2  502    0  0.77939008882E+02 -0.39903051500E+02 -0.38199923172E+03  0.39193398126E+03  0.47000000000E+01 0. -1.
         -5    1    1    2    0  502  0.36122888076E+01 -0.59686023828E+02 -0.58746278108E+02  0.83956448605E+02  0.47000000000E+01 0. -1.
        -11    1    1    2    0    0 -0.90492192779E+02  0.70760130978E+02 -0.39327927091E+02  0.12141877507E+03  0.00000000000E+00 0. -1.
         11    1    1    2    0    0  0.89408950893E+01  0.28828944351E+02  0.25876199605E+02  0.39757079161E+02  0.00000000000E+00 0.  1.
<mgrwt>
<rscale>  0 0.17456928E+03</rscale>
<asrwt>0</asrwt>
<pdfrwt beam="2">  1        1 0.83943347E-01 0.17948565E+03</pdfrwt>
<pdfrwt beam="1">  1       -1 0.14066850E-01 0.17948565E+03</pdfrwt>
<totfact> 0.14216537E+03</totfact>
</mgrwt>
</event>
<event>
 6    1  0.9263730E-006  0.1277157E+03  0.7546771E-02  0.1245870E+00
          1   -1    0    0  501    0  0.00000000000E+00  0.00000000000E+00  0.36407355866E+03  0.36407355866E+03  0.00000000000E+00 0. -1.
         -1   -1    0    0    0  501 -0.00000000000E+00 -0.00000000000E+00 -0.42163218047E+02  0.42163218047E+02  0.00000000000E+00 0.  1.
          5    1    1    2  502    0 -0.49279279905E+02  0.22785171959E+02  0.17720732632E+03  0.18539724375E+03  0.47000000000E+01 0. -1.
         -5    1    1    2    0  502  0.64813517725E+02 -0.17310214163E+01  0.92937754116E+02  0.11341650962E+03  0.47000000000E+01 0. -1.
        -11    1    1    2    0    0 -0.15859324828E+02 -0.49334003067E+02  0.58702500442E+02  0.78302909274E+02  0.00000000000E+00 0. -1.
         11    1    1    2    0    0  0.32508700851E+00  0.28279852525E+02 -0.69372402630E+01  0.29120114060E+02  0.00000000000E+00 0.  1.
<mgrwt>
<rscale>  0 0.11833488E+03</rscale>
<asrwt>0</asrwt>
<pdfrwt beam="1">  1        1 0.56011315E-01 0.12771568E+03</pdfrwt>
<pdfrwt beam="2">  1       -1 0.64866492E-02 0.12771568E+03</pdfrwt>
<totfact> 0.77018902E+03</totfact>
</mgrwt>
</event>
<event>
 6    1  0.9263730E-006  0.1292177E+03  0.7546771E-02  0.1244432E+00
          1   -1    0    0  501    0  0.00000000000E+00  0.00000000000E+00  0.13367781647E+03  0.13367781647E+03  0.00000000000E+00 0. -1.
         -1   -1    0    0    0  501 -0.00000000000E+00 -0.00000000000E+00 -0.13486557225E+03  0.13486557225E+03  0.00000000000E+00 0.  1.
          5    1    1    2  502    0  0.67029338836E+02  0.11866907750E+02  0.38747585102E+02  0.78467962351E+02  0.47000000000E+01 0. -1.
         -5    1    1    2    0  502 -0.57607433880E+02  0.19450054027E+02  0.34908292637E+02  0.70268057713E+02  0.47000000000E+01 0. -1.
        -11    1    1    2    0    0 -0.22796049181E+02 -0.11839035322E+02 -0.88749097431E+02  0.92391692865E+02  0.00000000000E+00 0.  1.
         11    1    1    2    0    0  0.13374144225E+02 -0.19477926456E+02  0.13905463907E+02  0.27415675794E+02  0.00000000000E+00 0. -1.
<mgrwt>
<rscale>  0 0.11919455E+03</rscale>
<asrwt>0</asrwt>
<pdfrwt beam="1">  1        1 0.20565818E-01 0.12921771E+03</pdfrwt>
<pdfrwt beam="2">  1       -1 0.20748549E-01 0.12921771E+03</pdfrwt>
<totfact> 0.44620363E+03</totfact>
</mgrwt>
</event>
<event>
 6    1  0.9263730E-006  0.1832620E+03  0.7546771E-02  0.1169995E+00
          1   -1    0    0  501    0  0.00000000000E+00  0.00000000000E+00  0.11533650246E+04  0.11533650246E+04  0.00000000000E+00 0. -1.
         -1   -1    0    0    0  501 -0.00000000000E+00 -0.00000000000E+00 -0.27208423967E+02  0.27208423967E+02  0.00000000000E+00 0.  1.
          5    1    1    2  502    0  0.33927984694E+02  0.25570314240E+02  0.53670649184E+03  0.53840588546E+03  0.47000000000E+01 0. -1.
         -5    1    1    2    0  502  0.79176274580E+02  0.46308993806E+02  0.18974424549E+03  0.21080411301E+03  0.47000000000E+01 0. -1.
        -11    1    1    2    0    0 -0.88122940688E+02 -0.22577878156E+01  0.22418989409E+03  0.24089802593E+03  0.00000000000E+00 0.  1.
         11    1    1    2    0    0 -0.24981318586E+02 -0.69621520231E+02  0.17551596919E+03  0.19046542415E+03  0.00000000000E+00 0. -1.
<mgrwt>
<rscale>  0 0.17775369E+03</rscale>
<asrwt>0</asrwt>
<pdfrwt beam="1">  1        1 0.17744074E+00 0.18326197E+03</pdfrwt>
<pdfrwt beam="2">  1       -1 0.41859123E-02 0.18326197E+03</pdfrwt>
<totfact> 0.28219218E+03</totfact>
</mgrwt>
</event>
<event>
 6    1  0.9263730E-006  0.1428506E+03  0.7546771E-02  0.1219775E+00
          3   -1    0    0  501    0  0.00000000000E+00  0.00000000000E+00  0.21659399610E+03  0.21659399610E+03  0.00000000000E+00 0. -1.
         -3   -1    0    0    0  501 -0.00000000000E+00 -0.00000000000E+00 -0.91591414359E+02  0.91591414359E+02  0.00000000000E+00 0.  1.
          5    1    1    2  502    0  0.75182361568E+02  0.13148350344E+02  0.17104997058E+02  0.78357753491E+02  0.47000000000E+01 0. -1.
         -5    1    1    2    0  502 -0.63085337648E+01 -0.19442692276E+02  0.11277856508E+03  0.11471229499E+03  0.47000000000E+01 0. -1.
        -11    1    1    2    0    0  0.18252815384E+02  0.16137119951E+02 -0.11976453987E+02  0.27147879472E+02  0.00000000000E+00 0. -1.
         11    1    1    2    0    0 -0.87126643187E+02 -0.98427780184E+01  0.70954735910E+01  0.87967482502E+02  0.00000000000E+00 0.  1.
<mgrwt>
<rscale>  0 0.13531541E+03</rscale>
<asrwt>0</asrwt>
<pdfrwt beam="1">  1        3 0.33322153E-01 0.14285063E+03</pdfrwt>
<pdfrwt beam="2">  1       -3 0.14090987E-01 0.14285063E+03</pdfrwt>
<totfact> 0.84794238E+02</totfact>
</mgrwt>
</event>
<event>
 6    1  0.9263730E-006  0.1276959E+03  0.7546771E-02  0.1246261E+00
          4   -1    0    0  501    0  0.00000000000E+00  0.00000000000E+00  0.74217527782E+02  0.74217527782E+02  0.00000000000E+00 0. -1.
         -4   -1    0    0    0  501 -0.00000000000E+00 -0.00000000000E+00 -0.24790348329E+03  0.24790348329E+03  0.00000000000E+00 0.  1.
          5    1    1    2  502    0  0.51346468236E+02  0.11102995506E+02  0.39079769602E+02  0.65643390388E+02  0.47000000000E+01 0. -1.
         -5    1    1    2    0  502 -0.43094886503E+02  0.13648505929E+02 -0.42308948560E+02  0.62093381975E+02  0.47000000000E+01 0. -1.
        -11    1    1    2    0    0  0.23744695071E+02  0.24872171033E+02 -0.62160559298E+02  0.71037810835E+02  0.00000000000E+00 0. -1.
         11    1    1    2    0    0 -0.31996276805E+02 -0.49623672468E+02 -0.10829621726E+03  0.12334642788E+03  0.00000000000E+00 0.  1.
<mgrwt>
<rscale>  0 0.11810217E+03</rscale>
<asrwt>0</asrwt>
<pdfrwt beam="1">  1        4 0.11418081E-01 0.12769595E+03</pdfrwt>
<pdfrwt beam="2">  1       -4 0.38138997E-01 0.12769595E+03</pdfrwt>
<totfact> 0.66138715E+02</totfact>
</mgrwt>
</event>
<event>
 6    1  0.9263730E-006  0.1416886E+03  0.7546771E-02  0.1225507E+00
          2   -1    0    0  501    0  0.00000000000E+00  0.00000000000E+00  0.45749816168E+02  0.45749816168E+02  0.00000000000E+00 0. -1.
         -2   -1    0    0    0  501 -0.00000000000E+00 -0.00000000000E+00 -0.34428801749E+03  0.34428801749E+03  0.00000000000E+00 0.  1.
          5    1    1    2  502    0 -0.73359507283E+02 -0.12207026127E+02 -0.19161261005E+02  0.76940709114E+02  0.47000000000E+01 0. -1.
         -5    1    1    2    0  502  0.16270377498E+02 -0.22322199047E+02 -0.11437818362E+03  0.11776019974E+03  0.47000000000E+01 0. -1.
        -11    1    1    2    0    0  0.72709090548E+02  0.32785104568E+02 -0.16011158019E+03  0.17887759234E+03  0.00000000000E+00 0.  1.
         11    1    1    2    0    0 -0.15619960764E+02  0.17441206072E+01 -0.48871765043E+01  0.16459332463E+02  0.00000000000E+00 0. -1.
<mgrwt>
<rscale>  0 0.13132224E+03</rscale>
<asrwt>0</asrwt>
<pdfrwt beam="1">  1        2 0.70384329E-02 0.14168860E+03</pdfrwt>
<pdfrwt beam="2">  1       -2 0.52967390E-01 0.14168860E+03</pdfrwt>
<totfact> 0.32881147E+03</totfact>
</mgrwt>
</event>
<event>
 6    1  0.9263730E-006  0.1328852E+03  0.7546771E-02  0.1235706E+00
         -2   -1    0    0    0  501 -0.00000000000E+00  0.00000000000E+00  0.13811887414E+02  0.13811887414E+02  0.00000000000E+00 0.  1.
          2   -1    0    0  501    0  0.00000000000E+00 -0.00000000000E+00 -0.10383093282E+04  0.10383093282E+04  0.00000000000E+00 0. -1.
          5    1    1    2  502    0  0.82436642139E+01  0.85355893897E+02 -0.45166316469E+03  0.45975568617E+03  0.47000000000E+01 0.  1.
         -5    1    1    2    0  502 -0.20164079423E+02 -0.41962955429E+02 -0.21820170724E+03  0.22316261957E+03  0.47000000000E+01 0.  1.
        -11    1    1    2    0    0  0.16978807546E+02  0.21816575209E+02 -0.45605428412E+02  0.53330084944E+02  0.00000000000E+00 0.  1.
         11    1    1    2    0    0 -0.50583923374E+01 -0.65209513677E+02 -0.30902714042E+03  0.31587282492E+03  0.00000000000E+00 0. -1.
<mgrwt>
<rscale>  0 0.12459369E+03</rscale>
<asrwt>0</asrwt>
<pdfrwt beam="2">  1        2 0.15973997E+00 0.13288516E+03</pdfrwt>
<pdfrwt beam="1">  1       -2 0.21249048E-02 0.13288516E+03</pdfrwt>
<totfact> 0.16808551E+04</totfact>
</mgrwt>
</event>
<event>
 6    1  0.9263730E-006  0.1286700E+03  0.7546771E-02  0.1241729E+00
          1   -1    0    0  501    0  0.00000000000E+00  0.00000000000E+00  0.48740417739E+03  0.48740417739E+03  0.00000000000E+00 0. -1.
         -1   -1    0    0    0  501 -0.00000000000E+00 -0.00000000000E+00 -0.26907883676E+02  0.26907883676E+02  0.00000000000E+00 0.  1.
          5    1    1    2  502    0  0.31213981377E+02 -0.25261619296E+01  0.26123191401E+03  0.26314425136E+03  0.47000000000E+01 0.  1.
         -5    1    1    2    0  502 -0.19041109333E+02  0.30417728844E+02  0.10777806920E+02  0.37763119504E+02  0.47000000000E+01 0.  1.
        -11    1    1    2    0    0 -0.46730323010E+02 -0.20432455091E+02  0.53705348175E+02  0.74063977292E+02  0.00000000000E+00 0.  1.
         11    1    1    2    0    0  0.34557450967E+02 -0.74591118234E+01  0.13478122461E+03  0.13934071291E+03  0.00000000000E+00 0. -1.
<mgrwt>
<rscale>  0 0.12083308E+03</rscale>
<asrwt>0</asrwt>
<pdfrwt beam="1">  1        1 0.74985252E-01 0.12866996E+03</pdfrwt>
<pdfrwt beam="2">  1       -1 0.41396748E-02 0.12866996E+03</pdfrwt>
<totfact> 0.10345331E+04</totfact>
</mgrwt>
</event>
<event>
 6    1  0.9263730E-006  0.2438019E+03  0.7546771E-02  0.1117286E+00
         -3   -1    0    0    0  501 -0.00000000000E+00  0.00000000000E+00  0.96788355656E+02  0.96788355656E+02  0.00000000000E+00 0.  1.
          3   -1    0    0  501    0  0.00000000000E+00 -0.00000000000E+00 -0.15352927899E+03  0.15352927899E+03  0.00000000000E+00 0. -1.
          5    1    1    2  502    0  0.59243337560E+02  0.36809007538E+02  0.18334318436E+02  0.72269726121E+02  0.47000000000E+01 0. -1.
         -5    1    1    2    0  502 -0.82447517768E+01 -0.28778988245E+02 -0.63420479071E+02  0.70288357940E+02  0.47000000000E+01 0. -1.
        -11    1    1    2    0    0 -0.26140899056E+02 -0.11647547006E+02  0.40662838784E+02  0.49724022491E+02  0.00000000000E+00 0.  1.
         11    1    1    2    0    0 -0.24857686727E+02  0.36175277129E+01 -0.52317601480E+02  0.58035528091E+02  0.00000000000E+00 0. -1.
<mgrwt>
<rscale>  0 0.24380194E+03</rscale>
<asrwt>0</asrwt>
<pdfrwt beam="2">  1        3 0.23619889E-01 0.24380194E+03</pdfrwt>
<pdfrwt beam="1">  1       -3 0.14890516E-01 0.24380194E+03</pdfrwt>
<totfact> 0.15713592E+03</totfact>
</mgrwt>
</event>
<event>
 6    1  0.9263730E-006  0.3156300E+03  0.7546771E-02  0.1079111E+00
          2   -1    0    0  501    0  0.00000000000E+00  0.00000000000E+00  0.10136036023E+04  0.10136036023E+04  0.00000000000E+00 0. -1.
         -2   -1    0    0    0  501 -0.00000000000E+00 -0.00000000000E+00 -0.94645893039E+02  0.94645893039E+02  0.00000000000E+00 0.  1.
          5    1    1    2  502    0 -0.26337664724E+03 -0.11455926075E+02  0.34726430262E+03  0.43601958950E+03  0.47000000000E+01 0.  1.
         -5    1    1    2    0  502 -0.25963735517E+02  0.28102097820E+02  0.13462912119E+03  0.14003904361E+03  0.47000000000E+01 0.  1.
        -11    1    1    2    0    0  0.23629966293E+03 -0.45578736496E+02  0.31932363680E+03  0.39985314422E+03  0.00000000000E+00 0.  1.
         11    1    1    2    0    0  0.53040719827E+02  0.28932564751E+02  0.11774064868E+03  0.13233771803E+03  0.00000000000E+00 0. -1.
<mgrwt>
<rscale>  0 0.31259079E+03</rscale>
<asrwt>0</asrwt>
<pdfrwt beam="1">  1        2 0.15593901E+00 0.31562997E+03</pdfrwt>
<pdfrwt beam="2">  1       -2 0.14560907E-01 0.31562997E+03</pdfrwt>
<totfact> 0.92657947E+02</totfact>
</mgrwt>
</event>
<event>
 6    1  0.9263730E-006  0.1312493E+03  0.7546771E-02  0.1237725E+00
          2   -1    0    0  501    0  0.00000000000E+00  0.00000000000E+00  0.66041055153E+03  0.66041055153E+03  0.00000000000E+00 0. -1.
         -2   -1    0    0    0  501 -0.00000000000E+00 -0.00000000000E+00 -0.28911201917E+02  0.28911201917E+02  0.00000000000E+00 0.  1.
          5    1    1    2  502    0 -0.42808638953E+02  0.35370524366E+02  0.42758735554E+03  0.43120376874E+03  0.47000000000E+01 0. -1.
         -5    1    1    2    0  502  0.58914935883E+01 -0.50801200349E+02  0.99419727323E+02  0.11190104483E+03  0.47000000000E+01 0. -1.
        -11    1    1    2    0    0 -0.21301429621E+02  0.19576256981E+02  0.75893995448E+02  0.81221175111E+02  0.00000000000E+00 0. -1.
         11    1    1    2    0    0  0.58218574986E+02 -0.41455809982E+01  0.28598271304E+02  0.64995764760E+02  0.00000000000E+00 0.  1.
<mgrwt>
<rscale>  0 0.12331562E+03</rscale>
<asrwt>0</asrwt>
<pdfrwt beam="1">  1        2 0.10160161E+00 0.13124928E+03</pdfrwt>
<pdfrwt beam="2">  1       -2 0.44478777E-02 0.13124928E+03</pdfrwt>
<totfact> 0.10054384E+04</totfact>
</mgrwt>
</event>
<event>
 6    1  0.9263730E-006  0.1564242E+03  0.7546771E-02  0.1201464E+00
         -1   -1    0    0    0  501 -0.00000000000E+00  0.00000000000E+00  0.91814767214E+02  0.91814767214E+02  0.00000000000E+00 0.  1.
          1   -1    0    0  501    0  0.00000000000E+00 -0.00000000000E+00 -0.23183056407E+03  0.23183056407E+03  0.00000000000E+00 0. -1.
          5    1    1    2  502    0 -0.11653947640E+02 -0.50080082027E+02 -0.67317840343E+02  0.84838733724E+02  0.47000000000E+01 0. -1.
         -5    1    1    2    0  502 -0.82387653957E+02  0.51335793359E+02 -0.41295023487E+02  0.10559572988E+03  0.47000000000E+01 0. -1.
        -11    1    1    2    0    0  0.85260514450E+02  0.48994272482E+01  0.14015566025E+02  0.86543606365E+02  0.00000000000E+00 0.  1.
         11    1    1    2    0    0  0.87810871474E+01 -0.61551385802E+01 -0.45418499050E+02  0.46667261313E+02  0.00000000000E+00 0. -1.
<mgrwt>
<rscale>  0 0.14919661E+03</rscale>
<asrwt>0</asrwt>
<pdfrwt beam="2">  1        1 0.35666240E-01 0.15642420E+03</pdfrwt>
<pdfrwt beam="1">  1       -1 0.14125349E-01 0.15642420E+03</pdfrwt>
<totfact> 0.41640347E+03</totfact>
</mgrwt>
</event>
<event>
 6    1  0.9263730E-006  0.3748833E+03  0.7546771E-02  0.1052841E+00
         -1   -1    0    0    0  501 -0.00000000000E+00  0.00000000000E+00  0.64150275567E+03  0.64150275567E+03  0.00000000000E+00 0.  1.
          1   -1    0    0  501    0  0.00000000000E+00 -0.00000000000E+00 -0.54768867934E+02  0.54768867934E+02  0.00000000000E+00 0. -1.
          5    1    1    2  502    0 -0.60100755085E+02 -0.52463678915E+02  0.29911645235E+02  0.85330738236E+02  0.47000000000E+01 0. -1.
         -5    1    1    2    0  502  0.49936473228E+02 -0.76915392734E+01  0.30694961432E+02  0.59304989606E+02  0.47000000000E+01 0.  1.
        -11    1    1    2    0    0 -0.71304302633E+02  0.36870895347E+02  0.22890479814E+03  0.24257199572E+03  0.00000000000E+00 0.  1.
         11    1    1    2    0    0  0.81468584490E+02  0.23284322842E+02  0.29722248293E+03  0.30906390004E+03  0.00000000000E+00 0. -1.
<mgrwt>
<rscale>  0 0.37488334E+03</rscale>
<asrwt>0</asrwt>
<pdfrwt beam="2">  1        1 0.84259801E-02 0.37488334E+03</pdfrwt>
<pdfrwt beam="1">  1       -1 0.98692726E-01 0.37488334E+03</pdfrwt>
<totfact> 0.84293946E+02</totfact>
</mgrwt>
</event>
<event>
 6    1  0.1350520E-005  0.1966113E+03  0.7546771E-02  0.1155606E+00
          1   -1    0    0  501    0  0.00000000000E+00  0.00000000000E+00  0.62125981144E+03  0.62125981144E+03  0.00000000000E+00 0. -1.
         -1   -1    0    0    0  501 -0.00000000000E+00 -0.00000000000E+00 -0.58912297414E+02  0.58912297414E+02  0.00000000000E+00 0.  1.
          5    1    1    2  502    0  0.48850621101E+02 -0.27155682000E+02  0.34237219671E+02  0.65712186523E+02  0.47000000000E+01 0. -1.
         -5    1    1    2    0  502 -0.33017972884E+01 -0.11760853952E+03  0.29687864070E+03  0.31937703070E+03  0.47000000000E+01 0. -1.
        -11    1    1    2    0    0 -0.32917719204E+02  0.44427944271E+01  0.13741043909E+02  0.35946222995E+02  0.00000000000E+00 0.  1.
         11    1    1    2    0    0 -0.12631104609E+02  0.14032142709E+03  0.21749060974E+03  0.25913666864E+03  0.00000000000E+00 0. -1.
<mgrwt>
<rscale>  0 0.19320046E+03</rscale>
<asrwt>0</asrwt>
<pdfrwt beam="1">  1        1 0.95578428E-01 0.19661127E+03</pdfrwt>
<pdfrwt beam="2">  1       -1 0.90634308E-02 0.19661127E+03</pdfrwt>
<totfact> 0.23574071E+03</totfact>
</mgrwt>
</event>
<event>
 6    1  0.9263730E-006  0.1403674E+03  0.7546771E-02  0.1224197E+00
          1   -1    0    0  501    0  0.00000000000E+00  0.00000000000E+00  0.46774170255E+03  0.46774170255E+03  0.00000000000E+00 0.  1.
         -1   -1    0    0    0  501 -0.00000000000E+00 -0.00000000000E+00 -0.33757076634E+02  0.33757076634E+02  0.00000000000E+00 0. -1.
          5    1    1    2  502    0 -0.21962889288E+02 -0.18595665574E+02  0.11481782651E+02  0.31338293139E+02  0.47000000000E+01 0. -1.
         -5    1    1    2    0  502  0.84944126102E+02  0.29176563455E+02  0.24589828529E+03  0.26182977891E+03  0.47000000000E+01 0. -1.
        -11    1    1    2    0    0 -0.82928645237E+02 -0.43712011397E+01  0.16427510167E+03  0.18407220493E+03  0.00000000000E+00 0.  1.
         11    1    1    2    0    0  0.19947408423E+02 -0.62096967406E+01  0.12329456306E+02  0.24258502205E+02  0.00000000000E+00 0. -1.
<mgrwt>
<rscale>  0 0.13222100E+03</rscale>
<asrwt>0</asrwt>
<pdfrwt beam="1">  1        1 0.71960257E-01 0.14036744E+03</pdfrwt>
<pdfrwt beam="2">  1       -1 0.51933967E-02 0.14036744E+03</pdfrwt>
<totfact> 0.78550335E+03</totfact>
</mgrwt>
</event>
<event>
 6    1  0.9263730E-006  0.1262674E+03  0.7546771E-02  0.1249321E+00
         -2   -1    0    0    0  501 -0.00000000000E+00  0.00000000000E+00  0.18205986183E+03  0.18205986183E+03  0.00000000000E+00 0. -1.
          2   -1    0    0  501    0  0.00000000000E+00 -0.00000000000E+00 -0.72503447417E+02  0.72503447417E+02  0.00000000000E+00 0.  1.
          5    1    1    2  502    0 -0.54668503495E+02 -0.46353865725E+02  0.74960472223E+01  0.72219158580E+02  0.47000000000E+01 0. -1.
         -5    1    1    2    0  502  0.42025539881E+02  0.33695231184E+02  0.14138152532E+02  0.55888209524E+02  0.47000000000E+01 0. -1.
        -11    1    1    2    0    0  0.38655536415E+02 -0.21768372889E+02  0.27455305174E+02  0.52171892202E+02  0.00000000000E+00 0.  1.
         11    1    1    2    0    0 -0.26012572801E+02  0.34427007430E+02  0.60466909482E+02  0.74284048938E+02  0.00000000000E+00 0. -1.
<mgrwt>
<rscale>  0 0.11630440E+03</rscale>
<asrwt>0</asrwt>
<pdfrwt beam="2">  1        2 0.11154377E-01 0.12626741E+03</pdfrwt>
<pdfrwt beam="1">  1       -2 0.28009209E-01 0.12626741E+03</pdfrwt>
<totfact> 0.61085401E+03</totfact>
</mgrwt>
</event>
<event>
 6    1  0.9263730E-006  0.2594649E+03  0.7546771E-02  0.1107465E+00
         -2   -1    0    0    0  501 -0.00000000000E+00  0.00000000000E+00  0.44973491658E+02  0.44973491658E+02  0.00000000000E+00 0.  1.
          2   -1    0    0  501    0  0.00000000000E+00 -0.00000000000E+00 -0.37423172137E+03  0.37423172137E+03  0.00000000000E+00 0. -1.
          5    1    1    2  502    0  0.26631340131E+01  0.12399043100E+02 -0.18616755150E+03  0.18665817899E+03  0.47000000000E+01 0. -1.
         -5    1    1    2    0  502 -0.37293696273E+02 -0.62965676206E+02 -0.54470484015E+02  0.91348890473E+02  0.47000000000E+01 0. -1.
        -11    1    1    2    0    0 -0.36018045850E+01  0.51384854243E+02 -0.82144249359E+01  0.52161796545E+02  0.00000000000E+00 0.  1.
         11    1    1    2    0    0  0.38232366845E+02 -0.81822113683E+00 -0.80405769268E+02  0.89036347027E+02  0.00000000000E+00 0. -1.
<mgrwt>
<rscale>  0 0.25946489E+03</rscale>
<asrwt>0</asrwt>
<pdfrwt beam="2">  1        2 0.57574111E-01 0.25946489E+03</pdfrwt>
<pdfrwt beam="1">  1       -2 0.69189987E-02 0.25946489E+03</pdfrwt>
<totfact> 0.10084550E+04</totfact>
</mgrwt>
</event>
<event>
 6    1  0.9263730E-006  0.1260027E+03  0.7546771E-02  0.1249091E+00
          2   -1    0    0  501    0  0.00000000000E+00  0.00000000000E+00  0.36876529453E+03  0.36876529453E+03  0.00000000000E+00 0. -1.
         -2   -1    0    0    0  501 -0.00000000000E+00 -0.00000000000E+00 -0.42284463396E+02  0.42284463396E+02  0.00000000000E+00 0.  1.
          5    1    1    2  502    0 -0.59724457851E+02 -0.15395387250E+02  0.21415156892E+03  0.22290583950E+03  0.47000000000E+01 0. -1.
         -5    1    1    2    0  502  0.46643490094E+02  0.24350372626E+02  0.68046839010E+02  0.86145331356E+02  0.47000000000E+01 0. -1.
        -11    1    1    2    0    0 -0.34331747057E+01 -0.45425629278E+02  0.48631296546E+01  0.45814020931E+02  0.00000000000E+00 0. -1.
         11    1    1    2    0    0  0.16514142462E+02  0.36470643902E+02  0.39419293554E+02  0.56184566139E+02  0.00000000000E+00 0.  1.
<mgrwt>
<rscale>  0 0.11643823E+03</rscale>
<asrwt>0</asrwt>
<pdfrwt beam="1">  1        2 0.56733120E-01 0.12600272E+03</pdfrwt>
<pdfrwt beam="2">  1       -2 0.65053023E-02 0.12600272E+03</pdfrwt>
<totfact> 0.10734850E+04</totfact>
</mgrwt>
</event>
<event>
 6    1  0.9263730E-006  0.1389074E+03  0.7546771E-02  0.1226894E+00
          2   -1    0    0  501    0  0.00000000000E+00  0.00000000000E+00  0.27335658213E+04  0.27335658213E+04  0.00000000000E+00 0. -1.
         -2   -1    0    0    0  501 -0.00000000000E+00 -0.00000000000E+00 -0.85867588845E+01  0.85867588845E+01  0.00000000000E+00 0.  1.
          5    1    1    2  502    0 -0.25140497716E+02  0.54866701957E+02  0.61817611248E+03  0.62113299353E+03  0.47000000000E+01 0.  1.
         -5    1    1    2    0  502  0.64184337424E+02 -0.85519384795E+01  0.16645476562E+04  0.16658132412E+04  0.47000000000E+01 0.  1.
        -11    1    1    2    0    0 -0.65982387163E+02 -0.26840073680E+02  0.24405384775E+03  0.25423679036E+03  0.00000000000E+00 0.  1.
         11    1    1    2    0    0  0.26938547454E+02 -0.19474689797E+02  0.19820144600E+03  0.20096955510E+03  0.00000000000E+00 0. -1.
<mgrwt>
<rscale>  0 0.13037948E+03</rscale>
<asrwt>0</asrwt>
<pdfrwt beam="1">  1        2 0.42054789E+00 0.13890744E+03</pdfrwt>
<pdfrwt beam="2">  1       -2 0.13210420E-02 0.13890744E+03</pdfrwt>
<totfact> 0.42510524E+03</totfact>
</mgrwt>
</event>
<event>
 6    1  0.9263730E-006  0.1298764E+03  0.7546771E-02  0.1242517E+00
          3   -1    0    0  501    0  0.00000000000E+00  0.00000000000E+00  0.67851766806E+02  0.67851766806E+02  0.00000000000E+00 0. -1.
         -3   -1    0    0    0  501 -0.00000000000E+00 -0.00000000000E+00 -0.19480273095E+03  0.19480273095E+03  0.00000000000E+00 0.  1.
          5    1    1    2  502    0 -0.26069153500E+02  0.27860223891E+02  0.16050011646E+02  0.41659161217E+02  0.47000000000E+01 0. -1.
         -5    1    1    2    0  502  0.56867470991E+02 -0.45034489704E+02 -0.63793733337E+02  0.96714760677E+02  0.47000000000E+01 0. -1.
        -11    1    1    2    0    0  0.95562058410E+01 -0.30524280231E+02 -0.36858918847E+02  0.48801973857E+02  0.00000000000E+00 0.  1.
         11    1    1    2    0    0 -0.40354523332E+02  0.47698546045E+02 -0.42348323601E+02  0.75478602000E+02  0.00000000000E+00 0. -1.
<mgrwt>
<rscale>  0 0.12035245E+03</rscale>
<asrwt>0</asrwt>
<pdfrwt beam="1">  1        3 0.10438733E-01 0.12987640E+03</pdfrwt>
<pdfrwt beam="2">  1       -3 0.29969651E-01 0.12987640E+03</pdfrwt>
<totfact> 0.16831525E+03</totfact>
</mgrwt>
</event>
<event>
 6    1  0.9263730E-006  0.1299316E+03  0.7546771E-02  0.1241310E+00
          2   -1    0    0  501    0  0.00000000000E+00  0.00000000000E+00  0.10700173571E+04  0.10700173571E+04  0.00000000000E+00 0. -1.
         -2   -1    0    0    0  501 -0.00000000000E+00 -0.00000000000E+00 -0.12273844947E+02  0.12273844947E+02  0.00000000000E+00 0.  1.
          5    1    1    2  502    0 -0.29896187876E+02 -0.48647503874E+02  0.37004964994E+03  0.37445853589E+03  0.47000000000E+01 0.  1.
         -5    1    1    2    0  502  0.61686408281E+02  0.31944662823E+02  0.28808940190E+03  0.29638364991E+03  0.47000000000E+01 0.  1.
        -11    1    1    2    0    0 -0.10915525332E+02  0.52573538475E+02  0.17536497751E+03  0.18340120223E+03  0.00000000000E+00 0. -1.
         11    1    1    2    0    0 -0.20874695073E+02 -0.35870697424E+02  0.22423948277E+03  0.22804781398E+03  0.00000000000E+00 0.  1.
<mgrwt>
<rscale>  0 0.12108969E+03</rscale>
<asrwt>0</asrwt>
<pdfrwt beam="1">  1        2 0.16461798E+00 0.12993162E+03</pdfrwt>
<pdfrwt beam="2">  1       -2 0.18882847E-02 0.12993162E+03</pdfrwt>
<totfact> 0.19088371E+04</totfact>
</mgrwt>
</event>
<event>
 6    1  0.9263730E-006  0.1419111E+03  0.7546771E-02  0.1221265E+00
          1   -1    0    0  501    0  0.00000000000E+00  0.00000000000E+00  0.57476561158E+03  0.57476561158E+03  0.00000000000E+00 0. -1.
         -1   -1    0    0    0  501 -0.00000000000E+00 -0.00000000000E+00 -0.38007506214E+02  0.38007506214E+02  0.00000000000E+00 0.  1.
          5    1    1    2  502    0  0.96100101942E+02  0.14844237236E+02  0.36922850453E+03  0.38184729871E+03  0.47000000000E+01 0.  1.
         -5    1    1    2    0  502 -0.29637955916E+02 -0.24670781386E+02  0.74480233715E+02  0.84002685072E+02  0.47000000000E+01 0.  1.
        -11    1    1    2    0    0 -0.17808913376E+02 -0.30609947634E+02  0.12495597641E+01  0.35435683843E+02  0.00000000000E+00 0. -1.
         11    1    1    2    0    0 -0.48653232650E+02  0.40436491783E+02  0.91799807355E+02  0.11148745017E+03  0.00000000000E+00 0.  1.
<mgrwt>
<rscale>  0 0.13426248E+03</rscale>
<asrwt>0</asrwt>
<pdfrwt beam="1">  1        1 0.88425473E-01 0.14191111E+03</pdfrwt>
<pdfrwt beam="2">  1       -1 0.58473091E-02 0.14191111E+03</pdfrwt>
<totfact> 0.50240235E+03</totfact>
</mgrwt>
</event>
<event>
 6    1  0.9263730E-006  0.4398563E+03  0.7546771E-02  0.1030791E+00
          1   -1    0    0  501    0  0.00000000000E+00  0.00000000000E+00  0.77283066762E+03  0.77283066762E+03  0.00000000000E+00 0. -1.
         -1   -1    0    0    0  501 -0.00000000000E+00 -0.00000000000E+00 -0.62586010202E+02  0.62586010202E+02  0.00000000000E+00 0.  1.
          5    1    1    2  502    0  0.13162974856E+03  0.11103308608E+03  0.52852478061E+03  0.55589141982E+03  0.47000000000E+01 0. -1.
         -5    1    1    2    0  502 -0.58925253024E+01 -0.21996812603E+02  0.58611134199E+02  0.63055028914E+02  0.47000000000E+01 0.  1.
        -11    1    1    2    0    0 -0.85871027852E+02 -0.10350477480E+03  0.10372001491E+03  0.16983790309E+03  0.00000000000E+00 0.  1.
         11    1    1    2    0    0 -0.39866195405E+02  0.14468501324E+02  0.19388727697E+02  0.46632326001E+02  0.00000000000E+00 0. -1.
<mgrwt>
<rscale>  0 0.43985629E+03</rscale>
<asrwt>0</asrwt>
<pdfrwt beam="1">  1        1 0.11889702E+00 0.43985629E+03</pdfrwt>
<pdfrwt beam="2">  1       -1 0.96286175E-02 0.43985629E+03</pdfrwt>
<totfact> 0.15731811E+03</totfact>
</mgrwt>
</event>
<event>
 6    1  0.9263730E-006  0.1275987E+03  0.7546771E-02  0.1245567E+00
          2   -1    0    0  501    0  0.00000000000E+00  0.00000000000E+00  0.14183879853E+03  0.14183879853E+03  0.00000000000E+00 0. -1.
         -2   -1    0    0    0  501 -0.00000000000E+00 -0.00000000000E+00 -0.87572850990E+02  0.87572850990E+02  0.00000000000E+00 0.  1.
          5    1    1    2  502    0 -0.31768608046E+02  0.67402985140E+02  0.12118611167E+02  0.75639656263E+02  0.47000000000E+01 0. -1.
         -5    1    1    2    0  502  0.13493523991E+02 -0.49435887508E+02  0.25236904913E+02  0.57314688632E+02  0.47000000000E+01 0. -1.
        -11    1    1    2    0    0 -0.22944768225E+02  0.75079312577E+01 -0.23253338430E+02  0.33519384970E+02  0.00000000000E+00 0.  1.
         11    1    1    2    0    0  0.41219852280E+02 -0.25475028890E+02  0.40163769893E+02  0.62937919658E+02  0.00000000000E+00 0. -1.
<mgrwt>
<rscale>  0 0.11851511E+03</rscale>
<asrwt>0</asrwt>
<pdfrwt beam="1">  1        2 0.21821354E-01 0.12759868E+03</pdfrwt>
<pdfrwt beam="2">  1       -2 0.13472746E-01 0.12759868E+03</pdfrwt>
<totfact> 0.96251570E+03</totfact>
</mgrwt>
</event>
<event>
 6    1  0.9263730E-006  0.2116811E+03  0.7546771E-02  0.1141511E+00
         -1   -1    0    0    0  501 -0.00000000000E+00  0.00000000000E+00  0.28833488574E+02  0.28833488574E+02  0.00000000000E+00 0.  1.
          1   -1    0    0  501    0  0.00000000000E+00 -0.00000000000E+00 -0.15396649493E+04  0.15396649493E+04  0.00000000000E+00 0. -1.
          5    1    1    2  502    0 -0.63098234678E+02  0.39832380437E+02 -0.34866062404E+03  0.35658705320E+03  0.47000000000E+01 0. -1.
         -5    1    1    2    0  502 -0.11387218977E+03 -0.74546149896E+02 -0.53119696879E+03  0.54837606960E+03  0.47000000000E+01 0.  1.
        -11    1    1    2    0    0  0.13478723659E+03  0.57538621559E+02 -0.55212744790E+03  0.57124689132E+03  0.00000000000E+00 0. -1.
         11    1    1    2    0    0  0.42183187864E+02 -0.22824852101E+02 -0.78846419975E+02  0.92288423731E+02  0.00000000000E+00 0.  1.
<mgrwt>
<rscale>  0 0.21006931E+03</rscale>
<asrwt>0</asrwt>
<pdfrwt beam="2">  1        1 0.23687164E+00 0.21168106E+03</pdfrwt>
<pdfrwt beam="1">  1       -1 0.44359193E-02 0.21168106E+03</pdfrwt>
<totfact> 0.14225491E+03</totfact>
</mgrwt>
</event>
<event>
 6    1  0.9263730E-006  0.1382131E+03  0.7546771E-02  0.1227298E+00
         -2   -1    0    0    0  501 -0.00000000000E+00  0.00000000000E+00  0.24972227538E+02  0.24972227538E+02  0.00000000000E+00 0.  1.
          2   -1    0    0  501    0  0.00000000000E+00 -0.00000000000E+00 -0.66223142009E+03  0.66223142009E+03  0.00000000000E+00 0. -1.
          5    1    1    2  502    0  0.39743117833E+02 -0.38905842040E+02 -0.28776269237E+03  0.29312563361E+03  0.47000000000E+01 0.  1.
         -5    1    1    2    0  502  0.93077004188E+01  0.71575891396E+02 -0.16246127178E+03  0.17783558796E+03  0.47000000000E+01 0.  1.
        -11    1    1    2    0    0 -0.50279059263E+01 -0.39879557226E+02 -0.15796088419E+03  0.16299478475E+03  0.00000000000E+00 0. -1.
         11    1    1    2    0    0 -0.44022912325E+02  0.72095078694E+01 -0.29074344215E+02  0.53247641308E+02  0.00000000000E+00 0.  1.
<mgrwt>
<rscale>  0 0.13010638E+03</rscale>
<asrwt>0</asrwt>
<pdfrwt beam="2">  1        2 0.10188175E+00 0.13821308E+03</pdfrwt>
<pdfrwt beam="1">  1       -2 0.38418814E-02 0.13821308E+03</pdfrwt>
<totfact> 0.12505540E+04</totfact>
</mgrwt>
</event>
<event>
 6    1  0.9263730E-006  0.4109217E+03  0.7546771E-02  0.1040839E+00
         -2   -1    0    0    0  501 -0.00000000000E+00  0.00000000000E+00  0.68097819093E+02  0.68097819093E+02  0.00000000000E+00 0.  1.
          2   -1    0    0  501    0  0.00000000000E+00 -0.00000000000E+00 -0.24841415502E+04  0.24841415502E+04  0.00000000000E+00 0. -1.
          5    1    1    2  502    0  0.45072358198E+02 -0.85166986576E+02 -0.39058844736E+03  0.40232618395E+03  0.47000000000E+01 0.  1.
         -5    1    1    2    0  502  0.29039971333E+03 -0.11655808618E+03 -0.10283859123E+04  0.10749499782E+04  0.47000000000E+01 0.  1.
        -11    1    1    2    0    0 -0.25368646719E+03  0.19272916589E+03 -0.81978096745E+03  0.87951247269E+03  0.00000000000E+00 0. -1.
         11    1    1    2    0    0 -0.81785604345E+02  0.89959068691E+01 -0.17728840393E+03  0.19545073442E+03  0.00000000000E+00 0.  1.
<mgrwt>
<rscale>  0 0.40860789E+03</rscale>
<asrwt>0</asrwt>
<pdfrwt beam="2">  1        2 0.38217566E+00 0.41092168E+03</pdfrwt>
<pdfrwt beam="1">  1       -2 0.10476587E-01 0.41092168E+03</pdfrwt>
<totfact> 0.24510546E+02</totfact>
</mgrwt>
</event>
<event>
 6    1  0.9263730E-006  0.1269634E+03  0.7546771E-02  0.1248740E+00
         -2   -1    0    0    0  501 -0.00000000000E+00  0.00000000000E+00  0.87619802920E+02  0.87619802920E+02  0.00000000000E+00 0.  1.
          2   -1    0    0  501    0  0.00000000000E+00 -0.00000000000E+00 -0.17292869060E+03  0.17292869060E+03  0.00000000000E+00 0. -1.
          5    1    1    2  502    0  0.22261029475E+02 -0.24531551607E+02  0.12341510430E+02  0.35661650792E+02  0.47000000000E+01 0.  1.
         -5    1    1    2    0  502 -0.44485141220E+02  0.25204777499E+02 -0.12102605536E+03  0.13146712393E+03  0.47000000000E+01 0.  1.
        -11    1    1    2    0    0  0.10255075803E+02  0.15530379978E+02  0.53801455066E+02  0.56929393543E+02  0.00000000000E+00 0.  1.
         11    1    1    2    0    0  0.11969035942E+02 -0.16203605870E+02 -0.30425797814E+02  0.36490325255E+02  0.00000000000E+00 0. -1.
<mgrwt>
<rscale>  0 0.11664294E+03</rscale>
<asrwt>0</asrwt>
<pdfrwt beam="2">  1        2 0.26604414E-01 0.12696337E+03</pdfrwt>
<pdfrwt beam="1">  1       -2 0.13479970E-01 0.12696337E+03</pdfrwt>
<totfact> 0.77218117E+03</totfact>
</mgrwt>
</event>
<event>
 6    1  0.9263730E-006  0.1502074E+03  0.7546771E-02  0.1209674E+00
         -2   -1    0    0    0  501 -0.00000000000E+00  0.00000000000E+00  0.21060333159E+02  0.21060333159E+02  0.00000000000E+00 0.  1.
          2   -1    0    0  501    0  0.00000000000E+00 -0.00000000000E+00 -0.90286405654E+03  0.90286405654E+03  0.00000000000E+00 0. -1.
          5    1    1    2  502    0  0.89843986182E+02  0.59402247845E+02 -0.52098507833E+03  0.53202265999E+03  0.47000000000E+01 0. -1.
         -5    1    1    2    0  502 -0.17590579209E+02 -0.17972032159E+02 -0.31836729987E+02  0.40842254995E+02  0.47000000000E+01 0. -1.
        -11    1    1    2    0    0 -0.80611826205E+02 -0.71368960175E+01 -0.27418111168E+03  0.28587494436E+03  0.00000000000E+00 0. -1.
         11    1    1    2    0    0  0.83584192317E+01 -0.34293319668E+02 -0.54800803378E+02  0.65184530349E+02  0.00000000000E+00 0.  1.
<mgrwt>
<rscale>  0 0.14275104E+03</rscale>
<asrwt>0</asrwt>
<pdfrwt beam="2">  1        2 0.13890215E+00 0.15020739E+03</pdfrwt>
<pdfrwt beam="1">  1       -2 0.32400516E-02 0.15020739E+03</pdfrwt>
<totfact> 0.11035627E+04</totfact>
</mgrwt>
</event>
<event>
 6    1  0.9263730E-006  0.3197616E+03  0.7546771E-02  0.1077106E+00
         -1   -1    0    0    0  501 -0.00000000000E+00  0.00000000000E+00  0.10859894917E+03  0.10859894917E+03  0.00000000000E+00 0.  1.
          1   -1    0    0  501    0  0.00000000000E+00 -0.00000000000E+00 -0.10909584061E+04  0.10909584061E+04  0.00000000000E+00 0. -1.
          5    1    1    2  502    0  0.33413290231E+02 -0.46025400617E+01 -0.14880448280E+03  0.15265154910E+03  0.47000000000E+01 0.  1.
         -5    1    1    2    0  502  0.82038675724E+02 -0.26616441648E+03 -0.59539981183E+03  0.65734075397E+03  0.47000000000E+01 0.  1.
        -11    1    1    2    0    0 -0.43150215509E+02  0.20030621916E+03 -0.13591871692E+03  0.24588293992E+03  0.00000000000E+00 0. -1.
         11    1    1    2    0    0 -0.72301750446E+02  0.70460737376E+02 -0.10223644542E+03  0.14368211232E+03  0.00000000000E+00 0.  1.
<mgrwt>
<rscale>  0 0.31685445E+03</rscale>
<asrwt>0</asrwt>
<pdfrwt beam="2">  1        1 0.16783976E+00 0.31976163E+03</pdfrwt>
<pdfrwt beam="1">  1       -1 0.16707530E-01 0.31976163E+03</pdfrwt>
<totfact> 0.37023539E+02</totfact>
</mgrwt>
</event>
<event>
 6    1  0.9263730E-006  0.1397113E+03  0.7546771E-02  0.1224028E+00
         -2   -1    0    0    0  501 -0.00000000000E+00  0.00000000000E+00  0.52572059830E+02  0.52572059830E+02  0.00000000000E+00 0.  1.
          2   -1    0    0  501    0  0.00000000000E+00 -0.00000000000E+00 -0.30895927344E+03  0.30895927344E+03  0.00000000000E+00 0. -1.
          5    1    1    2  502    0  0.22382030837E+02 -0.26782164128E+02 -0.17364905097E+03  0.17718443082E+03  0.47000000000E+01 0.  1.
         -5    1    1    2    0  502 -0.19520340836E+02 -0.35558321869E+02  0.57522112374E+01  0.41238524399E+02  0.47000000000E+01 0.  1.
        -11    1    1    2    0    0  0.21243576363E+02  0.79791813762E+02 -0.68138336361E+02  0.10705538736E+03  0.00000000000E+00 0. -1.
         11    1    1    2    0    0 -0.24105266364E+02 -0.17451327765E+02 -0.20352037512E+02  0.36052990696E+02  0.00000000000E+00 0.  1.
<mgrwt>
<rscale>  0 0.13233740E+03</rscale>
<asrwt>0</asrwt>
<pdfrwt beam="2">  1        2 0.47532195E-01 0.13971127E+03</pdfrwt>
<pdfrwt beam="1">  1       -2 0.80880094E-02 0.13971127E+03</pdfrwt>
<totfact> 0.93457629E+03</totfact>
</mgrwt>
</event>
<event>
 6    1  0.9263730E-006  0.1278251E+03  0.7546771E-02  0.1244889E+00
         -1   -1    0    0    0  501 -0.00000000000E+00  0.00000000000E+00  0.17796620071E+03  0.17796620071E+03  0.00000000000E+00 0.  1.
          1   -1    0    0  501    0  0.00000000000E+00 -0.00000000000E+00 -0.73389156607E+02  0.73389156607E+02  0.00000000000E+00 0. -1.
          5    1    1    2  502    0 -0.44607763289E+02  0.58632616561E+01 -0.36592404091E+02  0.58183540800E+02  0.47000000000E+01 0. -1.
         -5    1    1    2    0  502  0.21540492190E+02  0.76428328505E+01  0.70213272666E+02  0.73989184049E+02  0.47000000000E+01 0. -1.
        -11    1    1    2    0    0 -0.22758381242E+02  0.19303151702E+02  0.16982916162E+01  0.29890462974E+02  0.00000000000E+00 0. -1.
         11    1    1    2    0    0  0.45825652341E+02 -0.32809246209E+02  0.69257883911E+02  0.89292169495E+02  0.00000000000E+00 0.  1.
<mgrwt>
<rscale>  0 0.11892050E+03</rscale>
<asrwt>0</asrwt>
<pdfrwt beam="2">  1        1 0.11290640E-01 0.12782514E+03</pdfrwt>
<pdfrwt beam="1">  1       -1 0.27379415E-01 0.12782514E+03</pdfrwt>
<totfact> 0.61491882E+03</totfact>
</mgrwt>
</event>
<event>
 6    1  0.9263730E-006  0.1264741E+03  0.7546771E-02  0.1239933E+00
         -1   -1    0    0    0  501 -0.00000000000E+00  0.00000000000E+00  0.85945914601E+02  0.85945914601E+02  0.00000000000E+00 0.  1.
          1   -1    0    0  501    0  0.00000000000E+00 -0.00000000000E+00 -0.16402487500E+03  0.16402487500E+03  0.00000000000E+00 0. -1.
          5    1    1    2  502    0 -0.22308138062E+02  0.42460752447E+02 -0.53970578874E+02  0.72356630008E+02  0.47000000000E+01 0.  1.
         -5    1    1    2    0  502  0.37134798686E+02 -0.54614731359E+02 -0.27872453935E+01  0.66269305803E+02  0.47000000000E+01 0.  1.
        -11    1    1    2    0    0  0.46068409131E+02 -0.40136135332E+01 -0.10452446015E+02  0.47409503701E+02  0.00000000000E+00 0.  1.
         11    1    1    2    0    0 -0.60895069755E+02  0.16167592444E+02 -0.10868690115E+02  0.63935350087E+02  0.00000000000E+00 0. -1.
<mgrwt>
<rscale>  0 0.12193848E+03</rscale>
<asrwt>0</asrwt>
<pdfrwt beam="2">  1        1 0.25234596E-01 0.12647411E+03</pdfrwt>
<pdfrwt beam="1">  1       -1 0.13222449E-01 0.12647411E+03</pdfrwt>
<totfact> 0.70103050E+03</totfact>
</mgrwt>
</event>
<event>
 6    1  0.9263730E-006  0.1616913E+03  0.7546771E-02  0.1195891E+00
         -2   -1    0    0    0  501 -0.00000000000E+00  0.00000000000E+00  0.14077322974E+02  0.14077322974E+02  0.00000000000E+00 0.  1.
          2   -1    0    0  501    0  0.00000000000E+00 -0.00000000000E+00 -0.15635866718E+04  0.15635866718E+04  0.00000000000E+00 0. -1.
          5    1    1    2  502    0 -0.74008260325E+02  0.35585662104E+02 -0.35517033820E+03  0.36457046107E+03  0.47000000000E+01 0. -1.
         -5    1    1    2    0  502  0.37299336043E+02  0.60170129480E+02 -0.60119989484E+03  0.60537185969E+03  0.47000000000E+01 0. -1.
        -11    1    1    2    0    0  0.22107751228E+02 -0.10314498152E+03 -0.56808996822E+03  0.57780087562E+03  0.00000000000E+00 0. -1.
         11    1    1    2    0    0  0.14601173054E+02  0.73891899384E+01 -0.25049147527E+02  0.29920798357E+02  0.00000000000E+00 0.  1.
<mgrwt>
<rscale>  0 0.15379097E+03</rscale>
<asrwt>0</asrwt>
<pdfrwt beam="2">  1        2 0.24055181E+00 0.16169132E+03</pdfrwt>
<pdfrwt beam="1">  1       -2 0.21657418E-02 0.16169132E+03</pdfrwt>
<totfact> 0.85391498E+03</totfact>
</mgrwt>
</event>
<event>
 6    1  0.9263730E-006  0.2120369E+03  0.7546771E-02  0.1143632E+00
         -1   -1    0    0    0  501 -0.00000000000E+00  0.00000000000E+00  0.21712449307E+03  0.21712449307E+03  0.00000000000E+00 0.  1.
          1   -1    0    0  501    0  0.00000000000E+00 -0.00000000000E+00 -0.24132853764E+03  0.24132853764E+03  0.00000000000E+00 0. -1.
          5    1    1    2  502    0  0.75785284440E+02  0.81369243904E+02 -0.54550561752E+02  0.12394441084E+03  0.47000000000E+01 0. -1.
         -5    1    1    2    0  502  0.90935694336E+02 -0.42115739489E+02 -0.63651803339E+02  0.11881362752E+03  0.47000000000E+01 0. -1.
        -11    1    1    2    0    0 -0.13375255923E+03 -0.45075977574E+02  0.10965724686E+03  0.17873528651E+03  0.00000000000E+00 0.  1.
         11    1    1    2    0    0 -0.32968419543E+02  0.58224731591E+01 -0.15658926341E+02  0.36959705830E+02  0.00000000000E+00 0. -1.
<mgrwt>
<rscale>  0 0.20741252E+03</rscale>
<asrwt>0</asrwt>
<pdfrwt beam="2">  1        1 0.37127467E-01 0.21203695E+03</pdfrwt>
<pdfrwt beam="1">  1       -1 0.33403768E-01 0.21203695E+03</pdfrwt>
<totfact> 0.97884535E+02</totfact>
</mgrwt>
</event>
<event>
 6    1  0.9263730E-006  0.1311624E+03  0.7546771E-02  0.1238716E+00
          2   -1    0    0  501    0  0.00000000000E+00  0.00000000000E+00  0.12148205230E+04  0.12148205230E+04  0.00000000000E+00 0. -1.
         -2   -1    0    0    0  501 -0.00000000000E+00 -0.00000000000E+00 -0.11705162381E+02  0.11705162381E+02  0.00000000000E+00 0.  1.
          5    1    1    2  502    0  0.21683930887E+01 -0.49625424066E+02  0.71926372967E+03  0.72099222428E+03  0.47000000000E+01 0.  1.
         -5    1    1    2    0  502  0.31681077271E+02  0.28828972061E+02  0.10275207583E+03  0.11142207759E+03  0.47000000000E+01 0.  1.
        -11    1    1    2    0    0 -0.55608091715E+02  0.40943099394E+02  0.29747273045E+03  0.30538274773E+03  0.00000000000E+00 0.  1.
         11    1    1    2    0    0  0.21758621355E+02 -0.20146647388E+02  0.83626824695E+02  0.88728635811E+02  0.00000000000E+00 0. -1.
<mgrwt>
<rscale>  0 0.12269501E+03</rscale>
<asrwt>0</asrwt>
<pdfrwt beam="1">  1        2 0.18689537E+00 0.13116244E+03</pdfrwt>
<pdfrwt beam="2">  1       -2 0.18007952E-02 0.13116244E+03</pdfrwt>
<totfact> 0.16955893E+04</totfact>
</mgrwt>
</event>
<event>
 6    1  0.9263730E-006  0.1193140E+03  0.7546771E-02  0.1259139E+00
         -2   -1    0    0    0  501 -0.00000000000E+00  0.00000000000E+00  0.27427306893E+02  0.27427306893E+02  0.00000000000E+00 0.  1.
          2   -1    0    0  501    0  0.00000000000E+00 -0.00000000000E+00 -0.61788895038E+03  0.61788895038E+03  0.00000000000E+00 0. -1.
          5    1    1    2  502    0  0.39800893991E+01  0.15933765217E+02 -0.51584718436E+03  0.51612995805E+03  0.47000000000E+01 0. -1.
         -5    1    1    2    0  502 -0.36182011180E+01 -0.11855662680E+02  0.81155932498E-01  0.13256873810E+02  0.47000000000E+01 0.  1.
        -11    1    1    2    0    0 -0.37754859656E+02  0.97739849044E+01 -0.63485371966E+02  0.74507400050E+02  0.00000000000E+00 0.  1.
         11    1    1    2    0    0  0.37392971375E+02 -0.13852087441E+02 -0.11210243091E+02  0.41422025359E+02  0.00000000000E+00 0. -1.
<mgrwt>
<rscale>  0 0.11077650E+03</rscale>
<asrwt>0</asrwt>
<pdfrwt beam="2">  1        2 0.95059834E-01 0.11931396E+03</pdfrwt>
<pdfrwt beam="1">  1       -2 0.42195859E-02 0.11931396E+03</pdfrwt>
<totfact> 0.11663766E+04</totfact>
</mgrwt>
</event>
<event>
 6    1  0.9263730E-006  0.3012634E+03  0.7546771E-02  0.1084611E+00
         -1   -1    0    0    0  501 -0.00000000000E+00  0.00000000000E+00  0.50415338113E+03  0.50415338113E+03  0.00000000000E+00 0.  1.
          1   -1    0    0  501    0  0.00000000000E+00 -0.00000000000E+00 -0.45005979041E+02  0.45005979041E+02  0.00000000000E+00 0. -1.
          5    1    1    2  502    0  0.14756254928E+02 -0.18787942221E+02  0.15916510344E+03  0.16101662642E+03  0.47000000000E+01 0.  1.
         -5    1    1    2    0  502  0.39160872320E+01 -0.67916809932E+02  0.12880505914E+02  0.69397595370E+02  0.47000000000E+01 0.  1.
        -11    1    1    2    0    0 -0.30231607360E+02  0.45239673923E+02  0.26466964741E+03  0.27020473800E+03  0.00000000000E+00 0.  1.
         11    1    1    2    0    0  0.11559265200E+02  0.41465078231E+02  0.22432145333E+02  0.48540400378E+02  0.00000000000E+00 0. -1.
<mgrwt>
<rscale>  0 0.30126345E+03</rscale>
<asrwt>0</asrwt>
<pdfrwt beam="2">  1        1 0.69239971E-02 0.30126345E+03</pdfrwt>
<pdfrwt beam="1">  1       -1 0.77562055E-01 0.30126345E+03</pdfrwt>
<totfact> 0.18458460E+03</totfact>
</mgrwt>
</event>
<event>
 6    1  0.9263730E-006  0.1291205E+03  0.7546771E-02  0.1242317E+00
         -1   -1    0    0    0  501 -0.00000000000E+00  0.00000000000E+00  0.71571554577E+02  0.71571554577E+02  0.00000000000E+00 0.  1.
          1   -1    0    0  501    0  0.00000000000E+00 -0.00000000000E+00 -0.18369994383E+03  0.18369994383E+03  0.00000000000E+00 0. -1.
          5    1    1    2  502    0  0.96848704545E+01  0.11192738313E+02  0.32498269072E+02  0.36018073232E+02  0.47000000000E+01 0.  1.
         -5    1    1    2    0  502  0.22524931403E+02 -0.82749330772E+01 -0.11418080614E+03  0.11676983147E+03  0.47000000000E+01 0.  1.
        -11    1    1    2    0    0 -0.28799683945E+02  0.40463553852E+02 -0.31752774315E+02  0.58948788473E+02  0.00000000000E+00 0. -1.
         11    1    1    2    0    0 -0.34101179120E+01 -0.43381359088E+02  0.13069221315E+01  0.43534805225E+02  0.00000000000E+00 0.  1.
<mgrwt>
<rscale>  0 0.12047421E+03</rscale>
<asrwt>0</asrwt>
<pdfrwt beam="2">  1        1 0.28261529E-01 0.12912051E+03</pdfrwt>
<pdfrwt beam="1">  1       -1 0.11011009E-01 0.12912051E+03</pdfrwt>
<totfact> 0.80812031E+03</totfact>
</mgrwt>
</event>
<event>
 6    1  0.9263730E-006  0.1326062E+03  0.7546771E-02  0.1269150E+00
         -2   -1    0    0    0  501 -0.00000000000E+00  0.00000000000E+00  0.12697227038E+02  0.12697227038E+02  0.00000000000E+00 0.  1.
          2   -1    0    0  501    0  0.00000000000E+00 -0.00000000000E+00 -0.91326139039E+03  0.91326139039E+03  0.00000000000E+00 0. -1.
          5    1    1    2  502    0  0.47214553107E+02  0.74074056297E+02 -0.64921612650E+03  0.65514872262E+03  0.47000000000E+01 0. -1.
         -5    1    1    2    0  502 -0.30884296568E+02 -0.24800922828E+02 -0.16225436997E+03  0.16708529595E+03  0.47000000000E+01 0.  1.
        -11    1    1    2    0    0 -0.10101149568E+02 -0.39599580689E+02 -0.61635843536E+02  0.73953615339E+02  0.00000000000E+00 0.  1.
         11    1    1    2    0    0 -0.62291069703E+01 -0.96735527799E+01 -0.27457823350E+02  0.29770983527E+02  0.00000000000E+00 0. -1.
<mgrwt>
<rscale>  0 0.10549345E+03</rscale>
<asrwt>0</asrwt>
<pdfrwt beam="2">  1        2 0.14050177E+00 0.13260624E+03</pdfrwt>
<pdfrwt beam="1">  1       -2 0.19534193E-02 0.13260624E+03</pdfrwt>
<totfact> 0.22599959E+04</totfact>
</mgrwt>
</event>
<event>
 6    1  0.9263730E-006  0.1297003E+03  0.7546771E-02  0.1240609E+00
         -1   -1    0    0    0  501 -0.00000000000E+00  0.00000000000E+00  0.12857519434E+03  0.12857519434E+03  0.00000000000E+00 0.  1.
          1   -1    0    0  501    0  0.00000000000E+00 -0.00000000000E+00 -0.10307694054E+03  0.10307694054E+03  0.00000000000E+00 0. -1.
          5    1    1    2  502    0  0.42860853144E+01  0.52906218259E+02  0.44111055262E+01  0.53469489522E+02  0.47000000000E+01 0.  1.
         -5    1    1    2    0  502 -0.35762586725E+02 -0.67299768357E+02  0.17288843426E+01  0.76376046450E+02  0.47000000000E+01 0.  1.
        -11    1    1    2    0    0  0.55478490387E+02  0.25327295013E+02  0.35808618249E+02  0.70721933721E+02  0.00000000000E+00 0.  1.
         11    1    1    2    0    0 -0.24001988976E+02 -0.10933744915E+02 -0.16450354317E+02  0.31084665188E+02  0.00000000000E+00 0. -1.
<mgrwt>
<rscale>  0 0.12152077E+03</rscale>
<asrwt>0</asrwt>
<pdfrwt beam="2">  1        1 0.15857991E-01 0.12970028E+03</pdfrwt>
<pdfrwt beam="1">  1       -1 0.19780799E-01 0.12970028E+03</pdfrwt>
<totfact> 0.67171807E+03</totfact>
</mgrwt>
</event>
<event>
 6    1  0.9671419E-006  0.3179672E+03  0.7546771E-02  0.1077945E+00
          2   -1    0    0  501    0  0.00000000000E+00  0.00000000000E+00  0.11869945992E+04  0.11869945992E+04  0.00000000000E+00 0. -1.
         -2   -1    0    0    0  501 -0.00000000000E+00 -0.00000000000E+00 -0.82229445191E+02  0.82229445191E+02  0.00000000000E+00 0.  1.
          5    1    1    2  502    0 -0.35582796101E+02  0.27248490920E+03  0.47065809271E+03  0.54502778953E+03  0.47000000000E+01 0. -1.
         -5    1    1    2    0  502  0.33357943686E+02  0.19873361756E+02  0.11366951594E+03  0.12021044783E+03  0.47000000000E+01 0. -1.
        -11    1    1    2    0    0 -0.25065391906E+02 -0.10063991126E+03  0.11617382596E+03  0.15573382242E+03  0.00000000000E+00 0. -1.
         11    1    1    2    0    0  0.27290244321E+02 -0.19171835970E+03  0.40426371945E+03  0.44825198466E+03  0.00000000000E+00 0.  1.
<mgrwt>
<rscale>  0 0.31506139E+03</rscale>
<asrwt>0</asrwt>
<pdfrwt beam="1">  1        2 0.18261454E+00 0.31796723E+03</pdfrwt>
<pdfrwt beam="2">  1       -2 0.12650685E-01 0.31796723E+03</pdfrwt>
<totfact> 0.92150093E+02</totfact>
</mgrwt>
</event>
<event>
 6    1  0.9263730E-006  0.1258334E+03  0.7546771E-02  0.1254312E+00
          1   -1    0    0  501    0  0.00000000000E+00  0.00000000000E+00  0.39214918049E+02  0.39214918049E+02  0.00000000000E+00 0. -1.
         -1   -1    0    0    0  501 -0.00000000000E+00 -0.00000000000E+00 -0.38355043719E+03  0.38355043719E+03  0.00000000000E+00 0.  1.
          5    1    1    2  502    0 -0.27928382658E+02 -0.38337316711E+02  0.10911928293E+02  0.48896877094E+02  0.47000000000E+01 0.  1.
         -5    1    1    2    0  502  0.18547866737E+02  0.27337980426E+02 -0.99623569013E+02  0.10506347623E+03  0.47000000000E+01 0.  1.
        -11    1    1    2    0    0  0.37450595526E+02  0.30295516524E+02 -0.12973048827E+03  0.13838484387E+03  0.00000000000E+00 0.  1.
         11    1    1    2    0    0 -0.28070079605E+02 -0.19296180239E+02 -0.12589339015E+03  0.13042015805E+03  0.00000000000E+00 0. -1.
<mgrwt>
<rscale>  0 0.11344928E+03</rscale>
<asrwt>0</asrwt>
<pdfrwt beam="1">  1        1 0.60330642E-02 0.12583336E+03</pdfrwt>
<pdfrwt beam="2">  1       -1 0.59007760E-01 0.12583336E+03</pdfrwt>
<totfact> 0.36776097E+03</totfact>
</mgrwt>
</event>
<event>
 6    1  0.9263730E-006  0.1287326E+03  0.7546771E-02  0.1247071E+00
          3   -1    0    0  501    0  0.00000000000E+00  0.00000000000E+00  0.60852996442E+03  0.60852996442E+03  0.00000000000E+00 0. -1.
         -3   -1    0    0    0  501 -0.00000000000E+00 -0.00000000000E+00 -0.35017816729E+02  0.35017816729E+02  0.00000000000E+00 0.  1.
          5    1    1    2  502    0 -0.48925109835E+01 -0.66495414427E+02  0.28435435734E+03  0.29210454865E+03  0.47000000000E+01 0.  1.
         -5    1    1    2    0  502 -0.24262953183E+02  0.56637341317E+02  0.24262636871E+03  0.25037197152E+03  0.47000000000E+01 0.  1.
        -11    1    1    2    0    0 -0.13934117794E+02 -0.16750184839E+02  0.45465954223E+02  0.50417073738E+02  0.00000000000E+00 0. -1.
         11    1    1    2    0    0  0.43089581960E+02  0.26608257949E+02  0.10654674197E+01  0.50654187245E+02  0.00000000000E+00 0.  1.
<mgrwt>
<rscale>  0 0.11762306E+03</rscale>
<asrwt>0</asrwt>
<pdfrwt beam="1">  1        3 0.93619987E-01 0.12873263E+03</pdfrwt>
<pdfrwt beam="2">  1       -3 0.53873569E-02 0.12873263E+03</pdfrwt>
<totfact> 0.49080942E+02</totfact>
</mgrwt>
</event>
<event>
 6    1  0.9263730E-006  0.3116824E+03  0.7546771E-02  0.1079542E+00
         -2   -1    0    0    0  501 -0.00000000000E+00  0.00000000000E+00  0.16524306641E+02  0.16524306641E+02  0.00000000000E+00 0.  1.
          2   -1    0    0  501    0  0.00000000000E+00 -0.00000000000E+00 -0.14697431297E+04  0.14697431297E+04  0.00000000000E+00 0. -1.
          5    1    1    2  502    0 -0.38912653354E+02  0.13207754903E+03 -0.63486761814E+03  0.64964425351E+03  0.47000000000E+01 0. -1.
         -5    1    1    2    0  502  0.13082441375E+01 -0.23495728105E+02 -0.70027783267E+02  0.74025273867E+02  0.47000000000E+01 0.  1.
        -11    1    1    2    0    0 -0.29116633298E+02 -0.18580336951E+02 -0.15697981761E+03  0.16073478277E+03  0.00000000000E+00 0. -1.
         11    1    1    2    0    0  0.66721042515E+02 -0.90001483978E+02 -0.59134360401E+03  0.60186312617E+03  0.00000000000E+00 0.  1.
<mgrwt>
<rscale>  0 0.31168244E+03</rscale>
<asrwt>0</asrwt>
<pdfrwt beam="2">  1        2 0.22611434E+00 0.31168244E+03</pdfrwt>
<pdfrwt beam="1">  1       -2 0.25422009E-02 0.31168244E+03</pdfrwt>
<totfact> 0.76962181E+03</totfact>
</mgrwt>
</event>
<event>
 6    1  0.9263730E-006  0.3102895E+03  0.7546771E-02  0.1080207E+00
          2   -1    0    0  501    0  0.00000000000E+00  0.00000000000E+00  0.72880672176E+03  0.72880672176E+03  0.00000000000E+00 0. -1.
         -2   -1    0    0    0  501 -0.00000000000E+00 -0.00000000000E+00 -0.33026451325E+02  0.33026451325E+02  0.00000000000E+00 0.  1.
          5    1    1    2  502    0 -0.11993956232E+03  0.44885249184E+02  0.35155652753E+03  0.37418480227E+03  0.47000000000E+01 0. -1.
         -5    1    1    2    0  502  0.25533617615E+02 -0.12262744409E+02  0.13457546193E+03  0.13760445299E+03  0.47000000000E+01 0. -1.
        -11    1    1    2    0    0  0.33981849139E+02 -0.25451851777E+01  0.16646196387E+03  0.16991418262E+03  0.00000000000E+00 0. -1.
         11    1    1    2    0    0  0.60424095563E+02 -0.30077319596E+02  0.43186317101E+02  0.80129735202E+02  0.00000000000E+00 0.  1.
<mgrwt>
<rscale>  0 0.31028954E+03</rscale>
<asrwt>0</asrwt>
<pdfrwt beam="1">  1        2 0.11212410E+00 0.31028954E+03</pdfrwt>
<pdfrwt beam="2">  1       -2 0.50809931E-02 0.31028954E+03</pdfrwt>
<totfact> 0.76330321E+03</totfact>
</mgrwt>
</event>
<event>
 6    1  0.9263730E-006  0.1822560E+03  0.7546771E-02  0.1171331E+00
          4   -1    0    0  501    0  0.00000000000E+00  0.00000000000E+00  0.66325213919E+02  0.66325213919E+02  0.00000000000E+00 0. -1.
         -4   -1    0    0    0  501 -0.00000000000E+00 -0.00000000000E+00 -0.44148222354E+03  0.44148222354E+03  0.00000000000E+00 0.  1.
          5    1    1    2  502    0 -0.13420151629E+02  0.50974405661E+02 -0.37223701385E+02  0.64700729881E+02  0.47000000000E+01 0.  1.
         -5    1    1    2    0  502 -0.11896724709E+03 -0.42397454803E+02 -0.15893249039E+03  0.20305756956E+03  0.47000000000E+01 0.  1.
        -11    1    1    2    0    0  0.12220260780E+03  0.17689189582E+01 -0.18705889811E+03  0.22344493234E+03  0.00000000000E+00 0.  1.
         11    1    1    2    0    0  0.10184790921E+02 -0.10345869816E+02  0.80580802678E+01  0.16604205671E+02  0.00000000000E+00 0. -1.
<mgrwt>
<rscale>  0 0.17640214E+03</rscale>
<asrwt>0</asrwt>
<pdfrwt beam="1">  1        4 0.10203879E-01 0.18225602E+03</pdfrwt>
<pdfrwt beam="2">  1       -4 0.67920344E-01 0.18225602E+03</pdfrwt>
<totfact> 0.26164173E+02</totfact>
</mgrwt>
</event>
<event>
 6    1  0.9263730E-006  0.5406037E+03  0.7546771E-02  0.1003692E+00
          1   -1    0    0  501    0  0.00000000000E+00  0.00000000000E+00  0.37358215558E+04  0.37358215558E+04  0.00000000000E+00 0. -1.
         -1   -1    0    0    0  501 -0.00000000000E+00 -0.00000000000E+00 -0.19557436474E+02  0.19557436474E+02  0.00000000000E+00 0.  1.
          5    1    1    2  502    0 -0.20616087775E+02 -0.14403232294E+02  0.12760258635E+04  0.12762823240E+04  0.47000000000E+01 0. -1.
         -5    1    1    2    0  502  0.79718833186E+02  0.88710287793E+02  0.22160589397E+04  0.22192710338E+04  0.47000000000E+01 0.  1.
        -11    1    1    2    0    0 -0.34059146652E+02 -0.14361847626E+02  0.17360042516E+03  0.17749195969E+03  0.00000000000E+00 0. -1.
         11    1    1    2    0    0 -0.25043598759E+02 -0.59945207873E+02  0.50578890968E+02  0.82333674747E+02  0.00000000000E+00 0.  1.
<mgrwt>
<rscale>  0 0.54060371E+03</rscale>
<asrwt>0</asrwt>
<pdfrwt beam="1">  1        1 0.57474121E+00 0.54060371E+03</pdfrwt>
<pdfrwt beam="2">  1       -1 0.30088393E-02 0.54060371E+03</pdfrwt>
<totfact> 0.72589883E+01</totfact>
</mgrwt>
</event>
<event>
 6    1  0.9263730E-006  0.1371068E+03  0.7546771E-02  0.1228711E+00
          2   -1    0    0  501    0  0.00000000000E+00  0.00000000000E+00  0.70537828012E+03  0.70537828012E+03  0.00000000000E+00 0.  1.
         -2   -1    0    0    0  501 -0.00000000000E+00 -0.00000000000E+00 -0.25331652140E+02  0.25331652140E+02  0.00000000000E+00 0. -1.
          5    1    1    2  502    0  0.78459102699E+02 -0.45121447754E+02  0.40191791448E+03  0.41200955793E+03  0.47000000000E+01 0. -1.
         -5    1    1    2    0  502 -0.42922266765E+02  0.13987522521E+01  0.11718772260E+03  0.12489727708E+03  0.47000000000E+01 0. -1.
        -11    1    1    2    0    0 -0.43355119751E+02 -0.17046263080E+02  0.65111125209E+02  0.80060602793E+02  0.00000000000E+00 0.  1.
         11    1    1    2    0    0  0.78182838174E+01  0.60768958582E+02  0.95829865688E+02  0.11374249446E+03  0.00000000000E+00 0. -1.
<mgrwt>
<rscale>  0 0.12915781E+03</rscale>
<asrwt>0</asrwt>
<pdfrwt beam="1">  1        2 0.10851972E+00 0.13710685E+03</pdfrwt>
<pdfrwt beam="2">  1       -2 0.38971778E-02 0.13710685E+03</pdfrwt>
<totfact> 0.11358675E+04</totfact>
</mgrwt>
</event>
<event>
 6    1  0.9263730E-006  0.4489609E+03  0.7546771E-02  0.1028682E+00
          2   -1    0    0  501    0  0.00000000000E+00  0.00000000000E+00  0.81673609461E+03  0.81673609461E+03  0.00000000000E+00 0.  1.
         -2   -1    0    0    0  501 -0.00000000000E+00 -0.00000000000E+00 -0.24399717223E+03  0.24399717223E+03  0.00000000000E+00 0. -1.
          5    1    1    2  502    0  0.16920221708E+02  0.24260731610E+03  0.26169541093E+03  0.35728305561E+03  0.47000000000E+01 0. -1.
         -5    1    1    2    0  502 -0.17206253820E+02  0.18860099809E+03  0.74337225701E+02  0.20350553991E+03  0.47000000000E+01 0. -1.
        -11    1    1    2    0    0  0.10962748739E+02 -0.12750213759E+03  0.27198503814E+02  0.13083094267E+03  0.00000000000E+00 0.  1.
         11    1    1    2    0    0 -0.10676716627E+02 -0.30370617660E+03  0.20950778194E+03  0.36911372865E+03  0.00000000000E+00 0. -1.
<mgrwt>
<rscale>  0 0.44679446E+03</rscale>
<asrwt>0</asrwt>
<pdfrwt beam="1">  1        2 0.12565171E+00 0.44896093E+03</pdfrwt>
<pdfrwt beam="2">  1       -2 0.37538027E-01 0.44896093E+03</pdfrwt>
<totfact> 0.23054993E+02</totfact>
</mgrwt>
</event>
<event>
 6    1  0.9263730E-006  0.1881298E+03  0.7546771E-02  0.1165005E+00
         -2   -1    0    0    0  501 -0.00000000000E+00  0.00000000000E+00  0.74468240714E+02  0.74468240714E+02  0.00000000000E+00 0.  1.
          2   -1    0    0  501    0  0.00000000000E+00 -0.00000000000E+00 -0.50357785427E+03  0.50357785427E+03  0.00000000000E+00 0. -1.
          5    1    1    2  502    0  0.70708022989E+02 -0.23847628954E+02 -0.28794314853E+03  0.29749232041E+03  0.47000000000E+01 0. -1.
         -5    1    1    2    0  502  0.41213478583E+02 -0.61246717336E+02 -0.49992813871E+02  0.89280919799E+02  0.47000000000E+01 0. -1.
        -11    1    1    2    0    0 -0.17705994701E+02  0.30487254318E+02  0.15790102723E+02  0.38630328348E+02  0.00000000000E+00 0.  1.
         11    1    1    2    0    0 -0.94215506871E+02  0.54607091971E+02 -0.10696375388E+03  0.15264252642E+03  0.00000000000E+00 0. -1.
<mgrwt>
<rscale>  0 0.18292121E+03</rscale>
<asrwt>0</asrwt>
<pdfrwt beam="2">  1        2 0.77473519E-01 0.18812981E+03</pdfrwt>
<pdfrwt beam="1">  1       -2 0.11456652E-01 0.18812981E+03</pdfrwt>
<totfact> 0.32409961E+03</totfact>
</mgrwt>
</event>
<event>
 6    1  0.9263730E-006  0.1384638E+03  0.7546771E-02  0.1226861E+00
         -2   -1    0    0    0  501 -0.00000000000E+00  0.00000000000E+00  0.20964813803E+02  0.20964813803E+02  0.00000000000E+00 0.  1.
          2   -1    0    0  501    0  0.00000000000E+00 -0.00000000000E+00 -0.98247506019E+03  0.98247506019E+03  0.00000000000E+00 0. -1.
          5    1    1    2  502    0  0.72114352782E+02  0.21612083398E+02 -0.75353548222E+03  0.75730137659E+03  0.47000000000E+01 0. -1.
         -5    1    1    2    0  502 -0.19799129473E+02  0.68673519777E+01 -0.22945289633E+02  0.31428368832E+02  0.47000000000E+01 0. -1.
        -11    1    1    2    0    0  0.26143574135E+02 -0.42092901228E+01 -0.38349999210E+02  0.46603937938E+02  0.00000000000E+00 0.  1.
         11    1    1    2    0    0 -0.78458797443E+02 -0.24270145253E+02 -0.14667947532E+03  0.16810619063E+03  0.00000000000E+00 0. -1.
<mgrwt>
<rscale>  0 0.13040177E+03</rscale>
<asrwt>0</asrwt>
<pdfrwt beam="2">  1        2 0.15115004E+00 0.13846379E+03</pdfrwt>
<pdfrwt beam="1">  1       -2 0.32253554E-02 0.13846379E+03</pdfrwt>
<totfact> 0.98763887E+03</totfact>
</mgrwt>
</event>
<event>
 6    1  0.9263730E-006  0.1259014E+03  0.7546771E-02  0.1251752E+00
          2   -1    0    0  501    0  0.00000000000E+00  0.00000000000E+00  0.50977140844E+03  0.50977140844E+03  0.00000000000E+00 0. -1.
         -2   -1    0    0    0  501 -0.00000000000E+00 -0.00000000000E+00 -0.24385558752E+02  0.24385558752E+02  0.00000000000E+00 0.  1.
          5    1    1    2  502    0  0.62337720180E+02  0.21512712039E+01  0.28046789603E+03  0.28735857396E+03  0.47000000000E+01 0.  1.
         -5    1    1    2    0  502 -0.49546025249E+02  0.57564178532E+01  0.79274837569E+02  0.93779181251E+02  0.47000000000E+01 0.  1.
        -11    1    1    2    0    0 -0.39765975154E+02  0.58558257920E+01  0.23674172735E+02  0.46648579082E+02  0.00000000000E+00 0.  1.
         11    1    1    2    0    0  0.26974280223E+02 -0.13763514849E+02  0.10196894335E+03  0.10637063290E+03  0.00000000000E+00 0. -1.
<mgrwt>
<rscale>  0 0.11490239E+03</rscale>
<asrwt>0</asrwt>
<pdfrwt beam="1">  1        2 0.78426362E-01 0.12590137E+03</pdfrwt>
<pdfrwt beam="2">  1       -2 0.37516248E-02 0.12590137E+03</pdfrwt>
<totfact> 0.17285020E+04</totfact>
</mgrwt>
</event>
<event>
 6    1  0.9263730E-006  0.1483573E+03  0.7546771E-02  0.1214192E+00
          1   -1    0    0  501    0  0.00000000000E+00  0.00000000000E+00  0.46766639536E+03  0.46766639536E+03  0.00000000000E+00 0. -1.
         -1   -1    0    0    0  501 -0.00000000000E+00 -0.00000000000E+00 -0.42139404952E+02  0.42139404952E+02  0.00000000000E+00 0.  1.
          5    1    1    2  502    0  0.69568726532E+02 -0.54399529752E+02  0.17828026908E+03  0.19901020298E+03  0.47000000000E+01 0.  1.
         -5    1    1    2    0  502  0.10244282578E+02  0.58325239868E+02  0.14436408271E+03  0.15610847930E+03  0.47000000000E+01 0.  1.
        -11    1    1    2    0    0 -0.71461751402E+02  0.30019613450E+02  0.53492624089E+02  0.94177597852E+02  0.00000000000E+00 0.  1.
         11    1    1    2    0    0 -0.83512577073E+01 -0.33945323566E+02  0.49390014529E+02  0.60509520180E+02  0.00000000000E+00 0. -1.
<mgrwt>
<rscale>  0 0.13936045E+03</rscale>
<asrwt>0</asrwt>
<pdfrwt beam="1">  1        1 0.71948672E-01 0.14835734E+03</pdfrwt>
<pdfrwt beam="2">  1       -1 0.64829857E-02 0.14835734E+03</pdfrwt>
<totfact> 0.56640906E+03</totfact>
</mgrwt>
</event>
<event>
 6    1  0.9263730E-006  0.1408778E+03  0.7546771E-02  0.1223408E+00
         -1   -1    0    0    0  501 -0.00000000000E+00  0.00000000000E+00  0.14636988898E+03  0.14636988898E+03  0.00000000000E+00 0.  1.
          1   -1    0    0  501    0  0.00000000000E+00 -0.00000000000E+00 -0.10899823641E+03  0.10899823641E+03  0.00000000000E+00 0. -1.
          5    1    1    2  502    0  0.66766415434E+02  0.54251901644E+02  0.38734745313E+02  0.94464244857E+02  0.47000000000E+01 0.  1.
         -5    1    1    2    0  502 -0.38106739960E+02  0.40562653422E+01 -0.26676481232E+02  0.46928686001E+02  0.47000000000E+01 0.  1.
        -11    1    1    2    0    0 -0.43143814377E+01 -0.69182950162E+02  0.43375246380E+02  0.81769838442E+02  0.00000000000E+00 0.  1.
         11    1    1    2    0    0 -0.24345294037E+02  0.10874783176E+02 -0.18061857887E+02  0.32205356094E+02  0.00000000000E+00 0. -1.
<mgrwt>
<rscale>  0 0.13276649E+03</rscale>
<asrwt>0</asrwt>
<pdfrwt beam="2">  1        1 0.16768959E-01 0.14087782E+03</pdfrwt>
<pdfrwt beam="1">  1       -1 0.22518444E-01 0.14087782E+03</pdfrwt>
<totfact> 0.50993586E+03</totfact>
</mgrwt>
</event>
<event>
 6    1  0.9263730E-006  0.1448896E+03  0.7546771E-02  0.1217943E+00
         -3   -1    0    0    0  501 -0.00000000000E+00  0.00000000000E+00  0.58677984707E+02  0.58677984707E+02  0.00000000000E+00 0. -1.
          3   -1    0    0  501    0  0.00000000000E+00 -0.00000000000E+00 -0.28958938333E+03  0.28958938333E+03  0.00000000000E+00 0.  1.
          5    1    1    2  502    0  0.16282496410E+02  0.33920757422E+02 -0.11554283198E+03  0.12160581193E+03  0.47000000000E+01 0.  1.
         -5    1    1    2    0  502  0.53119128381E+02 -0.57354045788E+02 -0.30293922954E+02  0.83969876361E+02  0.47000000000E+01 0.  1.
        -11    1    1    2    0    0 -0.13440307902E+01  0.28271431685E+02  0.59622657344E+01  0.28924537697E+02  0.00000000000E+00 0. -1.
         11    1    1    2    0    0 -0.68057594001E+02 -0.48381433188E+01 -0.91036909421E+02  0.11376714204E+03  0.00000000000E+00 0.  1.
<mgrwt>
<rscale>  0 0.13662590E+03</rscale>
<asrwt>0</asrwt>
<pdfrwt beam="2">  1        3 0.44552213E-01 0.14488963E+03</pdfrwt>
<pdfrwt beam="1">  1       -3 0.90273823E-02 0.14488963E+03</pdfrwt>
<totfact> 0.10245699E+03</totfact>
</mgrwt>
</event>
<event>
 6    1  0.9263730E-006  0.2204541E+03  0.7546771E-02  0.1140104E+00
          2   -1    0    0  501    0  0.00000000000E+00  0.00000000000E+00  0.10747367337E+03  0.10747367337E+03  0.00000000000E+00 0. -1.
         -2   -1    0    0    0  501 -0.00000000000E+00 -0.00000000000E+00 -0.39203061446E+03  0.39203061446E+03  0.00000000000E+00 0.  1.
          5    1    1    2  502    0 -0.13285955475E+03 -0.71557092250E+02 -0.33845442345E+02  0.15472453815E+03  0.47000000000E+01 0. -1.
         -5    1    1    2    0  502 -0.33018084804E+02 -0.23337751003E+01 -0.94793835334E+02  0.10051667348E+03  0.47000000000E+01 0. -1.
        -11    1    1    2    0    0  0.12354781823E+03  0.71891271174E+02 -0.10160343202E+03  0.17537296159E+03  0.00000000000E+00 0.  1.
         11    1    1    2    0    0  0.42329821325E+02  0.19995961763E+01 -0.54314231393E+02  0.68890114604E+02  0.00000000000E+00 0. -1.
<mgrwt>
<rscale>  0 0.21185741E+03</rscale>
<asrwt>0</asrwt>
<pdfrwt beam="1">  1        2 0.16534411E-01 0.22045410E+03</pdfrwt>
<pdfrwt beam="2">  1       -2 0.60312403E-01 0.22045410E+03</pdfrwt>
<totfact> 0.90379679E+02</totfact>
</mgrwt>
</event>
<event>
 6    1  0.9263730E-006  0.1345543E+03  0.7546771E-02  0.1233289E+00
          2   -1    0    0  501    0  0.00000000000E+00  0.00000000000E+00  0.78730517514E+02  0.78730517514E+02  0.00000000000E+00 0. -1.
         -2   -1    0    0    0  501 -0.00000000000E+00 -0.00000000000E+00 -0.18445974768E+03  0.18445974768E+03  0.00000000000E+00 0.  1.
          5    1    1    2  502    0 -0.37557297455E+01 -0.68755615016E+02 -0.30573354852E+02  0.75486820896E+02  0.47000000000E+01 0.  1.
         -5    1    1    2    0  502 -0.41885386148E+02  0.48742578957E+02 -0.47762407270E+02  0.80209488992E+02  0.47000000000E+01 0.  1.
        -11    1    1    2    0    0 -0.22861078684E+02  0.14382965532E+02 -0.27799408360E+02  0.38759588765E+02  0.00000000000E+00 0.  1.
         11    1    1    2    0    0  0.68502194578E+02  0.56300705265E+01  0.40594031592E+00  0.68734366540E+02  0.00000000000E+00 0. -1.
<mgrwt>
<rscale>  0 0.12614613E+03</rscale>
<asrwt>0</asrwt>
<pdfrwt beam="1">  1        2 0.12112387E-01 0.13455426E+03</pdfrwt>
<pdfrwt beam="2">  1       -2 0.28378423E-01 0.13455426E+03</pdfrwt>
<totfact> 0.54291674E+03</totfact>
</mgrwt>
</event>
<event>
 6    1  0.9263730E-006  0.3134833E+03  0.7546771E-02  0.1078688E+00
         -1   -1    0    0    0  501 -0.00000000000E+00  0.00000000000E+00  0.17793947630E+03  0.17793947630E+03  0.00000000000E+00 0.  1.
          1   -1    0    0  501    0  0.00000000000E+00 -0.00000000000E+00 -0.13806911725E+03  0.13806911725E+03  0.00000000000E+00 0. -1.
          5    1    1    2  502    0 -0.60818448803E+01 -0.96133797120E+01 -0.55109184671E+02  0.56466965048E+02  0.47000000000E+01 0.  1.
         -5    1    1    2    0  502  0.92543530525E+02  0.48338274167E+02  0.14606020300E+02  0.10552876205E+03  0.47000000000E+01 0.  1.
        -11    1    1    2    0    0 -0.38942385574E+02  0.11754904635E+02  0.73935829841E+02  0.84387167931E+02  0.00000000000E+00 0.  1.
         11    1    1    2    0    0 -0.47519300071E+02 -0.50479799089E+02  0.64376935874E+01  0.69625698518E+02  0.00000000000E+00 0. -1.
<mgrwt>
<rscale>  0 0.31348331E+03</rscale>
<asrwt>0</asrwt>
<pdfrwt beam="2">  1        1 0.21241403E-01 0.31348331E+03</pdfrwt>
<pdfrwt beam="1">  1       -1 0.27375304E-01 0.31348331E+03</pdfrwt>
<totfact> 0.28215472E+03</totfact>
</mgrwt>
</event>
<event>
 6    1  0.9263730E-006  0.1420551E+03  0.7546771E-02  0.1225073E+00
         -1   -1    0    0    0  501 -0.00000000000E+00  0.00000000000E+00  0.64596848619E+02  0.64596848619E+02  0.00000000000E+00 0.  1.
          1   -1    0    0  501    0  0.00000000000E+00 -0.00000000000E+00 -0.26732575082E+03  0.26732575082E+03  0.00000000000E+00 0. -1.
          5    1    1    2  502    0  0.31224085568E+02 -0.26999759579E+02 -0.24055959820E+02  0.48007392553E+02  0.47000000000E+01 0. -1.
         -5    1    1    2    0  502 -0.73173368327E+02  0.58306575948E+02 -0.14740558354E+03  0.17465535975E+03  0.47000000000E+01 0.  1.
        -11    1    1    2    0    0  0.38158045508E+02 -0.10501932794E+02  0.26576018623E+02  0.47671918309E+02  0.00000000000E+00 0.  1.
         11    1    1    2    0    0  0.37912372514E+01 -0.20804883575E+02 -0.57843377458E+02  0.61587928819E+02  0.00000000000E+00 0. -1.
<mgrwt>
<rscale>  0 0.13161918E+03</rscale>
<asrwt>0</asrwt>
<pdfrwt beam="2">  1        1 0.41127039E-01 0.14205506E+03</pdfrwt>
<pdfrwt beam="1">  1       -1 0.99379767E-02 0.14205506E+03</pdfrwt>
<totfact> 0.59762945E+03</totfact>
</mgrwt>
</event>
<event>
 6    1  0.9263730E-006  0.3490121E+03  0.7546771E-02  0.1063021E+00
          2   -1    0    0  501    0  0.00000000000E+00  0.00000000000E+00  0.46270789576E+03  0.46270789576E+03  0.00000000000E+00 0. -1.
         -2   -1    0    0    0  501 -0.00000000000E+00 -0.00000000000E+00 -0.65813350521E+02  0.65813350521E+02  0.00000000000E+00 0.  1.
          5    1    1    2  502    0  0.10966568456E+02  0.21865001642E+02  0.51212649581E+01  0.25429535491E+02  0.47000000000E+01 0. -1.
         -5    1    1    2    0  502  0.89383252270E+02 -0.78404122195E+02  0.32072476730E+03  0.34208630274E+03  0.47000000000E+01 0. -1.
        -11    1    1    2    0    0 -0.52095998267E+02  0.27436204174E+02 -0.12536956971E+02  0.60198950365E+02  0.00000000000E+00 0. -1.
         11    1    1    2    0    0 -0.48253822459E+02  0.29102916379E+02  0.83585469955E+02  0.10080645769E+03  0.00000000000E+00 0.  1.
<mgrwt>
<rscale>  0 0.34901207E+03</rscale>
<asrwt>0</asrwt>
<pdfrwt beam="1">  1        2 0.71185828E-01 0.34901207E+03</pdfrwt>
<pdfrwt beam="2">  1       -2 0.10125131E-01 0.34901207E+03</pdfrwt>
<totfact> 0.44342331E+03</totfact>
</mgrwt>
</event>
<event>
 6    1  0.9263730E-006  0.1359137E+03  0.7546771E-02  0.1230722E+00
         -1   -1    0    0    0  501 -0.00000000000E+00  0.00000000000E+00  0.11650893905E+03  0.11650893905E+03  0.00000000000E+00 0.  1.
          1   -1    0    0  501    0  0.00000000000E+00 -0.00000000000E+00 -0.12823787530E+03  0.12823787530E+03  0.00000000000E+00 0. -1.
          5    1    1    2  502    0  0.52719802212E+02 -0.25434276906E+02  0.70589310657E+01  0.59145570373E+02  0.47000000000E+01 0. -1.
         -5    1    1    2    0  502 -0.22124757365E+02  0.69148952290E+02 -0.29972023795E+02  0.78686051506E+02  0.47000000000E+01 0. -1.
        -11    1    1    2    0    0  0.79126861352E+01 -0.52739244823E+02  0.32027793371E+02  0.62207862000E+02  0.00000000000E+00 0.  1.
         11    1    1    2    0    0 -0.38507730982E+02  0.90245694390E+01 -0.20843636892E+02  0.44707330471E+02  0.00000000000E+00 0. -1.
<mgrwt>
<rscale>  0 0.12782331E+03</rscale>
<asrwt>0</asrwt>
<pdfrwt beam="2">  1        1 0.19728904E-01 0.13591375E+03</pdfrwt>
<pdfrwt beam="1">  1       -1 0.17924452E-01 0.13591375E+03</pdfrwt>
<totfact> 0.59629505E+03</totfact>
</mgrwt>
</event>
<event>
 6    1  0.9263730E-006  0.1251756E+03  0.7546771E-02  0.1251455E+00
         -2   -1    0    0    0  501 -0.00000000000E+00  0.00000000000E+00  0.73669059894E+02  0.73669059894E+02  0.00000000000E+00 0.  1.
          2   -1    0    0  501    0  0.00000000000E+00 -0.00000000000E+00 -0.25206544039E+03  0.25206544039E+03  0.00000000000E+00 0. -1.
          5    1    1    2  502    0  0.39478856761E+02 -0.42962026958E+02 -0.67824732819E+02  0.89591295746E+02  0.47000000000E+01 0. -1.
         -5    1    1    2    0  502 -0.46077093554E+02  0.42846405959E+02 -0.13014126417E+03  0.14462970544E+03  0.47000000000E+01 0. -1.
        -11    1    1    2    0    0 -0.78883141815E+01 -0.20204067089E+02  0.48606746893E+02  0.53226362557E+02  0.00000000000E+00 0.  1.
         11    1    1    2    0    0  0.14486550975E+02  0.20319688088E+02 -0.29037130402E+02  0.38287136549E+02  0.00000000000E+00 0. -1.
<mgrwt>
<rscale>  0 0.11507212E+03</rscale>
<asrwt>0</asrwt>
<pdfrwt beam="2">  1        2 0.38779299E-01 0.12517564E+03</pdfrwt>
<pdfrwt beam="1">  1       -2 0.11333702E-01 0.12517564E+03</pdfrwt>
<totfact> 0.67860419E+03</totfact>
</mgrwt>
</event>
<event>
 6    1  0.9263730E-006  0.1398830E+03  0.7546771E-02  0.1224584E+00
          1   -1    0    0  501    0  0.00000000000E+00  0.00000000000E+00  0.99480887702E+03  0.99480887702E+03  0.00000000000E+00 0. -1.
         -1   -1    0    0    0  501 -0.00000000000E+00 -0.00000000000E+00 -0.18960926592E+02  0.18960926592E+02  0.00000000000E+00 0.  1.
          5    1    1    2  502    0  0.32889911641E+01 -0.39535580451E+02  0.28573401030E+03  0.28851324792E+03  0.47000000000E+01 0.  1.
         -5    1    1    2    0  502  0.30666150994E+02  0.92364940995E+02  0.45556624479E+03  0.46586949732E+03  0.47000000000E+01 0.  1.
        -11    1    1    2    0    0 -0.24397662164E+02 -0.92910780355E+01  0.63385461353E+01  0.26865353473E+02  0.00000000000E+00 0.  1.
         11    1    1    2    0    0 -0.95574799940E+01 -0.43538282509E+02  0.22820914921E+03  0.23252170490E+03  0.00000000000E+00 0. -1.
<mgrwt>
<rscale>  0 0.13195474E+03</rscale>
<asrwt>0</asrwt>
<pdfrwt beam="1">  1        1 0.15304748E+00 0.13988302E+03</pdfrwt>
<pdfrwt beam="2">  1       -1 0.29170664E-02 0.13988302E+03</pdfrwt>
<totfact> 0.61782661E+03</totfact>
</mgrwt>
</event>
<event>
 6    1  0.9263730E-006  0.4174481E+03  0.7546771E-02  0.1037900E+00
          1   -1    0    0  501    0  0.00000000000E+00  0.00000000000E+00  0.77660603968E+03  0.77660603968E+03  0.00000000000E+00 0. -1.
         -1   -1    0    0    0  501 -0.00000000000E+00 -0.00000000000E+00 -0.56097592452E+02  0.56097592452E+02  0.00000000000E+00 0.  1.
          5    1    1    2  502    0 -0.52369154496E+02  0.12537013293E+03  0.30443344204E+03  0.33340967173E+03  0.47000000000E+01 0. -1.
         -5    1    1    2    0  502  0.29827968842E+02  0.16852304376E+02  0.26165899252E+03  0.26393413242E+03  0.47000000000E+01 0. -1.
        -11    1    1    2    0    0  0.59932388409E+02 -0.98763796545E+02  0.12741126250E+03  0.17198781498E+03  0.00000000000E+00 0. -1.
         11    1    1    2    0    0 -0.37391202754E+02 -0.43458640765E+02  0.27004750168E+02  0.63372013004E+02  0.00000000000E+00 0.  1.
<mgrwt>
<rscale>  0 0.41744810E+03</rscale>
<asrwt>0</asrwt>
<pdfrwt beam="1">  1        1 0.11947784E+00 0.41744810E+03</pdfrwt>
<pdfrwt beam="2">  1       -1 0.86303994E-02 0.41744810E+03</pdfrwt>
<totfact> 0.18517216E+03</totfact>
</mgrwt>
</event>
<event>
 6    1  0.9263730E-006  0.1703803E+03  0.7546771E-02  0.1181547E+00
         -2   -1    0    0    0  501 -0.00000000000E+00  0.00000000000E+00  0.56217986770E+02  0.56217986770E+02  0.00000000000E+00 0.  1.
          2   -1    0    0  501    0  0.00000000000E+00 -0.00000000000E+00 -0.17097626524E+04  0.17097626524E+04  0.00000000000E+00 0. -1.
          5    1    1    2  502    0 -0.88616990202E+02  0.21033252929E+02 -0.14922836878E+04  0.14950679127E+04  0.47000000000E+01 0. -1.
         -5    1    1    2    0  502 -0.31462445784E+02  0.15623678810E+02 -0.96087346582E+02  0.10241510146E+03  0.47000000000E+01 0.  1.
        -11    1    1    2    0    0  0.22361550838E+02 -0.44246038704E+02  0.20981267797E+01  0.49620086990E+02  0.00000000000E+00 0.  1.
         11    1    1    2    0    0  0.97717885149E+02  0.75891069654E+01 -0.67271758056E+02  0.11887753806E+03  0.00000000000E+00 0. -1.
<mgrwt>
<rscale>  0 0.16650040E+03</rscale>
<asrwt>0</asrwt>
<pdfrwt beam="2">  1        2 0.26304042E+00 0.17038027E+03</pdfrwt>
<pdfrwt beam="1">  1       -2 0.86489208E-02 0.17038027E+03</pdfrwt>
<totfact> 0.89511413E+02</totfact>
</mgrwt>
</event>
<event>
 6    1  0.9263730E-006  0.2904247E+03  0.7546771E-02  0.1090128E+00
          1   -1    0    0  501    0  0.00000000000E+00  0.00000000000E+00  0.17646478661E+04  0.17646478661E+04  0.00000000000E+00 0. -1.
         -1   -1    0    0    0  501 -0.00000000000E+00 -0.00000000000E+00 -0.11949478385E+02  0.11949478385E+02  0.00000000000E+00 0.  1.
          5    1    1    2  502    0  0.11263068045E+02 -0.36733821054E+02  0.28191015524E+03  0.28455518962E+03  0.47000000000E+01 0.  1.
         -5    1    1    2    0  502 -0.10882675158E+03  0.50543075871E+02  0.74080506181E+03  0.75047457917E+03  0.47000000000E+01 0.  1.
        -11    1    1    2    0    0  0.44820691439E+02  0.36305112709E+02  0.30648107998E+03  0.31186152052E+03  0.00000000000E+00 0. -1.
         11    1    1    2    0    0  0.52742992099E+02 -0.50114367527E+02  0.42350209068E+03  0.42970605518E+03  0.00000000000E+00 0.  1.
<mgrwt>
<rscale>  0 0.29042467E+03</rscale>
<asrwt>0</asrwt>
<pdfrwt beam="1">  1        1 0.27148408E+00 0.29042467E+03</pdfrwt>
<pdfrwt beam="2">  1       -1 0.18383827E-02 0.29042467E+03</pdfrwt>
<totfact> 0.37217012E+03</totfact>
</mgrwt>
</event>
<event>
 6    1  0.9263730E-006  0.1377599E+03  0.7546771E-02  0.1227964E+00
          2   -1    0    0  501    0  0.00000000000E+00  0.00000000000E+00  0.80500831590E+03  0.80500831590E+03  0.00000000000E+00 0. -1.
         -2   -1    0    0    0  501 -0.00000000000E+00 -0.00000000000E+00 -0.23106387646E+02  0.23106387646E+02  0.00000000000E+00 0.  1.
          5    1    1    2  502    0  0.18444729014E+01  0.81244966787E+02  0.58266202140E+03  0.58832071856E+03  0.47000000000E+01 0.  1.
         -5    1    1    2    0  502  0.24676055740E+01 -0.23511030073E+02  0.24866102568E+02  0.34630487569E+02  0.47000000000E+01 0.  1.
        -11    1    1    2    0    0  0.73590818363E+01  0.24217184772E+02  0.39527648485E+02  0.46936799193E+02  0.00000000000E+00 0.  1.
         11    1    1    2    0    0 -0.11671160312E+02 -0.81951121486E+02  0.13484615580E+03  0.15822669822E+03  0.00000000000E+00 0. -1.
<mgrwt>
<rscale>  0 0.12965807E+03</rscale>
<asrwt>0</asrwt>
<pdfrwt beam="1">  1        2 0.12384741E+00 0.13775988E+03</pdfrwt>
<pdfrwt beam="2">  1       -2 0.35548295E-02 0.13775988E+03</pdfrwt>
<totfact> 0.11085765E+04</totfact>
</mgrwt>
</event>
<event>
 6    1  0.9263730E-006  0.3972255E+03  0.7546771E-02  0.1044745E+00
          2   -1    0    0  501    0  0.00000000000E+00  0.00000000000E+00  0.10699450238E+04  0.10699450238E+04  0.00000000000E+00 0.  1.
         -2   -1    0    0    0  501 -0.00000000000E+00 -0.00000000000E+00 -0.36868274419E+02  0.36868274419E+02  0.00000000000E+00 0. -1.
          5    1    1    2  502    0  0.21543123328E+02 -0.12188723501E+01  0.50688267765E+03  0.50736350944E+03  0.47000000000E+01 0. -1.
         -5    1    1    2    0  502 -0.42458206808E+02  0.94507410103E+02  0.40936971218E+03  0.42230320996E+03  0.47000000000E+01 0. -1.
        -11    1    1    2    0    0  0.46550436292E+02 -0.49612225426E+02  0.25373841784E+02  0.72609557757E+02  0.00000000000E+00 0. -1.
         11    1    1    2    0    0 -0.25635352812E+02 -0.43676312326E+02  0.91450517741E+02  0.10453702104E+03  0.00000000000E+00 0.  1.
<mgrwt>
<rscale>  0 0.39722551E+03</rscale>
<asrwt>0</asrwt>
<pdfrwt beam="1">  1        2 0.16460690E+00 0.39722551E+03</pdfrwt>
<pdfrwt beam="2">  1       -2 0.56720430E-02 0.39722551E+03</pdfrwt>
<totfact> 0.38573330E+03</totfact>
</mgrwt>
</event>
<event>
 6    1  0.9263730E-006  0.2403909E+03  0.7546771E-02  0.1119533E+00
         -1   -1    0    0    0  501 -0.00000000000E+00  0.00000000000E+00  0.15634332443E+02  0.15634332443E+02  0.00000000000E+00 0.  1.
          1   -1    0    0  501    0  0.00000000000E+00 -0.00000000000E+00 -0.92405243738E+03  0.92405243738E+03  0.00000000000E+00 0. -1.
          5    1    1    2  502    0 -0.76575859940E+02 -0.43373644727E+02 -0.50431690003E+03  0.51195972599E+03  0.47000000000E+01 0. -1.
         -5    1    1    2    0  502  0.31621124160E+02  0.77798831415E+01 -0.10031676465E+03  0.10557445403E+03  0.47000000000E+01 0.  1.
        -11    1    1    2    0    0  0.24304737989E+02 -0.29857554967E+02 -0.11573780341E+03  0.12197308316E+03  0.00000000000E+00 0. -1.
         11    1    1    2    0    0  0.20649997792E+02  0.65451316553E+02 -0.18804663685E+03  0.20017950664E+03  0.00000000000E+00 0.  1.
<mgrwt>
<rscale>  0 0.24039087E+03</rscale>
<asrwt>0</asrwt>
<pdfrwt beam="2">  1        1 0.14216195E+00 0.24039087E+03</pdfrwt>
<pdfrwt beam="1">  1       -1 0.24052812E-02 0.24039087E+03</pdfrwt>
<totfact> 0.94918031E+03</totfact>
</mgrwt>
</event>
<event>
 6    1  0.9263730E-006  0.1194588E+03  0.7546771E-02  0.1257972E+00
         -2   -1    0    0    0  501 -0.00000000000E+00  0.00000000000E+00  0.66591343729E+02  0.66591343729E+02  0.00000000000E+00 0.  1.
          2   -1    0    0  501    0  0.00000000000E+00 -0.00000000000E+00 -0.16806842901E+03  0.16806842901E+03  0.00000000000E+00 0. -1.
          5    1    1    2  502    0  0.43719117388E+02 -0.30760539994E+02 -0.68171133825E+02  0.86758086268E+02  0.47000000000E+01 0. -1.
         -5    1    1    2    0  502 -0.30131681849E+02  0.43109317586E+02 -0.43355096616E+01  0.52983187501E+02  0.47000000000E+01 0.  1.
        -11    1    1    2    0    0  0.35357404008E+02  0.96067011937E+01 -0.14025011461E+02  0.39231819643E+02  0.00000000000E+00 0.  1.
         11    1    1    2    0    0 -0.48944839547E+02 -0.21955478786E+02 -0.14945430338E+02  0.55686679331E+02  0.00000000000E+00 0. -1.
<mgrwt>
<rscale>  0 0.11141483E+03</rscale>
<asrwt>0</asrwt>
<pdfrwt beam="2">  1        2 0.25856681E-01 0.11945882E+03</pdfrwt>
<pdfrwt beam="1">  1       -2 0.10244822E-01 0.11945882E+03</pdfrwt>
<totfact> 0.12264481E+04</totfact>
</mgrwt>
</event>
<event>
 6    1  0.9263730E-006  0.1502253E+03  0.7546771E-02  0.1206003E+00
         -2   -1    0    0    0  501 -0.00000000000E+00  0.00000000000E+00  0.47084018747E+02  0.47084018747E+02  0.00000000000E+00 0.  1.
          2   -1    0    0  501    0  0.00000000000E+00 -0.00000000000E+00 -0.52034668600E+03  0.52034668600E+03  0.00000000000E+00 0. -1.
          5    1    1    2  502    0  0.23760449791E+02  0.31154389838E+02 -0.95492086698E+02  0.10332465147E+03  0.47000000000E+01 0. -1.
         -5    1    1    2    0  502  0.12645551328E+01 -0.11064853852E+03 -0.27482621767E+03  0.29630429983E+03  0.47000000000E+01 0. -1.
        -11    1    1    2    0    0 -0.61593856831E+02  0.65227803000E+02 -0.88377913252E+02  0.12593301805E+03  0.00000000000E+00 0. -1.
         11    1    1    2    0    0  0.36568851907E+02  0.14266345683E+02 -0.14566449629E+02  0.41868735397E+02  0.00000000000E+00 0.  1.
<mgrwt>
<rscale>  0 0.14558700E+03</rscale>
<asrwt>0</asrwt>
<pdfrwt beam="2">  1        2 0.80053335E-01 0.15022534E+03</pdfrwt>
<pdfrwt beam="1">  1       -2 0.72436953E-02 0.15022534E+03</pdfrwt>
<totfact> 0.63496169E+03</totfact>
</mgrwt>
</event>
<event>
 6    1  0.9263730E-006  0.1802195E+03  0.7546771E-02  0.1194126E+00
         -2   -1    0    0    0  501 -0.00000000000E+00  0.00000000000E+00  0.11541847253E+03  0.11541847253E+03  0.00000000000E+00 0.  1.
          2   -1    0    0  501    0  0.00000000000E+00 -0.00000000000E+00 -0.32273164976E+03  0.32273164976E+03  0.00000000000E+00 0. -1.
          5    1    1    2  502    0 -0.22726769974E+02  0.29375739726E+02 -0.28493243997E+03  0.28738132421E+03  0.47000000000E+01 0. -1.
         -5    1    1    2    0  502  0.28791368811E+02  0.66354795399E+01  0.17834737464E+02  0.34830164616E+02  0.47000000000E+01 0.  1.
        -11    1    1    2    0    0 -0.32343121055E+02 -0.37819582600E+02 -0.91323931071E+00  0.49771802395E+02  0.00000000000E+00 0.  1.
         11    1    1    2    0    0  0.26278522219E+02  0.18083633342E+01  0.60697764587E+02  0.66166831070E+02  0.00000000000E+00 0. -1.
<mgrwt>
<rscale>  0 0.15528432E+03</rscale>
<asrwt>0</asrwt>
<pdfrwt beam="2">  1        2 0.49651022E-01 0.18021948E+03</pdfrwt>
<pdfrwt beam="1">  1       -2 0.17756688E-01 0.18021948E+03</pdfrwt>
<totfact> 0.25585268E+03</totfact>
</mgrwt>
</event>
<event>
 6    1  0.9263730E-006  0.1354899E+03  0.7546771E-02  0.1232528E+00
          1   -1    0    0  501    0  0.00000000000E+00  0.00000000000E+00  0.19148341770E+03  0.19148341770E+03  0.00000000000E+00 0. -1.
         -1   -1    0    0    0  501 -0.00000000000E+00 -0.00000000000E+00 -0.79785417216E+02  0.79785417216E+02  0.00000000000E+00 0.  1.
          5    1    1    2  502    0  0.11214659741E+02  0.15392894520E+02  0.10594655951E+03  0.10774726571E+03  0.47000000000E+01 0. -1.
         -5    1    1    2    0  502  0.25840496362E+02 -0.52287012463E+02 -0.85260513734E+01  0.59130757449E+02  0.47000000000E+01 0. -1.
        -11    1    1    2    0    0  0.18424446114E+02  0.21981667319E+02 -0.22260757015E+02  0.36306958226E+02  0.00000000000E+00 0.  1.
         11    1    1    2    0    0 -0.55479602217E+02  0.14912450623E+02  0.36538249360E+02  0.68083853534E+02  0.00000000000E+00 0. -1.
<mgrwt>
<rscale>  0 0.12663994E+03</rscale>
<asrwt>0</asrwt>
<pdfrwt beam="1">  1        1 0.29458987E-01 0.13548992E+03</pdfrwt>
<pdfrwt beam="2">  1       -1 0.12274680E-01 0.13548992E+03</pdfrwt>
<totfact> 0.65151554E+03</totfact>
</mgrwt>
</event>
<event>
 6    1  0.9263730E-006  0.1421033E+03  0.7546771E-02  0.1221254E+00
          1   -1    0    0  501    0  0.00000000000E+00  0.00000000000E+00  0.21272161743E+03  0.21272161743E+03  0.00000000000E+00 0. -1.
         -1   -1    0    0    0  501 -0.00000000000E+00 -0.00000000000E+00 -0.16609321769E+03  0.16609321769E+03  0.00000000000E+00 0.  1.
          5    1    1    2  502    0 -0.60920059923E+02  0.43757380595E+02  0.17422931680E+03  0.18974695490E+03  0.47000000000E+01 0. -1.
         -5    1    1    2    0  502  0.21110407680E+02  0.10759233589E+02 -0.11110693609E+02  0.26588492479E+02  0.47000000000E+01 0. -1.
        -11    1    1    2    0    0  0.26905494828E+02  0.16440020377E+02 -0.69727676343E+02  0.76525347240E+02  0.00000000000E+00 0.  1.
         11    1    1    2    0    0  0.12904157416E+02 -0.70956634561E+02 -0.46762547117E+02  0.85954040508E+02  0.00000000000E+00 0. -1.
<mgrwt>
<rscale>  0 0.13427019E+03</rscale>
<asrwt>0</asrwt>
<pdfrwt beam="1">  1        1 0.32726403E-01 0.14210327E+03</pdfrwt>
<pdfrwt beam="2">  1       -1 0.25552803E-01 0.14210327E+03</pdfrwt>
<totfact> 0.17838036E+03</totfact>
</mgrwt>
</event>
<event>
 6    1  0.9263730E-006  0.1333758E+03  0.7546771E-02  0.1234371E+00
          1   -1    0    0  501    0  0.00000000000E+00  0.00000000000E+00  0.13324407818E+04  0.13324407818E+04  0.00000000000E+00 0. -1.
         -1   -1    0    0    0  501 -0.00000000000E+00 -0.00000000000E+00 -0.14715689525E+02  0.14715689525E+02  0.00000000000E+00 0.  1.
          5    1    1    2  502    0 -0.76118835453E+02 -0.45510199748E+02  0.63669001538E+03  0.64285419892E+03  0.47000000000E+01 0.  1.
         -5    1    1    2    0  502  0.34305002648E+02  0.25252555723E+02  0.43412879491E+03  0.43623895442E+03  0.47000000000E+01 0.  1.
        -11    1    1    2    0    0 -0.67194981263E+01  0.27678138875E+02  0.17426993160E+02  0.33390584260E+02  0.00000000000E+00 0.  1.
         11    1    1    2    0    0  0.48533330932E+02 -0.74204948497E+01  0.22947928885E+03  0.23467273375E+03  0.00000000000E+00 0. -1.
<mgrwt>
<rscale>  0 0.12544761E+03</rscale>
<asrwt>0</asrwt>
<pdfrwt beam="1">  1        1 0.20499079E+00 0.13337582E+03</pdfrwt>
<pdfrwt beam="2">  1       -1 0.22639533E-02 0.13337582E+03</pdfrwt>
<totfact> 0.51947034E+03</totfact>
</mgrwt>
</event>
<event>
 6    1  0.1101953E-005  0.1320852E+03  0.7546771E-02  0.1237413E+00
          1   -1    0    0  501    0  0.00000000000E+00  0.00000000000E+00  0.44479709413E+03  0.44479709413E+03  0.00000000000E+00 0. -1.
         -1   -1    0    0    0  501 -0.00000000000E+00 -0.00000000000E+00 -0.31806681342E+02  0.31806681342E+02  0.00000000000E+00 0.  1.
          5    1    1    2  502    0 -0.14272178004E+02 -0.57896360437E+02  0.48595162364E+02  0.77066616781E+02  0.47000000000E+01 0.  1.
         -5    1    1    2    0  502 -0.70588729185E+01  0.20933860187E+02  0.23162247133E+03  0.23272110651E+03  0.47000000000E+01 0.  1.
        -11    1    1    2    0    0 -0.34116672685E+01  0.60018463260E+02  0.11203519478E+03  0.12714456447E+03  0.00000000000E+00 0. -1.
         11    1    1    2    0    0  0.24742718191E+02 -0.23055963010E+02  0.20737584309E+02  0.39671487706E+02  0.00000000000E+00 0.  1.
<mgrwt>
<rscale>  0 0.12351234E+03</rscale>
<asrwt>0</asrwt>
<pdfrwt beam="1">  1        1 0.68430318E-01 0.13208524E+03</pdfrwt>
<pdfrwt beam="2">  1       -1 0.48933359E-02 0.13208524E+03</pdfrwt>
<totfact> 0.91136051E+03</totfact>
</mgrwt>
</event>
<event>
 6    1  0.9263730E-006  0.1658918E+03  0.7546771E-02  0.1189387E+00
         -2   -1    0    0    0  501 -0.00000000000E+00  0.00000000000E+00  0.32340213502E+02  0.32340213502E+02  0.00000000000E+00 0. -1.
          2   -1    0    0  501    0  0.00000000000E+00 -0.00000000000E+00 -0.74805197738E+03  0.74805197738E+03  0.00000000000E+00 0.  1.
          5    1    1    2  502    0  0.71257632462E+02 -0.11066418836E+03 -0.34226138656E+03  0.36672763667E+03  0.47000000000E+01 0.  1.
         -5    1    1    2    0  502 -0.32347851900E+02  0.87751025176E+01 -0.10413439926E+03  0.10949634266E+03  0.47000000000E+01 0.  1.
        -11    1    1    2    0    0  0.13711069301E+02 -0.72073484256E+01 -0.11419283054E+02  0.19244202197E+02  0.00000000000E+00 0.  1.
         11    1    1    2    0    0 -0.52620849863E+02  0.10909643427E+03 -0.25789669501E+03  0.28492400936E+03  0.00000000000E+00 0. -1.
<mgrwt>
<rscale>  0 0.15939058E+03</rscale>
<asrwt>0</asrwt>
<pdfrwt beam="2">  1        2 0.11508492E+00 0.16589177E+03</pdfrwt>
<pdfrwt beam="1">  1       -2 0.49754174E-02 0.16589177E+03</pdfrwt>
<totfact> 0.74232111E+03</totfact>
</mgrwt>
</event>
<event>
 6    1  0.9263730E-006  0.1202906E+03  0.7546771E-02  0.1251919E+00
         -2   -1    0    0    0  501 -0.00000000000E+00  0.00000000000E+00  0.11898693688E+03  0.11898693688E+03  0.00000000000E+00 0.  1.
          2   -1    0    0  501    0  0.00000000000E+00 -0.00000000000E+00 -0.10272841626E+03  0.10272841626E+03  0.00000000000E+00 0. -1.
          5    1    1    2  502    0 -0.98007349462E+01 -0.24627342217E+02 -0.41859798888E+02  0.49768395123E+02  0.47000000000E+01 0. -1.
         -5    1    1    2    0  502 -0.10575564845E+02  0.56818758173E+02  0.40159361874E+02  0.70534234229E+02  0.47000000000E+01 0.  1.
        -11    1    1    2    0    0 -0.36151697994E+02 -0.46906810907E+01  0.17632725363E+01  0.36497354521E+02  0.00000000000E+00 0.  1.
         11    1    1    2    0    0  0.56527997786E+02 -0.27500734866E+02  0.16195685101E+02  0.64915369272E+02  0.00000000000E+00 0. -1.
<mgrwt>
<rscale>  0 0.11480669E+03</rscale>
<asrwt>0</asrwt>
<pdfrwt beam="2">  1        2 0.15804372E-01 0.12029061E+03</pdfrwt>
<pdfrwt beam="1">  1       -2 0.18305683E-01 0.12029061E+03</pdfrwt>
<totfact> 0.83660233E+03</totfact>
</mgrwt>
</event>
<event>
 6    1  0.9263730E-006  0.1254275E+03  0.7546771E-02  0.1249054E+00
          1   -1    0    0  501    0  0.00000000000E+00  0.00000000000E+00  0.12642359478E+03  0.12642359478E+03  0.00000000000E+00 0. -1.
         -1   -1    0    0    0  501 -0.00000000000E+00 -0.00000000000E+00 -0.12349159824E+03  0.12349159824E+03  0.00000000000E+00 0.  1.
          5    1    1    2  502    0 -0.83950247543E+01  0.16409967521E+02 -0.35860716686E+02  0.40593650685E+02  0.47000000000E+01 0. -1.
         -5    1    1    2    0  502  0.17476778159E+02  0.46640898135E+00  0.97490565744E+02  0.99157227277E+02  0.47000000000E+01 0. -1.
        -11    1    1    2    0    0  0.35720385618E+02 -0.10880834596E+02 -0.16470568784E+01  0.37377149524E+02  0.00000000000E+00 0. -1.
         11    1    1    2    0    0 -0.44802139023E+02 -0.59955419062E+01 -0.57050795634E+02  0.72787165532E+02  0.00000000000E+00 0.  1.
<mgrwt>
<rscale>  0 0.11646000E+03</rscale>
<asrwt>0</asrwt>
<pdfrwt beam="1">  1        1 0.19449784E-01 0.12542755E+03</pdfrwt>
<pdfrwt beam="2">  1       -1 0.18998707E-01 0.12542755E+03</pdfrwt>
<totfact> 0.55046189E+03</totfact>
</mgrwt>
</event>
<event>
 6    1  0.9263730E-006  0.1306399E+03  0.7546771E-02  0.1253867E+00
          2   -1    0    0  501    0  0.00000000000E+00  0.00000000000E+00  0.83268527595E+03  0.83268527595E+03  0.00000000000E+00 0. -1.
         -2   -1    0    0    0  501 -0.00000000000E+00 -0.00000000000E+00 -0.14961151564E+02  0.14961151564E+02  0.00000000000E+00 0.  1.
          5    1    1    2  502    0  0.25539939177E+02 -0.23677999060E+02  0.56321670699E+02  0.66386419718E+02  0.47000000000E+01 0.  1.
         -5    1    1    2    0  502 -0.56934922283E+02  0.23395039903E+01  0.60634759558E+03  0.60903740059E+03  0.47000000000E+01 0.  1.
        -11    1    1    2    0    0  0.13559817338E+02  0.42189371274E+02  0.11850555964E+03  0.12652027253E+03  0.00000000000E+00 0.  1.
         11    1    1    2    0    0  0.17835165767E+02 -0.20850876204E+02  0.36549298468E+02  0.45702334677E+02  0.00000000000E+00 0. -1.
<mgrwt>
<rscale>  0 0.11370002E+03</rscale>
<asrwt>0</asrwt>
<pdfrwt beam="1">  1        2 0.12810539E+00 0.13063989E+03</pdfrwt>
<pdfrwt beam="2">  1       -2 0.23017163E-02 0.13063989E+03</pdfrwt>
<totfact> 0.20030188E+04</totfact>
</mgrwt>
</event>
<event>
 6    1  0.9263730E-006  0.1446780E+03  0.7546771E-02  0.1217546E+00
          2   -1    0    0  501    0  0.00000000000E+00  0.00000000000E+00  0.20316608942E+03  0.20316608942E+03  0.00000000000E+00 0. -1.
         -2   -1    0    0    0  501 -0.00000000000E+00 -0.00000000000E+00 -0.84238215372E+02  0.84238215372E+02  0.00000000000E+00 0.  1.
          5    1    1    2  502    0  0.17287771342E+02  0.23625340200E+02  0.51478087839E+02  0.59406289777E+02  0.47000000000E+01 0.  1.
         -5    1    1    2    0  502 -0.43949505001E+02 -0.91439179034E+02  0.26563487018E+02  0.10497805149E+03  0.47000000000E+01 0.  1.
        -11    1    1    2    0    0 -0.23483280891E+02  0.24065787941E+02  0.45198453544E+02  0.56334064591E+02  0.00000000000E+00 0. -1.
         11    1    1    2    0    0  0.50145014550E+02  0.43748050893E+02 -0.43121543540E+01  0.66685898932E+02  0.00000000000E+00 0.  1.
<mgrwt>
<rscale>  0 0.13691199E+03</rscale>
<asrwt>0</asrwt>
<pdfrwt beam="1">  1        2 0.31256321E-01 0.14467800E+03</pdfrwt>
<pdfrwt beam="2">  1       -2 0.12959726E-01 0.14467800E+03</pdfrwt>
<totfact> 0.69695216E+03</totfact>
</mgrwt>
</event>
<event>
 6    1  0.9263730E-006  0.2904979E+03  0.7546771E-02  0.1090089E+00
          2   -1    0    0  501    0  0.00000000000E+00  0.00000000000E+00  0.83306775730E+03  0.83306775730E+03  0.00000000000E+00 0. -1.
         -2   -1    0    0    0  501 -0.00000000000E+00 -0.00000000000E+00 -0.25324785263E+02  0.25324785263E+02  0.00000000000E+00 0.  1.
          5    1    1    2  502    0  0.77606533771E+02  0.12858446938E+02  0.61912319409E+03  0.62411836474E+03  0.47000000000E+01 0. -1.
         -5    1    1    2    0  502 -0.60460255277E+00 -0.80700204938E+01 -0.12328733554E+01  0.94393194526E+01  0.47000000000E+01 0.  1.
        -11    1    1    2    0    0 -0.45376044784E+02  0.38856085324E+02  0.62058906391E+02  0.86139936553E+02  0.00000000000E+00 0.  1.
         11    1    1    2    0    0 -0.31625886434E+02 -0.43644511768E+02  0.12779374491E+03  0.13869492182E+03  0.00000000000E+00 0. -1.
<mgrwt>
<rscale>  0 0.29049793E+03</rscale>
<asrwt>0</asrwt>
<pdfrwt beam="1">  1        2 0.12816425E+00 0.29049793E+03</pdfrwt>
<pdfrwt beam="2">  1       -2 0.38961214E-02 0.29049793E+03</pdfrwt>
<totfact> 0.96192460E+03</totfact>
</mgrwt>
</event>
<event>
 6    1  0.9263730E-006  0.1318613E+03  0.7546771E-02  0.1237715E+00
          2   -1    0    0  501    0  0.00000000000E+00  0.00000000000E+00  0.30528629750E+03  0.30528629750E+03  0.00000000000E+00 0. -1.
         -2   -1    0    0    0  501 -0.00000000000E+00 -0.00000000000E+00 -0.46537298766E+02  0.46537298766E+02  0.00000000000E+00 0.  1.
          5    1    1    2  502    0 -0.16219809720E+02 -0.75161615688E+01  0.16163668571E+03  0.16269014438E+03  0.47000000000E+01 0. -1.
         -5    1    1    2    0  502  0.58773364797E+02  0.71140393666E+01  0.21887927672E+02  0.63293675382E+02  0.47000000000E+01 0. -1.
        -11    1    1    2    0    0 -0.34075357429E+02  0.81258573591E+01  0.95954239425E+02  0.10214879150E+03  0.00000000000E+00 0. -1.
         11    1    1    2    0    0 -0.84781976476E+01 -0.77237351569E+01 -0.20729854075E+02  0.23690984996E+02  0.00000000000E+00 0.  1.
<mgrwt>
<rscale>  0 0.12332189E+03</rscale>
<asrwt>0</asrwt>
<pdfrwt beam="1">  1        2 0.46967122E-01 0.13186130E+03</pdfrwt>
<pdfrwt beam="2">  1       -2 0.71595846E-02 0.13186130E+03</pdfrwt>
<totfact> 0.11369794E+04</totfact>
</mgrwt>
</event>
<event>
 6    1  0.9263730E-006  0.1303134E+03  0.7546771E-02  0.1240158E+00
         -1   -1    0    0    0  501 -0.00000000000E+00  0.00000000000E+00  0.27203398457E+02  0.27203398457E+02  0.00000000000E+00 0.  1.
          1   -1    0    0  501    0  0.00000000000E+00 -0.00000000000E+00 -0.54890824091E+03  0.54890824091E+03  0.00000000000E+00 0. -1.
          5    1    1    2  502    0  0.36637065955E+02  0.19918541731E+02 -0.37405822969E+03  0.37640493103E+03  0.47000000000E+01 0.  1.
         -5    1    1    2    0  502 -0.25943775175E+02  0.15285196048E+02 -0.15139531597E+02  0.34029576922E+02  0.47000000000E+01 0.  1.
        -11    1    1    2    0    0  0.29139270642E+02 -0.42027390175E+02 -0.40668422604E+02  0.65340027667E+02  0.00000000000E+00 0.  1.
         11    1    1    2    0    0 -0.39832561423E+02  0.68236523966E+01 -0.91838658568E+02  0.10033710375E+03  0.00000000000E+00 0. -1.
<mgrwt>
<rscale>  0 0.12179956E+03</rscale>
<asrwt>0</asrwt>
<pdfrwt beam="2">  1        1 0.84447416E-01 0.13031342E+03</pdfrwt>
<pdfrwt beam="1">  1       -1 0.41851385E-02 0.13031342E+03</pdfrwt>
<totfact> 0.87196441E+03</totfact>
</mgrwt>
</event>
<event>
 6    1  0.9263730E-006  0.1370596E+03  0.7546771E-02  0.1228252E+00
         -1   -1    0    0    0  501 -0.00000000000E+00  0.00000000000E+00  0.20995295135E+02  0.20995295135E+02  0.00000000000E+00 0.  1.
          1   -1    0    0  501    0  0.00000000000E+00 -0.00000000000E+00 -0.83709716669E+03  0.83709716669E+03  0.00000000000E+00 0. -1.
          5    1    1    2  502    0 -0.27660611206E+02  0.26896233143E+02 -0.11934459703E+03  0.12551390206E+03  0.47000000000E+01 0.  1.
         -5    1    1    2    0  502  0.72585388787E+02 -0.60687146267E+02 -0.48711176263E+03  0.49623737029E+03  0.47000000000E+01 0.  1.
        -11    1    1    2    0    0  0.24921179412E+02  0.28707959693E+02 -0.90132643755E+02  0.97821805356E+02  0.00000000000E+00 0. -1.
         11    1    1    2    0    0 -0.69845956993E+02  0.50829534312E+01 -0.11951286815E+03  0.13851938412E+03  0.00000000000E+00 0.  1.
<mgrwt>
<rscale>  0 0.12946501E+03</rscale>
<asrwt>0</asrwt>
<pdfrwt beam="2">  1        1 0.12878415E+00 0.13705958E+03</pdfrwt>
<pdfrwt beam="1">  1       -1 0.32300462E-02 0.13705958E+03</pdfrwt>
<totfact> 0.70201615E+03</totfact>
</mgrwt>
</event>
<event>
 6    1  0.9263730E-006  0.1444224E+03  0.7546771E-02  0.1217460E+00
          2   -1    0    0  501    0  0.00000000000E+00  0.00000000000E+00  0.12065009485E+04  0.12065009485E+04  0.00000000000E+00 0.  1.
         -2   -1    0    0    0  501 -0.00000000000E+00 -0.00000000000E+00 -0.22153155888E+02  0.22153155888E+02  0.00000000000E+00 0. -1.
          5    1    1    2  502    0 -0.21852398247E+02  0.72422091329E+00  0.81073458677E+03  0.81104297789E+03  0.47000000000E+01 0.  1.
         -5    1    1    2    0  502 -0.21706853889E+02 -0.58482882439E+02  0.18936700246E+03  0.19943266198E+03  0.47000000000E+01 0.  1.
        -11    1    1    2    0    0  0.69380923686E+02  0.51832408538E+02  0.11445424635E+03  0.14352729933E+03  0.00000000000E+00 0. -1.
         11    1    1    2    0    0 -0.25821671549E+02  0.59262529873E+01  0.69791957002E+02  0.74651165149E+02  0.00000000000E+00 0.  1.
<mgrwt>
<rscale>  0 0.13697399E+03</rscale>
<asrwt>0</asrwt>
<pdfrwt beam="1">  1        2 0.18561548E+00 0.14442240E+03</pdfrwt>
<pdfrwt beam="2">  1       -2 0.34081788E-02 0.14442240E+03</pdfrwt>
<totfact> 0.67776519E+03</totfact>
</mgrwt>
</event>
<event>
 6    1  0.9263730E-006  0.1973655E+03  0.7546771E-02  0.1156699E+00
          1   -1    0    0  501    0  0.00000000000E+00  0.00000000000E+00  0.84932932881E+02  0.84932932881E+02  0.00000000000E+00 0. -1.
         -1   -1    0    0    0  501 -0.00000000000E+00 -0.00000000000E+00 -0.48165988392E+03  0.48165988392E+03  0.00000000000E+00 0.  1.
          5    1    1    2  502    0  0.79088774541E+02  0.55721264981E+02 -0.44485924585E+01  0.96962743383E+02  0.47000000000E+01 0.  1.
         -5    1    1    2    0  502 -0.72162250546E+01  0.79037761949E+02 -0.95513487783E+02  0.12427372235E+03  0.47000000000E+01 0.  1.
        -11    1    1    2    0    0 -0.80358469404E+02 -0.62385870755E+02 -0.14654246762E+03  0.17839331627E+03  0.00000000000E+00 0.  1.
         11    1    1    2    0    0  0.84859199175E+01 -0.72373156175E+02 -0.15022240318E+03  0.16696303479E+03  0.00000000000E+00 0. -1.
<mgrwt>
<rscale>  0 0.19196659E+03</rscale>
<asrwt>0</asrwt>
<pdfrwt beam="1">  1        1 0.13066605E-01 0.19736554E+03</pdfrwt>
<pdfrwt beam="2">  1       -1 0.74101518E-01 0.19736554E+03</pdfrwt>
<totfact> 0.85203208E+02</totfact>
</mgrwt>
</event>
<event>
 6    1  0.9263730E-006  0.2837845E+03  0.7546771E-02  0.1093640E+00
         -1   -1    0    0    0  501 -0.00000000000E+00  0.00000000000E+00  0.22799761407E+03  0.22799761407E+03  0.00000000000E+00 0.  1.
          1   -1    0    0  501    0  0.00000000000E+00 -0.00000000000E+00 -0.88305380810E+02  0.88305380810E+02  0.00000000000E+00 0. -1.
          5    1    1    2  502    0  0.37611019003E+02  0.81111612372E+02 -0.14005368859E+02  0.90619659947E+02  0.47000000000E+01 0.  1.
         -5    1    1    2    0  502  0.23001808471E+02 -0.16851655716E+02  0.64299696194E+02  0.70495407112E+02  0.47000000000E+01 0.  1.
        -11    1    1    2    0    0 -0.15800068050E+02 -0.35588322446E+02  0.94043118670E+02  0.10178545581E+03  0.00000000000E+00 0.  1.
         11    1    1    2    0    0 -0.44812759424E+02 -0.28671634210E+02 -0.46452127455E+01  0.53402472011E+02  0.00000000000E+00 0. -1.
<mgrwt>
<rscale>  0 0.28378454E+03</rscale>
<asrwt>0</asrwt>
<pdfrwt beam="2">  1        1 0.13585443E-01 0.28378454E+03</pdfrwt>
<pdfrwt beam="1">  1       -1 0.35076556E-01 0.28378454E+03</pdfrwt>
<totfact> 0.33000842E+03</totfact>
</mgrwt>
</event>
<event>
 6    1  0.9263730E-006  0.1718945E+03  0.7546771E-02  0.1181987E+00
          2   -1    0    0  501    0  0.00000000000E+00  0.00000000000E+00  0.51973514274E+03  0.51973514274E+03  0.00000000000E+00 0. -1.
         -2   -1    0    0    0  501 -0.00000000000E+00 -0.00000000000E+00 -0.56501009555E+02  0.56501009555E+02  0.00000000000E+00 0.  1.
          5    1    1    2  502    0  0.38306392551E+02  0.88788128900E+02  0.19363165317E+03  0.21648560842E+03  0.47000000000E+01 0.  1.
         -5    1    1    2    0  502 -0.70760932067E+02  0.24655649116E+02  0.15109459520E+03  0.16872070779E+03  0.47000000000E+01 0.  1.
        -11    1    1    2    0    0  0.93833990839E+01 -0.98115972822E+01 -0.15145504521E+02  0.20339663881E+02  0.00000000000E+00 0.  1.
         11    1    1    2    0    0  0.23071140433E+02 -0.10363218073E+03  0.13365338934E+03  0.17069017221E+03  0.00000000000E+00 0. -1.
<mgrwt>
<rscale>  0 0.16609034E+03</rscale>
<asrwt>0</asrwt>
<pdfrwt beam="1">  1        2 0.79959249E-01 0.17189450E+03</pdfrwt>
<pdfrwt beam="2">  1       -2 0.86924634E-02 0.17189450E+03</pdfrwt>
<totfact> 0.48251173E+03</totfact>
</mgrwt>
</event>
<event>
 6    1  0.9263730E-006  0.1523822E+03  0.7546771E-02  0.1205866E+00
          1   -1    0    0  501    0  0.00000000000E+00  0.00000000000E+00  0.44308118118E+02  0.44308118118E+02  0.00000000000E+00 0. -1.
         -1   -1    0    0    0  501 -0.00000000000E+00 -0.00000000000E+00 -0.44452529483E+03  0.44452529483E+03  0.00000000000E+00 0.  1.
          5    1    1    2  502    0  0.70843639188E+02  0.76984615458E+02 -0.11845149084E+03  0.15810850044E+03  0.47000000000E+01 0. -1.
         -5    1    1    2    0  502 -0.45062092019E+02  0.62312000765E+01 -0.79311732297E+02  0.91552503360E+02  0.47000000000E+01 0. -1.
        -11    1    1    2    0    0  0.17396724261E+02 -0.81478965371E+02 -0.14570506552E+03  0.16784348045E+03  0.00000000000E+00 0.  1.
         11    1    1    2    0    0 -0.43178271431E+02 -0.17368501629E+01 -0.56748888057E+02  0.71328928689E+02  0.00000000000E+00 0. -1.
<mgrwt>
<rscale>  0 0.14569446E+03</rscale>
<asrwt>0</asrwt>
<pdfrwt beam="1">  1        1 0.68166338E-02 0.15238217E+03</pdfrwt>
<pdfrwt beam="2">  1       -1 0.68388505E-01 0.15238217E+03</pdfrwt>
<totfact> 0.23700642E+03</totfact>
</mgrwt>
</event>
<event>
 6    1  0.9263730E-006  0.1428471E+03  0.7546771E-02  0.1220294E+00
         -1   -1    0    0    0  501 -0.00000000000E+00  0.00000000000E+00  0.26857446582E+03  0.26857446582E+03  0.00000000000E+00 0.  1.
          1   -1    0    0  501    0  0.00000000000E+00 -0.00000000000E+00 -0.66699090260E+02  0.66699090260E+02  0.00000000000E+00 0. -1.
          5    1    1    2  502    0  0.17747850730E+02  0.22456173505E+02  0.69296805774E+02  0.75122587978E+02  0.47000000000E+01 0.  1.
         -5    1    1    2    0  502  0.24378787329E+02 -0.77363844462E+02 -0.52624815981E+01  0.81420350123E+02  0.47000000000E+01 0.  1.
        -11    1    1    2    0    0 -0.54958845818E+02  0.30313996323E+02  0.13732169776E+03  0.15098563436E+03  0.00000000000E+00 0.  1.
         11    1    1    2    0    0  0.12832207759E+02  0.24593674634E+02  0.51935362348E+00  0.27744983621E+02  0.00000000000E+00 0. -1.
<mgrwt>
<rscale>  0 0.13494729E+03</rscale>
<asrwt>0</asrwt>
<pdfrwt beam="2">  1        1 0.10261399E-01 0.14284711E+03</pdfrwt>
<pdfrwt beam="1">  1       -1 0.41319148E-01 0.14284711E+03</pdfrwt>
<totfact> 0.34791007E+03</totfact>
</mgrwt>
</event>
<event>
 6    1  0.9263730E-006  0.1440264E+03  0.7546771E-02  0.1218247E+00
          1   -1    0    0  501    0  0.00000000000E+00  0.00000000000E+00  0.13165350284E+03  0.13165350284E+03  0.00000000000E+00 0. -1.
         -1   -1    0    0    0  501 -0.00000000000E+00 -0.00000000000E+00 -0.13372877148E+03  0.13372877148E+03  0.00000000000E+00 0.  1.
          5    1    1    2  502    0  0.99561164888E+02  0.13289297315E+02 -0.35511512893E+01  0.10061675632E+03  0.47000000000E+01 0. -1.
         -5    1    1    2    0  502 -0.28184572266E+02 -0.20585510179E+02  0.29043974308E+02  0.45648393036E+02  0.47000000000E+01 0. -1.
        -11    1    1    2    0    0 -0.70774734146E+02 -0.20259095582E+02 -0.45211330279E+02  0.86391888119E+02  0.00000000000E+00 0.  1.
         11    1    1    2    0    0 -0.60185847584E+00  0.27555308446E+02  0.17643238617E+02  0.32725236837E+02  0.00000000000E+00 0. -1.
<mgrwt>
<rscale>  0 0.13640699E+03</rscale>
<asrwt>0</asrwt>
<pdfrwt beam="1">  1        1 0.20254385E-01 0.14402642E+03</pdfrwt>
<pdfrwt beam="2">  1       -1 0.20573657E-01 0.14402642E+03</pdfrwt>
<totfact> 0.46416336E+03</totfact>
</mgrwt>
</event>
<event>
 6    1  0.9263730E-006  0.1443883E+03  0.7546771E-02  0.1217714E+00
         -3   -1    0    0    0  501 -0.00000000000E+00  0.00000000000E+00  0.70715900253E+02  0.70715900253E+02  0.00000000000E+00 0.  1.
          3   -1    0    0  501    0  0.00000000000E+00 -0.00000000000E+00 -0.29551889687E+03  0.29551889687E+03  0.00000000000E+00 0. -1.
          5    1    1    2  502    0  0.66211910490E+02  0.73622874150E+02 -0.16608659463E+03  0.19341972910E+03  0.47000000000E+01 0. -1.
         -5    1    1    2    0  502 -0.17417228734E+01 -0.40984745498E+02 -0.34954067688E+02  0.54098611905E+02  0.47000000000E+01 0. -1.
        -11    1    1    2    0    0  0.49140579358E+01 -0.43191627402E+02 -0.21502913497E+02  0.48497834301E+02  0.00000000000E+00 0.  1.
         11    1    1    2    0    0 -0.69384245553E+02  0.10553498751E+02 -0.22594207943E+01  0.70218621811E+02  0.00000000000E+00 0. -1.
<mgrwt>
<rscale>  0 0.13679084E+03</rscale>
<asrwt>0</asrwt>
<pdfrwt beam="2">  1        3 0.45464445E-01 0.14438830E+03</pdfrwt>
<pdfrwt beam="1">  1       -3 0.10879369E-01 0.14438830E+03</pdfrwt>
<totfact> 0.72274551E+02</totfact>
</mgrwt>
</event>
<event>
 6    1  0.9263730E-006  0.1286299E+03  0.7546771E-02  0.1244982E+00
          2   -1    0    0  501    0  0.00000000000E+00  0.00000000000E+00  0.11915214761E+04  0.11915214761E+04  0.00000000000E+00 0. -1.
         -2   -1    0    0    0  501 -0.00000000000E+00 -0.00000000000E+00 -0.10431383511E+02  0.10431383511E+02  0.00000000000E+00 0.  1.
          5    1    1    2  502    0 -0.59760397561E+02  0.27850469974E+02  0.60300800418E+03  0.60661989491E+03  0.47000000000E+01 0.  1.
         -5    1    1    2    0  502  0.43641065396E+02 -0.20784818558E+01  0.12114207966E+03  0.12886565152E+03  0.47000000000E+01 0.  1.
        -11    1    1    2    0    0  0.43913437009E+02 -0.42662025150E+02  0.29129272694E+03  0.29765733841E+03  0.00000000000E+00 0.  1.
         11    1    1    2    0    0 -0.27794104843E+02  0.16890037032E+02  0.16564728184E+03  0.16880997481E+03  0.00000000000E+00 0. -1.
<mgrwt>
<rscale>  0 0.11886440E+03</rscale>
<asrwt>0</asrwt>
<pdfrwt beam="1">  1        2 0.18331089E+00 0.12862988E+03</pdfrwt>
<pdfrwt beam="2">  1       -2 0.16048292E-02 0.12862988E+03</pdfrwt>
<totfact> 0.20600350E+04</totfact>
</mgrwt>
</event>
<event>
 6    1  0.9263730E-006  0.1260236E+03  0.7546771E-02  0.1248634E+00
         -1   -1    0    0    0  501 -0.00000000000E+00  0.00000000000E+00  0.22360387672E+03  0.22360387672E+03  0.00000000000E+00 0.  1.
          1   -1    0    0  501    0  0.00000000000E+00 -0.00000000000E+00 -0.54532684995E+02  0.54532684995E+02  0.00000000000E+00 0. -1.
          5    1    1    2  502    0 -0.42355083397E+02 -0.33146717069E+02  0.52336693168E+02  0.75192269508E+02  0.47000000000E+01 0.  1.
         -5    1    1    2    0  502  0.48550349573E+02  0.47908784790E+02  0.25726972495E+02  0.73050360831E+02  0.47000000000E+01 0.  1.
        -11    1    1    2    0    0 -0.29320195890E+02  0.27836369256E+01  0.96021024851E+02  0.10043634668E+03  0.00000000000E+00 0.  1.
         11    1    1    2    0    0  0.23124929713E+02 -0.17545704646E+02 -0.50134987907E+01  0.29457584692E+02  0.00000000000E+00 0. -1.
<mgrwt>
<rscale>  0 0.11670471E+03</rscale>
<asrwt>0</asrwt>
<pdfrwt beam="2">  1        1 0.83896440E-02 0.12602358E+03</pdfrwt>
<pdfrwt beam="1">  1       -1 0.34400596E-01 0.12602358E+03</pdfrwt>
<totfact> 0.62009463E+03</totfact>
</mgrwt>
</event>
<event>
 6    1  0.9263730E-006  0.1282802E+03  0.7546771E-02  0.1242980E+00
         -1   -1    0    0    0  501 -0.00000000000E+00  0.00000000000E+00  0.42611614741E+03  0.42611614741E+03  0.00000000000E+00 0.  1.
          1   -1    0    0  501    0  0.00000000000E+00 -0.00000000000E+00 -0.30588154860E+02  0.30588154860E+02  0.00000000000E+00 0. -1.
          5    1    1    2  502    0 -0.36666086904E+02  0.48030286668E+01  0.13070927605E+01  0.37299725263E+02  0.47000000000E+01 0.  1.
         -5    1    1    2    0  502  0.21004069612E+02  0.19396009201E+02  0.19542080786E+03  0.19755697472E+03  0.47000000000E+01 0.  1.
        -11    1    1    2    0    0  0.32614634998E+02  0.24108745367E+02  0.12940020568E+03  0.13560737166E+03  0.00000000000E+00 0.  1.
         11    1    1    2    0    0 -0.16952617707E+02 -0.48307783234E+02  0.69399886252E+02  0.86240230635E+02  0.00000000000E+00 0. -1.
<mgrwt>
<rscale>  0 0.12007082E+03</rscale>
<asrwt>0</asrwt>
<pdfrwt beam="2">  1        1 0.47058703E-02 0.12828017E+03</pdfrwt>
<pdfrwt beam="1">  1       -1 0.65556326E-01 0.12828017E+03</pdfrwt>
<totfact> 0.42222711E+03</totfact>
</mgrwt>
</event>
<event>
 6    1  0.9263730E-006  0.1267890E+03  0.7546771E-02  0.1246204E+00
          2   -1    0    0  501    0  0.00000000000E+00  0.00000000000E+00  0.31682901608E+03  0.31682901608E+03  0.00000000000E+00 0. -1.
         -2   -1    0    0    0  501 -0.00000000000E+00 -0.00000000000E+00 -0.56183423918E+02  0.56183423918E+02  0.00000000000E+00 0.  1.
          5    1    1    2  502    0  0.69597123012E+01 -0.45288429002E+02  0.41713438372E+02  0.62141615183E+02  0.47000000000E+01 0. -1.
         -5    1    1    2    0  502 -0.18406472290E+02  0.63078422652E+02  0.20371934078E+03  0.21410592107E+03  0.47000000000E+01 0. -1.
        -11    1    1    2    0    0 -0.29905558594E+01 -0.40779246471E+02  0.42007463350E+02  0.58621816282E+02  0.00000000000E+00 0. -1.
         11    1    1    2    0    0  0.14437315848E+02  0.22989252821E+02 -0.26794650345E+02  0.38143087464E+02  0.00000000000E+00 0.  1.
<mgrwt>
<rscale>  0 0.11813594E+03</rscale>
<asrwt>0</asrwt>
<pdfrwt beam="1">  1        2 0.48742925E-01 0.12678901E+03</pdfrwt>
<pdfrwt beam="2">  1       -2 0.86436038E-02 0.12678901E+03</pdfrwt>
<totfact> 0.81539920E+03</totfact>
</mgrwt>
</event>
<event>
 6    1  0.9263730E-006  0.1441667E+03  0.7546771E-02  0.1218103E+00
          1   -1    0    0  501    0  0.00000000000E+00  0.00000000000E+00  0.19167711090E+03  0.19167711090E+03  0.00000000000E+00 0. -1.
         -1   -1    0    0    0  501 -0.00000000000E+00 -0.00000000000E+00 -0.89794312187E+02  0.89794312187E+02  0.00000000000E+00 0.  1.
          5    1    1    2  502    0  0.41109704015E+02 -0.15847710231E+02 -0.10158326533E+02  0.45458104687E+02  0.47000000000E+01 0.  1.
         -5    1    1    2    0  502 -0.59689007560E+02 -0.53544301512E+02  0.85110380224E+02  0.11702835840E+03  0.47000000000E+01 0.  1.
        -11    1    1    2    0    0  0.54125885055E+02  0.32523663412E+02  0.24440949897E+02  0.67710856933E+02  0.00000000000E+00 0. -1.
         11    1    1    2    0    0 -0.35546581510E+02  0.36868348331E+02  0.24897951249E+01  0.51274103068E+02  0.00000000000E+00 0.  1.
<mgrwt>
<rscale>  0 0.13651078E+03</rscale>
<asrwt>0</asrwt>
<pdfrwt beam="1">  1        1 0.29488786E-01 0.14416671E+03</pdfrwt>
<pdfrwt beam="2">  1       -1 0.13814510E-01 0.14416671E+03</pdfrwt>
<totfact> 0.54375977E+03</totfact>
</mgrwt>
</event>
<event>
 6    1  0.9263730E-006  0.1255775E+03  0.7546771E-02  0.1249701E+00
         -1   -1    0    0    0  501 -0.00000000000E+00  0.00000000000E+00  0.39914496936E+02  0.39914496936E+02  0.00000000000E+00 0.  1.
          1   -1    0    0  501    0  0.00000000000E+00 -0.00000000000E+00 -0.34687249792E+03  0.34687249792E+03  0.00000000000E+00 0. -1.
          5    1    1    2  502    0  0.44971990111E+02 -0.44129555141E+02 -0.13301428737E+03  0.14725755728E+03  0.47000000000E+01 0. -1.
         -5    1    1    2    0  502 -0.35189602325E+02  0.51035495137E+02 -0.11438441613E+03  0.13018761281E+03  0.47000000000E+01 0. -1.
        -11    1    1    2    0    0 -0.22703487164E+02  0.34979603242E+02 -0.94360111002E+01  0.42755809872E+02  0.00000000000E+00 0.  1.
         11    1    1    2    0    0  0.12921099378E+02 -0.41885543237E+02 -0.50123286374E+02  0.66586014886E+02  0.00000000000E+00 0. -1.
<mgrwt>
<rscale>  0 0.11608404E+03</rscale>
<asrwt>0</asrwt>
<pdfrwt beam="2">  1        1 0.53365000E-01 0.12557748E+03</pdfrwt>
<pdfrwt beam="1">  1       -1 0.61406918E-02 0.12557748E+03</pdfrwt>
<totfact> 0.88660014E+03</totfact>
</mgrwt>
</event>
<event>
 6    1  0.9263730E-006  0.1453076E+03  0.7546771E-02  0.1218085E+00
         -1   -1    0    0    0  501 -0.00000000000E+00  0.00000000000E+00  0.35013952414E+03  0.35013952414E+03  0.00000000000E+00 0.  1.
          1   -1    0    0  501    0  0.00000000000E+00 -0.00000000000E+00 -0.53058320433E+02  0.53058320433E+02  0.00000000000E+00 0. -1.
          5    1    1    2  502    0  0.81079218940E+02 -0.54487329730E+02  0.83580496437E+02  0.12864873971E+03  0.47000000000E+01 0.  1.
         -5    1    1    2    0  502 -0.76157413969E+01  0.44311929898E+02  0.18068596873E+02  0.48683784171E+02  0.47000000000E+01 0.  1.
        -11    1    1    2    0    0 -0.77111357251E+02 -0.18832630832E+02  0.16784310657E+03  0.18566673861E+03  0.00000000000E+00 0.  1.
         11    1    1    2    0    0  0.36478797074E+01  0.29008030665E+02  0.27589003828E+02  0.40198582085E+02  0.00000000000E+00 0. -1.
<mgrwt>
<rscale>  0 0.13652375E+03</rscale>
<asrwt>0</asrwt>
<pdfrwt beam="2">  1        1 0.81628188E-02 0.14530756E+03</pdfrwt>
<pdfrwt beam="1">  1       -1 0.53867618E-01 0.14530756E+03</pdfrwt>
<totfact> 0.29249658E+03</totfact>
</mgrwt>
</event>
<event>
 6    1  0.9263730E-006  0.1282260E+03  0.7546771E-02  0.1244156E+00
          1   -1    0    0  501    0  0.00000000000E+00  0.00000000000E+00  0.60866943549E+03  0.60866943549E+03  0.00000000000E+00 0. -1.
         -1   -1    0    0    0  501 -0.00000000000E+00 -0.00000000000E+00 -0.20985386698E+02  0.20985386698E+02  0.00000000000E+00 0.  1.
          5    1    1    2  502    0  0.50126340472E+02 -0.56596181925E+02  0.17643014804E+03  0.19200381495E+03  0.47000000000E+01 0.  1.
         -5    1    1    2    0  502 -0.26861575916E+02  0.40093365330E+02  0.19494563859E+03  0.20088532602E+03  0.47000000000E+01 0.  1.
        -11    1    1    2    0    0  0.28063173416E+02  0.13267724952E+02  0.28841484131E+02  0.42372224799E+02  0.00000000000E+00 0.  1.
         11    1    1    2    0    0 -0.51327937971E+02  0.32350916423E+01  0.18746677804E+03  0.19439345643E+03  0.00000000000E+00 0. -1.
<mgrwt>
<rscale>  0 0.11936019E+03</rscale>
<asrwt>0</asrwt>
<pdfrwt beam="1">  1        1 0.93641438E-01 0.12822598E+03</pdfrwt>
<pdfrwt beam="2">  1       -1 0.32285215E-02 0.12822598E+03</pdfrwt>
<totfact> 0.11078158E+04</totfact>
</mgrwt>
</event>
<event>
 6    1  0.9263730E-006  0.1447032E+03  0.7546771E-02  0.1209667E+00
          1   -1    0    0  501    0  0.00000000000E+00  0.00000000000E+00  0.53755254775E+03  0.53755254775E+03  0.00000000000E+00 0. -1.
         -1   -1    0    0    0  501 -0.00000000000E+00 -0.00000000000E+00 -0.36936776205E+02  0.36936776205E+02  0.00000000000E+00 0.  1.
          5    1    1    2  502    0  0.45502473708E+02  0.47869508666E+02  0.23671694419E+03  0.24580269861E+03  0.47000000000E+01 0. -1.
         -5    1    1    2    0  502  0.25853351059E+02 -0.33000892626E+02  0.15434791402E+02  0.44919677879E+02  0.47000000000E+01 0. -1.
        -11    1    1    2    0    0 -0.10033558086E+03 -0.27586940570E+02  0.17223113864E+03  0.20122582636E+03  0.00000000000E+00 0.  1.
         11    1    1    2    0    0  0.28979756095E+02  0.12718324531E+02  0.76232897312E+02  0.82541121114E+02  0.00000000000E+00 0. -1.
<mgrwt>
<rscale>  0 0.14275697E+03</rscale>
<asrwt>0</asrwt>
<pdfrwt beam="1">  1        1 0.82700386E-01 0.14470315E+03</pdfrwt>
<pdfrwt beam="2">  1       -1 0.56825813E-02 0.14470315E+03</pdfrwt>
<totfact> 0.57390696E+03</totfact>
</mgrwt>
</event>
<event>
 6    1  0.9263730E-006  0.1264013E+03  0.7546771E-02  0.1247034E+00
          1   -1    0    0  501    0  0.00000000000E+00  0.00000000000E+00  0.45573001501E+03  0.45573001501E+03  0.00000000000E+00 0.  1.
         -1   -1    0    0    0  501 -0.00000000000E+00 -0.00000000000E+00 -0.29848231049E+02  0.29848231049E+02  0.00000000000E+00 0. -1.
          5    1    1    2  502    0  0.46519983129E+02 -0.24181019447E+02  0.19762174993E+03  0.20451228955E+03  0.47000000000E+01 0. -1.
         -5    1    1    2    0  502 -0.51266530530E+02  0.42346739074E+02  0.11883517993E+03  0.13625488414E+03  0.47000000000E+01 0. -1.
        -11    1    1    2    0    0  0.24553163481E+02 -0.91485776225E+01  0.11840422443E+03  0.12126877039E+03  0.00000000000E+00 0.  1.
         11    1    1    2    0    0 -0.19806616079E+02 -0.90171420048E+01 -0.89793703367E+01  0.23542301971E+02  0.00000000000E+00 0. -1.
<mgrwt>
<rscale>  0 0.11764472E+03</rscale>
<asrwt>0</asrwt>
<pdfrwt beam="1">  1        1 0.70112305E-01 0.12640126E+03</pdfrwt>
<pdfrwt beam="2">  1       -1 0.45920359E-02 0.12640126E+03</pdfrwt>
<totfact> 0.96724005E+03</totfact>
</mgrwt>
</event>
<event>
 6    1  0.9263730E-006  0.1373418E+03  0.7546771E-02  0.1228720E+00
          2   -1    0    0  501    0  0.00000000000E+00  0.00000000000E+00  0.54592285539E+03  0.54592285539E+03  0.00000000000E+00 0. -1.
         -2   -1    0    0    0  501 -0.00000000000E+00 -0.00000000000E+00 -0.28304514555E+02  0.28304514555E+02  0.00000000000E+00 0.  1.
          5    1    1    2  502    0 -0.69181645083E+01  0.35724373024E+02  0.20673287435E+02  0.42113734595E+02  0.47000000000E+01 0. -1.
         -5    1    1    2    0  502  0.57333030338E+02 -0.92845798377E+01  0.31894288954E+03  0.32422204826E+03  0.47000000000E+01 0. -1.
        -11    1    1    2    0    0 -0.56456096907E+01 -0.37370116128E+02  0.18913305716E+02  0.42262413813E+02  0.00000000000E+00 0.  1.
         11    1    1    2    0    0 -0.44769256139E+02  0.10930322941E+02  0.15908885814E+03  0.16562917328E+03  0.00000000000E+00 0. -1.
<mgrwt>
<rscale>  0 0.12915169E+03</rscale>
<asrwt>0</asrwt>
<pdfrwt beam="1">  1        2 0.83988124E-01 0.13734176E+03</pdfrwt>
<pdfrwt beam="2">  1       -2 0.43545411E-02 0.13734176E+03</pdfrwt>
<totfact> 0.12929657E+04</totfact>
</mgrwt>
</event>
<event>
 6    1  0.9263730E-006  0.1297047E+03  0.7546771E-02  0.1243107E+00
         -3   -1    0    0    0  501 -0.00000000000E+00  0.00000000000E+00  0.33065259980E+02  0.33065259980E+02  0.00000000000E+00 0.  1.
          3   -1    0    0  501    0  0.00000000000E+00 -0.00000000000E+00 -0.38186848943E+03  0.38186848943E+03  0.00000000000E+00 0. -1.
          5    1    1    2  502    0 -0.19324132301E+02  0.37296139696E+02 -0.15628627379E+03  0.16190093731E+03  0.47000000000E+01 0. -1.
         -5    1    1    2    0  502  0.53844973134E+02 -0.34399316812E+02 -0.47882967176E+02  0.79984140144E+02  0.47000000000E+01 0. -1.
        -11    1    1    2    0    0 -0.41759003126E+02 -0.25360454655E+02 -0.33024285973E+02  0.58970928994E+02  0.00000000000E+00 0.  1.
         11    1    1    2    0    0  0.72381622922E+01  0.22463631771E+02 -0.11160970251E+03  0.11407774297E+03  0.00000000000E+00 0. -1.
<mgrwt>
<rscale>  0 0.11999381E+03</rscale>
<asrwt>0</asrwt>
<pdfrwt beam="2">  1        3 0.58748998E-01 0.12970471E+03</pdfrwt>
<pdfrwt beam="1">  1       -3 0.50869631E-02 0.12970471E+03</pdfrwt>
<totfact> 0.14564854E+03</totfact>
</mgrwt>
</event>
<event>
 6    1  0.9263730E-006  0.2834504E+03  0.7546771E-02  0.1113052E+00
         -2   -1    0    0    0  501 -0.00000000000E+00  0.00000000000E+00  0.52705860976E+02  0.52705860976E+02  0.00000000000E+00 0.  1.
          2   -1    0    0  501    0  0.00000000000E+00 -0.00000000000E+00 -0.10232395656E+04  0.10232395656E+04  0.00000000000E+00 0. -1.
          5    1    1    2  502    0 -0.97639670191E+02 -0.31487734487E+02 -0.42203126832E+03  0.43434716997E+03  0.47000000000E+01 0. -1.
         -5    1    1    2    0  502  0.24423719360E+02  0.15805522914E+03 -0.27573837017E+03  0.31879729031E+03  0.47000000000E+01 0.  1.
        -11    1    1    2    0    0  0.55482257536E+02 -0.12982447688E+03 -0.26982942102E+03  0.30453340071E+03  0.00000000000E+00 0.  1.
         11    1    1    2    0    0  0.17733693295E+02  0.32569822321E+01 -0.29346451279E+01  0.18267565606E+02  0.00000000000E+00 0. -1.
<mgrwt>
<rscale>  0 0.25040051E+03</rscale>
<asrwt>0</asrwt>
<pdfrwt beam="2">  1        2 0.15742146E+00 0.28345037E+03</pdfrwt>
<pdfrwt beam="1">  1       -2 0.81085948E-02 0.28345037E+03</pdfrwt>
<totfact> 0.23501101E+03</totfact>
</mgrwt>
</event>
<event>
 6    1  0.9263730E-006  0.1310218E+03  0.7546771E-02  0.1238428E+00
         -3   -1    0    0    0  501 -0.00000000000E+00  0.00000000000E+00  0.81579705360E+02  0.81579705360E+02  0.00000000000E+00 0.  1.
          3   -1    0    0  501    0  0.00000000000E+00 -0.00000000000E+00 -0.23297803640E+03  0.23297803640E+03  0.00000000000E+00 0. -1.
          5    1    1    2  502    0  0.53446300941E+02  0.23675770958E+02 -0.45904600005E+02  0.74473965359E+02  0.47000000000E+01 0.  1.
         -5    1    1    2    0  502 -0.32595621610E+02 -0.56956086889E+02 -0.12082895207E+03  0.13757978064E+03  0.47000000000E+01 0.  1.
        -11    1    1    2    0    0 -0.12209434871E+02  0.14304632099E+02  0.54763072341E+02  0.57902391069E+02  0.00000000000E+00 0.  1.
         11    1    1    2    0    0 -0.86412444597E+01  0.18975683832E+02 -0.39427851307E+02  0.44601604695E+02  0.00000000000E+00 0. -1.
<mgrwt>
<rscale>  0 0.12287514E+03</rscale>
<asrwt>0</asrwt>
<pdfrwt beam="2">  1        3 0.35842774E-01 0.13102181E+03</pdfrwt>
<pdfrwt beam="1">  1       -3 0.12550724E-01 0.13102181E+03</pdfrwt>
<totfact> 0.88714178E+02</totfact>
</mgrwt>
</event>
<event>
 6    1  0.9263730E-006  0.4178683E+03  0.7546771E-02  0.1037762E+00
         -2   -1    0    0    0  501 -0.00000000000E+00  0.00000000000E+00  0.21583005563E+02  0.21583005563E+02  0.00000000000E+00 0.  1.
          2   -1    0    0  501    0  0.00000000000E+00 -0.00000000000E+00 -0.20225860889E+04  0.20225860889E+04  0.00000000000E+00 0. -1.
          5    1    1    2  502    0 -0.15766141996E+03 -0.32067586205E+02 -0.11161312834E+04  0.11276775182E+04  0.47000000000E+01 0. -1.
         -5    1    1    2    0  502  0.10576487643E+02 -0.43905963709E+02 -0.24514297147E+03  0.24931257931E+03  0.47000000000E+01 0. -1.
        -11    1    1    2    0    0  0.12085483153E+03  0.13472375523E+02 -0.41550868944E+03  0.43293748533E+03  0.00000000000E+00 0.  1.
         11    1    1    2    0    0  0.26230100784E+02  0.62501174391E+02 -0.22422013900E+03  0.23424151152E+03  0.00000000000E+00 0. -1.
<mgrwt>
<rscale>  0 0.41786834E+03</rscale>
<asrwt>0</asrwt>
<pdfrwt beam="2">  1        2 0.31116706E+00 0.41786834E+03</pdfrwt>
<pdfrwt beam="1">  1       -2 0.33204628E-02 0.41786834E+03</pdfrwt>
<totfact> 0.26120634E+03</totfact>
</mgrwt>
</event>
<event>
 6    1  0.9263730E-006  0.1387668E+03  0.7546771E-02  0.1220835E+00
         -1   -1    0    0    0  501 -0.00000000000E+00  0.00000000000E+00  0.28175321575E+02  0.28175321575E+02  0.00000000000E+00 0.  1.
          1   -1    0    0  501    0  0.00000000000E+00 -0.00000000000E+00 -0.62886005926E+03  0.62886005926E+03  0.00000000000E+00 0. -1.
          5    1    1    2  502    0  0.36152939162E+02 -0.95063883385E+02 -0.30049914934E+03  0.31727906595E+03  0.47000000000E+01 0. -1.
         -5    1    1    2    0  502  0.17510335342E+02  0.31065624845E+02 -0.79280936923E+02  0.87058841310E+02  0.47000000000E+01 0.  1.
        -11    1    1    2    0    0  0.14292544752E+02  0.18712048285E+02 -0.12287027344E+03  0.12510604174E+03  0.00000000000E+00 0. -1.
         11    1    1    2    0    0 -0.67955819256E+02  0.45286210255E+02 -0.98034377982E+02  0.12759143183E+03  0.00000000000E+00 0.  1.
<mgrwt>
<rscale>  0 0.13456498E+03</rscale>
<asrwt>0</asrwt>
<pdfrwt beam="2">  1        1 0.96747707E-01 0.13876682E+03</pdfrwt>
<pdfrwt beam="1">  1       -1 0.43346646E-02 0.13876682E+03</pdfrwt>
<totfact> 0.69152004E+03</totfact>
</mgrwt>
</event>
<event>
 6    1  0.9263730E-006  0.1283500E+03  0.7546771E-02  0.1242735E+00
         -2   -1    0    0    0  501 -0.00000000000E+00  0.00000000000E+00  0.23486197718E+03  0.23486197718E+03  0.00000000000E+00 0.  1.
          2   -1    0    0  501    0  0.00000000000E+00 -0.00000000000E+00 -0.61690489400E+02  0.61690489400E+02  0.00000000000E+00 0. -1.
          5    1    1    2  502    0  0.54380222464E+02  0.20590134018E+02  0.87148679482E+00  0.58343908879E+02  0.47000000000E+01 0. -1.
         -5    1    1    2    0  502 -0.62445009083E+02  0.73951164786E+01  0.46988771321E+02  0.78639058599E+02  0.47000000000E+01 0. -1.
        -11    1    1    2    0    0 -0.18576510772E+02 -0.51603051133E+02  0.42354176012E+02  0.69295294677E+02  0.00000000000E+00 0. -1.
         11    1    1    2    0    0  0.26641297391E+02  0.23617800637E+02  0.82957053655E+02  0.90274204426E+02  0.00000000000E+00 0.  1.
<mgrwt>
<rscale>  0 0.12021967E+03</rscale>
<asrwt>0</asrwt>
<pdfrwt beam="2">  1        2 0.94908447E-02 0.12835003E+03</pdfrwt>
<pdfrwt beam="1">  1       -2 0.36132611E-01 0.12835003E+03</pdfrwt>
<totfact> 0.46930621E+03</totfact>
</mgrwt>
</event>
<event>
 6    1  0.9263730E-006  0.1627805E+03  0.7546771E-02  0.1193147E+00
          1   -1    0    0  501    0  0.00000000000E+00  0.00000000000E+00  0.25385246024E+03  0.25385246024E+03  0.00000000000E+00 0. -1.
         -1   -1    0    0    0  501 -0.00000000000E+00 -0.00000000000E+00 -0.89361561111E+02  0.89361561111E+02  0.00000000000E+00 0.  1.
          5    1    1    2  502    0 -0.50843891549E+02  0.14036233918E+02 -0.57481266427E+01  0.53265825163E+02  0.47000000000E+01 0.  1.
         -5    1    1    2    0  502  0.35450232626E+02  0.89093351474E+02  0.83037327717E+02  0.12693160388E+03  0.47000000000E+01 0.  1.
        -11    1    1    2    0    0  0.16967288148E+02  0.11950183424E+02  0.43451632159E+01  0.21203211887E+02  0.00000000000E+00 0.  1.
         11    1    1    2    0    0 -0.15736292253E+01 -0.11507976882E+03  0.82856534836E+02  0.14181338042E+03  0.00000000000E+00 0. -1.
<mgrwt>
<rscale>  0 0.15612088E+03</rscale>
<asrwt>0</asrwt>
<pdfrwt beam="1">  1        1 0.39054224E-01 0.16278051E+03</pdfrwt>
<pdfrwt beam="2">  1       -1 0.13747933E-01 0.16278051E+03</pdfrwt>
<totfact> 0.38885424E+03</totfact>
</mgrwt>
</event>
<event>
 6    1  0.9263730E-006  0.2608962E+03  0.7546771E-02  0.1106606E+00
          1   -1    0    0  501    0  0.00000000000E+00  0.00000000000E+00  0.32226115378E+03  0.32226115378E+03  0.00000000000E+00 0. -1.
         -1   -1    0    0    0  501 -0.00000000000E+00 -0.00000000000E+00 -0.52804109380E+02  0.52804109380E+02  0.00000000000E+00 0.  1.
          5    1    1    2  502    0  0.74064600025E+02  0.50288836734E+02  0.18815244084E+03  0.20841776093E+03  0.47000000000E+01 0.  1.
         -5    1    1    2    0  502 -0.19810282135E+02 -0.86140792443E+01 -0.59532977852E+01  0.22895008058E+02  0.47000000000E+01 0.  1.
        -11    1    1    2    0    0 -0.34930256375E+02  0.18431563165E+02  0.46316371471E+01  0.39765530222E+02  0.00000000000E+00 0.  1.
         11    1    1    2    0    0 -0.19324061516E+02 -0.60106320655E+02  0.82626264194E+02  0.10398696395E+03  0.00000000000E+00 0. -1.
<mgrwt>
<rscale>  0 0.26089625E+03</rscale>
<asrwt>0</asrwt>
<pdfrwt beam="1">  1        1 0.49578638E-01 0.26089625E+03</pdfrwt>
<pdfrwt beam="2">  1       -1 0.81237093E-02 0.26089625E+03</pdfrwt>
<totfact> 0.66618220E+03</totfact>
</mgrwt>
</event>
<event>
 6    1  0.9263730E-006  0.1423665E+03  0.7546771E-02  0.1220639E+00
          2   -1    0    0  501    0  0.00000000000E+00  0.00000000000E+00  0.14865465196E+03  0.14865465196E+03  0.00000000000E+00 0. -1.
         -2   -1    0    0    0  501 -0.00000000000E+00 -0.00000000000E+00 -0.11374501868E+03  0.11374501868E+03  0.00000000000E+00 0.  1.
          5    1    1    2  502    0 -0.19952788147E+02 -0.60420230015E+02  0.25554525462E+02  0.68730209672E+02  0.47000000000E+01 0. -1.
         -5    1    1    2    0  502 -0.48177775416E+02  0.61036872558E+02  0.15393396314E+02  0.79408088415E+02  0.47000000000E+01 0. -1.
        -11    1    1    2    0    0  0.49728372171E+02 -0.25154193704E+02  0.32883645787E+02  0.64706866868E+02  0.00000000000E+00 0.  1.
         11    1    1    2    0    0  0.18402191392E+02  0.24537551161E+02 -0.38921934288E+02  0.49554505686E+02  0.00000000000E+00 0. -1.
<mgrwt>
<rscale>  0 0.13470351E+03</rscale>
<asrwt>0</asrwt>
<pdfrwt beam="1">  1        2 0.22869947E-01 0.14236651E+03</pdfrwt>
<pdfrwt beam="2">  1       -2 0.17499234E-01 0.14236651E+03</pdfrwt>
<totfact> 0.59992760E+03</totfact>
</mgrwt>
</event>
<event>
 6    1  0.9263730E-006  0.1595166E+03  0.7546771E-02  0.1205447E+00
         -4   -1    0    0    0  501 -0.00000000000E+00  0.00000000000E+00  0.67255587952E+03  0.67255587952E+03  0.00000000000E+00 0.  1.
          4   -1    0    0  501    0  0.00000000000E+00 -0.00000000000E+00 -0.30265498551E+02  0.30265498551E+02  0.00000000000E+00 0. -1.
          5    1    1    2  502    0 -0.48471086291E+02  0.12878981593E+02  0.23071441069E+02  0.55404835223E+02  0.47000000000E+01 0. -1.
         -5    1    1    2    0  502  0.58597106439E+02  0.49558678951E+02  0.24243838217E+03  0.25433863782E+03  0.47000000000E+01 0.  1.
        -11    1    1    2    0    0 -0.50919205960E+02 -0.43160450995E+02  0.21498600290E+03  0.22511013196E+03  0.00000000000E+00 0.  1.
         11    1    1    2    0    0  0.40793185812E+02 -0.19277209549E+02  0.16179455483E+03  0.16796777307E+03  0.00000000000E+00 0. -1.
<mgrwt>
<rscale>  0 0.14602272E+03</rscale>
<asrwt>0</asrwt>
<pdfrwt beam="2">  1        4 0.46562311E-02 0.15951662E+03</pdfrwt>
<pdfrwt beam="1">  1       -4 0.10347012E+00 0.15951662E+03</pdfrwt>
<totfact> 0.36290059E+02</totfact>
</mgrwt>
</event>
<event>
 6    1  0.9263730E-006  0.1371830E+03  0.7546771E-02  0.1229964E+00
         -2   -1    0    0    0  501 -0.00000000000E+00  0.00000000000E+00  0.11530950626E+03  0.11530950626E+03  0.00000000000E+00 0.  1.
          2   -1    0    0  501    0  0.00000000000E+00 -0.00000000000E+00 -0.14869192631E+03  0.14869192631E+03  0.00000000000E+00 0. -1.
          5    1    1    2  502    0 -0.60065192607E+02  0.15694081026E+02  0.29976822860E+00  0.62260030543E+02  0.47000000000E+01 0. -1.
         -5    1    1    2    0  502  0.20390971858E+02 -0.55939977559E+02 -0.68692430513E+02  0.91026440293E+02  0.47000000000E+01 0. -1.
        -11    1    1    2    0    0  0.24001973051E+02 -0.22766889884E+01  0.55851881321E+02  0.60833466695E+02  0.00000000000E+00 0.  1.
         11    1    1    2    0    0  0.15672247698E+02  0.42522585521E+02 -0.20841639093E+02  0.49881495039E+02  0.00000000000E+00 0. -1.
<mgrwt>
<rscale>  0 0.12832389E+03</rscale>
<asrwt>0</asrwt>
<pdfrwt beam="2">  1        2 0.22875681E-01 0.13718304E+03</pdfrwt>
<pdfrwt beam="1">  1       -2 0.17739924E-01 0.13718304E+03</pdfrwt>
<totfact> 0.58484317E+03</totfact>
</mgrwt>
</event>
<event>
 6    1  0.9263730E-006  0.1253586E+03  0.7546771E-02  0.1243211E+00
         -2   -1    0    0    0  501 -0.00000000000E+00  0.00000000000E+00  0.47977379867E+02  0.47977379867E+02  0.00000000000E+00 0.  1.
          2   -1    0    0  501    0  0.00000000000E+00 -0.00000000000E+00 -0.84437379997E+03  0.84437379997E+03  0.00000000000E+00 0. -1.
          5    1    1    2  502    0  0.67052101382E+02 -0.14424819555E+02 -0.52054765494E+03  0.52506762497E+03  0.47000000000E+01 0. -1.
         -5    1    1    2    0  502 -0.53085687244E+02  0.41531621184E+01 -0.25458232018E+03  0.26013378615E+03  0.47000000000E+01 0.  1.
        -11    1    1    2    0    0 -0.52974678255E+02 -0.18659799193E+02 -0.74528385187E+01  0.56657298243E+02  0.00000000000E+00 0.  1.
         11    1    1    2    0    0  0.39008264118E+02  0.28931456630E+02 -0.13813606459E+02  0.50492470484E+02  0.00000000000E+00 0. -1.
<mgrwt>
<rscale>  0 0.11993106E+03</rscale>
<asrwt>0</asrwt>
<pdfrwt beam="2">  1        2 0.12990365E+00 0.12535860E+03</pdfrwt>
<pdfrwt beam="1">  1       -2 0.73811358E-02 0.12535860E+03</pdfrwt>
<totfact> 0.34648087E+03</totfact>
</mgrwt>
</event>
<event>
 6    1  0.9263730E-006  0.3693348E+03  0.7546771E-02  0.1054948E+00
         -2   -1    0    0    0  501 -0.00000000000E+00  0.00000000000E+00  0.29992934781E+02  0.29992934781E+02  0.00000000000E+00 0.  1.
          2   -1    0    0  501    0  0.00000000000E+00 -0.00000000000E+00 -0.11370024506E+04  0.11370024506E+04  0.00000000000E+00 0. -1.
          5    1    1    2  502    0 -0.13042921340E+03 -0.70387059215E+01 -0.68611940739E+03  0.69845776844E+03  0.47000000000E+01 0. -1.
         -5    1    1    2    0  502 -0.14955084039E+02  0.65814363404E+01 -0.35522240331E+01  0.17368884204E+02  0.47000000000E+01 0. -1.
        -11    1    1    2    0    0  0.40937374830E+02  0.41877095460E+02 -0.12717753596E+03  0.14001316165E+03  0.00000000000E+00 0.  1.
         11    1    1    2    0    0  0.10444692261E+03 -0.41419825879E+02 -0.29016034845E+03  0.31115557111E+03  0.00000000000E+00 0. -1.
<mgrwt>
<rscale>  0 0.36933476E+03</rscale>
<asrwt>0</asrwt>
<pdfrwt beam="2">  1        2 0.17492345E+00 0.36933476E+03</pdfrwt>
<pdfrwt beam="1">  1       -2 0.46142977E-02 0.36933476E+03</pdfrwt>
<totfact> 0.48282624E+03</totfact>
</mgrwt>
</event>
<event>
 6    1  0.9263730E-006  0.3480448E+03  0.7546771E-02  0.1063420E+00
         -1   -1    0    0    0  501 -0.00000000000E+00  0.00000000000E+00  0.15409209807E+03  0.15409209807E+03  0.00000000000E+00 0.  1.
          1   -1    0    0  501    0  0.00000000000E+00 -0.00000000000E+00 -0.19653051606E+03  0.19653051606E+03  0.00000000000E+00 0. -1.
          5    1    1    2  502    0  0.30144953612E+02  0.88457419967E+02 -0.13896913406E+03  0.16753490262E+03  0.47000000000E+01 0. -1.
         -5    1    1    2    0  502  0.97826969055E+00 -0.99599782144E+01  0.24595392773E+02  0.26966303478E+02  0.47000000000E+01 0.  1.
        -11    1    1    2    0    0 -0.46636323470E+02 -0.75187270391E+01 -0.82093384563E+01  0.47946544828E+02  0.00000000000E+00 0. -1.
         11    1    1    2    0    0  0.15513100167E+02 -0.70978714713E+02  0.80144661755E+02  0.10817486319E+03  0.00000000000E+00 0.  1.
<mgrwt>
<rscale>  0 0.34804482E+03</rscale>
<asrwt>0</asrwt>
<pdfrwt beam="2">  1        1 0.30235464E-01 0.34804482E+03</pdfrwt>
<pdfrwt beam="1">  1       -1 0.23706477E-01 0.34804482E+03</pdfrwt>
<totfact> 0.22897101E+03</totfact>
</mgrwt>
</event>
<event>
 6    1  0.9263730E-006  0.1285924E+03  0.7546771E-02  0.1242638E+00
          1   -1    0    0  501    0  0.00000000000E+00  0.00000000000E+00  0.88719470246E+03  0.88719470246E+03  0.00000000000E+00 0. -1.
         -1   -1    0    0    0  501 -0.00000000000E+00 -0.00000000000E+00 -0.62498319810E+02  0.62498319810E+02  0.00000000000E+00 0.  1.
          5    1    1    2  502    0  0.17693847882E+02  0.52244669932E+02  0.18506571626E+03  0.19316828705E+03  0.47000000000E+01 0.  1.
         -5    1    1    2    0  502 -0.36752951052E+02 -0.28840253810E+02  0.65519620833E+03  0.65687647321E+03  0.47000000000E+01 0.  1.
        -11    1    1    2    0    0  0.35435849160E+02  0.27551250851E+02 -0.62005091990E+01  0.45312439170E+02  0.00000000000E+00 0. -1.
         11    1    1    2    0    0 -0.16376745990E+02 -0.50955666973E+02 -0.93650327313E+01  0.54335822842E+02  0.00000000000E+00 0.  1.
<mgrwt>
<rscale>  0 0.12027843E+03</rscale>
<asrwt>0</asrwt>
<pdfrwt beam="1">  1        1 0.13649148E+00 0.12859235E+03</pdfrwt>
<pdfrwt beam="2">  1       -1 0.96151268E-02 0.12859235E+03</pdfrwt>
<totfact> 0.12650102E+03</totfact>
</mgrwt>
</event>
<event>
 6    1  0.9263730E-006  0.3723053E+03  0.7546771E-02  0.1053815E+00
         -1   -1    0    0    0  501 -0.00000000000E+00  0.00000000000E+00  0.42701378085E+02  0.42701378085E+02  0.00000000000E+00 0.  1.
          1   -1    0    0  501    0  0.00000000000E+00 -0.00000000000E+00 -0.81151505601E+03  0.81151505601E+03  0.00000000000E+00 0. -1.
          5    1    1    2  502    0 -0.25740034129E+02  0.29508344921E+02 -0.46118707056E+02  0.60682097174E+02  0.47000000000E+01 0.  1.
         -5    1    1    2    0  502  0.97962207535E+02  0.93684078484E+02 -0.47210254523E+03  0.49119874174E+03  0.47000000000E+01 0.  1.
        -11    1    1    2    0    0  0.53199644069E+01 -0.75728278208E+02 -0.89508873605E+02  0.11736657359E+03  0.00000000000E+00 0.  1.
         11    1    1    2    0    0 -0.77542137813E+02 -0.47464145197E+02 -0.16108355203E+03  0.18496902160E+03  0.00000000000E+00 0. -1.
<mgrwt>
<rscale>  0 0.37230531E+03</rscale>
<asrwt>0</asrwt>
<pdfrwt beam="2">  1        1 0.12484847E+00 0.37230531E+03</pdfrwt>
<pdfrwt beam="1">  1       -1 0.65694427E-02 0.37230531E+03</pdfrwt>
<totfact> 0.26309964E+03</totfact>
</mgrwt>
</event>
<event>
 6    1  0.9263730E-006  0.1367656E+03  0.7546771E-02  0.1229859E+00
         -2   -1    0    0    0  501 -0.00000000000E+00  0.00000000000E+00  0.34468675924E+03  0.34468675924E+03  0.00000000000E+00 0.  1.
          2   -1    0    0  501    0  0.00000000000E+00 -0.00000000000E+00 -0.45159677381E+02  0.45159677381E+02  0.00000000000E+00 0. -1.
          5    1    1    2  502    0 -0.24921263018E+02  0.33800922994E+02  0.28546997468E+02  0.50996007786E+02  0.47000000000E+01 0.  1.
         -5    1    1    2    0  502  0.28257503586E+02 -0.89022202654E+02  0.95089304078E+02  0.13336980477E+03  0.47000000000E+01 0.  1.
        -11    1    1    2    0    0  0.91524339759E+01  0.46962822532E+02  0.18282384298E+03  0.18898103426E+03  0.00000000000E+00 0.  1.
         11    1    1    2    0    0 -0.12488674544E+02  0.82584571271E+01 -0.69330626628E+01  0.16499589809E+02  0.00000000000E+00 0. -1.
<mgrwt>
<rscale>  0 0.12839376E+03</rscale>
<asrwt>0</asrwt>
<pdfrwt beam="2">  1        2 0.69476429E-02 0.13676556E+03</pdfrwt>
<pdfrwt beam="1">  1       -2 0.53028730E-01 0.13676556E+03</pdfrwt>
<totfact> 0.33275166E+03</totfact>
</mgrwt>
</event>
<event>
 6    1  0.9263730E-006  0.2019763E+03  0.7546771E-02  0.1149222E+00
          2   -1    0    0  501    0  0.00000000000E+00  0.00000000000E+00  0.13928383729E+03  0.13928383729E+03  0.00000000000E+00 0. -1.
         -2   -1    0    0    0  501 -0.00000000000E+00 -0.00000000000E+00 -0.31622340113E+03  0.31622340113E+03  0.00000000000E+00 0.  1.
          5    1    1    2  502    0 -0.61836758331E+02  0.24487294488E+02  0.38461036818E+02  0.76972421200E+02  0.47000000000E+01 0.  1.
         -5    1    1    2    0  502 -0.22246632883E+02  0.11004745836E+03 -0.56587256614E+02  0.12581559275E+03  0.47000000000E+01 0.  1.
        -11    1    1    2    0    0  0.46403372865E+02 -0.10856100227E+03 -0.16869010860E+03  0.20590074543E+03  0.00000000000E+00 0.  1.
         11    1    1    2    0    0  0.37680018349E+02 -0.25973750582E+02  0.98767645598E+01  0.46818479047E+02  0.00000000000E+00 0. -1.
<mgrwt>
<rscale>  0 0.20061454E+03</rscale>
<asrwt>0</asrwt>
<pdfrwt beam="1">  1        2 0.21428283E-01 0.20197628E+03</pdfrwt>
<pdfrwt beam="2">  1       -2 0.48649754E-01 0.20197628E+03</pdfrwt>
<totfact> 0.10339618E+03</totfact>
</mgrwt>
</event>
<event>
 6    1  0.9263730E-006  0.1445913E+03  0.7546771E-02  0.1225532E+00
          1   -1    0    0  501    0  0.00000000000E+00  0.00000000000E+00  0.50474320593E+02  0.50474320593E+02  0.00000000000E+00 0. -1.
         -1   -1    0    0    0  501 -0.00000000000E+00 -0.00000000000E+00 -0.31628420211E+03  0.31628420211E+03  0.00000000000E+00 0.  1.
          5    1    1    2  502    0  0.42323258847E+02  0.21518548847E+02  0.14644349535E+02  0.49908447754E+02  0.47000000000E+01 0. -1.
         -5    1    1    2    0  502 -0.44547326798E+02  0.10961830542E+02 -0.12127977473E+03  0.12975168520E+03  0.47000000000E+01 0.  1.
        -11    1    1    2    0    0  0.20894299184E+02 -0.59655123083E+02 -0.84996024227E+02  0.10592275290E+03  0.00000000000E+00 0. -1.
         11    1    1    2    0    0 -0.18670231234E+02  0.27174743694E+02 -0.74178432098E+02  0.81175636848E+02  0.00000000000E+00 0.  1.
<mgrwt>
<rscale>  0 0.13130493E+03</rscale>
<asrwt>0</asrwt>
<pdfrwt beam="1">  1        1 0.77652800E-02 0.14459132E+03</pdfrwt>
<pdfrwt beam="2">  1       -1 0.48659108E-01 0.14459132E+03</pdfrwt>
<totfact> 0.37694273E+03</totfact>
</mgrwt>
</event>
<event>
 6    1  0.9263730E-006  0.1263787E+03  0.7546771E-02  0.1250965E+00
         -1   -1    0    0    0  501 -0.00000000000E+00  0.00000000000E+00  0.86743842623E+02  0.86743842623E+02  0.00000000000E+00 0.  1.
          1   -1    0    0  501    0  0.00000000000E+00 -0.00000000000E+00 -0.13227960086E+03  0.13227960086E+03  0.00000000000E+00 0. -1.
          5    1    1    2  502    0  0.52209773319E+02  0.22159240454E+01  0.16572907541E+02  0.55022922622E+02  0.47000000000E+01 0. -1.
         -5    1    1    2    0  502 -0.55801857979E+02  0.16033324189E+02 -0.47305691184E+02  0.75038878302E+02  0.47000000000E+01 0. -1.
        -11    1    1    2    0    0  0.42491337059E+02 -0.59451164139E+01  0.57319527239E+01  0.43286411450E+02  0.00000000000E+00 0.  1.
         11    1    1    2    0    0 -0.38899252399E+02 -0.12304131820E+02 -0.20534927322E+02  0.45675231112E+02  0.00000000000E+00 0. -1.
<mgrwt>
<rscale>  0 0.11535375E+03</rscale>
<asrwt>0</asrwt>
<pdfrwt beam="2">  1        1 0.20350708E-01 0.12637867E+03</pdfrwt>
<pdfrwt beam="1">  1       -1 0.13345207E-01 0.12637867E+03</pdfrwt>
<totfact> 0.90598455E+03</totfact>
</mgrwt>
</event>
<event>
 6    1  0.9263730E-006  0.1286313E+03  0.7546771E-02  0.1244184E+00
          2   -1    0    0  501    0  0.00000000000E+00  0.00000000000E+00  0.10729608412E+04  0.10729608412E+04  0.00000000000E+00 0. -1.
         -2   -1    0    0    0  501 -0.00000000000E+00 -0.00000000000E+00 -0.11696108028E+02  0.11696108028E+02  0.00000000000E+00 0.  1.
          5    1    1    2  502    0  0.33830326370E+02 -0.68137739883E+02  0.47481031876E+03  0.48088893872E+03  0.47000000000E+01 0.  1.
         -5    1    1    2    0  502 -0.16413445802E+02  0.43281635054E+02  0.15105719257E+03  0.15806032571E+03  0.47000000000E+01 0.  1.
        -11    1    1    2    0    0 -0.13407789587E+02  0.59161180061E+02  0.26685341940E+03  0.27366139935E+03  0.00000000000E+00 0.  1.
         11    1    1    2    0    0 -0.40090909805E+01 -0.34305075232E+02  0.16854380244E+03  0.17204628545E+03  0.00000000000E+00 0. -1.
<mgrwt>
<rscale>  0 0.11934337E+03</rscale>
<asrwt>0</asrwt>
<pdfrwt beam="1">  1        2 0.16507082E+00 0.12863134E+03</pdfrwt>
<pdfrwt beam="2">  1       -2 0.17994021E-02 0.12863134E+03</pdfrwt>
<totfact> 0.20372772E+04</totfact>
</mgrwt>
</event>
<event>
 6    1  0.9263730E-006  0.1942515E+03  0.7546771E-02  0.1182011E+00
         -1   -1    0    0    0  501 -0.00000000000E+00  0.00000000000E+00  0.28074183192E+02  0.28074183192E+02  0.00000000000E+00 0.  1.
          1   -1    0    0  501    0  0.00000000000E+00 -0.00000000000E+00 -0.81034922114E+03  0.81034922114E+03  0.00000000000E+00 0. -1.
          5    1    1    2  502    0  0.54829312063E+02 -0.39560883632E+02 -0.21054769370E+03  0.22118711151E+03  0.47000000000E+01 0. -1.
         -5    1    1    2    0  502 -0.10412556116E+03  0.71352484371E+02 -0.35846560557E+03  0.38006971714E+03  0.47000000000E+01 0.  1.
        -11    1    1    2    0    0  0.44264258056E+02 -0.41906551419E+02 -0.21689643618E+03  0.22529879631E+03  0.00000000000E+00 0. -1.
         11    1    1    2    0    0  0.50319910378E+01  0.10114950680E+02  0.36346975062E+01  0.11867779363E+02  0.00000000000E+00 0.  1.
<mgrwt>
<rscale>  0 0.16606847E+03</rscale>
<asrwt>0</asrwt>
<pdfrwt beam="2">  1        1 0.12466912E+00 0.19425148E+03</pdfrwt>
<pdfrwt beam="1">  1       -1 0.43191047E-02 0.19425148E+03</pdfrwt>
<totfact> 0.48859628E+03</totfact>
</mgrwt>
</event>
<event>
 6    1  0.9263730E-006  0.1386657E+03  0.7546771E-02  0.1224275E+00
         -2   -1    0    0    0  501 -0.00000000000E+00  0.00000000000E+00  0.25555179584E+02  0.25555179584E+02  0.00000000000E+00 0.  1.
          2   -1    0    0  501    0  0.00000000000E+00 -0.00000000000E+00 -0.18157227549E+04  0.18157227549E+04  0.00000000000E+00 0. -1.
          5    1    1    2  502    0 -0.55072588732E+02  0.17973786570E+02 -0.64638243003E+03  0.64899027950E+03  0.47000000000E+01 0.  1.
         -5    1    1    2    0  502  0.31735890787E+02 -0.73542114575E+02 -0.10220914117E+04  0.10252358525E+04  0.47000000000E+01 0.  1.
        -11    1    1    2    0    0  0.21505878225E+02  0.72043587927E+02 -0.12870271266E+03  0.14905425055E+03  0.00000000000E+00 0. -1.
         11    1    1    2    0    0  0.18308197203E+01 -0.16475259922E+02  0.70089790302E+01  0.17997551983E+02  0.00000000000E+00 0.  1.
<mgrwt>
<rscale>  0 0.13216701E+03</rscale>
<asrwt>0</asrwt>
<pdfrwt beam="2">  1        2 0.27934208E+00 0.13866572E+03</pdfrwt>
<pdfrwt beam="1">  1       -2 0.39315645E-02 0.13866572E+03</pdfrwt>
<totfact> 0.26244519E+03</totfact>
</mgrwt>
</event>
<event>
 6    1  0.9263730E-006  0.1509374E+03  0.7546771E-02  0.1207936E+00
         -2   -1    0    0    0  501 -0.00000000000E+00  0.00000000000E+00  0.23225914806E+02  0.23225914806E+02  0.00000000000E+00 0. -1.
          2   -1    0    0  501    0  0.00000000000E+00 -0.00000000000E+00 -0.82816985054E+03  0.82816985054E+03  0.00000000000E+00 0.  1.
          5    1    1    2  502    0  0.37007700107E+02  0.17951874149E+01 -0.40063635077E+03  0.40237341876E+03  0.47000000000E+01 0.  1.
         -5    1    1    2    0  502  0.24821771027E+02  0.55959671934E+02 -0.76638115266E+02  0.98199266349E+02  0.47000000000E+01 0.  1.
        -11    1    1    2    0    0 -0.74881674477E+01  0.13571327231E+02 -0.55624558918E+01  0.16467983790E+02  0.00000000000E+00 0. -1.
         11    1    1    2    0    0 -0.54341303687E+02 -0.71326186580E+02 -0.32210701380E+03  0.33435509644E+03  0.00000000000E+00 0.  1.
<mgrwt>
<rscale>  0 0.14408478E+03</rscale>
<asrwt>0</asrwt>
<pdfrwt beam="2">  1        2 0.12741076E+00 0.15093739E+03</pdfrwt>
<pdfrwt beam="1">  1       -2 0.35732173E-02 0.15093739E+03</pdfrwt>
<totfact> 0.10674945E+04</totfact>
</mgrwt>
</event>
<event>
 6    1  0.9263730E-006  0.2608710E+03  0.7546771E-02  0.1106621E+00
          3   -1    0    0  501    0  0.00000000000E+00  0.00000000000E+00  0.70009005022E+03  0.70009005022E+03  0.00000000000E+00 0. -1.
         -3   -1    0    0    0  501 -0.00000000000E+00 -0.00000000000E+00 -0.24301754227E+02  0.24301754227E+02  0.00000000000E+00 0.  1.
          5    1    1    2  502    0  0.19713621899E+02 -0.51421882744E+02  0.43135174332E+03  0.43487843517E+03  0.47000000000E+01 0.  1.
         -5    1    1    2    0  502 -0.72213675923E+01 -0.16091194374E+02 -0.13147019661E+01  0.18300085452E+02  0.47000000000E+01 0.  1.
        -11    1    1    2    0    0 -0.38250370722E+02  0.39055343815E+02  0.58492662426E+02  0.80061240926E+02  0.00000000000E+00 0.  1.
         11    1    1    2    0    0  0.25758116415E+02  0.28457733303E+02  0.18725859221E+03  0.19115204290E+03  0.00000000000E+00 0. -1.
<mgrwt>
<rscale>  0 0.26087097E+03</rscale>
<asrwt>0</asrwt>
<pdfrwt beam="1">  1        3 0.10770615E+00 0.26087097E+03</pdfrwt>
<pdfrwt beam="2">  1       -3 0.37387319E-02 0.26087097E+03</pdfrwt>
<totfact> 0.69646552E+02</totfact>
</mgrwt>
</event>
<event>
 6    1  0.9263730E-006  0.2624821E+03  0.7546771E-02  0.1108196E+00
         -1   -1    0    0    0  501 -0.00000000000E+00  0.00000000000E+00  0.24285075315E+03  0.24285075315E+03  0.00000000000E+00 0.  1.
          1   -1    0    0  501    0  0.00000000000E+00 -0.00000000000E+00 -0.27262800606E+03  0.27262800606E+03  0.00000000000E+00 0. -1.
          5    1    1    2  502    0 -0.44275927054E+02  0.12266117619E+03  0.64311296941E+02  0.14547905270E+03  0.47000000000E+01 0. -1.
         -5    1    1    2    0  502 -0.90026149883E+02  0.65054080696E+02 -0.39951179261E+02  0.11813097732E+03  0.47000000000E+01 0. -1.
        -11    1    1    2    0    0  0.95439587019E+02 -0.85559504554E+02  0.36623485632E+01  0.12822853188E+03  0.00000000000E+00 0.  1.
         11    1    1    2    0    0  0.38862489918E+02 -0.10215575233E+03 -0.57799719154E+02  0.12364019731E+03  0.00000000000E+00 0. -1.
<mgrwt>
<rscale>  0 0.25825600E+03</rscale>
<asrwt>0</asrwt>
<pdfrwt beam="2">  1        1 0.41942770E-01 0.26248206E+03</pdfrwt>
<pdfrwt beam="1">  1       -1 0.37361654E-01 0.26248206E+03</pdfrwt>
<totfact> 0.69181498E+02</totfact>
</mgrwt>
</event>
<event>
 6    1  0.9263730E-006  0.1266262E+03  0.7546771E-02  0.1241371E+00
         -1   -1    0    0    0  501 -0.00000000000E+00  0.00000000000E+00  0.42152028153E+03  0.42152028153E+03  0.00000000000E+00 0.  1.
          1   -1    0    0  501    0  0.00000000000E+00 -0.00000000000E+00 -0.58474182076E+02  0.58474182076E+02  0.00000000000E+00 0. -1.
          5    1    1    2  502    0  0.39053257886E+02 -0.35400813661E+02  0.52657882196E+01  0.53180758597E+02  0.47000000000E+01 0. -1.
         -5    1    1    2    0  502 -0.55834601918E+02  0.46670683574E+02  0.24144086468E+02  0.76815899317E+02  0.47000000000E+01 0. -1.
        -11    1    1    2    0    0 -0.41056395313E+02  0.32977921374E+00  0.84142829612E+02  0.93625595461E+02  0.00000000000E+00 0. -1.
         11    1    1    2    0    0  0.57837739344E+02 -0.11599649126E+02  0.24949339515E+03  0.25637221023E+03  0.00000000000E+00 0.  1.
<mgrwt>
<rscale>  0 0.12105250E+03</rscale>
<asrwt>0</asrwt>
<pdfrwt beam="2">  1        1 0.89960283E-02 0.12662618E+03</pdfrwt>
<pdfrwt beam="1">  1       -1 0.64849272E-01 0.12662618E+03</pdfrwt>
<totfact> 0.17962454E+03</totfact>
</mgrwt>
</event>
<event>
 6    1  0.9263730E-006  0.1574667E+03  0.7546771E-02  0.1199724E+00
         -2   -1    0    0    0  501 -0.00000000000E+00  0.00000000000E+00  0.10231723906E+02  0.10231723906E+02  0.00000000000E+00 0.  1.
          2   -1    0    0  501    0  0.00000000000E+00 -0.00000000000E+00 -0.22043163849E+04  0.22043163849E+04  0.00000000000E+00 0. -1.
          5    1    1    2  502    0  0.11579910954E+03  0.11848450926E+02 -0.86538858913E+03  0.87319489219E+03  0.47000000000E+01 0.  1.
         -5    1    1    2    0  502 -0.20082229555E+02 -0.14844960934E+02 -0.61923486521E+03  0.61975606258E+03  0.47000000000E+01 0.  1.
        -11    1    1    2    0    0 -0.93043460916E+02 -0.30557756853E+02 -0.51051797291E+03  0.51982637754E+03  0.00000000000E+00 0. -1.
         11    1    1    2    0    0 -0.26734190680E+01  0.33554266862E+02 -0.19894323376E+03  0.20177077651E+03  0.00000000000E+00 0.  1.
<mgrwt>
<rscale>  0 0.15061141E+03</rscale>
<asrwt>0</asrwt>
<pdfrwt beam="2">  1        2 0.33912579E+00 0.15746667E+03</pdfrwt>
<pdfrwt beam="1">  1       -2 0.15741105E-02 0.15746667E+03</pdfrwt>
<totfact> 0.63359163E+03</totfact>
</mgrwt>
</event>
<event>
 6    1  0.9263730E-006  0.2577649E+03  0.7546771E-02  0.1110870E+00
          2   -1    0    0  501    0  0.00000000000E+00  0.00000000000E+00  0.72963182581E+03  0.72963182581E+03  0.00000000000E+00 0. -1.
         -2   -1    0    0    0  501 -0.00000000000E+00 -0.00000000000E+00 -0.88580306881E+02  0.88580306881E+02  0.00000000000E+00 0.  1.
          5    1    1    2  502    0  0.58710332001E+02 -0.16833006115E+03  0.19827867276E+03  0.26668039793E+03  0.47000000000E+01 0.  1.
         -5    1    1    2    0  502 -0.12915362954E+02 -0.52396002557E+02  0.20421974812E+03  0.21128166793E+03  0.47000000000E+01 0.  1.
        -11    1    1    2    0    0 -0.18071487651E+02  0.18414730252E+02 -0.56199857137E+00  0.25806913774E+02  0.00000000000E+00 0.  1.
         11    1    1    2    0    0 -0.27723481396E+02  0.20231133346E+03  0.23911509662E+03  0.31444315304E+03  0.00000000000E+00 0. -1.
<mgrwt>
<rscale>  0 0.25389125E+03</rscale>
<asrwt>0</asrwt>
<pdfrwt beam="1">  1        2 0.11225105E+00 0.25776493E+03</pdfrwt>
<pdfrwt beam="2">  1       -2 0.13627740E-01 0.25776493E+03</pdfrwt>
<totfact> 0.15983587E+03</totfact>
</mgrwt>
</event>
<event>
 6    1  0.9263730E-006  0.1278277E+03  0.7546771E-02  0.1244943E+00
         -2   -1    0    0    0  501 -0.00000000000E+00  0.00000000000E+00  0.54693840835E+02  0.54693840835E+02  0.00000000000E+00 0.  1.
          2   -1    0    0  501    0  0.00000000000E+00 -0.00000000000E+00 -0.24117528471E+03  0.24117528471E+03  0.00000000000E+00 0. -1.
          5    1    1    2  502    0  0.19745207341E+01  0.29993613286E+02 -0.12803900323E+03  0.13160392061E+03  0.47000000000E+01 0. -1.
         -5    1    1    2    0  502  0.23107067562E+01 -0.56387394948E+02 -0.11783001257E+02  0.57842949383E+02  0.47000000000E+01 0. -1.
        -11    1    1    2    0    0 -0.27316342902E+02  0.53314675773E+02 -0.25110920424E+02  0.64955335169E+02  0.00000000000E+00 0.  1.
         11    1    1    2    0    0  0.23031115412E+02 -0.26920894112E+02 -0.21548518957E+02  0.41466920384E+02  0.00000000000E+00 0. -1.
<mgrwt>
<rscale>  0 0.11888801E+03</rscale>
<asrwt>0</asrwt>
<pdfrwt beam="2">  1        2 0.37103890E-01 0.12782771E+03</pdfrwt>
<pdfrwt beam="1">  1       -2 0.84144369E-02 0.12782771E+03</pdfrwt>
<totfact> 0.11356382E+04</totfact>
</mgrwt>
</event>
<event>
 6    1  0.9263730E-006  0.1398495E+03  0.7546771E-02  0.1224424E+00
         -1   -1    0    0    0  501 -0.00000000000E+00  0.00000000000E+00  0.17897685928E+02  0.17897685928E+02  0.00000000000E+00 0.  1.
          1   -1    0    0  501    0  0.00000000000E+00 -0.00000000000E+00 -0.10495797166E+04  0.10495797166E+04  0.00000000000E+00 0. -1.
          5    1    1    2  502    0  0.66624371979E+01 -0.99478139018E+02 -0.52731963563E+03  0.53668275204E+03  0.47000000000E+01 0. -1.
         -5    1    1    2    0  502  0.79377161644E+01  0.38489506124E+02 -0.25094934405E+03  0.25405139775E+03  0.47000000000E+01 0. -1.
        -11    1    1    2    0    0 -0.55782425826E+01  0.52113384901E+02 -0.25800933899E+03  0.26327882687E+03  0.00000000000E+00 0. -1.
         11    1    1    2    0    0 -0.90219107797E+01  0.88752479932E+01  0.45962879821E+01  0.13464425880E+02  0.00000000000E+00 0.  1.
<mgrwt>
<rscale>  0 0.13206449E+03</rscale>
<asrwt>0</asrwt>
<pdfrwt beam="2">  1        1 0.16147378E+00 0.13984953E+03</pdfrwt>
<pdfrwt beam="1">  1       -1 0.27534905E-02 0.13984953E+03</pdfrwt>
<totfact> 0.61314122E+03</totfact>
</mgrwt>
</event>
<event>
 6    1  0.9263730E-006  0.1366570E+03  0.7546771E-02  0.1229094E+00
          2   -1    0    0  501    0  0.00000000000E+00  0.00000000000E+00  0.44685308493E+03  0.44685308493E+03  0.00000000000E+00 0. -1.
         -2   -1    0    0    0  501 -0.00000000000E+00 -0.00000000000E+00 -0.37570880875E+02  0.37570880875E+02  0.00000000000E+00 0.  1.
          5    1    1    2  502    0  0.31796096712E+02  0.23837555224E+02  0.59564439627E+02  0.71758158234E+02  0.47000000000E+01 0.  1.
         -5    1    1    2    0  502 -0.57857872373E+02 -0.72653121616E+02  0.24520332887E+03  0.26224563288E+03  0.47000000000E+01 0.  1.
        -11    1    1    2    0    0  0.56162187617E+02  0.47473720186E+02  0.92037919292E+02  0.11780884523E+03  0.00000000000E+00 0. -1.
         11    1    1    2    0    0 -0.30100411955E+02  0.13418462058E+01  0.12476516264E+02  0.32611329461E+02  0.00000000000E+00 0.  1.
<mgrwt>
<rscale>  0 0.12890238E+03</rscale>
<asrwt>0</asrwt>
<pdfrwt beam="1">  1        2 0.68746625E-01 0.13665702E+03</pdfrwt>
<pdfrwt beam="2">  1       -2 0.57801358E-02 0.13665702E+03</pdfrwt>
<totfact> 0.10521077E+04</totfact>
</mgrwt>
</event>
<event>
 6    1  0.9263730E-006  0.1618091E+03  0.7546771E-02  0.1213087E+00
          1   -1    0    0  501    0  0.00000000000E+00  0.00000000000E+00  0.23637133756E+03  0.23637133756E+03  0.00000000000E+00 0. -1.
         -1   -1    0    0    0  501 -0.00000000000E+00 -0.00000000000E+00 -0.12101955378E+03  0.12101955378E+03  0.00000000000E+00 0.  1.
          5    1    1    2  502    0 -0.38351763488E+02 -0.31266835274E+02  0.20778248770E+03  0.21364485705E+03  0.47000000000E+01 0. -1.
         -5    1    1    2    0  502  0.16526765282E+02  0.97970452264E+00 -0.25075077919E+02  0.30412880894E+02  0.47000000000E+01 0.  1.
        -11    1    1    2    0    0 -0.12347531885E+02 -0.23408686816E+02 -0.12327628537E+02  0.29195865930E+02  0.00000000000E+00 0. -1.
         11    1    1    2    0    0  0.34172530090E+02  0.53695817567E+02 -0.55027997461E+02  0.84137287462E+02  0.00000000000E+00 0.  1.
<mgrwt>
<rscale>  0 0.14018024E+03</rscale>
<asrwt>0</asrwt>
<pdfrwt beam="1">  1        1 0.36364821E-01 0.16180909E+03</pdfrwt>
<pdfrwt beam="2">  1       -1 0.18618393E-01 0.16180909E+03</pdfrwt>
<totfact> 0.26292078E+03</totfact>
</mgrwt>
</event>
<event>
 6    1  0.9263730E-006  0.2980411E+03  0.7546771E-02  0.1086224E+00
          2   -1    0    0  501    0  0.00000000000E+00  0.00000000000E+00  0.52837288801E+03  0.52837288801E+03  0.00000000000E+00 0. -1.
         -2   -1    0    0    0  501 -0.00000000000E+00 -0.00000000000E+00 -0.42029257066E+02  0.42029257066E+02  0.00000000000E+00 0.  1.
          5    1    1    2  502    0 -0.82213409569E-01 -0.36741719563E+02  0.72651667919E+02  0.81549466994E+02  0.47000000000E+01 0. -1.
         -5    1    1    2    0  502 -0.86253912858E+02  0.87929296379E+02  0.23538724628E+03  0.26570762947E+03  0.47000000000E+01 0. -1.
        -11    1    1    2    0    0  0.49130205870E+02 -0.24492682285E+02  0.16726203432E+03  0.17604049744E+03  0.00000000000E+00 0. -1.
         11    1    1    2    0    0  0.37205920398E+02 -0.26694894530E+02  0.11042682428E+02  0.47104551179E+02  0.00000000000E+00 0.  1.
<mgrwt>
<rscale>  0 0.29804107E+03</rscale>
<asrwt>0</asrwt>
<pdfrwt beam="1">  1        2 0.81288132E-01 0.29804107E+03</pdfrwt>
<pdfrwt beam="2">  1       -2 0.64660399E-02 0.29804107E+03</pdfrwt>
<totfact> 0.76950474E+03</totfact>
</mgrwt>
</event>
<event>
 6    1  0.9263730E-006  0.1256229E+03  0.7546771E-02  0.1250318E+00
          3   -1    0    0  501    0  0.00000000000E+00  0.00000000000E+00  0.14388975794E+03  0.14388975794E+03  0.00000000000E+00 0. -1.
         -3   -1    0    0    0  501 -0.00000000000E+00 -0.00000000000E+00 -0.86555234509E+02  0.86555234509E+02  0.00000000000E+00 0.  1.
          5    1    1    2  502    0 -0.59912652807E+02 -0.16841915791E+02  0.34494297730E+02  0.71310046065E+02  0.47000000000E+01 0.  1.
         -5    1    1    2    0  502  0.55905517004E+02  0.28698034372E+02  0.27015134868E+02  0.68563193626E+02  0.47000000000E+01 0.  1.
        -11    1    1    2    0    0 -0.26193187738E+02 -0.38701386432E+02 -0.14382844933E+02  0.48895261775E+02  0.00000000000E+00 0.  1.
         11    1    1    2    0    0  0.30200323542E+02  0.26845267850E+02  0.10207935765E+02  0.41676490982E+02  0.00000000000E+00 0. -1.
<mgrwt>
<rscale>  0 0.11572690E+03</rscale>
<asrwt>0</asrwt>
<pdfrwt beam="1">  1        3 0.22136886E-01 0.12562290E+03</pdfrwt>
<pdfrwt beam="2">  1       -3 0.13316190E-01 0.12562290E+03</pdfrwt>
<totfact> 0.19279758E+03</totfact>
</mgrwt>
</event>
<event>
 6    1  0.9263730E-006  0.3297905E+03  0.7546771E-02  0.1071230E+00
          2   -1    0    0  501    0  0.00000000000E+00  0.00000000000E+00  0.17953329249E+04  0.17953329249E+04  0.00000000000E+00 0. -1.
         -2   -1    0    0    0  501 -0.00000000000E+00 -0.00000000000E+00 -0.15145067384E+02  0.15145067384E+02  0.00000000000E+00 0.  1.
          5    1    1    2  502    0 -0.15424755764E+02  0.29610840852E+02  0.45762172220E+03  0.45886213138E+03  0.47000000000E+01 0. -1.
         -5    1    1    2    0  502 -0.10053517229E+02 -0.11694512323E+03  0.95688777343E+03  0.96407133346E+03  0.47000000000E+01 0. -1.
        -11    1    1    2    0    0 -0.29685200744E+02  0.41743243881E+02  0.99461036192E+02  0.11187585653E+03  0.00000000000E+00 0.  1.
         11    1    1    2    0    0  0.55163473737E+02  0.45591038496E+02  0.26621732565E+03  0.27566867087E+03  0.00000000000E+00 0. -1.
<mgrwt>
<rscale>  0 0.32979047E+03</rscale>
<asrwt>0</asrwt>
<pdfrwt beam="1">  1        2 0.27620490E+00 0.32979047E+03</pdfrwt>
<pdfrwt beam="2">  1       -2 0.23300118E-02 0.32979047E+03</pdfrwt>
<totfact> 0.58773832E+03</totfact>
</mgrwt>
</event>
<event>
 6    1  0.9263730E-006  0.2890460E+03  0.7546771E-02  0.1090848E+00
          1   -1    0    0  501    0  0.00000000000E+00  0.00000000000E+00  0.59040082815E+03  0.59040082815E+03  0.00000000000E+00 0. -1.
         -1   -1    0    0    0  501 -0.00000000000E+00 -0.00000000000E+00 -0.35377479655E+02  0.35377479655E+02  0.00000000000E+00 0.  1.
          5    1    1    2  502    0 -0.14096360387E+02  0.49860949005E+01 -0.74431248255E+01  0.17351041055E+02  0.47000000000E+01 0.  1.
         -5    1    1    2    0  502 -0.65224513291E+02  0.60811096514E+02  0.35577761313E+03  0.36681334027E+03  0.47000000000E+01 0.  1.
        -11    1    1    2    0    0  0.64138309266E+02 -0.72255994129E+01  0.11089927363E+03  0.12831438304E+03  0.00000000000E+00 0.  1.
         11    1    1    2    0    0  0.15182564412E+02 -0.58571592002E+02  0.95789586562E+02  0.11329954345E+03  0.00000000000E+00 0. -1.
<mgrwt>
<rscale>  0 0.28904597E+03</rscale>
<asrwt>0</asrwt>
<pdfrwt beam="1">  1        1 0.90830890E-01 0.28904597E+03</pdfrwt>
<pdfrwt beam="2">  1       -1 0.54426896E-02 0.28904597E+03</pdfrwt>
<totfact> 0.55608564E+03</totfact>
</mgrwt>
</event>
<event>
 6    1  0.9263730E-006  0.2335824E+03  0.7546771E-02  0.1124143E+00
         -1   -1    0    0    0  501 -0.00000000000E+00  0.00000000000E+00  0.64023380724E+02  0.64023380724E+02  0.00000000000E+00 0.  1.
          1   -1    0    0  501    0  0.00000000000E+00 -0.00000000000E+00 -0.21305008506E+03  0.21305008506E+03  0.00000000000E+00 0. -1.
          5    1    1    2  502    0  0.34904248627E+02  0.31618017765E+02 -0.12931443351E+03  0.13770373392E+03  0.47000000000E+01 0. -1.
         -5    1    1    2    0  502  0.38903278965E+01 -0.16658264323E+02  0.24774708605E+02  0.30471439215E+02  0.47000000000E+01 0. -1.
        -11    1    1    2    0    0 -0.25536882601E+02  0.34602411282E+01 -0.70094264689E+02  0.74681400521E+02  0.00000000000E+00 0. -1.
         11    1    1    2    0    0 -0.13257693922E+02 -0.18419994571E+02  0.25607285266E+02  0.34216892127E+02  0.00000000000E+00 0.  1.
<mgrwt>
<rscale>  0 0.23358242E+03</rscale>
<asrwt>0</asrwt>
<pdfrwt beam="2">  1        1 0.32776936E-01 0.23358242E+03</pdfrwt>
<pdfrwt beam="1">  1       -1 0.98497509E-02 0.23358242E+03</pdfrwt>
<totfact> 0.82909262E+03</totfact>
</mgrwt>
</event>
<event>
 6    1  0.9263730E-006  0.2222730E+03  0.7546771E-02  0.1135473E+00
         -2   -1    0    0    0  501 -0.00000000000E+00  0.00000000000E+00  0.55684473945E+02  0.55684473945E+02  0.00000000000E+00 0.  1.
          2   -1    0    0  501    0  0.00000000000E+00 -0.00000000000E+00 -0.82784598893E+03  0.82784598893E+03  0.00000000000E+00 0. -1.
          5    1    1    2  502    0  0.76197465945E+02  0.14550392102E+03 -0.25875917127E+03  0.30652217467E+03  0.47000000000E+01 0. -1.
         -5    1    1    2    0  502 -0.27953710398E+02  0.31844653855E+02 -0.18428951938E+03  0.18915657233E+03  0.47000000000E+01 0. -1.
        -11    1    1    2    0    0 -0.31310712519E+02 -0.80944375027E+02 -0.24100980367E+03  0.25616025849E+03  0.00000000000E+00 0. -1.
         11    1    1    2    0    0 -0.16933043029E+02 -0.96404199851E+02 -0.88103020671E+02  0.13169145738E+03  0.00000000000E+00 0.  1.
<mgrwt>
<rscale>  0 0.21788028E+03</rscale>
<asrwt>0</asrwt>
<pdfrwt beam="2">  1        2 0.12736092E+00 0.22227298E+03</pdfrwt>
<pdfrwt beam="1">  1       -2 0.85668419E-02 0.22227298E+03</pdfrwt>
<totfact> 0.28639119E+03</totfact>
</mgrwt>
</event>
<event>
 6    1  0.9263730E-006  0.1148708E+03  0.7546771E-02  0.1260532E+00
         -1   -1    0    0    0  501 -0.00000000000E+00  0.00000000000E+00  0.60158913809E+02  0.60158913809E+02  0.00000000000E+00 0.  1.
          1   -1    0    0  501    0  0.00000000000E+00 -0.00000000000E+00 -0.88431808264E+03  0.88431808264E+03  0.00000000000E+00 0. -1.
          5    1    1    2  502    0  0.61029687694E+02  0.82053946422E+00 -0.33547350828E+03  0.34101299216E+03  0.47000000000E+01 0. -1.
         -5    1    1    2    0  502 -0.42918725814E+02 -0.21109116700E+02 -0.50339761786E+03  0.50568652691E+03  0.47000000000E+01 0.  1.
        -11    1    1    2    0    0  0.90512631711E+01 -0.17803602865E+02 -0.28023599325E+02  0.34412436111E+02  0.00000000000E+00 0. -1.
         11    1    1    2    0    0 -0.27162225051E+02  0.38092180100E+02  0.42735556630E+02  0.63365041269E+02  0.00000000000E+00 0.  1.
<mgrwt>
<rscale>  0 0.11002057E+03</rscale>
<asrwt>0</asrwt>
<pdfrwt beam="2">  1        1 0.13604894E+00 0.11487084E+03</pdfrwt>
<pdfrwt beam="1">  1       -1 0.92552171E-02 0.11487084E+03</pdfrwt>
<totfact> 0.13458652E+03</totfact>
</mgrwt>
</event>
<event>
 6    1  0.9263730E-006  0.1262161E+03  0.7546771E-02  0.1248627E+00
         -1   -1    0    0    0  501 -0.00000000000E+00  0.00000000000E+00  0.32783131170E+02  0.32783131170E+02  0.00000000000E+00 0.  1.
          1   -1    0    0  501    0  0.00000000000E+00 -0.00000000000E+00 -0.40562871145E+03  0.40562871145E+03  0.00000000000E+00 0. -1.
          5    1    1    2  502    0  0.54533199575E+02  0.20753220644E+02 -0.21915724736E+03  0.22684037359E+03  0.47000000000E+01 0. -1.
         -5    1    1    2    0  502 -0.41407098189E+02 -0.32457471046E+02 -0.62684891144E+02  0.81972683163E+02  0.47000000000E+01 0. -1.
        -11    1    1    2    0    0  0.20998532893E+02  0.34966089670E+02 -0.15681221273E+02  0.43697442844E+02  0.00000000000E+00 0.  1.
         11    1    1    2    0    0 -0.34124634280E+02 -0.23261839268E+02 -0.75322220513E+02  0.85901343027E+02  0.00000000000E+00 0. -1.
<mgrwt>
<rscale>  0 0.11670898E+03</rscale>
<asrwt>0</asrwt>
<pdfrwt beam="2">  1        1 0.62404418E-01 0.12621614E+03</pdfrwt>
<pdfrwt beam="1">  1       -1 0.50435586E-02 0.12621614E+03</pdfrwt>
<totfact> 0.97635982E+03</totfact>
</mgrwt>
</event>
<event>
 6    1  0.9263730E-006  0.1232899E+03  0.7546771E-02  0.1248818E+00
         -4   -1    0    0    0  501 -0.00000000000E+00  0.00000000000E+00  0.17684123354E+03  0.17684123354E+03  0.00000000000E+00 0.  1.
          4   -1    0    0  501    0  0.00000000000E+00 -0.00000000000E+00 -0.77727992051E+02  0.77727992051E+02  0.00000000000E+00 0. -1.
          5    1    1    2  502    0 -0.13569538386E+02 -0.70961855589E+02 -0.15074284038E+02  0.73952967215E+02  0.47000000000E+01 0. -1.
         -5    1    1    2    0  502 -0.46258672088E+01  0.40529729805E+02  0.28676869652E+02  0.50085032680E+02  0.47000000000E+01 0.  1.
        -11    1    1    2    0    0  0.32835151461E+02  0.42343331444E+02  0.12366280446E+02  0.54991179123E+02  0.00000000000E+00 0.  1.
         11    1    1    2    0    0 -0.14639745867E+02 -0.11911205661E+02  0.73144375433E+02  0.75540046576E+02  0.00000000000E+00 0. -1.
<mgrwt>
<rscale>  0 0.11659749E+03</rscale>
<asrwt>0</asrwt>
<pdfrwt beam="2">  1        4 0.11958153E-01 0.12328988E+03</pdfrwt>
<pdfrwt beam="1">  1       -4 0.27206344E-01 0.12328988E+03</pdfrwt>
<totfact> 0.11548042E+03</totfact>
</mgrwt>
</event>
<event>
 6    1  0.9263730E-006  0.1253772E+03  0.7546771E-02  0.1249641E+00
         -1   -1    0    0    0  501 -0.00000000000E+00  0.00000000000E+00  0.35888113972E+03  0.35888113972E+03  0.00000000000E+00 0.  1.
          1   -1    0    0  501    0  0.00000000000E+00 -0.00000000000E+00 -0.39279900806E+02  0.39279900806E+02  0.00000000000E+00 0. -1.
          5    1    1    2  502    0  0.45287707081E+02  0.20399879418E+01  0.97869193380E+02  0.10796113642E+03  0.47000000000E+01 0. -1.
         -5    1    1    2    0  502 -0.52191073507E+02 -0.88702802119E+01  0.34890208152E+01  0.53262118725E+02  0.47000000000E+01 0. -1.
        -11    1    1    2    0    0  0.34207390508E+02  0.37319182008E+02  0.13493434416E+03  0.14411850729E+03  0.00000000000E+00 0. -1.
         11    1    1    2    0    0 -0.27304024082E+02 -0.30488889738E+02  0.83308680561E+02  0.92819278091E+02  0.00000000000E+00 0.  1.
<mgrwt>
<rscale>  0 0.11611865E+03</rscale>
<asrwt>0</asrwt>
<pdfrwt beam="2">  1        1 0.60430619E-02 0.12537723E+03</pdfrwt>
<pdfrwt beam="1">  1       -1 0.55212481E-01 0.12537723E+03</pdfrwt>
<totfact> 0.41551864E+03</totfact>
</mgrwt>
</event>
<event>
 6    1  0.9263730E-006  0.1443793E+03  0.7546771E-02  0.1219489E+00
         -2   -1    0    0    0  501 -0.00000000000E+00  0.00000000000E+00  0.44156794391E+02  0.44156794391E+02  0.00000000000E+00 0.  1.
          2   -1    0    0  501    0  0.00000000000E+00 -0.00000000000E+00 -0.37261307999E+03  0.37261307999E+03  0.00000000000E+00 0. -1.
          5    1    1    2  502    0  0.96727838892E+02 -0.16239807410E+02 -0.15566893597E+03  0.18405138898E+03  0.47000000000E+01 0. -1.
         -5    1    1    2    0  502 -0.26443365054E+02  0.32978910742E+02 -0.34799677429E+02  0.54954232397E+02  0.47000000000E+01 0. -1.
        -11    1    1    2    0    0 -0.25175690236E+02  0.31594293256E+02 -0.27041705669E+02  0.48613461003E+02  0.00000000000E+00 0.  1.
         11    1    1    2    0    0 -0.45108783602E+02 -0.48333396589E+02 -0.11094596653E+03  0.12915079199E+03  0.00000000000E+00 0. -1.
<mgrwt>
<rscale>  0 0.13551909E+03</rscale>
<asrwt>0</asrwt>
<pdfrwt beam="2">  1        2 0.57325087E-01 0.14437934E+03</pdfrwt>
<pdfrwt beam="1">  1       -2 0.67933532E-02 0.14437934E+03</pdfrwt>
<totfact> 0.10037829E+04</totfact>
</mgrwt>
</event>
<event>
 6    1  0.9263730E-006  0.1325703E+03  0.7546771E-02  0.1235709E+00
          3   -1    0    0  501    0  0.00000000000E+00  0.00000000000E+00  0.15837533112E+03  0.15837533112E+03  0.00000000000E+00 0. -1.
         -3   -1    0    0    0  501 -0.00000000000E+00 -0.00000000000E+00 -0.88189828489E+02  0.88189828489E+02  0.00000000000E+00 0.  1.
          5    1    1    2  502    0 -0.54836376678E+02  0.34736478140E+02 -0.17808314573E+02  0.67475011587E+02  0.47000000000E+01 0. -1.
         -5    1    1    2    0  502  0.34255265561E+02  0.43316480318E+01  0.64073690142E+02  0.72936370637E+02  0.47000000000E+01 0. -1.
        -11    1    1    2    0    0  0.29100189004E+02 -0.11446730928E+02 -0.31037161756E+02  0.44058529922E+02  0.00000000000E+00 0.  1.
         11    1    1    2    0    0 -0.85190778876E+01 -0.27621395243E+02  0.54957288819E+02  0.62095247463E+02  0.00000000000E+00 0. -1.
<mgrwt>
<rscale>  0 0.12459182E+03</rscale>
<asrwt>0</asrwt>
<pdfrwt beam="1">  1        3 0.24365436E-01 0.13257025E+03</pdfrwt>
<pdfrwt beam="2">  1       -3 0.13567666E-01 0.13257025E+03</pdfrwt>
<totfact> 0.15884783E+03</totfact>
</mgrwt>
</event>
<event>
 6    1  0.9263730E-006  0.1558286E+03  0.7546771E-02  0.1201547E+00
         -1   -1    0    0    0  501 -0.00000000000E+00  0.00000000000E+00  0.78606044664E+02  0.78606044664E+02  0.00000000000E+00 0.  1.
          1   -1    0    0  501    0  0.00000000000E+00 -0.00000000000E+00 -0.28129624686E+03  0.28129624686E+03  0.00000000000E+00 0. -1.
          5    1    1    2  502    0 -0.84500195527E+02 -0.43884850307E+02 -0.92080992200E+02  0.13254117192E+03  0.47000000000E+01 0. -1.
         -5    1    1    2    0  502  0.55502862055E+02 -0.23271830280E+02 -0.65524802554E+02  0.89093970226E+02  0.47000000000E+01 0.  1.
        -11    1    1    2    0    0  0.44414149386E+02 -0.37005152750E+01  0.11799046378E+02  0.46103448617E+02  0.00000000000E+00 0.  1.
         11    1    1    2    0    0 -0.15416815914E+02  0.70857195862E+02 -0.56883453819E+02  0.92163700755E+02  0.00000000000E+00 0. -1.
<mgrwt>
<rscale>  0 0.14912926E+03</rscale>
<asrwt>0</asrwt>
<pdfrwt beam="2">  1        1 0.43276346E-01 0.15582859E+03</pdfrwt>
<pdfrwt beam="1">  1       -1 0.12093237E-01 0.15582859E+03</pdfrwt>
<totfact> 0.41704163E+03</totfact>
</mgrwt>
</event>
<event>
 6    1  0.9263730E-006  0.2885255E+03  0.7546771E-02  0.1092925E+00
          2   -1    0    0  501    0  0.00000000000E+00  0.00000000000E+00  0.84301860520E+03  0.84301860520E+03  0.00000000000E+00 0. -1.
         -2   -1    0    0    0  501 -0.00000000000E+00 -0.00000000000E+00 -0.10504968756E+03  0.10504968756E+03  0.00000000000E+00 0.  1.
          5    1    1    2  502    0  0.19005006000E+01  0.18272435169E+03  0.26482909496E+03  0.32178927909E+03  0.47000000000E+01 0. -1.
         -5    1    1    2    0  502 -0.64644228653E+02  0.69636168552E+02  0.26417537439E+03  0.28078246153E+03  0.47000000000E+01 0. -1.
        -11    1    1    2    0    0  0.93718179454E+01 -0.14467568136E+03  0.67650489339E+02  0.15998585080E+03  0.00000000000E+00 0.  1.
         11    1    1    2    0    0  0.53371910107E+02 -0.10768483889E+03  0.14131395895E+03  0.18551070133E+03  0.00000000000E+00 0. -1.
<mgrwt>
<rscale>  0 0.28511915E+03</rscale>
<asrwt>0</asrwt>
<pdfrwt beam="1">  1        2 0.12969517E+00 0.28852552E+03</pdfrwt>
<pdfrwt beam="2">  1       -2 0.16161491E-01 0.28852552E+03</pdfrwt>
<totfact> 0.10029759E+03</totfact>
</mgrwt>
</event>
<event>
 6    1  0.9263730E-006  0.1274437E+03  0.7546771E-02  0.1245521E+00
          2   -1    0    0  501    0  0.00000000000E+00  0.00000000000E+00  0.39166672844E+03  0.39166672844E+03  0.00000000000E+00 0. -1.
         -2   -1    0    0    0  501 -0.00000000000E+00 -0.00000000000E+00 -0.37927252431E+02  0.37927252431E+02  0.00000000000E+00 0.  1.
          5    1    1    2  502    0  0.43868787173E+02 -0.26176970880E+02  0.25105570111E+03  0.25624355476E+03  0.47000000000E+01 0. -1.
         -5    1    1    2    0  502 -0.22049387992E+02  0.38087293986E+02  0.33372155887E+02  0.55431112767E+02  0.47000000000E+01 0. -1.
        -11    1    1    2    0    0 -0.58230907506E+02 -0.72342048798E+01  0.41832001320E+02  0.72063087941E+02  0.00000000000E+00 0.  1.
         11    1    1    2    0    0  0.36411508325E+02 -0.46761182264E+01  0.27479617688E+02  0.45856225406E+02  0.00000000000E+00 0. -1.
<mgrwt>
<rscale>  0 0.11854250E+03</rscale>
<asrwt>0</asrwt>
<pdfrwt beam="1">  1        2 0.60256417E-01 0.12744368E+03</pdfrwt>
<pdfrwt beam="2">  1       -2 0.58349622E-02 0.12744368E+03</pdfrwt>
<totfact> 0.11884351E+04</totfact>
</mgrwt>
</event>
<event>
 6    1  0.9263730E-006  0.1478099E+03  0.7546771E-02  0.1213023E+00
          1   -1    0    0  501    0  0.00000000000E+00  0.00000000000E+00  0.48044104235E+03  0.48044104235E+03  0.00000000000E+00 0. -1.
         -1   -1    0    0    0  501 -0.00000000000E+00 -0.00000000000E+00 -0.63496738458E+02  0.63496738458E+02  0.00000000000E+00 0.  1.
          5    1    1    2  502    0 -0.41864624641E+02  0.24191217509E+02  0.33247675227E+03  0.33600705737E+03  0.47000000000E+01 0. -1.
         -5    1    1    2    0  502 -0.33251014787E+02 -0.48335363491E+02  0.63125736061E+02  0.86306928467E+02  0.47000000000E+01 0. -1.
        -11    1    1    2    0    0  0.44590713921E+02 -0.10294258368E+02 -0.28399732738E+02  0.53859524161E+02  0.00000000000E+00 0.  1.
         11    1    1    2    0    0  0.30524925507E+02  0.34438404350E+02  0.49741548293E+02  0.67764270807E+02  0.00000000000E+00 0. -1.
<mgrwt>
<rscale>  0 0.14022792E+03</rscale>
<asrwt>0</asrwt>
<pdfrwt beam="1">  1        1 0.73914004E-01 0.14780992E+03</pdfrwt>
<pdfrwt beam="2">  1       -1 0.97687293E-02 0.14780992E+03</pdfrwt>
<totfact> 0.29422866E+03</totfact>
</mgrwt>
</event>
<event>
 6    1  0.9263730E-006  0.1309267E+03  0.7546771E-02  0.1239904E+00
          3   -1    0    0  501    0  0.00000000000E+00  0.00000000000E+00  0.14299965484E+04  0.14299965484E+04  0.00000000000E+00 0. -1.
         -3   -1    0    0    0  501 -0.00000000000E+00 -0.00000000000E+00 -0.14815299620E+02  0.14815299620E+02  0.00000000000E+00 0.  1.
          5    1    1    2  502    0  0.49180261141E+02 -0.53256600369E+02  0.43337917528E+03  0.43942526456E+03  0.47000000000E+01 0. -1.
         -5    1    1    2    0  502 -0.35860982503E+02  0.16220415348E+02  0.77790570476E+03  0.77891494236E+03  0.47000000000E+01 0. -1.
        -11    1    1    2    0    0 -0.11231357923E+02  0.66199112941E+02  0.16217520853E+03  0.17552567965E+03  0.00000000000E+00 0.  1.
         11    1    1    2    0    0 -0.20879207144E+01 -0.29162927920E+02  0.41721160195E+02  0.50945961428E+02  0.00000000000E+00 0. -1.
<mgrwt>
<rscale>  0 0.12195659E+03</rscale>
<asrwt>0</asrwt>
<pdfrwt beam="1">  1        3 0.21999936E+00 0.13092669E+03</pdfrwt>
<pdfrwt beam="2">  1       -3 0.22792780E-02 0.13092669E+03</pdfrwt>
<totfact> 0.22433341E+02</totfact>
</mgrwt>
</event>
<event>
 6    1  0.9263730E-006  0.1409762E+03  0.7546771E-02  0.1222272E+00
         -1   -1    0    0    0  501 -0.00000000000E+00  0.00000000000E+00  0.28525623305E+02  0.28525623305E+02  0.00000000000E+00 0.  1.
          1   -1    0    0  501    0  0.00000000000E+00 -0.00000000000E+00 -0.57245021980E+03  0.57245021980E+03  0.00000000000E+00 0. -1.
          5    1    1    2  502    0  0.65687256117E+02 -0.22130864671E+02 -0.74412672639E+02  0.10180337242E+03  0.47000000000E+01 0. -1.
         -5    1    1    2    0  502 -0.81109113512E+00  0.28378219084E+02 -0.25351820138E+03  0.25514613385E+03  0.47000000000E+01 0. -1.
        -11    1    1    2    0    0 -0.80477574843E+02  0.12367490999E+01 -0.21128083410E+03  0.22609237152E+03  0.00000000000E+00 0. -1.
         11    1    1    2    0    0  0.15601409861E+02 -0.74841035131E+01 -0.47128883750E+01  0.17933965314E+02  0.00000000000E+00 0.  1.
<mgrwt>
<rscale>  0 0.13355631E+03</rscale>
<asrwt>0</asrwt>
<pdfrwt beam="2">  1        1 0.88069261E-01 0.14097621E+03</pdfrwt>
<pdfrwt beam="1">  1       -1 0.43885576E-02 0.14097621E+03</pdfrwt>
<totfact> 0.77255073E+03</totfact>
</mgrwt>
</event>
<event>
 6    1  0.9263730E-006  0.1553826E+03  0.7546771E-02  0.1202677E+00
          1   -1    0    0  501    0  0.00000000000E+00  0.00000000000E+00  0.19371262976E+02  0.19371262976E+02  0.00000000000E+00 0. -1.
         -1   -1    0    0    0  501 -0.00000000000E+00 -0.00000000000E+00 -0.10429248036E+04  0.10429248036E+04  0.00000000000E+00 0.  1.
          5    1    1    2  502    0  0.40455006308E+02 -0.43436839702E+02 -0.12109332687E+03  0.13494091445E+03  0.47000000000E+01 0. -1.
         -5    1    1    2    0  502 -0.69913654865E+02 -0.44036120139E+02 -0.41723173215E+03  0.42536044401E+03  0.47000000000E+01 0. -1.
        -11    1    1    2    0    0 -0.13469598088E+01  0.92062203363E+02 -0.41623987458E+03  0.42630141541E+03  0.00000000000E+00 0. -1.
         11    1    1    2    0    0  0.30805608366E+02 -0.45892435228E+01 -0.68988607021E+02  0.75693292712E+02  0.00000000000E+00 0.  1.
<mgrwt>
<rscale>  0 0.14822043E+03</rscale>
<asrwt>0</asrwt>
<pdfrwt beam="1">  1        1 0.29801939E-02 0.15538257E+03</pdfrwt>
<pdfrwt beam="2">  1       -1 0.16044999E+00 0.15538257E+03</pdfrwt>
<totfact> 0.10697564E+03</totfact>
</mgrwt>
</event>
<event>
 6    1  0.9263730E-006  0.1160506E+03  0.7546771E-02  0.1315461E+00
          2   -1    0    0  501    0  0.00000000000E+00  0.00000000000E+00  0.66991500817E+03  0.66991500817E+03  0.00000000000E+00 0. -1.
         -2   -1    0    0    0  501 -0.00000000000E+00 -0.00000000000E+00 -0.84228838384E+01  0.84228838384E+01  0.00000000000E+00 0.  1.
          5    1    1    2  502    0  0.29221343844E+02 -0.20800302094E+02  0.45656656830E+03  0.45799744627E+03  0.47000000000E+01 0. -1.
         -5    1    1    2    0  502 -0.43851130252E+02  0.31339201215E+01  0.84428132147E+02  0.95304473020E+02  0.47000000000E+01 0.  1.
        -11    1    1    2    0    0  0.46639290101E+01  0.21708418428E+02  0.89980168178E+02  0.92679222751E+02  0.00000000000E+00 0. -1.
         11    1    1    2    0    0  0.99658573979E+01 -0.40420364558E+01  0.30517255700E+02  0.32356749958E+02  0.00000000000E+00 0.  1.
<mgrwt>
<rscale>  0 0.84989264E+02</rscale>
<asrwt>0</asrwt>
<pdfrwt beam="1">  1        2 0.10306381E+00 0.11605063E+03</pdfrwt>
<pdfrwt beam="2">  1       -2 0.12958288E-02 0.11605063E+03</pdfrwt>
<totfact> 0.59022996E+04</totfact>
</mgrwt>
</event>
<event>
 6    1  0.9263730E-006  0.2403190E+03  0.7546771E-02  0.1122270E+00
          2   -1    0    0  501    0  0.00000000000E+00  0.00000000000E+00  0.14070149341E+04  0.14070149341E+04  0.00000000000E+00 0. -1.
         -2   -1    0    0    0  501 -0.00000000000E+00 -0.00000000000E+00 -0.41288032879E+02  0.41288032879E+02  0.00000000000E+00 0.  1.
          5    1    1    2  502    0 -0.14204137771E+03 -0.51094679844E+02  0.81266185310E+03  0.82657594738E+03  0.47000000000E+01 0. -1.
         -5    1    1    2    0  502 -0.56729357460E+02 -0.77675951324E-01  0.82146298181E+02  0.99941634649E+02  0.47000000000E+01 0. -1.
        -11    1    1    2    0    0  0.10151262441E+03  0.66769275335E+02  0.31190439885E+03  0.33473467563E+03  0.00000000000E+00 0. -1.
         11    1    1    2    0    0  0.97258110759E+02 -0.15596919540E+02  0.15901435106E+03  0.18705070930E+03  0.00000000000E+00 0.  1.
<mgrwt>
<rscale>  0 0.23631845E+03</rscale>
<asrwt>0</asrwt>
<pdfrwt beam="1">  1        2 0.21646380E+00 0.24031896E+03</pdfrwt>
<pdfrwt beam="2">  1       -2 0.63520061E-02 0.24031896E+03</pdfrwt>
<totfact> 0.20770504E+03</totfact>
</mgrwt>
</event>
<event>
 6    1  0.9263730E-006  0.4297901E+03  0.7546771E-02  0.1033926E+00
          2   -1    0    0  501    0  0.00000000000E+00  0.00000000000E+00  0.96207939701E+02  0.96207939701E+02  0.00000000000E+00 0. -1.
         -2   -1    0    0    0  501 -0.00000000000E+00 -0.00000000000E+00 -0.48000071073E+03  0.48000071073E+03  0.00000000000E+00 0.  1.
          5    1    1    2  502    0 -0.90635633141E+01  0.10225850462E+02 -0.53383727818E+02  0.55304869526E+02  0.47000000000E+01 0. -1.
         -5    1    1    2    0  502 -0.96930196747E+02  0.33278911408E+02  0.50367407702E+02  0.11428873411E+03  0.47000000000E+01 0. -1.
        -11    1    1    2    0    0  0.46715784052E+02 -0.55359944459E+02 -0.27889848412E+03  0.28815178704E+03  0.00000000000E+00 0. -1.
         11    1    1    2    0    0  0.59277976008E+02  0.11855182589E+02 -0.10187796680E+03  0.11846325976E+03  0.00000000000E+00 0.  1.
<mgrwt>
<rscale>  0 0.42979009E+03</rscale>
<asrwt>0</asrwt>
<pdfrwt beam="1">  1        2 0.14801222E-01 0.42979009E+03</pdfrwt>
<pdfrwt beam="2">  1       -2 0.73846263E-01 0.42979009E+03</pdfrwt>
<totfact> 0.67704792E+02</totfact>
</mgrwt>
</event>
<event>
 6    1  0.9263730E-006  0.2623615E+03  0.7546771E-02  0.1105733E+00
          2   -1    0    0  501    0  0.00000000000E+00  0.00000000000E+00  0.13709995234E+04  0.13709995234E+04  0.00000000000E+00 0. -1.
         -2   -1    0    0    0  501 -0.00000000000E+00 -0.00000000000E+00 -0.12551714610E+02  0.12551714610E+02  0.00000000000E+00 0.  1.
          5    1    1    2  502    0 -0.31153220516E+02  0.42631899114E+01  0.88712455396E+03  0.88769407015E+03  0.47000000000E+01 0. -1.
         -5    1    1    2    0  502  0.14011143426E+02  0.11547136518E+02  0.16950656688E+02  0.25279700632E+02  0.47000000000E+01 0. -1.
        -11    1    1    2    0    0  0.28718718482E+02  0.47786081950E+02  0.25357232124E+03  0.25962895932E+03  0.00000000000E+00 0. -1.
         11    1    1    2    0    0 -0.11576641392E+02 -0.63596408379E+02  0.20080027687E+03  0.21094850788E+03  0.00000000000E+00 0.  1.
<mgrwt>
<rscale>  0 0.26236154E+03</rscale>
<asrwt>0</asrwt>
<pdfrwt beam="1">  1        2 0.21092288E+00 0.26236154E+03</pdfrwt>
<pdfrwt beam="2">  1       -2 0.19310341E-02 0.26236154E+03</pdfrwt>
<totfact> 0.13023187E+04</totfact>
</mgrwt>
</event>
<event>
 6    1  0.9263730E-006  0.1385022E+03  0.7546771E-02  0.1227200E+00
         -2   -1    0    0    0  501 -0.00000000000E+00  0.00000000000E+00  0.90565793622E+02  0.90565793622E+02  0.00000000000E+00 0.  1.
          2   -1    0    0  501    0  0.00000000000E+00 -0.00000000000E+00 -0.64904887299E+03  0.64904887299E+03  0.00000000000E+00 0. -1.
          5    1    1    2  502    0 -0.37795624753E+02  0.51500780182E+01 -0.10852060269E+03  0.11512533936E+03  0.47000000000E+01 0.  1.
         -5    1    1    2    0  502  0.86413249894E+02 -0.39600054283E+02 -0.49743155167E+03  0.50645399856E+03  0.47000000000E+01 0.  1.
        -11    1    1    2    0    0 -0.28066679933E+02 -0.12121676098E+02  0.58447541802E+02  0.65960508614E+02  0.00000000000E+00 0.  1.
         11    1    1    2    0    0 -0.20550945209E+02  0.46571652363E+02 -0.10978466804E+02  0.52074820078E+02  0.00000000000E+00 0. -1.
<mgrwt>
<rscale>  0 0.13017223E+03</rscale>
<asrwt>0</asrwt>
<pdfrwt beam="2">  1        2 0.99853671E-01 0.13850220E+03</pdfrwt>
<pdfrwt beam="1">  1       -2 0.13933199E-01 0.13850220E+03</pdfrwt>
<totfact> 0.17575718E+03</totfact>
</mgrwt>
</event>
<event>
 6    1  0.9263730E-006  0.2810536E+03  0.7546771E-02  0.1095115E+00
          1   -1    0    0  501    0  0.00000000000E+00  0.00000000000E+00  0.16518672709E+03  0.16518672709E+03  0.00000000000E+00 0. -1.
         -1   -1    0    0    0  501 -0.00000000000E+00 -0.00000000000E+00 -0.11954824592E+03  0.11954824592E+03  0.00000000000E+00 0.  1.
          5    1    1    2  502    0  0.22267364995E+02 -0.45015516575E+01 -0.38239273113E+02  0.44726183823E+02  0.47000000000E+01 0. -1.
         -5    1    1    2    0  502  0.65265082169E+01 -0.77475454320E+02  0.83276229754E+02  0.11402658363E+03  0.47000000000E+01 0. -1.
        -11    1    1    2    0    0 -0.36912630534E+02  0.43578848745E+02  0.40501801689E+02  0.70014671969E+02  0.00000000000E+00 0. -1.
         11    1    1    2    0    0  0.81187573229E+01  0.38398157232E+02 -0.39900277161E+02  0.55967533596E+02  0.00000000000E+00 0.  1.
<mgrwt>
<rscale>  0 0.28105361E+03</rscale>
<asrwt>0</asrwt>
<pdfrwt beam="1">  1        1 0.25413343E-01 0.28105361E+03</pdfrwt>
<pdfrwt beam="2">  1       -1 0.18392038E-01 0.28105361E+03</pdfrwt>
<totfact> 0.43090475E+03</totfact>
</mgrwt>
</event>
<event>
 6    1  0.9263730E-006  0.1320070E+03  0.7546771E-02  0.1237199E+00
          2   -1    0    0  501    0  0.00000000000E+00  0.00000000000E+00  0.69078857782E+03  0.69078857782E+03  0.00000000000E+00 0. -1.
         -2   -1    0    0    0  501 -0.00000000000E+00 -0.00000000000E+00 -0.22681674746E+02  0.22681674746E+02  0.00000000000E+00 0.  1.
          5    1    1    2  502    0  0.30261437339E+02 -0.79131566447E+02  0.35690205435E+03  0.36684973190E+03  0.47000000000E+01 0.  1.
         -5    1    1    2    0  502 -0.26930469348E+02  0.36834432090E+02  0.14226213762E+03  0.14947451745E+03  0.47000000000E+01 0.  1.
        -11    1    1    2    0    0 -0.92607575616E+01 -0.19024197554E+02  0.46240795348E+01  0.21657881585E+02  0.00000000000E+00 0.  1.
         11    1    1    2    0    0  0.59297895704E+01  0.61321331911E+02  0.16431863158E+03  0.17548812164E+03  0.00000000000E+00 0. -1.
<mgrwt>
<rscale>  0 0.12364695E+03</rscale>
<asrwt>0</asrwt>
<pdfrwt beam="1">  1        2 0.10627515E+00 0.13200697E+03</pdfrwt>
<pdfrwt beam="2">  1       -2 0.34894890E-02 0.13200697E+03</pdfrwt>
<totfact> 0.13677989E+04</totfact>
</mgrwt>
</event>
<event>
 6    1  0.9263730E-006  0.1574391E+03  0.7546771E-02  0.1198855E+00
         -1   -1    0    0    0  501 -0.00000000000E+00  0.00000000000E+00  0.36223653083E+02  0.36223653083E+02  0.00000000000E+00 0.  1.
          1   -1    0    0  501    0  0.00000000000E+00 -0.00000000000E+00 -0.12395873524E+04  0.12395873524E+04  0.00000000000E+00 0. -1.
          5    1    1    2  502    0 -0.30311965307E+02 -0.70730390995E+02 -0.50186398874E+03  0.50775107744E+03  0.47000000000E+01 0.  1.
         -5    1    1    2    0  502  0.79106405695E+02 -0.11625659186E+02 -0.58428654574E+03  0.58975065655E+03  0.47000000000E+01 0.  1.
        -11    1    1    2    0    0 -0.19374865661E+01  0.80969898486E+02 -0.46272024358E+02  0.93279035979E+02  0.00000000000E+00 0.  1.
         11    1    1    2    0    0 -0.46856953822E+02  0.13861516947E+01 -0.70941140495E+02  0.85030235521E+02  0.00000000000E+00 0. -1.
<mgrwt>
<rscale>  0 0.15132475E+03</rscale>
<asrwt>0</asrwt>
<pdfrwt beam="2">  1        1 0.19070573E+00 0.15743911E+03</pdfrwt>
<pdfrwt beam="1">  1       -1 0.55728703E-02 0.15743911E+03</pdfrwt>
<totfact> 0.16056212E+03</totfact>
</mgrwt>
</event>
<event>
 6    1  0.9263730E-006  0.1265335E+03  0.7546771E-02  0.1247897E+00
          2   -1    0    0  501    0  0.00000000000E+00  0.00000000000E+00  0.14119943987E+04  0.14119943987E+04  0.00000000000E+00 0. -1.
         -2   -1    0    0    0  501 -0.00000000000E+00 -0.00000000000E+00 -0.98933209090E+01  0.98933209090E+01  0.00000000000E+00 0.  1.
          5    1    1    2  502    0  0.37663794421E+02  0.40359539825E+02  0.44496922860E+03  0.44840512738E+03  0.47000000000E+01 0. -1.
         -5    1    1    2    0  502 -0.37838515188E+02 -0.59966180222E+02  0.61007511487E+03  0.61419983050E+03  0.47000000000E+01 0. -1.
        -11    1    1    2    0    0  0.33866395589E+02  0.39175572388E+02  0.23523454722E+03  0.24086708042E+03  0.00000000000E+00 0. -1.
         11    1    1    2    0    0 -0.33691674822E+02 -0.19568931991E+02  0.11182218710E+03  0.11841568131E+03  0.00000000000E+00 0.  1.
<mgrwt>
<rscale>  0 0.11713631E+03</rscale>
<asrwt>0</asrwt>
<pdfrwt beam="1">  1        2 0.21722975E+00 0.12653351E+03</pdfrwt>
<pdfrwt beam="2">  1       -2 0.15220505E-02 0.12653351E+03</pdfrwt>
<totfact> 0.16900999E+04</totfact>
</mgrwt>
</event>
<event>
 6    1  0.9263730E-006  0.1993517E+03  0.7546771E-02  0.1154614E+00
          2   -1    0    0  501    0  0.00000000000E+00  0.00000000000E+00  0.20782543728E+03  0.20782543728E+03  0.00000000000E+00 0.  1.
         -2   -1    0    0    0  501 -0.00000000000E+00 -0.00000000000E+00 -0.17387031581E+03  0.17387031581E+03  0.00000000000E+00 0. -1.
          5    1    1    2  502    0  0.79650428990E+02  0.17445734506E+02 -0.66093355287E+01  0.81940940969E+02  0.47000000000E+01 0.  1.
         -5    1    1    2    0  502  0.50726334419E+02 -0.10182198896E+03  0.36985512542E+02  0.11971172281E+03  0.47000000000E+01 0.  1.
        -11    1    1    2    0    0 -0.42077650062E+02 -0.68326189361E+01  0.27680608078E+02  0.50827447111E+02  0.00000000000E+00 0. -1.
         11    1    1    2    0    0 -0.88299113347E+02  0.91208873390E+02 -0.24101663622E+02  0.12921564221E+03  0.00000000000E+00 0.  1.
<mgrwt>
<rscale>  0 0.19432897E+03</rscale>
<asrwt>0</asrwt>
<pdfrwt beam="1">  1        2 0.31973144E-01 0.19935166E+03</pdfrwt>
<pdfrwt beam="2">  1       -2 0.26749279E-01 0.19935166E+03</pdfrwt>
<totfact> 0.20330739E+03</totfact>
</mgrwt>
</event>
<event>
 6    1  0.9263730E-006  0.3728324E+03  0.7546771E-02  0.1054474E+00
          2   -1    0    0  501    0  0.00000000000E+00  0.00000000000E+00  0.83834652815E+03  0.83834652815E+03  0.00000000000E+00 0. -1.
         -2   -1    0    0    0  501 -0.00000000000E+00 -0.00000000000E+00 -0.20829294391E+03  0.20829294391E+03  0.00000000000E+00 0.  1.
          5    1    1    2  502    0 -0.45631326335E+02  0.79645797066E+02  0.96225978107E+02  0.13306840270E+03  0.47000000000E+01 0.  1.
         -5    1    1    2    0  502 -0.25823420742E+03  0.96551801283E+02  0.46887257611E+03  0.54394001400E+03  0.47000000000E+01 0.  1.
        -11    1    1    2    0    0  0.80447865059E+02 -0.83643915873E+02 -0.99187841823E+01  0.11647551646E+03  0.00000000000E+00 0.  1.
         11    1    1    2    0    0  0.22341766869E+03 -0.92553682475E+02  0.74873814204E+02  0.25315553890E+03  0.00000000000E+00 0. -1.
<mgrwt>
<rscale>  0 0.37057364E+03</rscale>
<asrwt>0</asrwt>
<pdfrwt beam="1">  1        2 0.12897639E+00 0.37283243E+03</pdfrwt>
<pdfrwt beam="2">  1       -2 0.32045069E-01 0.37283243E+03</pdfrwt>
<totfact> 0.30190166E+02</totfact>
</mgrwt>
</event>
<event>
 6    1  0.9263730E-006  0.1474068E+03  0.7546771E-02  0.1213136E+00
         -1   -1    0    0    0  501 -0.00000000000E+00  0.00000000000E+00  0.19526030751E+02  0.19526030751E+02  0.00000000000E+00 0.  1.
          1   -1    0    0  501    0  0.00000000000E+00 -0.00000000000E+00 -0.92102249020E+03  0.92102249020E+03  0.00000000000E+00 0. -1.
          5    1    1    2  502    0 -0.87791852016E+02 -0.60788895913E+02 -0.38759828389E+03  0.40206618711E+03  0.47000000000E+01 0. -1.
         -5    1    1    2    0  502  0.14229423391E+02  0.34471583129E+02 -0.83849084486E+02  0.91888658183E+02  0.47000000000E+01 0. -1.
        -11    1    1    2    0    0  0.19755089854E+01  0.45858282092E+02 -0.18054308168E+03  0.18628657766E+03  0.00000000000E+00 0.  1.
         11    1    1    2    0    0  0.71586919640E+02 -0.19540969309E+02 -0.24950600939E+03  0.26030709799E+03  0.00000000000E+00 0. -1.
<mgrwt>
<rscale>  0 0.14014351E+03</rscale>
<asrwt>0</asrwt>
<pdfrwt beam="2">  1        1 0.14169577E+00 0.14740681E+03</pdfrwt>
<pdfrwt beam="1">  1       -1 0.30040047E-02 0.14740681E+03</pdfrwt>
<totfact> 0.67374355E+03</totfact>
</mgrwt>
</event>
<event>
 6    1  0.9263730E-006  0.1363296E+03  0.7546771E-02  0.1230333E+00
         -2   -1    0    0    0  501 -0.00000000000E+00  0.00000000000E+00  0.21295887329E+02  0.21295887329E+02  0.00000000000E+00 0.  1.
          2   -1    0    0  501    0  0.00000000000E+00 -0.00000000000E+00 -0.71487727953E+03  0.71487727953E+03  0.00000000000E+00 0. -1.
          5    1    1    2  502    0  0.22989795517E+02  0.28170916518E+02 -0.64612931311E+02  0.74290323246E+02  0.47000000000E+01 0. -1.
         -5    1    1    2    0  502 -0.66787919905E+02 -0.60507646019E+02 -0.39117061615E+03  0.40144531684E+03  0.47000000000E+01 0. -1.
        -11    1    1    2    0    0 -0.16503493966E+01 -0.19506209928E+02 -0.91261422535E+01  0.21598665498E+02  0.00000000000E+00 0.  1.
         11    1    1    2    0    0  0.45448473784E+02  0.51842939429E+02 -0.22867170249E+03  0.23883886128E+03  0.00000000000E+00 0. -1.
<mgrwt>
<rscale>  0 0.12807982E+03</rscale>
<asrwt>0</asrwt>
<pdfrwt beam="2">  1        2 0.10998113E+00 0.13632959E+03</pdfrwt>
<pdfrwt beam="1">  1       -2 0.32762900E-02 0.13632959E+03</pdfrwt>
<totfact> 0.14445667E+04</totfact>
</mgrwt>
</event>
<event>
 6    1  0.9263730E-006  0.1532650E+03  0.7546771E-02  0.1205193E+00
          2   -1    0    0  501    0  0.00000000000E+00  0.00000000000E+00  0.15660349340E+03  0.15660349340E+03  0.00000000000E+00 0. -1.
         -2   -1    0    0    0  501 -0.00000000000E+00 -0.00000000000E+00 -0.12537447191E+03  0.12537447191E+03  0.00000000000E+00 0.  1.
          5    1    1    2  502    0  0.69324480304E+02 -0.33371720921E+02  0.45713628753E+02  0.89617973535E+02  0.47000000000E+01 0.  1.
         -5    1    1    2    0  502  0.16687553116E+02  0.54982960924E+02 -0.29038017717E+02  0.64551505745E+02  0.47000000000E+01 0.  1.
        -11    1    1    2    0    0 -0.76415349936E+02 -0.12419082469E+02  0.48498802450E+02  0.91354655899E+02  0.00000000000E+00 0. -1.
         11    1    1    2    0    0 -0.95966834837E+01 -0.91921575336E+01 -0.33945391993E+02  0.36453830136E+02  0.00000000000E+00 0.  1.
<mgrwt>
<rscale>  0 0.14622230E+03</rscale>
<asrwt>0</asrwt>
<pdfrwt beam="1">  1        2 0.24092845E-01 0.15326497E+03</pdfrwt>
<pdfrwt beam="2">  1       -2 0.19288380E-01 0.15326497E+03</pdfrwt>
<totfact> 0.48311734E+03</totfact>
</mgrwt>
</event>
<event>
 6    1  0.9263730E-006  0.2695306E+03  0.7546771E-02  0.1119537E+00
          2   -1    0    0  501    0  0.00000000000E+00  0.00000000000E+00  0.44944846687E+03  0.44944846687E+03  0.00000000000E+00 0. -1.
         -2   -1    0    0    0  501 -0.00000000000E+00 -0.00000000000E+00 -0.14678192430E+03  0.14678192430E+03  0.00000000000E+00 0.  1.
          5    1    1    2  502    0 -0.72373633091E+02  0.30732047962E+02  0.30282083600E+03  0.31289766739E+03  0.47000000000E+01 0. -1.
         -5    1    1    2    0  502  0.24690554672E+02  0.10537169009E+03  0.24409351789E+02  0.11104378873E+03  0.47000000000E+01 0.  1.
        -11    1    1    2    0    0  0.63871512190E+02 -0.13899108964E+03 -0.16141408956E+02  0.15381364748E+03  0.00000000000E+00 0.  1.
         11    1    1    2    0    0 -0.16188433771E+02  0.28873515926E+01 -0.84222362611E+01  0.18475287570E+02  0.00000000000E+00 0. -1.
<mgrwt>
<rscale>  0 0.24038402E+03</rscale>
<asrwt>0</asrwt>
<pdfrwt beam="1">  1        2 0.69145917E-01 0.26953063E+03</pdfrwt>
<pdfrwt beam="2">  1       -2 0.22581835E-01 0.26953063E+03</pdfrwt>
<totfact> 0.11946918E+03</totfact>
</mgrwt>
</event>
<event>
 6    1  0.9263730E-006  0.1293122E+03  0.7546771E-02  0.1234309E+00
          2   -1    0    0  501    0  0.00000000000E+00  0.00000000000E+00  0.29067867759E+03  0.29067867759E+03  0.00000000000E+00 0. -1.
         -2   -1    0    0    0  501 -0.00000000000E+00 -0.00000000000E+00 -0.51224484249E+02  0.51224484249E+02  0.00000000000E+00 0.  1.
          5    1    1    2  502    0  0.65694487397E+02  0.43953104617E+02  0.64925353826E+02  0.10239644842E+03  0.47000000000E+01 0. -1.
         -5    1    1    2    0  502  0.19275738406E+01 -0.47819150304E+02  0.65606634936E+02  0.81343144913E+02  0.47000000000E+01 0.  1.
        -11    1    1    2    0    0 -0.67973694251E+02 -0.34163211895E+02  0.79892242150E+02  0.11031916657E+03  0.00000000000E+00 0.  1.
         11    1    1    2    0    0  0.35163301311E+00  0.38029257582E+02  0.29029962433E+02  0.47844401939E+02  0.00000000000E+00 0. -1.
<mgrwt>
<rscale>  0 0.12548799E+03</rscale>
<asrwt>0</asrwt>
<pdfrwt beam="1">  1        2 0.44719796E-01 0.12931217E+03</pdfrwt>
<pdfrwt beam="2">  1       -2 0.78806900E-02 0.12931217E+03</pdfrwt>
<totfact> 0.10317847E+04</totfact>
</mgrwt>
</event>
<event>
 6    1  0.9263730E-006  0.1387371E+03  0.7546771E-02  0.1227011E+00
         -2   -1    0    0    0  501 -0.00000000000E+00  0.00000000000E+00  0.30225686156E+02  0.30225686156E+02  0.00000000000E+00 0.  1.
          2   -1    0    0  501    0  0.00000000000E+00 -0.00000000000E+00 -0.54081180681E+03  0.54081180681E+03  0.00000000000E+00 0. -1.
          5    1    1    2  502    0  0.37504171797E+02  0.18931377935E+02 -0.94253282807E+02  0.10329923181E+03  0.47000000000E+01 0. -1.
         -5    1    1    2    0  502 -0.95694316929E+02 -0.35041063520E+01 -0.26533130371E+03  0.28212137775E+03  0.47000000000E+01 0. -1.
        -11    1    1    2    0    0  0.75333991887E+02 -0.75889878258E+00 -0.74874527487E+02  0.10621667067E+03  0.00000000000E+00 0.  1.
         11    1    1    2    0    0 -0.17143846754E+02 -0.14668372800E+02 -0.76127006646E+02  0.79400212739E+02  0.00000000000E+00 0. -1.
<mgrwt>
<rscale>  0 0.13030023E+03</rscale>
<asrwt>0</asrwt>
<pdfrwt beam="2">  1        2 0.83201817E-01 0.13873706E+03</pdfrwt>
<pdfrwt beam="1">  1       -2 0.46501055E-02 0.13873706E+03</pdfrwt>
<totfact> 0.11852967E+04</totfact>
</mgrwt>
</event>
<event>
 6    1  0.9263730E-006  0.1432887E+03  0.7546771E-02  0.1219329E+00
         -1   -1    0    0    0  501 -0.00000000000E+00  0.00000000000E+00  0.77236283967E+02  0.77236283967E+02  0.00000000000E+00 0.  1.
          1   -1    0    0  501    0  0.00000000000E+00 -0.00000000000E+00 -0.44466044852E+03  0.44466044852E+03  0.00000000000E+00 0. -1.
          5    1    1    2  502    0 -0.26556901868E+02  0.27034111847E+02 -0.81437508389E+02  0.89945928272E+02  0.47000000000E+01 0. -1.
         -5    1    1    2    0  502  0.94924184659E+02 -0.42332973424E+02 -0.29861923093E+03  0.31622494613E+03  0.47000000000E+01 0. -1.
        -11    1    1    2    0    0  0.36435360925E+01  0.12571087977E+02 -0.29483946532E+02  0.32258498280E+02  0.00000000000E+00 0. -1.
         11    1    1    2    0    0 -0.72010818884E+02  0.27277736005E+01  0.42116521305E+02  0.83467359800E+02  0.00000000000E+00 0.  1.
<mgrwt>
<rscale>  0 0.13563314E+03</rscale>
<asrwt>0</asrwt>
<pdfrwt beam="2">  1        1 0.68409299E-01 0.14328871E+03</pdfrwt>
<pdfrwt beam="1">  1       -1 0.11882505E-01 0.14328871E+03</pdfrwt>
<totfact> 0.24038389E+03</totfact>
</mgrwt>
</event>
<event>
 6    1  0.9263730E-006  0.3884081E+03  0.7546771E-02  0.1047869E+00
         -1   -1    0    0    0  501 -0.00000000000E+00  0.00000000000E+00  0.40645637028E+02  0.40645637028E+02  0.00000000000E+00 0.  1.
          1   -1    0    0  501    0  0.00000000000E+00 -0.00000000000E+00 -0.92790314132E+03  0.92790314132E+03  0.00000000000E+00 0. -1.
          5    1    1    2  502    0 -0.28030919990E+02 -0.10299574954E+02 -0.39108885364E+03  0.39225552279E+03  0.47000000000E+01 0.  1.
         -5    1    1    2    0  502 -0.31933980502E+02  0.10970410539E+03 -0.34977582106E+03  0.36799454460E+03  0.47000000000E+01 0.  1.
        -11    1    1    2    0    0  0.58090960839E+01 -0.91828540766E+02 -0.77215676968E+02  0.12011863830E+03  0.00000000000E+00 0.  1.
         11    1    1    2    0    0  0.54155804408E+02 -0.75759896727E+01 -0.69177152620E+02  0.88180072665E+02  0.00000000000E+00 0. -1.
<mgrwt>
<rscale>  0 0.38840811E+03</rscale>
<asrwt>0</asrwt>
<pdfrwt beam="2">  1        1 0.14275431E+00 0.38840811E+03</pdfrwt>
<pdfrwt beam="1">  1       -1 0.62531756E-02 0.38840811E+03</pdfrwt>
<totfact> 0.22834782E+03</totfact>
</mgrwt>
</event>
<event>
 6    1  0.9263730E-006  0.1338728E+03  0.7546771E-02  0.1234858E+00
          2   -1    0    0  501    0  0.00000000000E+00  0.00000000000E+00  0.15210516220E+02  0.15210516220E+02  0.00000000000E+00 0. -1.
         -2   -1    0    0    0  501 -0.00000000000E+00 -0.00000000000E+00 -0.91644231042E+03  0.91644231042E+03  0.00000000000E+00 0.  1.
          5    1    1    2  502    0 -0.47297734573E+02 -0.76012472746E+02 -0.31464784081E+03  0.32717017810E+03  0.47000000000E+01 0.  1.
         -5    1    1    2    0  502  0.16665934038E+02  0.39164241875E+02 -0.20692081402E+03  0.21130524006E+03  0.47000000000E+01 0.  1.
        -11    1    1    2    0    0  0.93329396027E+01  0.65679594436E+02 -0.24347402841E+03  0.25234998593E+03  0.00000000000E+00 0. -1.
         11    1    1    2    0    0  0.21298860932E+02 -0.28831363565E+02 -0.13618911095E+03  0.14082742255E+03  0.00000000000E+00 0.  1.
<mgrwt>
<rscale>  0 0.12513519E+03</rscale>
<asrwt>0</asrwt>
<pdfrwt beam="1">  1        2 0.23400795E-02 0.13387275E+03</pdfrwt>
<pdfrwt beam="2">  1       -2 0.14099112E+00 0.13387275E+03</pdfrwt>
<totfact> 0.15730396E+03</totfact>
</mgrwt>
</event>
<event>
 6    1  0.9263730E-006  0.1267279E+03  0.7546771E-02  0.1245456E+00
         -1   -1    0    0    0  501 -0.00000000000E+00  0.00000000000E+00  0.81667865915E+02  0.81667865915E+02  0.00000000000E+00 0.  1.
          1   -1    0    0  501    0  0.00000000000E+00 -0.00000000000E+00 -0.15368722366E+03  0.15368722366E+03  0.00000000000E+00 0. -1.
          5    1    1    2  502    0 -0.60510087826E+02 -0.36451455354E+02 -0.16200554933E+02  0.72627317906E+02  0.47000000000E+01 0.  1.
         -5    1    1    2    0  502  0.39650823228E+02  0.37330646602E+02 -0.29318351683E+02  0.62027580186E+02  0.47000000000E+01 0.  1.
        -11    1    1    2    0    0  0.13396903150E+02 -0.30316462357E+02 -0.51582321961E+02  0.61313137603E+02  0.00000000000E+00 0. -1.
         11    1    1    2    0    0  0.74623614476E+01  0.29437271110E+02  0.25081870833E+02  0.39387053879E+02  0.00000000000E+00 0.  1.
<mgrwt>
<rscale>  0 0.11858117E+03</rscale>
<asrwt>0</asrwt>
<pdfrwt beam="2">  1        1 0.23644188E-01 0.12672794E+03</pdfrwt>
<pdfrwt beam="1">  1       -1 0.12564287E-01 0.12672794E+03</pdfrwt>
<totfact> 0.82331923E+03</totfact>
</mgrwt>
</event>
<event>
 6    1  0.9263730E-006  0.2310605E+03  0.7546771E-02  0.1125896E+00
          2   -1    0    0  501    0  0.00000000000E+00  0.00000000000E+00  0.15634859570E+02  0.15634859570E+02  0.00000000000E+00 0. -1.
         -2   -1    0    0    0  501 -0.00000000000E+00 -0.00000000000E+00 -0.85368426381E+03  0.85368426381E+03  0.00000000000E+00 0.  1.
          5    1    1    2  502    0  0.57448632109E+01 -0.18823272228E+02 -0.30114756709E+01  0.20456735233E+02  0.47000000000E+01 0.  1.
         -5    1    1    2    0  502 -0.96726324094E+01  0.51395435898E+02 -0.38372747580E+03  0.38730339056E+03  0.47000000000E+01 0.  1.
        -11    1    1    2    0    0  0.44408309085E+02 -0.52064280583E+00 -0.23616307012E+03  0.24030265224E+03  0.00000000000E+00 0.  1.
         11    1    1    2    0    0 -0.40480539887E+02 -0.32051520865E+02 -0.21514738265E+03  0.22125634535E+03  0.00000000000E+00 0. -1.
<mgrwt>
<rscale>  0 0.23106046E+03</rscale>
<asrwt>0</asrwt>
<pdfrwt beam="1">  1        2 0.24053628E-02 0.23106046E+03</pdfrwt>
<pdfrwt beam="2">  1       -2 0.13133605E+00 0.23106046E+03</pdfrwt>
<totfact> 0.18701519E+03</totfact>
</mgrwt>
</event>
<event>
 6    1  0.9263730E-006  0.1311078E+03  0.7546771E-02  0.1239219E+00
         -1   -1    0    0    0  501 -0.00000000000E+00  0.00000000000E+00  0.73176911102E+02  0.73176911102E+02  0.00000000000E+00 0.  1.
          1   -1    0    0  501    0  0.00000000000E+00 -0.00000000000E+00 -0.18633443095E+03  0.18633443095E+03  0.00000000000E+00 0. -1.
          5    1    1    2  502    0 -0.38545534631E+02 -0.25057883968E+02 -0.22412834184E+02  0.51362251948E+02  0.47000000000E+01 0.  1.
         -5    1    1    2    0  502  0.61710683605E+02  0.57109959076E+02 -0.61905781645E+02  0.10451876242E+03  0.47000000000E+01 0.  1.
        -11    1    1    2    0    0  0.24239693277E+02 -0.28983986601E+02  0.13373505458E+02  0.40080978752E+02  0.00000000000E+00 0. -1.
         11    1    1    2    0    0 -0.47404842251E+02 -0.30680885064E+01 -0.42212409478E+02  0.63549348933E+02  0.00000000000E+00 0.  1.
<mgrwt>
<rscale>  0 0.12238193E+03</rscale>
<asrwt>0</asrwt>
<pdfrwt beam="2">  1        1 0.28666835E-01 0.13110782E+03</pdfrwt>
<pdfrwt beam="1">  1       -1 0.11257986E-01 0.13110782E+03</pdfrwt>
<totfact> 0.76824199E+03</totfact>
</mgrwt>
</event>
<event>
 6    1  0.9263730E-006  0.1694042E+03  0.7546771E-02  0.1185401E+00
         -1   -1    0    0    0  501 -0.00000000000E+00  0.00000000000E+00  0.59243332320E+02  0.59243332320E+02  0.00000000000E+00 0.  1.
          1   -1    0    0  501    0  0.00000000000E+00 -0.00000000000E+00 -0.45805328796E+03  0.45805328796E+03  0.00000000000E+00 0. -1.
          5    1    1    2  502    0  0.39265154712E+02  0.13170477218E+02 -0.16253430145E+03  0.16779363215E+03  0.47000000000E+01 0. -1.
         -5    1    1    2    0  502 -0.41987408539E+02  0.10113363981E+03 -0.12792891532E+03  0.16846024146E+03  0.47000000000E+01 0. -1.
        -11    1    1    2    0    0 -0.34828257557E+02 -0.37850271786E+02 -0.12727798239E+02  0.52987238527E+02  0.00000000000E+00 0.  1.
         11    1    1    2    0    0  0.37550511384E+02 -0.76453845242E+02 -0.95618940639E+02  0.12805550815E+03  0.00000000000E+00 0. -1.
<mgrwt>
<rscale>  0 0.16295486E+03</rscale>
<asrwt>0</asrwt>
<pdfrwt beam="2">  1        1 0.70469732E-01 0.16940421E+03</pdfrwt>
<pdfrwt beam="1">  1       -1 0.91143595E-02 0.16940421E+03</pdfrwt>
<totfact> 0.34979357E+03</totfact>
</mgrwt>
</event>
<event>
 6    1  0.9263730E-006  0.1254625E+03  0.7546771E-02  0.1249478E+00
          2   -1    0    0  501    0  0.00000000000E+00  0.00000000000E+00  0.63066457442E+03  0.63066457442E+03  0.00000000000E+00 0. -1.
         -2   -1    0    0    0  501 -0.00000000000E+00 -0.00000000000E+00 -0.21337353510E+02  0.21337353510E+02  0.00000000000E+00 0.  1.
          5    1    1    2  502    0  0.31191078961E+02 -0.48196217015E+02  0.11813108964E+03  0.13142603654E+03  0.47000000000E+01 0. -1.
         -5    1    1    2    0  502 -0.20960011921E+02  0.44816782714E+02  0.33843650303E+03  0.34206610866E+03  0.47000000000E+01 0. -1.
        -11    1    1    2    0    0  0.60926267456E+01 -0.35449067857E+02  0.11963383879E+03  0.12492402450E+03  0.00000000000E+00 0. -1.
         11    1    1    2    0    0 -0.16323693786E+02  0.38828502157E+02  0.33125789451E+02  0.53585758233E+02  0.00000000000E+00 0.  1.
<mgrwt>
<rscale>  0 0.11621325E+03</rscale>
<asrwt>0</asrwt>
<pdfrwt beam="1">  1        2 0.97025305E-01 0.12546252E+03</pdfrwt>
<pdfrwt beam="2">  1       -2 0.32826703E-02 0.12546252E+03</pdfrwt>
<totfact> 0.16575956E+04</totfact>
</mgrwt>
</event>
<event>
 6    1  0.9263730E-006  0.1253580E+03  0.7546771E-02  0.1249647E+00
         -2   -1    0    0    0  501 -0.00000000000E+00  0.00000000000E+00  0.50677966113E+03  0.50677966113E+03  0.00000000000E+00 0.  1.
          2   -1    0    0  501    0  0.00000000000E+00 -0.00000000000E+00 -0.23920613069E+02  0.23920613069E+02  0.00000000000E+00 0. -1.
          5    1    1    2  502    0 -0.55397848239E+01 -0.57625150087E+02  0.18813580683E+03  0.19689722941E+03  0.47000000000E+01 0. -1.
         -5    1    1    2    0  502 -0.18154297922E+01  0.51649781954E+02  0.49197193290E+02  0.71508388241E+02  0.47000000000E+01 0. -1.
        -11    1    1    2    0    0  0.87900040582E+01 -0.33645642116E+02  0.19496884868E+03  0.19804581631E+03  0.00000000000E+00 0.  1.
         11    1    1    2    0    0 -0.14347894421E+01  0.39621010249E+02  0.50557199264E+02  0.64248840233E+02  0.00000000000E+00 0. -1.
<mgrwt>
<rscale>  0 0.11611542E+03</rscale>
<asrwt>0</asrwt>
<pdfrwt beam="2">  1        2 0.36800947E-02 0.12535798E+03</pdfrwt>
<pdfrwt beam="1">  1       -2 0.77966094E-01 0.12535798E+03</pdfrwt>
<totfact> 0.33863335E+03</totfact>
</mgrwt>
</event>
<event>
 6    1  0.9263730E-006  0.1273097E+03  0.7546771E-02  0.1244343E+00
         -1   -1    0    0    0  501 -0.00000000000E+00  0.00000000000E+00  0.19869388562E+03  0.19869388562E+03  0.00000000000E+00 0.  1.
          1   -1    0    0  501    0  0.00000000000E+00 -0.00000000000E+00 -0.65489376815E+02  0.65489376815E+02  0.00000000000E+00 0. -1.
          5    1    1    2  502    0  0.49580024157E+02  0.49561021254E+02  0.58917778860E+02  0.91694428887E+02  0.47000000000E+01 0. -1.
         -5    1    1    2    0  502 -0.30266736106E+02 -0.35070151990E+02 -0.44556682412E+01  0.46775355205E+02  0.47000000000E+01 0. -1.
        -11    1    1    2    0    0 -0.11411348095E+02 -0.54313927328E+02  0.57410398216E+02  0.79850957355E+02  0.00000000000E+00 0.  1.
         11    1    1    2    0    0 -0.79019399569E+01  0.39823058064E+02  0.21331999970E+02  0.45862520988E+02  0.00000000000E+00 0. -1.
<mgrwt>
<rscale>  0 0.11924767E+03</rscale>
<asrwt>0</asrwt>
<pdfrwt beam="2">  1        1 0.10075289E-01 0.12730970E+03</pdfrwt>
<pdfrwt beam="1">  1       -1 0.30568290E-01 0.12730970E+03</pdfrwt>
<totfact> 0.59433652E+03</totfact>
</mgrwt>
</event>
<event>
 6    1  0.9263730E-006  0.1363669E+03  0.7546771E-02  0.1245288E+00
         -2   -1    0    0    0  501 -0.00000000000E+00  0.00000000000E+00  0.18569578611E+02  0.18569578611E+02  0.00000000000E+00 0.  1.
          2   -1    0    0  501    0  0.00000000000E+00 -0.00000000000E+00 -0.62460700534E+03  0.62460700534E+03  0.00000000000E+00 0. -1.
          5    1    1    2  502    0 -0.22078748145E+02  0.31922040404E+02 -0.34341077635E+03  0.34562919306E+03  0.47000000000E+01 0.  1.
         -5    1    1    2    0  502  0.25738294178E+02  0.22463205867E+02 -0.14552135642E+02  0.37428733037E+02  0.47000000000E+01 0.  1.
        -11    1    1    2    0    0  0.25318190917E+02 -0.35219843434E+02 -0.14478182057E+03  0.15113974901E+03  0.00000000000E+00 0. -1.
         11    1    1    2    0    0 -0.28977736950E+02 -0.19165402837E+02 -0.10329269417E+03  0.10897890885E+03  0.00000000000E+00 0.  1.
<mgrwt>
<rscale>  0 0.11868130E+03</rscale>
<asrwt>0</asrwt>
<pdfrwt beam="2">  1        2 0.96093371E-01 0.13636689E+03</pdfrwt>
<pdfrwt beam="1">  1       -2 0.28568587E-02 0.13636689E+03</pdfrwt>
<totfact> 0.20698370E+04</totfact>
</mgrwt>
</event>
<event>
 6    1  0.9263730E-006  0.1491780E+03  0.7546771E-02  0.1211020E+00
         -2   -1    0    0    0  501 -0.00000000000E+00  0.00000000000E+00  0.24114377181E+02  0.24114377181E+02  0.00000000000E+00 0.  1.
          2   -1    0    0  501    0  0.00000000000E+00 -0.00000000000E+00 -0.77329029918E+03  0.77329029918E+03  0.00000000000E+00 0. -1.
          5    1    1    2  502    0  0.58730009343E+02  0.66811346378E+02 -0.16175166267E+03  0.18465822587E+03  0.47000000000E+01 0. -1.
         -5    1    1    2    0  502  0.20563372359E+02 -0.47872705364E+02 -0.19805951097E+03  0.20485191746E+03  0.47000000000E+01 0. -1.
        -11    1    1    2    0    0 -0.41718773054E+02 -0.48869140077E+02 -0.14133215386E+03  0.15525278288E+03  0.00000000000E+00 0.  1.
         11    1    1    2    0    0 -0.37574608647E+02  0.29930499063E+02 -0.24803259448E+03  0.25264175014E+03  0.00000000000E+00 0. -1.
<mgrwt>
<rscale>  0 0.14173017E+03</rscale>
<asrwt>0</asrwt>
<pdfrwt beam="2">  1        2 0.11896776E+00 0.14917798E+03</pdfrwt>
<pdfrwt beam="1">  1       -2 0.37099036E-02 0.14917798E+03</pdfrwt>
<totfact> 0.10991716E+04</totfact>
</mgrwt>
</event>
<event>
 6    1  0.9263730E-006  0.1378379E+03  0.7546771E-02  0.1227890E+00
         -2   -1    0    0    0  501 -0.00000000000E+00  0.00000000000E+00  0.34802879167E+02  0.34802879167E+02  0.00000000000E+00 0.  1.
          2   -1    0    0  501    0  0.00000000000E+00 -0.00000000000E+00 -0.51672386966E+03  0.51672386966E+03  0.00000000000E+00 0. -1.
          5    1    1    2  502    0  0.25356426718E+02 -0.31964288749E+02 -0.11150662434E+03  0.11882963184E+03  0.47000000000E+01 0. -1.
         -5    1    1    2    0  502 -0.39046702521E+02  0.88415276254E+02 -0.26333677308E+03  0.28055347460E+03  0.47000000000E+01 0. -1.
        -11    1    1    2    0    0 -0.83262100790E+01 -0.19647556241E+02  0.12760241750E+02  0.24863145619E+02  0.00000000000E+00 0.  1.
         11    1    1    2    0    0  0.22016485882E+02 -0.36803431264E+02 -0.11983783483E+03  0.12728049677E+03  0.00000000000E+00 0. -1.
<mgrwt>
<rscale>  0 0.12970794E+03</rscale>
<asrwt>0</asrwt>
<pdfrwt beam="2">  1        2 0.79495985E-01 0.13783792E+03</pdfrwt>
<pdfrwt beam="1">  1       -2 0.53542887E-02 0.13783792E+03</pdfrwt>
<totfact> 0.10083221E+04</totfact>
</mgrwt>
</event>
<event>
 6    1  0.9263730E-006  0.1332513E+03  0.7546771E-02  0.1236307E+00
          1   -1    0    0  501    0  0.00000000000E+00  0.00000000000E+00  0.29649320477E+04  0.29649320477E+04  0.00000000000E+00 0. -1.
         -1   -1    0    0    0  501 -0.00000000000E+00 -0.00000000000E+00 -0.80570854399E+01  0.80570854399E+01  0.00000000000E+00 0.  1.
          5    1    1    2  502    0  0.19238548366E+02  0.28249655466E+02  0.23756629458E+03  0.24005832436E+03  0.47000000000E+01 0. -1.
         -5    1    1    2    0  502  0.63396789318E+01 -0.66684319333E+02  0.23256610222E+04  0.23266302393E+04  0.47000000000E+01 0. -1.
        -11    1    1    2    0    0 -0.33571767961E+02  0.54592167991E+02  0.37472405924E+03  0.38016508123E+03  0.00000000000E+00 0. -1.
         11    1    1    2    0    0  0.79935406630E+01 -0.16157504124E+02  0.18923586174E+02  0.26135488240E+02  0.00000000000E+00 0.  1.
<mgrwt>
<rscale>  0 0.12421103E+03</rscale>
<asrwt>0</asrwt>
<pdfrwt beam="1">  1        1 0.45614252E+00 0.13325129E+03</pdfrwt>
<pdfrwt beam="2">  1       -1 0.12395540E-02 0.13325129E+03</pdfrwt>
<totfact> 0.10759500E+03</totfact>
</mgrwt>
</event>
<event>
 6    1  0.9263730E-006  0.1346835E+03  0.7546771E-02  0.1234053E+00
          2   -1    0    0  501    0  0.00000000000E+00  0.00000000000E+00  0.42455690676E+03  0.42455690676E+03  0.00000000000E+00 0. -1.
         -2   -1    0    0    0  501 -0.00000000000E+00 -0.00000000000E+00 -0.39824489299E+02  0.39824489299E+02  0.00000000000E+00 0.  1.
          5    1    1    2  502    0 -0.42583168299E+02 -0.42999684756E+02  0.25693173923E+03  0.26400437067E+03  0.47000000000E+01 0. -1.
         -5    1    1    2    0  502 -0.69557926721E+01  0.50792589396E+02  0.52804925831E+02  0.73747680515E+02  0.47000000000E+01 0. -1.
        -11    1    1    2    0    0 -0.13560663170E+02 -0.16658104585E+02  0.56247095927E+02  0.60208968054E+02  0.00000000000E+00 0. -1.
         11    1    1    2    0    0  0.63099624141E+02  0.88651999455E+01  0.18748656473E+02  0.66420376816E+02  0.00000000000E+00 0.  1.
<mgrwt>
<rscale>  0 0.12565229E+03</rscale>
<asrwt>0</asrwt>
<pdfrwt beam="1">  1        2 0.65316444E-01 0.13468350E+03</pdfrwt>
<pdfrwt beam="2">  1       -2 0.61268448E-02 0.13468350E+03</pdfrwt>
<totfact> 0.10167962E+04</totfact>
</mgrwt>
</event>
<event>
 6    1  0.9263730E-006  0.1370253E+03  0.7546771E-02  0.1230999E+00
         -4   -1    0    0    0  501 -0.00000000000E+00  0.00000000000E+00  0.23298456842E+03  0.23298456842E+03  0.00000000000E+00 0.  1.
          4   -1    0    0  501    0  0.00000000000E+00 -0.00000000000E+00 -0.83577848324E+02  0.83577848324E+02  0.00000000000E+00 0. -1.
          5    1    1    2  502    0 -0.30826501047E+02  0.45348290419E+02 -0.14378003860E+02  0.56881962042E+02  0.47000000000E+01 0.  1.
         -5    1    1    2    0  502 -0.15790213457E+02 -0.76617921270E+02  0.16878800389E+02  0.80166206117E+02  0.47000000000E+01 0.  1.
        -11    1    1    2    0    0  0.40001540318E+02  0.54420920293E+02  0.63505244825E+02  0.92707474961E+02  0.00000000000E+00 0. -1.
         11    1    1    2    0    0  0.66151741869E+01 -0.23151289443E+02  0.83400678743E+02  0.86806773625E+02  0.00000000000E+00 0.  1.
<mgrwt>
<rscale>  0 0.12764061E+03</rscale>
<asrwt>0</asrwt>
<pdfrwt beam="2">  1        4 0.12858131E-01 0.13702535E+03</pdfrwt>
<pdfrwt beam="1">  1       -4 0.35843780E-01 0.13702535E+03</pdfrwt>
<totfact> 0.61772893E+02</totfact>
</mgrwt>
</event>
<event>
 6    1  0.9263730E-006  0.1682970E+03  0.7546771E-02  0.1186349E+00
         -1   -1    0    0    0  501 -0.00000000000E+00  0.00000000000E+00  0.47582782923E+02  0.47582782923E+02  0.00000000000E+00 0. -1.
          1   -1    0    0  501    0  0.00000000000E+00 -0.00000000000E+00 -0.57058089941E+03  0.57058089941E+03  0.00000000000E+00 0.  1.
          5    1    1    2  502    0  0.51638528482E+02  0.64273369273E+01 -0.23889272961E+03  0.24453971977E+03  0.47000000000E+01 0. -1.
         -5    1    1    2    0  502 -0.40703181921E+01  0.95734287452E+02 -0.13637920615E+03  0.16674231363E+03  0.47000000000E+01 0. -1.
        -11    1    1    2    0    0 -0.24706872598E+02  0.95563319948E+01 -0.50502000588E+02  0.57028107966E+02  0.00000000000E+00 0.  1.
         11    1    1    2    0    0 -0.22861337692E+02 -0.11171795637E+03 -0.97224180138E+02  0.14985354097E+03  0.00000000000E+00 0. -1.
<mgrwt>
<rscale>  0 0.16209709E+03</rscale>
<asrwt>0</asrwt>
<pdfrwt beam="2">  1        1 0.87781680E-01 0.16829701E+03</pdfrwt>
<pdfrwt beam="1">  1       -1 0.73204279E-02 0.16829701E+03</pdfrwt>
<totfact> 0.36491661E+03</totfact>
</mgrwt>
</event>
<event>
 6    1  0.9263730E-006  0.2298475E+03  0.7546771E-02  0.1129781E+00
         -2   -1    0    0    0  501 -0.00000000000E+00  0.00000000000E+00  0.51845593412E+03  0.51845593412E+03  0.00000000000E+00 0.  1.
          2   -1    0    0  501    0  0.00000000000E+00 -0.00000000000E+00 -0.10049029960E+03  0.10049029960E+03  0.00000000000E+00 0. -1.
          5    1    1    2  502    0 -0.31565576183E+02 -0.11048580729E+03  0.71869325837E+02  0.13561264399E+03  0.47000000000E+01 0. -1.
         -5    1    1    2    0  502 -0.11353828353E+03 -0.16595401522E+02  0.70180250212E+02  0.13458717137E+03  0.47000000000E+01 0. -1.
        -11    1    1    2    0    0  0.90805626851E+02  0.71104105386E+02  0.87308914669E+02  0.14465234962E+03  0.00000000000E+00 0. -1.
         11    1    1    2    0    0  0.54298232859E+02  0.55977103428E+02  0.18860714381E+03  0.20409406874E+03  0.00000000000E+00 0.  1.
<mgrwt>
<rscale>  0 0.22559243E+03</rscale>
<asrwt>0</asrwt>
<pdfrwt beam="2">  1        2 0.15460046E-01 0.22984747E+03</pdfrwt>
<pdfrwt beam="1">  1       -2 0.79762450E-01 0.22984747E+03</pdfrwt>
<totfact> 0.53844981E+02</totfact>
</mgrwt>
</event>
<event>
 6    1  0.9263730E-006  0.3199844E+03  0.7546771E-02  0.1077048E+00
         -1   -1    0    0    0  501 -0.00000000000E+00  0.00000000000E+00  0.11943677366E+03  0.11943677366E+03  0.00000000000E+00 0.  1.
          1   -1    0    0  501    0  0.00000000000E+00 -0.00000000000E+00 -0.82801531982E+03  0.82801531982E+03  0.00000000000E+00 0. -1.
          5    1    1    2  502    0 -0.21022929330E+02 -0.14810011219E+03 -0.14708434303E+03  0.20983684317E+03  0.47000000000E+01 0. -1.
         -5    1    1    2    0  502  0.95972394536E+02 -0.13676074439E+03 -0.23831959136E+03  0.29108850775E+03  0.47000000000E+01 0. -1.
        -11    1    1    2    0    0  0.11412672539E+02  0.91940374796E+02 -0.66598524639E+02  0.11409927737E+03  0.00000000000E+00 0.  1.
         11    1    1    2    0    0 -0.86362137745E+02  0.19292048178E+03 -0.25657608713E+03  0.33242746519E+03  0.00000000000E+00 0. -1.
<mgrwt>
<rscale>  0 0.31697880E+03</rscale>
<asrwt>0</asrwt>
<pdfrwt beam="2">  1        1 0.12738697E+00 0.31998440E+03</pdfrwt>
<pdfrwt beam="1">  1       -1 0.18374888E-01 0.31998440E+03</pdfrwt>
<totfact> 0.50649081E+02</totfact>
</mgrwt>
</event>
<event>
 6    1  0.9263730E-006  0.2452160E+03  0.7546771E-02  0.1153154E+00
          1   -1    0    0  501    0  0.00000000000E+00  0.00000000000E+00  0.46651995350E+03  0.46651995350E+03  0.00000000000E+00 0. -1.
         -1   -1    0    0    0  501 -0.00000000000E+00 -0.00000000000E+00 -0.65885553656E+02  0.65885553656E+02  0.00000000000E+00 0.  1.
          5    1    1    2  502    0  0.85844738833E+02 -0.45739362558E+02  0.74999856342E+02  0.12291654455E+03  0.47000000000E+01 0. -1.
         -5    1    1    2    0  502 -0.11989318713E+03  0.62657052103E+02  0.24903723018E+03  0.28344649321E+03  0.47000000000E+01 0.  1.
        -11    1    1    2    0    0  0.42413985986E+02  0.30091503040E+02  0.34693080236E+02  0.62514434963E+02  0.00000000000E+00 0.  1.
         11    1    1    2    0    0 -0.83655376853E+01 -0.47009192585E+02  0.41904233089E+02  0.63528034434E+02  0.00000000000E+00 0. -1.
<mgrwt>
<rscale>  0 0.19600523E+03</rscale>
<asrwt>0</asrwt>
<pdfrwt beam="1">  1        1 0.71772298E-01 0.24521600E+03</pdfrwt>
<pdfrwt beam="2">  1       -1 0.10136239E-01 0.24521600E+03</pdfrwt>
<totfact> 0.29371347E+03</totfact>
</mgrwt>
</event>
<event>
 6    1  0.9263730E-006  0.1283359E+03  0.7546771E-02  0.1243950E+00
         -2   -1    0    0    0  501 -0.00000000000E+00  0.00000000000E+00  0.14052606875E+03  0.14052606875E+03  0.00000000000E+00 0.  1.
          2   -1    0    0  501    0  0.00000000000E+00 -0.00000000000E+00 -0.95342464913E+02  0.95342464913E+02  0.00000000000E+00 0. -1.
          5    1    1    2  502    0  0.34315377899E+02 -0.51850266007E+02  0.33358952211E+02  0.70717076707E+02  0.47000000000E+01 0. -1.
         -5    1    1    2    0  502 -0.61960636190E+01  0.44566759831E+02 -0.35717641749E+02  0.57640499810E+02  0.47000000000E+01 0. -1.
        -11    1    1    2    0    0 -0.52118155976E+02  0.16902106213E+02  0.16243000355E+01  0.54814429920E+02  0.00000000000E+00 0. -1.
         11    1    1    2    0    0  0.23998841696E+02 -0.96186000373E+01  0.45917993344E+02  0.52696527230E+02  0.00000000000E+00 0.  1.
<mgrwt>
<rscale>  0 0.11948456E+03</rscale>
<asrwt>0</asrwt>
<pdfrwt beam="2">  1        2 0.14668071E-01 0.12833590E+03</pdfrwt>
<pdfrwt beam="1">  1       -2 0.21619395E-01 0.12833590E+03</pdfrwt>
<totfact> 0.69272239E+03</totfact>
</mgrwt>
</event>
<event>
 6    1  0.9263730E-006  0.1424219E+03  0.7546771E-02  0.1219232E+00
          1   -1    0    0  501    0  0.00000000000E+00  0.00000000000E+00  0.73226305437E+02  0.73226305437E+02  0.00000000000E+00 0. -1.
         -1   -1    0    0    0  501 -0.00000000000E+00 -0.00000000000E+00 -0.24241269350E+03  0.24241269350E+03  0.00000000000E+00 0.  1.
          5    1    1    2  502    0  0.22129543674E+02  0.61484808647E+01 -0.85098749118E+02  0.88268950496E+02  0.47000000000E+01 0. -1.
         -5    1    1    2    0  502 -0.15936196457E+01  0.58945464882E+02  0.27657340205E+02  0.65300275045E+02  0.47000000000E+01 0. -1.
        -11    1    1    2    0    0  0.90149765667E+01 -0.51166189619E+02 -0.11788793620E+03  0.12882862362E+03  0.00000000000E+00 0.  1.
         11    1    1    2    0    0 -0.29550900595E+02 -0.13927756128E+02  0.61429570544E+01  0.33241149771E+02  0.00000000000E+00 0. -1.
<mgrwt>
<rscale>  0 0.13570236E+03</rscale>
<asrwt>0</asrwt>
<pdfrwt beam="1">  1        1 0.11265586E-01 0.14242188E+03</pdfrwt>
<pdfrwt beam="2">  1       -1 0.37294260E-01 0.14242188E+03</pdfrwt>
<totfact> 0.36782859E+03</totfact>
</mgrwt>
</event>
<event>
 6    1  0.9263730E-006  0.1367190E+03  0.7546771E-02  0.1229843E+00
         -1   -1    0    0    0  501 -0.00000000000E+00  0.00000000000E+00  0.64208218768E+02  0.64208218768E+02  0.00000000000E+00 0.  1.
          1   -1    0    0  501    0  0.00000000000E+00 -0.00000000000E+00 -0.26456459401E+03  0.26456459401E+03  0.00000000000E+00 0. -1.
          5    1    1    2  502    0  0.22072884085E+02  0.67604927000E+02 -0.37449894005E+02  0.80512253275E+02  0.47000000000E+01 0. -1.
         -5    1    1    2    0  502  0.19596066404E+02 -0.31152203189E+02 -0.13254489521E+03  0.13763976470E+03  0.47000000000E+01 0. -1.
        -11    1    1    2    0    0 -0.24997401515E+02 -0.16584994884E+02 -0.62497570082E+02  0.69324443048E+02  0.00000000000E+00 0. -1.
         11    1    1    2    0    0 -0.16671548974E+02 -0.19867728927E+02  0.32135984046E+02  0.41296351758E+02  0.00000000000E+00 0.  1.
<mgrwt>
<rscale>  0 0.12840414E+03</rscale>
<asrwt>0</asrwt>
<pdfrwt beam="2">  1        1 0.40702246E-01 0.13671896E+03</pdfrwt>
<pdfrwt beam="1">  1       -1 0.98781874E-02 0.13671896E+03</pdfrwt>
<totfact> 0.60950909E+03</totfact>
</mgrwt>
</event>
<event>
 6    1  0.1078433E-005  0.1315241E+03  0.7546771E-02  0.1238105E+00
          1   -1    0    0  501    0  0.00000000000E+00  0.00000000000E+00  0.16320460149E+03  0.16320460149E+03  0.00000000000E+00 0. -1.
         -1   -1    0    0    0  501 -0.00000000000E+00 -0.00000000000E+00 -0.85042037564E+02  0.85042037564E+02  0.00000000000E+00 0.  1.
          5    1    1    2  502    0  0.41638062894E+02  0.59189040610E+02  0.79635983101E+02  0.10770817339E+03  0.47000000000E+01 0. -1.
         -5    1    1    2    0  502 -0.28925122481E+02 -0.20308254581E+02 -0.15192208559E+02  0.38755401114E+02  0.47000000000E+01 0. -1.
        -11    1    1    2    0    0 -0.46633084391E+02 -0.37652251408E+02  0.26474756111E+02  0.65522891474E+02  0.00000000000E+00 0.  1.
         11    1    1    2    0    0  0.33920143977E+02 -0.12285346211E+01 -0.12755966726E+02  0.36260173081E+02  0.00000000000E+00 0. -1.
<mgrwt>
<rscale>  0 0.12307717E+03</rscale>
<asrwt>0</asrwt>
<pdfrwt beam="1">  1        1 0.25108400E-01 0.13152406E+03</pdfrwt>
<pdfrwt beam="2">  1       -1 0.13083390E-01 0.13152406E+03</pdfrwt>
<totfact> 0.71916235E+03</totfact>
</mgrwt>
</event>
<event>
 6    1  0.9263730E-006  0.1354620E+03  0.7546771E-02  0.1232323E+00
         -2   -1    0    0    0  501 -0.00000000000E+00  0.00000000000E+00  0.27340117041E+02  0.27340117041E+02  0.00000000000E+00 0. -1.
          2   -1    0    0  501    0  0.00000000000E+00 -0.00000000000E+00 -0.54106514705E+03  0.54106514705E+03  0.00000000000E+00 0.  1.
          5    1    1    2  502    0 -0.16414375855E+02  0.12832830365E+02 -0.33190746708E+03  0.33259400171E+03  0.47000000000E+01 0.  1.
         -5    1    1    2    0  502 -0.18483038447E+02  0.25984244136E+02 -0.78522801531E+01  0.33174567927E+02  0.47000000000E+01 0.  1.
        -11    1    1    2    0    0  0.44345125416E+02 -0.57357272454E+02 -0.16451654987E+03  0.17978331967E+03  0.00000000000E+00 0.  1.
         11    1    1    2    0    0 -0.94477111141E+01  0.18540197952E+02 -0.94487329076E+01  0.22853374783E+02  0.00000000000E+00 0. -1.
<mgrwt>
<rscale>  0 0.12677384E+03</rscale>
<asrwt>0</asrwt>
<pdfrwt beam="2">  1        2 0.83240794E-01 0.13546203E+03</pdfrwt>
<pdfrwt beam="1">  1       -2 0.42061718E-02 0.13546203E+03</pdfrwt>
<totfact> 0.13737641E+04</totfact>
</mgrwt>
</event>
<event>
 6    1  0.9263730E-006  0.1344122E+03  0.7546771E-02  0.1235084E+00
         -1   -1    0    0    0  501 -0.00000000000E+00  0.00000000000E+00  0.19908488018E+02  0.19908488018E+02  0.00000000000E+00 0.  1.
          1   -1    0    0  501    0  0.00000000000E+00 -0.00000000000E+00 -0.71468615039E+03  0.71468615039E+03  0.00000000000E+00 0. -1.
          5    1    1    2  502    0  0.44931179076E+02  0.16322265232E+02 -0.91176970407E+02  0.10305608729E+03  0.47000000000E+01 0. -1.
         -5    1    1    2    0  502 -0.35550381794E+02 -0.64844294203E+02 -0.36816332576E+03  0.37554618434E+03  0.47000000000E+01 0. -1.
        -11    1    1    2    0    0 -0.40913597004E+02  0.25444446240E+02 -0.19023612683E+03  0.19624251888E+03  0.00000000000E+00 0. -1.
         11    1    1    2    0    0  0.31532799722E+02  0.23077582732E+02 -0.45201239374E+02  0.59749847899E+02  0.00000000000E+00 0.  1.
<mgrwt>
<rscale>  0 0.12499029E+03</rscale>
<asrwt>0</asrwt>
<pdfrwt beam="2">  1        1 0.10995169E+00 0.13441215E+03</pdfrwt>
<pdfrwt beam="1">  1       -1 0.30628450E-02 0.13441215E+03</pdfrwt>
<totfact> 0.95845426E+03</totfact>
</mgrwt>
</event>
<event>
 6    1  0.9263730E-006  0.1265446E+03  0.7546771E-02  0.1251380E+00
          3   -1    0    0  501    0  0.00000000000E+00  0.00000000000E+00  0.34529030096E+03  0.34529030096E+03  0.00000000000E+00 0. -1.
         -3   -1    0    0    0  501 -0.00000000000E+00 -0.00000000000E+00 -0.42277265175E+02  0.42277265175E+02  0.00000000000E+00 0.  1.
          5    1    1    2  502    0 -0.36095587390E+02 -0.40721522699E+02  0.88147858274E+02  0.10369796892E+03  0.47000000000E+01 0. -1.
         -5    1    1    2    0  502  0.55875321731E+02  0.41012493120E+02  0.17538786381E+03  0.18864535229E+03  0.47000000000E+01 0. -1.
        -11    1    1    2    0    0 -0.34883520198E+02  0.34182741597E+02  0.19254942537E+02  0.52498310608E+02  0.00000000000E+00 0.  1.
         11    1    1    2    0    0  0.15103785857E+02 -0.34473712018E+02  0.20222371169E+02  0.42725934317E+02  0.00000000000E+00 0. -1.
<mgrwt>
<rscale>  0 0.11511501E+03</rscale>
<asrwt>0</asrwt>
<pdfrwt beam="1">  1        3 0.53121583E-01 0.12654462E+03</pdfrwt>
<pdfrwt beam="2">  1       -3 0.65041949E-02 0.12654462E+03</pdfrwt>
<totfact> 0.12031302E+03</totfact>
</mgrwt>
</event>
<event>
 6    1  0.9263730E-006  0.4158823E+03  0.7546771E-02  0.1038415E+00
         -2   -1    0    0    0  501 -0.00000000000E+00  0.00000000000E+00  0.16327025099E+04  0.16327025099E+04  0.00000000000E+00 0.  1.
          2   -1    0    0  501    0  0.00000000000E+00 -0.00000000000E+00 -0.26483401149E+02  0.26483401149E+02  0.00000000000E+00 0. -1.
          5    1    1    2  502    0  0.38942406221E+02 -0.14099539290E+03  0.56890710535E+03  0.58742965224E+03  0.47000000000E+01 0.  1.
         -5    1    1    2    0  502  0.70325276024E+02  0.14948320499E+01  0.27790896511E+03  0.28671128659E+03  0.47000000000E+01 0.  1.
        -11    1    1    2    0    0 -0.39930801751E+02  0.80797510542E+02  0.54169820845E+03  0.54914447614E+03  0.00000000000E+00 0.  1.
         11    1    1    2    0    0 -0.69336880493E+02  0.58703050303E+02  0.21770482989E+03  0.23590049612E+03  0.00000000000E+00 0. -1.
<mgrwt>
<rscale>  0 0.41588227E+03</rscale>
<asrwt>0</asrwt>
<pdfrwt beam="2">  1        2 0.40743707E-02 0.41588227E+03</pdfrwt>
<pdfrwt beam="1">  1       -2 0.25118492E+00 0.41588227E+03</pdfrwt>
<totfact> 0.14477620E+02</totfact>
</mgrwt>
</event>
<event>
 6    1  0.9263730E-006  0.1341823E+03  0.7546771E-02  0.1234193E+00
         -1   -1    0    0    0  501 -0.00000000000E+00  0.00000000000E+00  0.45772411746E+02  0.45772411746E+02  0.00000000000E+00 0.  1.
          1   -1    0    0  501    0  0.00000000000E+00 -0.00000000000E+00 -0.32906927171E+03  0.32906927171E+03  0.00000000000E+00 0. -1.
          5    1    1    2  502    0  0.20602800366E+02  0.10002431020E+02  0.19865212691E+02  0.30679646095E+02  0.47000000000E+01 0. -1.
         -5    1    1    2    0  502 -0.51778339902E+02  0.27574981406E+02 -0.13077196199E+03  0.14340422631E+03  0.47000000000E+01 0. -1.
        -11    1    1    2    0    0  0.48743483967E+02 -0.14144977387E+02 -0.16186743547E+03  0.16963806849E+03  0.00000000000E+00 0. -1.
         11    1    1    2    0    0 -0.17567944432E+02 -0.23432435039E+02 -0.10522675189E+02  0.31119742553E+02  0.00000000000E+00 0.  1.
<mgrwt>
<rscale>  0 0.12556238E+03</rscale>
<asrwt>0</asrwt>
<pdfrwt beam="2">  1        1 0.50626039E-01 0.13418229E+03</pdfrwt>
<pdfrwt beam="1">  1       -1 0.70419098E-02 0.13418229E+03</pdfrwt>
<totfact> 0.77515679E+03</totfact>
</mgrwt>
</event>
<event>
 6    1  0.9263730E-006  0.1833697E+03  0.7546771E-02  0.1181249E+00
          2   -1    0    0  501    0  0.00000000000E+00  0.00000000000E+00  0.54821324209E+03  0.54821324209E+03  0.00000000000E+00 0. -1.
         -2   -1    0    0    0  501 -0.00000000000E+00 -0.00000000000E+00 -0.44723028698E+02  0.44723028698E+02  0.00000000000E+00 0.  1.
          5    1    1    2  502    0 -0.15875247588E+02 -0.65336354315E+02  0.25339327293E+03  0.26220431623E+03  0.47000000000E+01 0. -1.
         -5    1    1    2    0  502 -0.77425976966E+02  0.46249242687E+02  0.92421855673E+02  0.12921944035E+03  0.47000000000E+01 0.  1.
        -11    1    1    2    0    0 -0.13609371876E+02  0.12305744098E+02  0.22205666574E+02  0.28805172602E+02  0.00000000000E+00 0. -1.
         11    1    1    2    0    0  0.10691059643E+03  0.67813675298E+01  0.13546941821E+03  0.17270734161E+03  0.00000000000E+00 0.  1.
<mgrwt>
<rscale>  0 0.16677906E+03</rscale>
<asrwt>0</asrwt>
<pdfrwt beam="1">  1        2 0.84340494E-01 0.18336972E+03</pdfrwt>
<pdfrwt beam="2">  1       -2 0.68804663E-02 0.18336972E+03</pdfrwt>
<totfact> 0.65511580E+03</totfact>
</mgrwt>
</event>
<event>
 6    1  0.9263730E-006  0.2432949E+03  0.7546771E-02  0.1120386E+00
          2   -1    0    0  501    0  0.00000000000E+00  0.00000000000E+00  0.39545500625E+03  0.39545500625E+03  0.00000000000E+00 0. -1.
         -2   -1    0    0    0  501 -0.00000000000E+00 -0.00000000000E+00 -0.14711189200E+03  0.14711189200E+03  0.00000000000E+00 0.  1.
          5    1    1    2  502    0 -0.64523763422E+02  0.16827667629E+03  0.15324379674E+03  0.23661383532E+03  0.47000000000E+01 0. -1.
         -5    1    1    2    0  502 -0.61620511197E+02 -0.19778293259E+01  0.35398332813E+02  0.71246973093E+02  0.47000000000E+01 0. -1.
        -11    1    1    2    0    0  0.84216357815E+02 -0.13021047723E+03  0.24446999203E+01  0.15509074718E+03  0.00000000000E+00 0.  1.
         11    1    1    2    0    0  0.41927916804E+02 -0.36088369735E+02  0.57256284782E+02  0.79615342646E+02  0.00000000000E+00 0. -1.
<mgrwt>
<rscale>  0 0.23911106E+03</rscale>
<asrwt>0</asrwt>
<pdfrwt beam="1">  1        2 0.60839231E-01 0.24329493E+03</pdfrwt>
<pdfrwt beam="2">  1       -2 0.22632599E-01 0.24329493E+03</pdfrwt>
<totfact> 0.13677626E+03</totfact>
</mgrwt>
</event>
<event>
 6    1  0.9263730E-006  0.1291629E+03  0.7546771E-02  0.1243151E+00
          2   -1    0    0  501    0  0.00000000000E+00  0.00000000000E+00  0.53100391875E+03  0.53100391875E+03  0.00000000000E+00 0.  1.
         -2   -1    0    0    0  501 -0.00000000000E+00 -0.00000000000E+00 -0.24453876484E+02  0.24453876484E+02  0.00000000000E+00 0. -1.
          5    1    1    2  502    0 -0.28378667980E+02  0.20119472032E+02  0.29720278004E+03  0.29926864924E+03  0.47000000000E+01 0. -1.
         -5    1    1    2    0  502  0.63669285915E+01 -0.44033367718E+02  0.33888675051E+02  0.56124928053E+02  0.47000000000E+01 0. -1.
        -11    1    1    2    0    0  0.30938210629E+02  0.51517165111E+02  0.78513294582E+02  0.98871272896E+02  0.00000000000E+00 0. -1.
         11    1    1    2    0    0 -0.89264712401E+01 -0.27603269425E+02  0.96945292593E+02  0.10119294505E+03  0.00000000000E+00 0.  1.
<mgrwt>
<rscale>  0 0.11996708E+03</rscale>
<asrwt>0</asrwt>
<pdfrwt beam="1">  1        2 0.81692902E-01 0.12916286E+03</pdfrwt>
<pdfrwt beam="2">  1       -2 0.37621352E-02 0.12916286E+03</pdfrwt>
<totfact> 0.16491610E+04</totfact>
</mgrwt>
</event>
<event>
 6    1  0.9263730E-006  0.1401611E+03  0.7546771E-02  0.1227752E+00
         -2   -1    0    0    0  501 -0.00000000000E+00  0.00000000000E+00  0.97537984217E+02  0.97537984217E+02  0.00000000000E+00 0.  1.
          2   -1    0    0  501    0  0.00000000000E+00 -0.00000000000E+00 -0.15283321013E+03  0.15283321013E+03  0.00000000000E+00 0. -1.
          5    1    1    2  502    0  0.74456442280E+02 -0.15493896885E+02 -0.46202942351E+02  0.89110181908E+02  0.47000000000E+01 0.  1.
         -5    1    1    2    0  502 -0.22848444484E+02  0.52321971144E+02  0.35525060245E+01  0.57396431760E+02  0.47000000000E+01 0.  1.
        -11    1    1    2    0    0 -0.43538229316E+02 -0.19872554431E+02  0.30540500398E+02  0.56773391621E+02  0.00000000000E+00 0.  1.
         11    1    1    2    0    0 -0.80697684803E+01 -0.16955519827E+02 -0.43185289985E+02  0.47091189059E+02  0.00000000000E+00 0. -1.
<mgrwt>
<rscale>  0 0.12980063E+03</rscale>
<asrwt>0</asrwt>
<pdfrwt beam="2">  1        2 0.23512801E-01 0.14016108E+03</pdfrwt>
<pdfrwt beam="1">  1       -2 0.15005844E-01 0.14016108E+03</pdfrwt>
<totfact> 0.74880410E+03</totfact>
</mgrwt>
</event>
<event>
 6    1  0.9263730E-006  0.1261046E+03  0.7546771E-02  0.1247926E+00
          2   -1    0    0  501    0  0.00000000000E+00  0.00000000000E+00  0.14303498201E+03  0.14303498201E+03  0.00000000000E+00 0. -1.
         -2   -1    0    0    0  501 -0.00000000000E+00 -0.00000000000E+00 -0.88591464022E+02  0.88591464022E+02  0.00000000000E+00 0.  1.
          5    1    1    2  502    0  0.34587845783E+02 -0.51182172830E+02  0.59595182101E+02  0.85962838606E+02  0.47000000000E+01 0. -1.
         -5    1    1    2    0  502 -0.37854537976E+02  0.34856344558E+02 -0.40543504729E+01  0.51831057862E+02  0.47000000000E+01 0. -1.
        -11    1    1    2    0    0 -0.38939742089E+02 -0.58053357872E+01  0.16962211736E+02  0.42868660634E+02  0.00000000000E+00 0. -1.
         11    1    1    2    0    0  0.42206434282E+02  0.22131164059E+02 -0.18059525382E+02  0.50963888925E+02  0.00000000000E+00 0.  1.
<mgrwt>
<rscale>  0 0.11711949E+03</rscale>
<asrwt>0</asrwt>
<pdfrwt beam="1">  1        2 0.22005382E-01 0.12610462E+03</pdfrwt>
<pdfrwt beam="2">  1       -2 0.13629456E-01 0.12610462E+03</pdfrwt>
<totfact> 0.93500282E+03</totfact>
</mgrwt>
</event>
<event>
 6    1  0.9263730E-006  0.2119497E+03  0.7546771E-02  0.1152217E+00
          1   -1    0    0  501    0  0.00000000000E+00  0.00000000000E+00  0.86250709823E+03  0.86250709823E+03  0.00000000000E+00 0. -1.
         -1   -1    0    0    0  501 -0.00000000000E+00 -0.00000000000E+00 -0.45073112368E+02  0.45073112368E+02  0.00000000000E+00 0.  1.
          5    1    1    2  502    0 -0.34363354276E+02 -0.20340543264E+02  0.27626802245E+03  0.27917859525E+03  0.47000000000E+01 0. -1.
         -5    1    1    2    0  502  0.14815437833E+03 -0.34147648684E+02  0.33869544835E+03  0.37128490201E+03  0.47000000000E+01 0.  1.
        -11    1    1    2    0    0 -0.10657954120E+03  0.76403072354E+02  0.19008744523E+03  0.23093259818E+03  0.00000000000E+00 0.  1.
         11    1    1    2    0    0 -0.72114828498E+01 -0.21914880407E+02  0.12383069834E+02  0.26184115159E+02  0.00000000000E+00 0. -1.
<mgrwt>
<rscale>  0 0.19709048E+03</rscale>
<asrwt>0</asrwt>
<pdfrwt beam="1">  1        1 0.13269339E+00 0.21194974E+03</pdfrwt>
<pdfrwt beam="2">  1       -1 0.69343256E-02 0.21194974E+03</pdfrwt>
<totfact> 0.21843266E+03</totfact>
</mgrwt>
</event>
<event>
 6    1  0.9263730E-006  0.1418836E+03  0.7546771E-02  0.1221773E+00
          1   -1    0    0  501    0  0.00000000000E+00  0.00000000000E+00  0.17694657937E+03  0.17694657937E+03  0.00000000000E+00 0. -1.
         -1   -1    0    0    0  501 -0.00000000000E+00 -0.00000000000E+00 -0.14584701982E+03  0.14584701982E+03  0.00000000000E+00 0.  1.
          5    1    1    2  502    0 -0.70183886016E+02  0.59552941126E+02  0.79089670859E+02  0.12144791760E+03  0.47000000000E+01 0. -1.
         -5    1    1    2    0  502  0.49130687843E+02  0.41854220288E+01  0.35719439621E+02  0.61068081780E+02  0.47000000000E+01 0. -1.
        -11    1    1    2    0    0  0.36529982874E+02  0.16836535867E+01 -0.57454244013E+02  0.68104805214E+02  0.00000000000E+00 0.  1.
         11    1    1    2    0    0 -0.15476784701E+02 -0.65422016742E+02 -0.26255306915E+02  0.72172794600E+02  0.00000000000E+00 0. -1.
<mgrwt>
<rscale>  0 0.13390551E+03</rscale>
<asrwt>0</asrwt>
<pdfrwt beam="1">  1        1 0.27222551E-01 0.14188361E+03</pdfrwt>
<pdfrwt beam="2">  1       -1 0.22438003E-01 0.14188361E+03</pdfrwt>
<totfact> 0.27756387E+03</totfact>
</mgrwt>
</event>
<event>
 6    1  0.9263730E-006  0.1383076E+03  0.7546771E-02  0.1227094E+00
          1   -1    0    0  501    0  0.00000000000E+00  0.00000000000E+00  0.10159840876E+03  0.10159840876E+03  0.00000000000E+00 0. -1.
         -1   -1    0    0    0  501 -0.00000000000E+00 -0.00000000000E+00 -0.15788478547E+03  0.15788478547E+03  0.00000000000E+00 0.  1.
          5    1    1    2  502    0 -0.39890486189E+02  0.69753007932E+01 -0.46202645523E+02  0.61617206711E+02  0.47000000000E+01 0. -1.
         -5    1    1    2    0  502  0.16000940022E+02 -0.61124633603E+02  0.43264926458E+02  0.76721540496E+02  0.47000000000E+01 0. -1.
        -11    1    1    2    0    0  0.16938090137E+02  0.80114330400E+02 -0.39992608915E+02  0.91129652697E+02  0.00000000000E+00 0.  1.
         11    1    1    2    0    0  0.69514560302E+01 -0.25964997591E+02 -0.13356048725E+02  0.30014794325E+02  0.00000000000E+00 0. -1.
<mgrwt>
<rscale>  0 0.13024380E+03</rscale>
<asrwt>0</asrwt>
<pdfrwt beam="1">  1        1 0.15630524E-01 0.13830755E+03</pdfrwt>
<pdfrwt beam="2">  1       -1 0.24289967E-01 0.13830755E+03</pdfrwt>
<totfact> 0.49284525E+03</totfact>
</mgrwt>
</event>
<event>
 6    1  0.9263730E-006  0.1621259E+03  0.7546771E-02  0.1193515E+00
         -1   -1    0    0    0  501 -0.00000000000E+00  0.00000000000E+00  0.13076020051E+03  0.13076020051E+03  0.00000000000E+00 0.  1.
          1   -1    0    0  501    0  0.00000000000E+00 -0.00000000000E+00 -0.18999382493E+03  0.18999382493E+03  0.00000000000E+00 0. -1.
          5    1    1    2  502    0 -0.51914640042E+02  0.90930106319E+02 -0.52798332871E+02  0.11735914127E+03  0.47000000000E+01 0. -1.
         -5    1    1    2    0  502  0.55783733919E+02  0.12243367597E+02 -0.27417374841E+02  0.63525801556E+02  0.47000000000E+01 0. -1.
        -11    1    1    2    0    0 -0.23879512971E+02  0.68201315107E+01  0.12354568956E+02  0.27737712733E+02  0.00000000000E+00 0. -1.
         11    1    1    2    0    0  0.20010419093E+02 -0.10999360543E+03  0.86275143324E+01  0.11213136988E+03  0.00000000000E+00 0.  1.
<mgrwt>
<rscale>  0 0.15580597E+03</rscale>
<asrwt>0</asrwt>
<pdfrwt beam="2">  1        1 0.29229819E-01 0.16212589E+03</pdfrwt>
<pdfrwt beam="1">  1       -1 0.20116954E-01 0.16212589E+03</pdfrwt>
<totfact> 0.30487122E+03</totfact>
</mgrwt>
</event>
<event>
 6    1  0.9263730E-006  0.2369899E+03  0.7546771E-02  0.1121814E+00
         -2   -1    0    0    0  501 -0.00000000000E+00  0.00000000000E+00  0.13170572738E+03  0.13170572738E+03  0.00000000000E+00 0.  1.
          2   -1    0    0  501    0  0.00000000000E+00 -0.00000000000E+00 -0.10660924085E+03  0.10660924085E+03  0.00000000000E+00 0. -1.
          5    1    1    2  502    0 -0.65159481893E+01 -0.35824393192E+02 -0.51977987701E+02  0.63636828439E+02  0.47000000000E+01 0. -1.
         -5    1    1    2    0  502 -0.25352480686E+01  0.82885211086E+00  0.67146836296E+02  0.67363952550E+02  0.47000000000E+01 0. -1.
        -11    1    1    2    0    0  0.23663438184E+02  0.38513287226E+02  0.48270575664E+02  0.66130780085E+02  0.00000000000E+00 0.  1.
         11    1    1    2    0    0 -0.14612241926E+02 -0.35177461448E+01 -0.38342937729E+02  0.41183407165E+02  0.00000000000E+00 0. -1.
<mgrwt>
<rscale>  0 0.23698985E+03</rscale>
<asrwt>0</asrwt>
<pdfrwt beam="2">  1        2 0.16401422E-01 0.23698985E+03</pdfrwt>
<pdfrwt beam="1">  1       -2 0.20262420E-01 0.23698985E+03</pdfrwt>
<totfact> 0.70770026E+03</totfact>
</mgrwt>
</event>
<event>
 6    1  0.9263730E-006  0.1201256E+03  0.7546771E-02  0.1250615E+00
         -1   -1    0    0    0  501 -0.00000000000E+00  0.00000000000E+00  0.87360725242E+02  0.87360725242E+02  0.00000000000E+00 0.  1.
          1   -1    0    0  501    0  0.00000000000E+00 -0.00000000000E+00 -0.14369394961E+03  0.14369394961E+03  0.00000000000E+00 0. -1.
          5    1    1    2  502    0 -0.27231051299E+02  0.13193249515E+02 -0.62925103862E+02  0.69980359271E+02  0.47000000000E+01 0. -1.
         -5    1    1    2    0  502 -0.10963506014E-01  0.26642811805E+02  0.43975028931E+02  0.51630734166E+02  0.47000000000E+01 0.  1.
        -11    1    1    2    0    0  0.57647829727E+02 -0.24967502071E+02 -0.41582420673E+02  0.75337548016E+02  0.00000000000E+00 0.  1.
         11    1    1    2    0    0 -0.30405814922E+02 -0.14868559248E+02  0.41992712379E+01  0.34106033398E+02  0.00000000000E+00 0. -1.
<mgrwt>
<rscale>  0 0.11555516E+03</rscale>
<asrwt>0</asrwt>
<pdfrwt beam="2">  1        1 0.22106762E-01 0.12012557E+03</pdfrwt>
<pdfrwt beam="1">  1       -1 0.13440112E-01 0.12012557E+03</pdfrwt>
<totfact> 0.80391476E+03</totfact>
</mgrwt>
</event>
<event>
 6    1  0.9263730E-006  0.1277199E+03  0.7546771E-02  0.1241393E+00
          1   -1    0    0  501    0  0.00000000000E+00  0.00000000000E+00  0.57276594405E+03  0.57276594405E+03  0.00000000000E+00 0. -1.
         -1   -1    0    0    0  501 -0.00000000000E+00 -0.00000000000E+00 -0.25266197565E+02  0.25266197565E+02  0.00000000000E+00 0.  1.
          5    1    1    2  502    0  0.56366557342E+02  0.13569735841E+02  0.29939875388E+03  0.30499677103E+03  0.47000000000E+01 0. -1.
         -5    1    1    2    0  502 -0.51164697386E+02  0.12615453466E+02  0.85559729573E+02  0.10059589082E+03  0.47000000000E+01 0. -1.
        -11    1    1    2    0    0  0.24828808512E+02 -0.68333134338E+01 -0.27124842570E+00  0.25753397452E+02  0.00000000000E+00 0.  1.
         11    1    1    2    0    0 -0.30030668468E+02 -0.19351875873E+02  0.16281251146E+03  0.16668608231E+03  0.00000000000E+00 0. -1.
<mgrwt>
<rscale>  0 0.12103896E+03</rscale>
<asrwt>0</asrwt>
<pdfrwt beam="1">  1        1 0.88117828E-01 0.12771990E+03</pdfrwt>
<pdfrwt beam="2">  1       -1 0.38871077E-02 0.12771990E+03</pdfrwt>
<totfact> 0.91684074E+03</totfact>
</mgrwt>
</event>
<event>
 6    1  0.9263730E-006  0.1287320E+03  0.7546771E-02  0.1249625E+00
          1   -1    0    0  501    0  0.00000000000E+00  0.00000000000E+00  0.39826751727E+03  0.39826751727E+03  0.00000000000E+00 0. -1.
         -1   -1    0    0    0  501 -0.00000000000E+00 -0.00000000000E+00 -0.29947036310E+02  0.29947036310E+02  0.00000000000E+00 0.  1.
          5    1    1    2  502    0  0.37106172335E+02  0.14525556205E+02  0.17799971586E+03  0.18246602055E+03  0.47000000000E+01 0.  1.
         -5    1    1    2    0  502 -0.61981470609E+02 -0.32630295418E+02  0.84173009053E+02  0.10960668014E+03  0.47000000000E+01 0.  1.
        -11    1    1    2    0    0  0.10058977493E+02 -0.31624896480E+02  0.37233312922E+02  0.49876213737E+02  0.00000000000E+00 0. -1.
         11    1    1    2    0    0  0.14816320782E+02  0.49729635693E+02  0.68914443115E+02  0.86265639148E+02  0.00000000000E+00 0.  1.
<mgrwt>
<rscale>  0 0.11612780E+03</rscale>
<asrwt>0</asrwt>
<pdfrwt beam="1">  1        1 0.61271922E-01 0.12873199E+03</pdfrwt>
<pdfrwt beam="2">  1       -1 0.46072366E-02 0.12873199E+03</pdfrwt>
<totfact> 0.11435127E+04</totfact>
</mgrwt>
</event>
<event>
 6    1  0.9263730E-006  0.1376383E+03  0.7546771E-02  0.1229924E+00
          1   -1    0    0  501    0  0.00000000000E+00  0.00000000000E+00  0.37044462773E+02  0.37044462773E+02  0.00000000000E+00 0. -1.
         -1   -1    0    0    0  501 -0.00000000000E+00 -0.00000000000E+00 -0.41859915027E+03  0.41859915027E+03  0.00000000000E+00 0.  1.
          5    1    1    2  502    0 -0.54944865940E+02 -0.10775148136E+02 -0.73679123420E+02  0.92659297097E+02  0.47000000000E+01 0.  1.
         -5    1    1    2    0  502  0.44787087774E+02  0.67433458434E+02 -0.87672953865E+02  0.11942274234E+03  0.47000000000E+01 0.  1.
        -11    1    1    2    0    0  0.10083497285E+02 -0.76282254717E+02 -0.20427777963E+03  0.21828896113E+03  0.00000000000E+00 0.  1.
         11    1    1    2    0    0  0.74280880835E-01  0.19623944419E+02 -0.15924830577E+02  0.25272612472E+02  0.00000000000E+00 0. -1.
<mgrwt>
<rscale>  0 0.12835072E+03</rscale>
<asrwt>0</asrwt>
<pdfrwt beam="1">  1        1 0.56991481E-02 0.13763829E+03</pdfrwt>
<pdfrwt beam="2">  1       -1 0.64399870E-01 0.13763829E+03</pdfrwt>
<totfact> 0.33802279E+03</totfact>
</mgrwt>
</event>
<event>
 6    1  0.9263730E-006  0.1364769E+03  0.7546771E-02  0.1229930E+00
          1   -1    0    0  501    0  0.00000000000E+00  0.00000000000E+00  0.92124666586E+02  0.92124666586E+02  0.00000000000E+00 0. -1.
         -1   -1    0    0    0  501 -0.00000000000E+00 -0.00000000000E+00 -0.16728317250E+03  0.16728317250E+03  0.00000000000E+00 0.  1.
          5    1    1    2  502    0  0.37204999731E+01  0.34794289105E+02 -0.68091312236E+02  0.76700726700E+02  0.47000000000E+01 0. -1.
         -5    1    1    2    0  502  0.29890773305E+02  0.85028213511E+01  0.51959881488E+02  0.60726234725E+02  0.47000000000E+01 0. -1.
        -11    1    1    2    0    0  0.93653101071E+01  0.24529379406E+02 -0.17784262657E+02  0.31712450011E+02  0.00000000000E+00 0.  1.
         11    1    1    2    0    0 -0.42976583385E+02 -0.67826489862E+02 -0.41242812507E+02  0.90268427648E+02  0.00000000000E+00 0. -1.
<mgrwt>
<rscale>  0 0.12834659E+03</rscale>
<asrwt>0</asrwt>
<pdfrwt beam="1">  1        1 0.14173026E-01 0.13647691E+03</pdfrwt>
<pdfrwt beam="2">  1       -1 0.25735873E-01 0.13647691E+03</pdfrwt>
<totfact> 0.50834025E+03</totfact>
</mgrwt>
</event>
<event>
 6    1  0.9263730E-006  0.1452698E+03  0.7546771E-02  0.1214621E+00
          2   -1    0    0  501    0  0.00000000000E+00  0.00000000000E+00  0.36010035539E+03  0.36010035539E+03  0.00000000000E+00 0. -1.
         -2   -1    0    0    0  501 -0.00000000000E+00 -0.00000000000E+00 -0.50664275861E+02  0.50664275861E+02  0.00000000000E+00 0.  1.
          5    1    1    2  502    0  0.99271680373E+02 -0.19430963361E+01  0.13225516889E+03  0.16544534398E+03  0.47000000000E+01 0.  1.
         -5    1    1    2    0  502 -0.33136072536E+02 -0.31275055602E+02  0.65848910492E+02  0.80214072450E+02  0.47000000000E+01 0.  1.
        -11    1    1    2    0    0  0.14611261187E+02  0.71762999779E+01 -0.84334115891E+01  0.18333321190E+02  0.00000000000E+00 0.  1.
         11    1    1    2    0    0 -0.80746869024E+02  0.26041851960E+02  0.11976541173E+03  0.14677189363E+03  0.00000000000E+00 0. -1.
<mgrwt>
<rscale>  0 0.13904388E+03</rscale>
<asrwt>0</asrwt>
<pdfrwt beam="1">  1        2 0.55400053E-01 0.14526983E+03</pdfrwt>
<pdfrwt beam="2">  1       -2 0.77945042E-02 0.14526983E+03</pdfrwt>
<totfact> 0.84312270E+03</totfact>
</mgrwt>
</event>
<event>
 6    1  0.9263730E-006  0.1444141E+03  0.7546771E-02  0.1217587E+00
         -3   -1    0    0    0  501 -0.00000000000E+00  0.00000000000E+00  0.52186326508E+02  0.52186326508E+02  0.00000000000E+00 0.  1.
          3   -1    0    0  501    0  0.00000000000E+00 -0.00000000000E+00 -0.44422999404E+03  0.44422999404E+03  0.00000000000E+00 0. -1.
          5    1    1    2  502    0  0.61502410399E+02  0.54455441236E+01 -0.23265802839E+03  0.24075723999E+03  0.47000000000E+01 0. -1.
         -5    1    1    2    0  502 -0.34374651908E+02  0.61601889454E+02 -0.10609059127E+03  0.12749005072E+03  0.47000000000E+01 0. -1.
        -11    1    1    2    0    0 -0.24920101009E+02 -0.34301689563E+01  0.19235434754E+02  0.31666692968E+02  0.00000000000E+00 0.  1.
         11    1    1    2    0    0 -0.22076574821E+01 -0.63617264621E+02 -0.72530482629E+02  0.96502336861E+02  0.00000000000E+00 0. -1.
<mgrwt>
<rscale>  0 0.13688235E+03</rscale>
<asrwt>0</asrwt>
<pdfrwt beam="2">  1        3 0.68343076E-01 0.14441413E+03</pdfrwt>
<pdfrwt beam="1">  1       -3 0.80286656E-02 0.14441413E+03</pdfrwt>
<totfact> 0.52002777E+02</totfact>
</mgrwt>
</event>
<event>
 6    1  0.9910064E-006  0.1948283E+03  0.7546771E-02  0.1158938E+00
         -1   -1    0    0    0  501 -0.00000000000E+00  0.00000000000E+00  0.10969335616E+03  0.10969335616E+03  0.00000000000E+00 0.  1.
          1   -1    0    0  501    0  0.00000000000E+00 -0.00000000000E+00 -0.36765776751E+03  0.36765776751E+03  0.00000000000E+00 0. -1.
          5    1    1    2  502    0  0.81917306279E+02  0.67143360662E+02 -0.19789397518E+03  0.22450565997E+03  0.47000000000E+01 0.  1.
         -5    1    1    2    0  502  0.62735303341E+02 -0.29611469891E+02 -0.31144648423E+02  0.76188165484E+02  0.47000000000E+01 0.  1.
        -11    1    1    2    0    0 -0.89403739076E+02 -0.45117487362E+02  0.20407192317E+02  0.10220112389E+03  0.00000000000E+00 0.  1.
         11    1    1    2    0    0 -0.55248870544E+02  0.75855965918E+01 -0.49332980071E+02  0.74456174322E+02  0.00000000000E+00 0. -1.
<mgrwt>
<rscale>  0 0.18947271E+03</rscale>
<asrwt>0</asrwt>
<pdfrwt beam="2">  1        1 0.56562735E-01 0.19482835E+03</pdfrwt>
<pdfrwt beam="1">  1       -1 0.16875901E-01 0.19482835E+03</pdfrwt>
<totfact> 0.17811414E+03</totfact>
</mgrwt>
</event>
<event>
 6    1  0.9263730E-006  0.1560284E+03  0.7546771E-02  0.1201233E+00
          2   -1    0    0  501    0  0.00000000000E+00  0.00000000000E+00  0.15781724338E+03  0.15781724338E+03  0.00000000000E+00 0. -1.
         -2   -1    0    0    0  501 -0.00000000000E+00 -0.00000000000E+00 -0.13685776785E+03  0.13685776785E+03  0.00000000000E+00 0.  1.
          5    1    1    2  502    0 -0.27028500321E+02  0.46541078722E+02  0.37764422978E+02  0.65915502585E+02  0.47000000000E+01 0.  1.
         -5    1    1    2    0  502  0.93739658480E+02  0.18859060877E+02  0.49838722446E+01  0.95863010237E+02  0.47000000000E+01 0.  1.
        -11    1    1    2    0    0 -0.61379302701E+02 -0.42936595069E+02 -0.54658815629E+02  0.92728399761E+02  0.00000000000E+00 0.  1.
         11    1    1    2    0    0 -0.53318554575E+01 -0.22463544531E+02  0.32869995940E+02  0.40168098643E+02  0.00000000000E+00 0. -1.
<mgrwt>
<rscale>  0 0.14938326E+03</rscale>
<asrwt>0</asrwt>
<pdfrwt beam="1">  1        2 0.24279576E-01 0.15602843E+03</pdfrwt>
<pdfrwt beam="2">  1       -2 0.21055041E-01 0.15602843E+03</pdfrwt>
<totfact> 0.41315666E+03</totfact>
</mgrwt>
</event>
<event>
 6    1  0.9263730E-006  0.2982236E+03  0.7546771E-02  0.1086132E+00
          1   -1    0    0  501    0  0.00000000000E+00  0.00000000000E+00  0.34926318958E+03  0.34926318958E+03  0.00000000000E+00 0. -1.
         -1   -1    0    0    0  501 -0.00000000000E+00 -0.00000000000E+00 -0.63660668958E+02  0.63660668958E+02  0.00000000000E+00 0.  1.
          5    1    1    2  502    0 -0.10289087078E+02  0.22720780170E+01  0.14976670846E+03  0.15021046773E+03  0.47000000000E+01 0.  1.
         -5    1    1    2    0  502 -0.85192007243E+02 -0.25780340723E+02  0.40860860211E+02  0.98051027343E+02  0.47000000000E+01 0.  1.
        -11    1    1    2    0    0  0.17455621944E+02  0.71958865386E+01  0.81698614413E+02  0.83851911830E+02  0.00000000000E+00 0. -1.
         11    1    1    2    0    0  0.78025472377E+02  0.16312376167E+02  0.13276337539E+02  0.80810451640E+02  0.00000000000E+00 0.  1.
<mgrwt>
<rscale>  0 0.29822360E+03</rscale>
<asrwt>0</asrwt>
<pdfrwt beam="1">  1        1 0.53732797E-01 0.29822360E+03</pdfrwt>
<pdfrwt beam="2">  1       -1 0.97939493E-02 0.29822360E+03</pdfrwt>
<totfact> 0.45329306E+03</totfact>
</mgrwt>
</event>
<event>
 6    1  0.9263730E-006  0.1899003E+03  0.7546771E-02  0.1163258E+00
          2   -1    0    0  501    0  0.00000000000E+00  0.00000000000E+00  0.95373518082E+03  0.95373518082E+03  0.00000000000E+00 0. -1.
         -2   -1    0    0    0  501 -0.00000000000E+00 -0.00000000000E+00 -0.51582224435E+02  0.51582224435E+02  0.00000000000E+00 0.  1.
          5    1    1    2  502    0 -0.53070604137E+02 -0.11636195471E+03  0.46274615583E+03  0.48011736926E+03  0.47000000000E+01 0. -1.
         -5    1    1    2    0  502  0.53542925476E+02 -0.26600336671E+02  0.29779504106E+03  0.30377359869E+03  0.47000000000E+01 0. -1.
        -11    1    1    2    0    0 -0.39101441150E+02  0.10914967584E+03  0.78248301871E+02  0.13987627098E+03  0.00000000000E+00 0.  1.
         11    1    1    2    0    0  0.38629119811E+02  0.33812615540E+02  0.63363457631E+02  0.81550166339E+02  0.00000000000E+00 0. -1.
<mgrwt>
<rscale>  0 0.18477733E+03</rscale>
<asrwt>0</asrwt>
<pdfrwt beam="1">  1        2 0.14672848E+00 0.18990034E+03</pdfrwt>
<pdfrwt beam="2">  1       -2 0.79357275E-02 0.18990034E+03</pdfrwt>
<totfact> 0.26686075E+03</totfact>
</mgrwt>
</event>
<event>
 6    1  0.9263730E-006  0.1563124E+03  0.7546771E-02  0.1200790E+00
          1   -1    0    0  501    0  0.00000000000E+00  0.00000000000E+00  0.36936161313E+02  0.36936161313E+02  0.00000000000E+00 0. -1.
         -1   -1    0    0    0  501 -0.00000000000E+00 -0.00000000000E+00 -0.56233026823E+03  0.56233026823E+03  0.00000000000E+00 0.  1.
          5    1    1    2  502    0 -0.12026058346E+02  0.41451046133E+02 -0.77417367837E+01  0.44100337791E+02  0.47000000000E+01 0. -1.
         -5    1    1    2    0  502 -0.36346688365E+02  0.38971820724E+02 -0.26422641147E+03  0.26958777993E+03  0.47000000000E+01 0. -1.
        -11    1    1    2    0    0  0.28895005901E+02 -0.98948763351E+01 -0.17759895921E+03  0.18020604944E+03  0.00000000000E+00 0.  1.
         11    1    1    2    0    0  0.19477740810E+02 -0.70527990522E+02 -0.75826999457E+02  0.10537226239E+03  0.00000000000E+00 0. -1.
<mgrwt>
<rscale>  0 0.14974270E+03</rscale>
<asrwt>0</asrwt>
<pdfrwt beam="1">  1        1 0.56824861E-02 0.15631238E+03</pdfrwt>
<pdfrwt beam="2">  1       -1 0.86512353E-01 0.15631238E+03</pdfrwt>
<totfact> 0.18853168E+03</totfact>
</mgrwt>
</event>
<event>
 6    1  0.9263730E-006  0.2184240E+03  0.7546771E-02  0.1138411E+00
          2   -1    0    0  501    0  0.00000000000E+00  0.00000000000E+00  0.10981009941E+03  0.10981009941E+03  0.00000000000E+00 0.  1.
         -2   -1    0    0    0  501 -0.00000000000E+00 -0.00000000000E+00 -0.40149452361E+03  0.40149452361E+03  0.00000000000E+00 0. -1.
          5    1    1    2  502    0 -0.10448776061E+03 -0.16226024640E+03 -0.11029746184E+03  0.22233690599E+03  0.47000000000E+01 0.  1.
         -5    1    1    2    0  502  0.17989081849E+02  0.54047630966E+01 -0.35002089285E+02  0.40000684797E+02  0.47000000000E+01 0.  1.
        -11    1    1    2    0    0  0.92109122848E+02  0.74306416839E+02 -0.92808396125E+02  0.15039591912E+03  0.00000000000E+00 0.  1.
         11    1    1    2    0    0 -0.56104440874E+01  0.82549066465E+02 -0.53576476959E+02  0.98571113113E+02  0.00000000000E+00 0. -1.
<mgrwt>
<rscale>  0 0.21403375E+03</rscale>
<asrwt>0</asrwt>
<pdfrwt beam="1">  1        2 0.16893861E-01 0.21842402E+03</pdfrwt>
<pdfrwt beam="2">  1       -2 0.61768389E-01 0.21842402E+03</pdfrwt>
<totfact> 0.83850554E+02</totfact>
</mgrwt>
</event>
<event>
 6    1  0.9263730E-006  0.2305814E+03  0.7546771E-02  0.1126231E+00
          1   -1    0    0  501    0  0.00000000000E+00  0.00000000000E+00  0.10109965775E+03  0.10109965775E+03  0.00000000000E+00 0. -1.
         -1   -1    0    0    0  501 -0.00000000000E+00 -0.00000000000E+00 -0.13147365896E+03  0.13147365896E+03  0.00000000000E+00 0.  1.
          5    1    1    2  502    0 -0.19754151020E+02  0.58292360058E+01  0.46754504043E+02  0.51305751366E+02  0.47000000000E+01 0. -1.
         -5    1    1    2    0  502  0.47239150226E+02  0.25541840207E+02 -0.42440295773E+02  0.68608976239E+02  0.47000000000E+01 0.  1.
        -11    1    1    2    0    0 -0.46674205485E+02  0.36584958031E+01  0.14764949924E+02  0.49090424682E+02  0.00000000000E+00 0.  1.
         11    1    1    2    0    0  0.19189206280E+02 -0.35029572016E+02 -0.49453159400E+02  0.63568164422E+02  0.00000000000E+00 0. -1.
<mgrwt>
<rscale>  0 0.23058137E+03</rscale>
<asrwt>0</asrwt>
<pdfrwt beam="1">  1        1 0.15553794E-01 0.23058137E+03</pdfrwt>
<pdfrwt beam="2">  1       -1 0.20226717E-01 0.23058137E+03</pdfrwt>
<totfact> 0.69005343E+03</totfact>
</mgrwt>
</event>
<event>
 6    1  0.9263730E-006  0.1258199E+03  0.7546771E-02  0.1284110E+00
         -2   -1    0    0    0  501 -0.00000000000E+00  0.00000000000E+00  0.78622281485E+02  0.78622281485E+02  0.00000000000E+00 0. -1.
          2   -1    0    0  501    0  0.00000000000E+00 -0.00000000000E+00 -0.10652120501E+03  0.10652120501E+03  0.00000000000E+00 0.  1.
          5    1    1    2  502    0 -0.47737991577E+02 -0.20399027710E+02  0.13837134185E+02  0.53931367994E+02  0.47000000000E+01 0. -1.
         -5    1    1    2    0  502  0.51588630185E+02  0.65551376491E+01 -0.61346386515E+02  0.80559454643E+02  0.47000000000E+01 0. -1.
        -11    1    1    2    0    0 -0.23520812603E+01  0.27004765641E+02  0.14431488205E+00  0.27107387930E+02  0.00000000000E+00 0.  1.
         11    1    1    2    0    0 -0.14985573484E+01 -0.13160875580E+02  0.19466013926E+02  0.23545275923E+02  0.00000000000E+00 0. -1.
<mgrwt>
<rscale>  0 0.98208071E+02</rscale>
<asrwt>0</asrwt>
<pdfrwt beam="2">  1        2 0.16387878E-01 0.12581992E+03</pdfrwt>
<pdfrwt beam="1">  1       -2 0.12095736E-01 0.12581992E+03</pdfrwt>
<totfact> 0.15821663E+04</totfact>
</mgrwt>
</event>
<event>
 6    1  0.9263730E-006  0.2495739E+03  0.7546771E-02  0.1115707E+00
         -1   -1    0    0    0  501 -0.00000000000E+00  0.00000000000E+00  0.21101569744E+03  0.21101569744E+03  0.00000000000E+00 0.  1.
          1   -1    0    0  501    0  0.00000000000E+00 -0.00000000000E+00 -0.60225143375E+03  0.60225143375E+03  0.00000000000E+00 0. -1.
          5    1    1    2  502    0  0.90755597907E+02  0.84378595792E+00 -0.31488958112E+03  0.32774201565E+03  0.47000000000E+01 0.  1.
         -5    1    1    2    0  502  0.10827521671E+03 -0.84803938654E+02 -0.18061802577E+03  0.22706869400E+03  0.47000000000E+01 0.  1.
        -11    1    1    2    0    0 -0.17832918820E+03  0.35681912999E+02  0.94767361889E+02  0.20507401386E+03  0.00000000000E+00 0.  1.
         11    1    1    2    0    0 -0.20701626412E+02  0.48278239698E+02  0.95045086867E+01  0.53382407681E+02  0.00000000000E+00 0. -1.
<mgrwt>
<rscale>  0 0.24623635E+03</rscale>
<asrwt>0</asrwt>
<pdfrwt beam="2">  1        1 0.92654066E-01 0.24957391E+03</pdfrwt>
<pdfrwt beam="1">  1       -1 0.32463954E-01 0.24957391E+03</pdfrwt>
<totfact> 0.31514708E+02</totfact>
</mgrwt>
</event>
<event>
 6    1  0.9263730E-006  0.1595821E+03  0.7546771E-02  0.1197039E+00
         -1   -1    0    0    0  501 -0.00000000000E+00  0.00000000000E+00  0.13438707461E+03  0.13438707461E+03  0.00000000000E+00 0.  1.
          1   -1    0    0  501    0  0.00000000000E+00 -0.00000000000E+00 -0.23231443921E+03  0.23231443921E+03  0.00000000000E+00 0. -1.
          5    1    1    2  502    0  0.39463931060E+02 -0.83610165232E+01 -0.13212673063E+03  0.13822760722E+03  0.47000000000E+01 0. -1.
         -5    1    1    2    0  502  0.37140310829E+02  0.71153395983E+02 -0.21365441051E+02  0.83191228622E+02  0.47000000000E+01 0. -1.
        -11    1    1    2    0    0  0.10935128447E+02 -0.42784833710E+02  0.22769430529E+02  0.49684665606E+02  0.00000000000E+00 0.  1.
         11    1    1    2    0    0 -0.87539370336E+02 -0.20007545749E+02  0.32795376544E+02  0.95598012366E+02  0.00000000000E+00 0. -1.
<mgrwt>
<rscale>  0 0.15282920E+03</rscale>
<asrwt>0</asrwt>
<pdfrwt beam="2">  1        1 0.35740683E-01 0.15958212E+03</pdfrwt>
<pdfrwt beam="1">  1       -1 0.20674935E-01 0.15958212E+03</pdfrwt>
<totfact> 0.22683806E+03</totfact>
</mgrwt>
</event>
<event>
 6    1  0.9263730E-006  0.3802445E+03  0.7546771E-02  0.1051801E+00
          1   -1    0    0  501    0  0.00000000000E+00  0.00000000000E+00  0.49670898529E+03  0.49670898529E+03  0.00000000000E+00 0. -1.
         -1   -1    0    0    0  501 -0.00000000000E+00 -0.00000000000E+00 -0.29403717130E+03  0.29403717130E+03  0.00000000000E+00 0.  1.
          5    1    1    2  502    0 -0.12452283234E+03 -0.15360913549E+03  0.98278778103E+02  0.22086763118E+03  0.47000000000E+01 0.  1.
         -5    1    1    2    0  502 -0.17774368952E+03 -0.40288671171E+02  0.79887144843E+02  0.19904783872E+03  0.47000000000E+01 0.  1.
        -11    1    1    2    0    0  0.26706558448E+03  0.16368456289E+03 -0.93914786390E+01  0.31337655051E+03  0.00000000000E+00 0. -1.
         11    1    1    2    0    0  0.35200937376E+02  0.30213243775E+02  0.33897369679E+02  0.57454136167E+02  0.00000000000E+00 0.  1.
<mgrwt>
<rscale>  0 0.37766223E+03</rscale>
<asrwt>0</asrwt>
<pdfrwt beam="1">  1        1 0.76416767E-01 0.38024453E+03</pdfrwt>
<pdfrwt beam="2">  1       -1 0.45236488E-01 0.38024453E+03</pdfrwt>
<totfact> 0.22481725E+02</totfact>
</mgrwt>
</event>
<event>
 6    1  0.9263730E-006  0.3172691E+03  0.7546771E-02  0.1076913E+00
         -2   -1    0    0    0  501 -0.00000000000E+00  0.00000000000E+00  0.34241284874E+02  0.34241284874E+02  0.00000000000E+00 0.  1.
          2   -1    0    0  501    0  0.00000000000E+00 -0.00000000000E+00 -0.73492929665E+03  0.73492929665E+03  0.00000000000E+00 0. -1.
          5    1    1    2  502    0  0.26756112186E+02  0.14915212192E+02 -0.43449492130E+03  0.43559876002E+03  0.47000000000E+01 0. -1.
         -5    1    1    2    0  502 -0.71200958950E+02 -0.97540723383E+01 -0.19803497091E+03  0.21072412815E+03  0.47000000000E+01 0. -1.
        -11    1    1    2    0    0  0.28171862704E+02 -0.47207616433E+02 -0.24846437956E+02  0.60328752486E+02  0.00000000000E+00 0.  1.
         11    1    1    2    0    0  0.16272984060E+02  0.42046476579E+02 -0.43311681607E+02  0.62518940862E+02  0.00000000000E+00 0. -1.
<mgrwt>
<rscale>  0 0.31726912E+03</rscale>
<asrwt>0</asrwt>
<pdfrwt beam="2">  1        2 0.11306604E+00 0.31726912E+03</pdfrwt>
<pdfrwt beam="1">  1       -2 0.52678902E-02 0.31726912E+03</pdfrwt>
<totfact> 0.71529158E+03</totfact>
</mgrwt>
</event>
<event>
 6    1  0.9263730E-006  0.2827927E+03  0.7546771E-02  0.1095779E+00
         -2   -1    0    0    0  501 -0.00000000000E+00  0.00000000000E+00  0.13189383943E+03  0.13189383943E+03  0.00000000000E+00 0. -1.
          2   -1    0    0  501    0  0.00000000000E+00 -0.00000000000E+00 -0.74320133930E+03  0.74320133930E+03  0.00000000000E+00 0.  1.
          5    1    1    2  502    0  0.19851703057E+03 -0.84996772651E+02 -0.38720078982E+03  0.44337343676E+03  0.47000000000E+01 0.  1.
         -5    1    1    2    0  502  0.50564842638E+01 -0.66355482152E+02 -0.12746238050E+03  0.14386579332E+03  0.47000000000E+01 0.  1.
        -11    1    1    2    0    0 -0.14445456885E+03  0.15127208999E+03 -0.92153950280E+02  0.22856666035E+03  0.00000000000E+00 0.  1.
         11    1    1    2    0    0 -0.59118945989E+02  0.80164811222E-01 -0.44903792766E+01  0.59289288301E+02  0.00000000000E+00 0. -1.
<mgrwt>
<rscale>  0 0.27983534E+03</rscale>
<asrwt>0</asrwt>
<pdfrwt beam="2">  1        2 0.11433867E+00 0.28279274E+03</pdfrwt>
<pdfrwt beam="1">  1       -2 0.20291360E-01 0.28279274E+03</pdfrwt>
<totfact> 0.80063747E+02</totfact>
</mgrwt>
</event>
<event>
 6    1  0.9263730E-006  0.2784397E+03  0.7546771E-02  0.1098447E+00
          2   -1    0    0  501    0  0.00000000000E+00  0.00000000000E+00  0.13490648564E+04  0.13490648564E+04  0.00000000000E+00 0. -1.
         -2   -1    0    0    0  501 -0.00000000000E+00 -0.00000000000E+00 -0.91874193951E+02  0.91874193951E+02  0.00000000000E+00 0.  1.
          5    1    1    2  502    0  0.38640407886E+02  0.58485286425E+02  0.27842311546E+03  0.28715001493E+03  0.47000000000E+01 0.  1.
         -5    1    1    2    0  502 -0.99628918616E+02  0.18273532227E+03  0.81752865065E+03  0.84361917004E+03  0.47000000000E+01 0.  1.
        -11    1    1    2    0    0  0.32579162123E+02 -0.20677564002E+03  0.16327590245E+03  0.26547426887E+03  0.00000000000E+00 0. -1.
         11    1    1    2    0    0  0.28409348606E+02 -0.34444968671E+02 -0.20370060987E+01  0.44695596526E+02  0.00000000000E+00 0.  1.
<mgrwt>
<rscale>  0 0.27500857E+03</rscale>
<asrwt>0</asrwt>
<pdfrwt beam="1">  1        2 0.20754843E+00 0.27843972E+03</pdfrwt>
<pdfrwt beam="2">  1       -2 0.14134492E-01 0.27843972E+03</pdfrwt>
<totfact> 0.62460475E+02</totfact>
</mgrwt>
</event>
<event>
 6    1  0.9263730E-006  0.2278203E+03  0.7546771E-02  0.1131421E+00
          2   -1    0    0  501    0  0.00000000000E+00  0.00000000000E+00  0.90302061352E+03  0.90302061352E+03  0.00000000000E+00 0. -1.
         -2   -1    0    0    0  501 -0.00000000000E+00 -0.00000000000E+00 -0.55239473377E+02  0.55239473377E+02  0.00000000000E+00 0.  1.
          5    1    1    2  502    0  0.54692081766E+02  0.10090935047E+03  0.15395293182E+03  0.19208726151E+03  0.47000000000E+01 0. -1.
         -5    1    1    2    0  502 -0.67034126982E+02  0.89156545817E+02  0.19339485771E+03  0.22330724312E+03  0.47000000000E+01 0. -1.
        -11    1    1    2    0    0 -0.21464678704E+02 -0.64394187025E+01  0.37332950154E+02  0.43542481696E+02  0.00000000000E+00 0.  1.
         11    1    1    2    0    0  0.33806723919E+02 -0.18362647758E+03  0.46310040047E+03  0.49932310057E+03  0.00000000000E+00 0. -1.
<mgrwt>
<rscale>  0 0.22333534E+03</rscale>
<asrwt>0</asrwt>
<pdfrwt beam="1">  1        2 0.13892624E+00 0.22782034E+03</pdfrwt>
<pdfrwt beam="2">  1       -2 0.84983812E-02 0.22782034E+03</pdfrwt>
<totfact> 0.25889817E+03</totfact>
</mgrwt>
</event>
<event>
 6    1  0.9263730E-006  0.2341111E+03  0.7546771E-02  0.1126815E+00
         -1   -1    0    0    0  501 -0.00000000000E+00  0.00000000000E+00  0.32876261717E+03  0.32876261717E+03  0.00000000000E+00 0.  1.
          1   -1    0    0  501    0  0.00000000000E+00 -0.00000000000E+00 -0.16583837312E+03  0.16583837312E+03  0.00000000000E+00 0. -1.
          5    1    1    2  502    0  0.88825478545E+01 -0.47076763814E+02 -0.18627364546E+02  0.51615792714E+02  0.47000000000E+01 0. -1.
         -5    1    1    2    0  502 -0.17165855672E+02 -0.15069805666E+03  0.16655010273E+03  0.22531222248E+03  0.47000000000E+01 0. -1.
        -11    1    1    2    0    0  0.22412562056E+02  0.17292654814E+03  0.40895069029E+02  0.17910421731E+03  0.00000000000E+00 0. -1.
         11    1    1    2    0    0 -0.14129254239E+02  0.24848272333E+02 -0.25893563164E+02  0.38568757779E+02  0.00000000000E+00 0.  1.
<mgrwt>
<rscale>  0 0.22975191E+03</rscale>
<asrwt>0</asrwt>
<pdfrwt beam="2">  1        1 0.25513596E-01 0.23411106E+03</pdfrwt>
<pdfrwt beam="1">  1       -1 0.50578864E-01 0.23411106E+03</pdfrwt>
<totfact> 0.75025900E+02</totfact>
</mgrwt>
</event>
<event>
 6    1  0.9263730E-006  0.1467576E+03  0.7546771E-02  0.1213727E+00
          2   -1    0    0  501    0  0.00000000000E+00  0.00000000000E+00  0.10201933999E+04  0.10201933999E+04  0.00000000000E+00 0. -1.
         -2   -1    0    0    0  501 -0.00000000000E+00 -0.00000000000E+00 -0.18098810495E+02  0.18098810495E+02  0.00000000000E+00 0.  1.
          5    1    1    2  502    0 -0.96400737230E+02 -0.36367691216E+01  0.58495373663E+03  0.59287375741E+03  0.47000000000E+01 0. -1.
         -5    1    1    2    0  502  0.23825275466E+02 -0.21761853283E+02  0.57250671671E+02  0.65885896944E+02  0.47000000000E+01 0. -1.
        -11    1    1    2    0    0  0.80500233521E+02 -0.74998727193E+01  0.30041917460E+03  0.31110804579E+03  0.00000000000E+00 0. -1.
         11    1    1    2    0    0 -0.79247717575E+01  0.32898495124E+02  0.59471006513E+02  0.68424510261E+02  0.00000000000E+00 0.  1.
<mgrwt>
<rscale>  0 0.13970476E+03</rscale>
<asrwt>0</asrwt>
<pdfrwt beam="1">  1        2 0.15695279E+00 0.14675756E+03</pdfrwt>
<pdfrwt beam="2">  1       -2 0.27844332E-02 0.14675756E+03</pdfrwt>
<totfact> 0.11678297E+04</totfact>
</mgrwt>
</event>
<event>
 6    1  0.9263730E-006  0.2458118E+03  0.7546771E-02  0.1118480E+00
         -2   -1    0    0    0  501 -0.00000000000E+00  0.00000000000E+00  0.15194424510E+04  0.15194424510E+04  0.00000000000E+00 0. -1.
          2   -1    0    0  501    0  0.00000000000E+00 -0.00000000000E+00 -0.44374912783E+02  0.44374912783E+02  0.00000000000E+00 0.  1.
          5    1    1    2  502    0  0.12513394473E+03 -0.40118230152E+02  0.37625740497E+03  0.39857207793E+03  0.47000000000E+01 0.  1.
         -5    1    1    2    0  502  0.60925443758E+02 -0.60785606684E+02  0.70525648438E+02  0.11136766481E+03  0.47000000000E+01 0.  1.
        -11    1    1    2    0    0  0.71700623361E+01  0.18507133109E+02  0.65386552723E+02  0.68332459687E+02  0.00000000000E+00 0.  1.
         11    1    1    2    0    0 -0.19322945083E+03  0.82396703727E+02  0.96289793205E+03  0.98554516132E+03  0.00000000000E+00 0. -1.
<mgrwt>
<rscale>  0 0.24198130E+03</rscale>
<asrwt>0</asrwt>
<pdfrwt beam="2">  1        2 0.68269108E-02 0.24581181E+03</pdfrwt>
<pdfrwt beam="1">  1       -2 0.23376034E+00 0.24581181E+03</pdfrwt>
<totfact> 0.93455372E+01</totfact>
</mgrwt>
</event>
<event>
 6    1  0.9263730E-006  0.1500751E+03  0.7546771E-02  0.1209799E+00
          1   -1    0    0  501    0  0.00000000000E+00  0.00000000000E+00  0.30974964385E+03  0.30974964385E+03  0.00000000000E+00 0. -1.
         -1   -1    0    0    0  501 -0.00000000000E+00 -0.00000000000E+00 -0.59978017536E+02  0.59978017536E+02  0.00000000000E+00 0.  1.
          5    1    1    2  502    0  0.14341243942E+02  0.34030562843E+02 -0.21261152391E+01  0.37287542842E+02  0.47000000000E+01 0. -1.
         -5    1    1    2    0  502  0.62994038259E+02 -0.64315885273E+02  0.13995092631E+03  0.16647262156E+03  0.47000000000E+01 0. -1.
        -11    1    1    2    0    0 -0.31564913129E+02 -0.26356984129E+02  0.13034240353E+02  0.43138448916E+02  0.00000000000E+00 0.  1.
         11    1    1    2    0    0 -0.45770369072E+02  0.56642306560E+02  0.98912574886E+02  0.12282904806E+03  0.00000000000E+00 0. -1.
<mgrwt>
<rscale>  0 0.14265608E+03</rscale>
<asrwt>0</asrwt>
<pdfrwt beam="1">  1        1 0.47653790E-01 0.15007507E+03</pdfrwt>
<pdfrwt beam="2">  1       -1 0.92273875E-02 0.15007507E+03</pdfrwt>
<totfact> 0.55938385E+03</totfact>
</mgrwt>
</event>
<event>
 6    1  0.9263730E-006  0.1858668E+03  0.7546771E-02  0.1167411E+00
         -1   -1    0    0    0  501 -0.00000000000E+00  0.00000000000E+00  0.12717792842E+03  0.12717792842E+03  0.00000000000E+00 0.  1.
          1   -1    0    0  501    0  0.00000000000E+00 -0.00000000000E+00 -0.47374564989E+03  0.47374564989E+03  0.00000000000E+00 0. -1.
          5    1    1    2  502    0  0.18373294697E+02  0.39471316089E+02 -0.33582117235E+02  0.55185245762E+02  0.47000000000E+01 0. -1.
         -5    1    1    2    0  502  0.11882940878E+03 -0.29669489230E+02 -0.35495198148E+03  0.37551791720E+03  0.47000000000E+01 0. -1.
        -11    1    1    2    0    0 -0.88443599968E+02 -0.13803728683E+02  0.70179514100E+02  0.11374523067E+03  0.00000000000E+00 0.  1.
         11    1    1    2    0    0 -0.48759103511E+02  0.40019018237E+01 -0.28213136858E+02  0.56475184681E+02  0.00000000000E+00 0. -1.
<mgrwt>
<rscale>  0 0.18040561E+03</rscale>
<asrwt>0</asrwt>
<pdfrwt beam="2">  1        1 0.72883947E-01 0.18586680E+03</pdfrwt>
<pdfrwt beam="1">  1       -1 0.19565835E-01 0.18586680E+03</pdfrwt>
<totfact> 0.10139968E+03</totfact>
</mgrwt>
</event>
<event>
 6    1  0.9263730E-006  0.1758199E+03  0.7546771E-02  0.1177913E+00
          2   -1    0    0  501    0  0.00000000000E+00  0.00000000000E+00  0.18421883116E+03  0.18421883116E+03  0.00000000000E+00 0. -1.
         -2   -1    0    0    0  501 -0.00000000000E+00 -0.00000000000E+00 -0.17069847710E+03  0.17069847710E+03  0.00000000000E+00 0.  1.
          5    1    1    2  502    0  0.23832879391E+02 -0.35659837517E+02  0.95205314819E+01  0.44185525588E+02  0.47000000000E+01 0. -1.
         -5    1    1    2    0  502 -0.12785877963E+03 -0.31169129477E+02  0.63444139494E+02  0.14617329098E+03  0.47000000000E+01 0. -1.
        -11    1    1    2    0    0 -0.32424763136E+01  0.30711066399E+02  0.91512124827E+01  0.32209128239E+02  0.00000000000E+00 0.  1.
         11    1    1    2    0    0  0.10726837655E+03  0.36117900595E+02 -0.68595529402E+02  0.13234936345E+03  0.00000000000E+00 0. -1.
<mgrwt>
<rscale>  0 0.16993794E+03</rscale>
<asrwt>0</asrwt>
<pdfrwt beam="1">  1        2 0.28341359E-01 0.17581990E+03</pdfrwt>
<pdfrwt beam="2">  1       -2 0.26261304E-01 0.17581990E+03</pdfrwt>
<totfact> 0.23854655E+03</totfact>
</mgrwt>
</event>
<event>
 6    1  0.9263730E-006  0.1555839E+03  0.7546771E-02  0.1209787E+00
          1   -1    0    0  501    0  0.00000000000E+00  0.00000000000E+00  0.11484039814E+03  0.11484039814E+03  0.00000000000E+00 0. -1.
         -1   -1    0    0    0  501 -0.00000000000E+00 -0.00000000000E+00 -0.21174162608E+03  0.21174162608E+03  0.00000000000E+00 0.  1.
          5    1    1    2  502    0 -0.60578553610E+02 -0.70504993176E+02  0.60747446231E+02  0.11114430909E+03  0.47000000000E+01 0. -1.
         -5    1    1    2    0  502  0.10249531162E+02  0.34374059183E+02 -0.30541637135E+02  0.47344592433E+02  0.47000000000E+01 0.  1.
        -11    1    1    2    0    0  0.77032064789E+02  0.25162643735E+02 -0.96670129868E+02  0.12614361519E+03  0.00000000000E+00 0.  1.
         11    1    1    2    0    0 -0.26703042342E+02  0.10968290258E+02 -0.30436907173E+02  0.41949507503E+02  0.00000000000E+00 0. -1.
<mgrwt>
<rscale>  0 0.14266504E+03</rscale>
<asrwt>0</asrwt>
<pdfrwt beam="1">  1        1 0.17667754E-01 0.15558387E+03</pdfrwt>
<pdfrwt beam="2">  1       -1 0.32575635E-01 0.15558387E+03</pdfrwt>
<totfact> 0.25941244E+03</totfact>
</mgrwt>
</event>
<event>
 6    1  0.9263730E-006  0.3340285E+03  0.7546771E-02  0.1069368E+00
         -1   -1    0    0    0  501 -0.00000000000E+00  0.00000000000E+00  0.27887314540E+02  0.27887314540E+02  0.00000000000E+00 0.  1.
          1   -1    0    0  501    0  0.00000000000E+00 -0.00000000000E+00 -0.10002313980E+04  0.10002313980E+04  0.00000000000E+00 0. -1.
          5    1    1    2  502    0 -0.59363674955E+02  0.86446395480E+02 -0.68636135679E+03  0.69434215434E+03  0.47000000000E+01 0.  1.
         -5    1    1    2    0  502 -0.36614443504E+01 -0.37586479156E+02 -0.13338931863E+03  0.13871175118E+03  0.47000000000E+01 0.  1.
        -11    1    1    2    0    0  0.96291504760E+01 -0.37409746559E+02 -0.65958741762E+01  0.39188202723E+02  0.00000000000E+00 0.  1.
         11    1    1    2    0    0  0.53395968829E+02 -0.11450169765E+02 -0.14599753387E+03  0.15587660431E+03  0.00000000000E+00 0. -1.
<mgrwt>
<rscale>  0 0.33402855E+03</rscale>
<asrwt>0</asrwt>
<pdfrwt beam="2">  1        1 0.15388172E+00 0.33402855E+03</pdfrwt>
<pdfrwt beam="1">  1       -1 0.42903569E-02 0.33402855E+03</pdfrwt>
<totfact> 0.35492700E+03</totfact>
</mgrwt>
</event>
<event>
 6    1  0.9263730E-006  0.1391812E+03  0.7546771E-02  0.1225916E+00
          1   -1    0    0  501    0  0.00000000000E+00  0.00000000000E+00  0.80760119476E+03  0.80760119476E+03  0.00000000000E+00 0. -1.
         -1   -1    0    0    0  501 -0.00000000000E+00 -0.00000000000E+00 -0.27997294434E+02  0.27997294434E+02  0.00000000000E+00 0.  1.
          5    1    1    2  502    0 -0.58979812068E+02 -0.63513205352E+02  0.42416050036E+03  0.43295122769E+03  0.47000000000E+01 0.  1.
         -5    1    1    2    0  502  0.51950084934E+02  0.26976495684E+01  0.23161813034E+03  0.23743448979E+03  0.47000000000E+01 0.  1.
        -11    1    1    2    0    0 -0.27183096805E+02  0.58527163082E+02  0.43359621404E+02  0.77745780199E+02  0.00000000000E+00 0.  1.
         11    1    1    2    0    0  0.34212823940E+02  0.22883927014E+01  0.80465648213E+02  0.87466991520E+02  0.00000000000E+00 0. -1.
<mgrwt>
<rscale>  0 0.13104287E+03</rscale>
<asrwt>0</asrwt>
<pdfrwt beam="1">  1        1 0.12424632E+00 0.13918117E+03</pdfrwt>
<pdfrwt beam="2">  1       -1 0.43072767E-02 0.13918117E+03</pdfrwt>
<totfact> 0.48665063E+03</totfact>
</mgrwt>
</event>
<event>
 6    1  0.9263730E-006  0.1830937E+03  0.7546771E-02  0.1172681E+00
          1   -1    0    0  501    0  0.00000000000E+00  0.00000000000E+00  0.21923581045E+04  0.21923581045E+04  0.00000000000E+00 0. -1.
         -1   -1    0    0    0  501 -0.00000000000E+00 -0.00000000000E+00 -0.13331660177E+02  0.13331660177E+02  0.00000000000E+00 0.  1.
          5    1    1    2  502    0 -0.10340508164E+03  0.58828058167E+02  0.13680370472E+04  0.13732082158E+04  0.47000000000E+01 0. -1.
         -5    1    1    2    0  502 -0.88160885492E+01  0.14004360264E+02  0.18107528612E+02  0.24976351138E+02  0.47000000000E+01 0. -1.
        -11    1    1    2    0    0 -0.19799398377E+01 -0.22503371856E+02  0.60779254060E+02  0.64841650433E+02  0.00000000000E+00 0.  1.
         11    1    1    2    0    0  0.11420111003E+03 -0.50329046574E+02  0.73210261437E+03  0.74266354726E+03  0.00000000000E+00 0. -1.
<mgrwt>
<rscale>  0 0.17505073E+03</rscale>
<asrwt>0</asrwt>
<pdfrwt beam="1">  1        1 0.33728558E+00 0.18309369E+03</pdfrwt>
<pdfrwt beam="2">  1       -1 0.20510264E-02 0.18309369E+03</pdfrwt>
<totfact> 0.16783534E+03</totfact>
</mgrwt>
</event>
<event>
 6    1  0.9263730E-006  0.1433609E+03  0.7546771E-02  0.1218523E+00
         -1   -1    0    0    0  501 -0.00000000000E+00  0.00000000000E+00  0.23937671416E+03  0.23937671416E+03  0.00000000000E+00 0.  1.
          1   -1    0    0  501    0  0.00000000000E+00 -0.00000000000E+00 -0.71560674054E+02  0.71560674054E+02  0.00000000000E+00 0. -1.
          5    1    1    2  502    0  0.83911152887E+01 -0.10707105071E+03  0.45558772132E+02  0.11675749412E+03  0.47000000000E+01 0. -1.
         -5    1    1    2    0  502 -0.57724847086E+01  0.33152464403E+02  0.29845366194E+02  0.45224366872E+02  0.47000000000E+01 0.  1.
        -11    1    1    2    0    0 -0.38471031331E+02  0.65422168877E+02  0.42715275316E+02  0.87090040633E+02  0.00000000000E+00 0.  1.
         11    1    1    2    0    0  0.35852400751E+02  0.84964174280E+01  0.49696626466E+02  0.61865486589E+02  0.00000000000E+00 0. -1.
<mgrwt>
<rscale>  0 0.13620899E+03</rscale>
<asrwt>0</asrwt>
<pdfrwt beam="2">  1        1 0.11009335E-01 0.14336087E+03</pdfrwt>
<pdfrwt beam="1">  1       -1 0.36827186E-01 0.14336087E+03</pdfrwt>
<totfact> 0.38768651E+03</totfact>
</mgrwt>
</event>
<event>
 6    1  0.9263730E-006  0.2251593E+03  0.7546771E-02  0.1148574E+00
         -1   -1    0    0    0  501 -0.00000000000E+00  0.00000000000E+00  0.42833884910E+02  0.42833884910E+02  0.00000000000E+00 0.  1.
          1   -1    0    0  501    0  0.00000000000E+00 -0.00000000000E+00 -0.14354140882E+04  0.14354140882E+04  0.00000000000E+00 0. -1.
          5    1    1    2  502    0  0.11616485094E+03  0.12197347154E+03 -0.92493683863E+03  0.94016064894E+03  0.47000000000E+01 0. -1.
         -5    1    1    2    0  502 -0.42968270760E+02 -0.36298103434E+02 -0.34284585937E+03  0.34746107393E+03  0.47000000000E+01 0.  1.
        -11    1    1    2    0    0 -0.61434181131E+01 -0.60157639288E+02 -0.95703303137E+02  0.11320691402E+03  0.00000000000E+00 0. -1.
         11    1    1    2    0    0 -0.67053162066E+02 -0.25517728818E+02 -0.29094202191E+02  0.77419336268E+02  0.00000000000E+00 0.  1.
<mgrwt>
<rscale>  0 0.20138691E+03</rscale>
<asrwt>0</asrwt>
<pdfrwt beam="2">  1        1 0.22083290E+00 0.22515935E+03</pdfrwt>
<pdfrwt beam="1">  1       -1 0.65898295E-02 0.22515935E+03</pdfrwt>
<totfact> 0.91936938E+02</totfact>
</mgrwt>
</event>
<event>
 6    1  0.9263730E-006  0.1620682E+03  0.7546771E-02  0.1193959E+00
         -1   -1    0    0    0  501 -0.00000000000E+00  0.00000000000E+00  0.10485584930E+03  0.10485584930E+03  0.00000000000E+00 0.  1.
          1   -1    0    0  501    0  0.00000000000E+00 -0.00000000000E+00 -0.21429828750E+03  0.21429828750E+03  0.00000000000E+00 0. -1.
          5    1    1    2  502    0  0.81653397032E+02 -0.71942575363E+02 -0.93406337289E+02  0.14349162081E+03  0.47000000000E+01 0.  1.
         -5    1    1    2    0  502  0.79816380236E+01  0.20886222157E+02  0.23710311072E+02  0.32927339289E+02  0.47000000000E+01 0.  1.
        -11    1    1    2    0    0 -0.10598064604E+03  0.46841040381E+02 -0.46092029684E+02  0.12470146591E+03  0.00000000000E+00 0. -1.
         11    1    1    2    0    0  0.16345610989E+02  0.42153128258E+01  0.63456176946E+01  0.18033710787E+02  0.00000000000E+00 0.  1.
<mgrwt>
<rscale>  0 0.15542631E+03</rscale>
<asrwt>0</asrwt>
<pdfrwt beam="2">  1        1 0.32968967E-01 0.16206824E+03</pdfrwt>
<pdfrwt beam="1">  1       -1 0.16131669E-01 0.16206824E+03</pdfrwt>
<totfact> 0.37325655E+03</totfact>
</mgrwt>
</event>
<event>
 6    1  0.9263730E-006  0.1315111E+03  0.7546771E-02  0.1238630E+00
         -2   -1    0    0    0  501 -0.00000000000E+00  0.00000000000E+00  0.14739527826E+02  0.14739527826E+02  0.00000000000E+00 0.  1.
          2   -1    0    0  501    0  0.00000000000E+00 -0.00000000000E+00 -0.95031663091E+03  0.95031663091E+03  0.00000000000E+00 0. -1.
          5    1    1    2  502    0  0.57931003789E+01 -0.33129588686E+02 -0.60194874674E+03  0.60290589097E+03  0.47000000000E+01 0.  1.
         -5    1    1    2    0  502  0.27388807999E+02  0.10228939023E+02 -0.28449359353E+02  0.41063780205E+02  0.47000000000E+01 0.  1.
        -11    1    1    2    0    0 -0.39719142308E+02 -0.24159675440E+02 -0.20508667512E+03  0.21028990583E+03  0.00000000000E+00 0. -1.
         11    1    1    2    0    0  0.65372339299E+01  0.47060325103E+02 -0.10009232187E+03  0.11079658173E+03  0.00000000000E+00 0.  1.
<mgrwt>
<rscale>  0 0.12274867E+03</rscale>
<asrwt>0</asrwt>
<pdfrwt beam="2">  1        2 0.14620255E+00 0.13151108E+03</pdfrwt>
<pdfrwt beam="1">  1       -2 0.22676199E-02 0.13151108E+03</pdfrwt>
<totfact> 0.17251190E+04</totfact>
</mgrwt>
</event>
<event>
 6    1  0.9263730E-006  0.5923879E+03  0.7546771E-02  0.1043691E+00
         -2   -1    0    0    0  501 -0.00000000000E+00  0.00000000000E+00  0.18704212056E+03  0.18704212056E+03  0.00000000000E+00 0.  1.
          2   -1    0    0  501    0  0.00000000000E+00 -0.00000000000E+00 -0.70602259251E+03  0.70602259251E+03  0.00000000000E+00 0. -1.
          5    1    1    2  502    0 -0.80336217771E+02  0.20150772157E+03 -0.39167955983E+03  0.44776582867E+03  0.47000000000E+01 0. -1.
         -5    1    1    2    0  502  0.12466105445E+03 -0.27639716884E+03 -0.91685775089E+02  0.31680300629E+03  0.47000000000E+01 0.  1.
        -11    1    1    2    0    0  0.14781791768E+02 -0.11021456131E+02 -0.10560360297E+02  0.21248413417E+02  0.00000000000E+00 0. -1.
         11    1    1    2    0    0 -0.59106628446E+02  0.85910903394E+02 -0.25054776736E+02  0.10724746470E+03  0.00000000000E+00 0.  1.
<mgrwt>
<rscale>  0 0.40025575E+03</rscale>
<asrwt>0</asrwt>
<pdfrwt beam="2">  1        2 0.10861886E+00 0.59238793E+03</pdfrwt>
<pdfrwt beam="1">  1       -2 0.28775711E-01 0.59238793E+03</pdfrwt>
<totfact> 0.45370610E+02</totfact>
</mgrwt>
</event>
<event>
 6    1  0.9263730E-006  0.1555758E+03  0.7546771E-02  0.1201230E+00
         -1   -1    0    0    0  501 -0.00000000000E+00  0.00000000000E+00  0.99322424042E+02  0.99322424042E+02  0.00000000000E+00 0.  1.
          1   -1    0    0  501    0  0.00000000000E+00 -0.00000000000E+00 -0.25683107405E+03  0.25683107405E+03  0.00000000000E+00 0. -1.
          5    1    1    2  502    0 -0.96364372505E+01 -0.66546468507E+02 -0.11718082836E+03  0.13518405945E+03  0.47000000000E+01 0. -1.
         -5    1    1    2    0  502 -0.72930076215E+02  0.24602540646E+02 -0.43776703873E+02  0.88671138624E+02  0.47000000000E+01 0. -1.
        -11    1    1    2    0    0  0.38042139034E+02  0.45516723985E+02  0.42494430811E+02  0.72970906220E+02  0.00000000000E+00 0.  1.
         11    1    1    2    0    0  0.44524374431E+02 -0.35727961238E+01 -0.39045548584E+02  0.59327393798E+02  0.00000000000E+00 0. -1.
<mgrwt>
<rscale>  0 0.14938540E+03</rscale>
<asrwt>0</asrwt>
<pdfrwt beam="2">  1        1 0.39512473E-01 0.15557578E+03</pdfrwt>
<pdfrwt beam="1">  1       -1 0.15280373E-01 0.15557578E+03</pdfrwt>
<totfact> 0.32399633E+03</totfact>
</mgrwt>
</event>
<event>
 6    1  0.9263730E-006  0.1380427E+03  0.7546771E-02  0.1229706E+00
          1   -1    0    0  501    0  0.00000000000E+00  0.00000000000E+00  0.16908375732E+03  0.16908375732E+03  0.00000000000E+00 0. -1.
         -1   -1    0    0    0  501 -0.00000000000E+00 -0.00000000000E+00 -0.15988562403E+03  0.15988562403E+03  0.00000000000E+00 0.  1.
          5    1    1    2  502    0  0.39791274149E+02  0.57790456404E+02  0.67330162126E+02  0.97357706843E+02  0.47000000000E+01 0. -1.
         -5    1    1    2    0  502  0.18384169341E+02 -0.64429859156E+02  0.48553290879E+02  0.82877599437E+02  0.47000000000E+01 0. -1.
        -11    1    1    2    0    0 -0.76996485957E+02 -0.93405409695E+01 -0.69777074749E+02  0.10432902145E+03  0.00000000000E+00 0.  1.
         11    1    1    2    0    0  0.18821042467E+02  0.15979943722E+02 -0.36908244968E+02  0.44405053626E+02  0.00000000000E+00 0. -1.
<mgrwt>
<rscale>  0 0.12849493E+03</rscale>
<asrwt>0</asrwt>
<pdfrwt beam="1">  1        1 0.26012886E-01 0.13804271E+03</pdfrwt>
<pdfrwt beam="2">  1       -1 0.24597788E-01 0.13804271E+03</pdfrwt>
<totfact> 0.25257812E+03</totfact>
</mgrwt>
</event>
<event>
 6    1  0.9263730E-006  0.1265878E+03  0.7546771E-02  0.1247470E+00
          1   -1    0    0  501    0  0.00000000000E+00  0.00000000000E+00  0.90728858749E+03  0.90728858749E+03  0.00000000000E+00 0. -1.
         -1   -1    0    0    0  501 -0.00000000000E+00 -0.00000000000E+00 -0.14589118861E+02  0.14589118861E+02  0.00000000000E+00 0.  1.
          5    1    1    2  502    0 -0.31736142876E+02 -0.19873578386E+02  0.52896994444E+03  0.53031446709E+03  0.47000000000E+01 0.  1.
         -5    1    1    2    0  502  0.30966393356E+02  0.39943016365E+02  0.11100073666E+03  0.12205578894E+03  0.47000000000E+01 0.  1.
        -11    1    1    2    0    0  0.32514470801E+02 -0.36713758962E+02  0.86286639738E+02  0.99249559726E+02  0.00000000000E+00 0.  1.
         11    1    1    2    0    0 -0.31744721281E+02  0.16644320983E+02  0.16644214779E+03  0.17025789060E+03  0.00000000000E+00 0. -1.
<mgrwt>
<rscale>  0 0.11738754E+03</rscale>
<asrwt>0</asrwt>
<pdfrwt beam="1">  1        1 0.13958282E+00 0.12658783E+03</pdfrwt>
<pdfrwt beam="2">  1       -1 0.22444805E-02 0.12658783E+03</pdfrwt>
<totfact> 0.10447964E+04</totfact>
</mgrwt>
</event>
<event>
 6    1  0.9263730E-006  0.2902810E+03  0.7546771E-02  0.1135538E+00
         -2   -1    0    0    0  501 -0.00000000000E+00  0.00000000000E+00  0.11247285983E+03  0.11247285983E+03  0.00000000000E+00 0.  1.
          2   -1    0    0  501    0  0.00000000000E+00 -0.00000000000E+00 -0.36616462856E+03  0.36616462856E+03  0.00000000000E+00 0. -1.
          5    1    1    2  502    0  0.53749789024E+02 -0.49474796215E+02 -0.29910853209E+03  0.30793635584E+03  0.47000000000E+01 0. -1.
         -5    1    1    2    0  502 -0.45897148222E+02  0.46398941919E+02  0.43722558437E+02  0.78696646323E+02  0.47000000000E+01 0.  1.
        -11    1    1    2    0    0 -0.37686981455E+02  0.30575279590E+02 -0.10468173502E+02  0.49646137308E+02  0.00000000000E+00 0. -1.
         11    1    1    2    0    0  0.29834340653E+02 -0.27499425295E+02  0.12162378424E+02  0.42358348913E+02  0.00000000000E+00 0.  1.
<mgrwt>
<rscale>  0 0.21779497E+03</rscale>
<asrwt>0</asrwt>
<pdfrwt beam="2">  1        2 0.56333020E-01 0.29028104E+03</pdfrwt>
<pdfrwt beam="1">  1       -2 0.17303517E-01 0.29028104E+03</pdfrwt>
<totfact> 0.23655001E+03</totfact>
</mgrwt>
</event>
<event>
 6    1  0.9263730E-006  0.1372493E+03  0.7546771E-02  0.1228921E+00
          2   -1    0    0  501    0  0.00000000000E+00  0.00000000000E+00  0.71707901867E+02  0.71707901867E+02  0.00000000000E+00 0. -1.
         -2   -1    0    0    0  501 -0.00000000000E+00 -0.00000000000E+00 -0.21226320162E+03  0.21226320162E+03  0.00000000000E+00 0.  1.
          5    1    1    2  502    0 -0.28214095642E+01 -0.68423400379E+02 -0.44691464304E+02  0.81909334346E+02  0.47000000000E+01 0.  1.
         -5    1    1    2    0  502 -0.48557961407E+02  0.44501444636E+02 -0.14757625082E+02  0.67661892441E+02  0.47000000000E+01 0.  1.
        -11    1    1    2    0    0 -0.17927067178E+02  0.91907970945E+00  0.76083886541E+01  0.19496461808E+02  0.00000000000E+00 0. -1.
         11    1    1    2    0    0  0.69306438149E+02  0.23002876034E+02 -0.88714599024E+02  0.11490341490E+03  0.00000000000E+00 0.  1.
<mgrwt>
<rscale>  0 0.12901773E+03</rscale>
<asrwt>0</asrwt>
<pdfrwt beam="1">  1        2 0.11031985E-01 0.13724925E+03</pdfrwt>
<pdfrwt beam="2">  1       -2 0.32655877E-01 0.13724925E+03</pdfrwt>
<totfact> 0.47248120E+03</totfact>
</mgrwt>
</event>
<event>
 6    1  0.9263730E-006  0.1362942E+03  0.7546771E-02  0.1229581E+00
         -1   -1    0    0    0  501 -0.00000000000E+00  0.00000000000E+00  0.21596275073E+02  0.21596275073E+02  0.00000000000E+00 0.  1.
          1   -1    0    0  501    0  0.00000000000E+00 -0.00000000000E+00 -0.96457897611E+03  0.96457897611E+03  0.00000000000E+00 0. -1.
          5    1    1    2  502    0  0.72129003453E+02 -0.27540195601E+02 -0.25668535490E+03  0.26808677127E+03  0.47000000000E+01 0.  1.
         -5    1    1    2    0  502 -0.20711465283E+02  0.10018708163E+02 -0.51550248248E+03  0.51603705172E+03  0.47000000000E+01 0.  1.
        -11    1    1    2    0    0 -0.75749434827E+02  0.70536874734E+01 -0.94671720378E+02  0.12145149659E+03  0.00000000000E+00 0.  1.
         11    1    1    2    0    0  0.24331896657E+02  0.10467799964E+02 -0.76123143291E+02  0.80599931610E+02  0.00000000000E+00 0. -1.
<mgrwt>
<rscale>  0 0.12857809E+03</rscale>
<asrwt>0</asrwt>
<pdfrwt beam="2">  1        1 0.14839679E+00 0.13629422E+03</pdfrwt>
<pdfrwt beam="1">  1       -1 0.33225034E-02 0.13629422E+03</pdfrwt>
<totfact> 0.53739476E+03</totfact>
</mgrwt>
</event>
<event>
 6    1  0.9263730E-006  0.1258777E+03  0.7546771E-02  0.1249380E+00
          1   -1    0    0  501    0  0.00000000000E+00  0.00000000000E+00  0.27728394508E+03  0.27728394508E+03  0.00000000000E+00 0. -1.
         -1   -1    0    0    0  501 -0.00000000000E+00 -0.00000000000E+00 -0.44008693243E+02  0.44008693243E+02  0.00000000000E+00 0.  1.
          5    1    1    2  502    0  0.55514276911E+02 -0.73487459399E+01  0.15264054038E+03  0.16265627432E+03  0.47000000000E+01 0. -1.
         -5    1    1    2    0  502 -0.40633290559E+02  0.77175262723E+01  0.96501123198E+01  0.42729839471E+02  0.47000000000E+01 0. -1.
        -11    1    1    2    0    0  0.91359636119E+01 -0.65721432098E+01 -0.19264296400E+02  0.22310804855E+02  0.00000000000E+00 0.  1.
         11    1    1    2    0    0 -0.24016949964E+02  0.62033628773E+01  0.90248895533E+02  0.93595719675E+02  0.00000000000E+00 0. -1.
<mgrwt>
<rscale>  0 0.11626996E+03</rscale>
<asrwt>0</asrwt>
<pdfrwt beam="1">  1        1 0.42659067E-01 0.12587772E+03</pdfrwt>
<pdfrwt beam="2">  1       -1 0.67705684E-02 0.12587772E+03</pdfrwt>
<totfact> 0.10112144E+04</totfact>
</mgrwt>
</event>
<event>
 6    1  0.9263730E-006  0.1588561E+03  0.7546771E-02  0.1206398E+00
         -1   -1    0    0    0  501 -0.00000000000E+00  0.00000000000E+00  0.34935254194E+02  0.34935254194E+02  0.00000000000E+00 0.  1.
          1   -1    0    0  501    0  0.00000000000E+00 -0.00000000000E+00 -0.55947305776E+03  0.55947305776E+03  0.00000000000E+00 0. -1.
          5    1    1    2  502    0  0.33374027516E+02  0.45751605824E+01 -0.19684989633E+02  0.39298175833E+02  0.47000000000E+01 0. -1.
         -5    1    1    2    0  502 -0.94000744738E+02  0.81612946211E+01 -0.36201935999E+03  0.37414282534E+03  0.47000000000E+01 0.  1.
        -11    1    1    2    0    0 -0.42326653569E+01 -0.38132046824E+02 -0.31503322860E+02  0.49643003557E+02  0.00000000000E+00 0.  1.
         11    1    1    2    0    0  0.64859382579E+02  0.25395591620E+02 -0.11133013108E+03  0.13132430723E+03  0.00000000000E+00 0. -1.
<mgrwt>
<rscale>  0 0.14527853E+03</rscale>
<asrwt>0</asrwt>
<pdfrwt beam="2">  1        1 0.86072774E-01 0.15885607E+03</pdfrwt>
<pdfrwt beam="1">  1       -1 0.53746548E-02 0.15885607E+03</pdfrwt>
<totfact> 0.59404684E+03</totfact>
</mgrwt>
</event>
<event>
 6    1  0.9263730E-006  0.1349448E+03  0.7546771E-02  0.1232352E+00
         -2   -1    0    0    0  501 -0.00000000000E+00  0.00000000000E+00  0.61465032582E+02  0.61465032582E+02  0.00000000000E+00 0.  1.
          2   -1    0    0  501    0  0.00000000000E+00 -0.00000000000E+00 -0.28730768361E+03  0.28730768361E+03  0.00000000000E+00 0. -1.
          5    1    1    2  502    0 -0.26142829001E+02 -0.27913245474E+02 -0.20666350214E+03  0.21022485556E+03  0.47000000000E+01 0.  1.
         -5    1    1    2    0  502 -0.23404078189E+02  0.16558979097E+02  0.78186856056E+01  0.30086084976E+02  0.47000000000E+01 0.  1.
        -11    1    1    2    0    0  0.58670298205E+02  0.20309535646E+01 -0.53179127467E+02  0.79210783748E+02  0.00000000000E+00 0. -1.
         11    1    1    2    0    0 -0.91233910155E+01  0.93233128120E+01  0.26181292974E+02  0.29250991901E+02  0.00000000000E+00 0.  1.
<mgrwt>
<rscale>  0 0.12675465E+03</rscale>
<asrwt>0</asrwt>
<pdfrwt beam="2">  1        2 0.44201183E-01 0.13494476E+03</pdfrwt>
<pdfrwt beam="1">  1       -2 0.94561587E-02 0.13494476E+03</pdfrwt>
<totfact> 0.78971098E+03</totfact>
</mgrwt>
</event>
<event>
 6    1  0.9263730E-006  0.1430709E+03  0.7546771E-02  0.1219500E+00
          2   -1    0    0  501    0  0.00000000000E+00  0.00000000000E+00  0.10414536090E+04  0.10414536090E+04  0.00000000000E+00 0. -1.
         -2   -1    0    0    0  501 -0.00000000000E+00 -0.00000000000E+00 -0.25273162184E+02  0.25273162184E+02  0.00000000000E+00 0.  1.
          5    1    1    2  502    0  0.89875579185E+02  0.25909173542E+02  0.53688661392E+03  0.54499379007E+03  0.47000000000E+01 0.  1.
         -5    1    1    2    0  502 -0.22491740008E+02 -0.43332928850E+02  0.32779069087E+03  0.33143996155E+03  0.47000000000E+01 0.  1.
        -11    1    1    2    0    0 -0.43512795732E+02 -0.19224370869E+02  0.13568711155E+03  0.14378432483E+03  0.00000000000E+00 0. -1.
         11    1    1    2    0    0 -0.23871043445E+02  0.36648126177E+02  0.15816030509E+02  0.46508694762E+02  0.00000000000E+00 0.  1.
<mgrwt>
<rscale>  0 0.13551088E+03</rscale>
<asrwt>0</asrwt>
<pdfrwt beam="1">  1        2 0.16022360E+00 0.14307089E+03</pdfrwt>
<pdfrwt beam="2">  1       -2 0.38881796E-02 0.14307089E+03</pdfrwt>
<totfact> 0.69192687E+03</totfact>
</mgrwt>
</event>
<event>
 6    1  0.9263730E-006  0.2138860E+03  0.7546771E-02  0.1142203E+00
         -2   -1    0    0    0  501 -0.00000000000E+00  0.00000000000E+00  0.11173046473E+03  0.11173046473E+03  0.00000000000E+00 0.  1.
          2   -1    0    0  501    0  0.00000000000E+00 -0.00000000000E+00 -0.45850288438E+03  0.45850288438E+03  0.00000000000E+00 0. -1.
          5    1    1    2  502    0  0.69715022772E+02  0.70616004748E+02 -0.27151531425E+03  0.28911841934E+03  0.47000000000E+01 0. -1.
         -5    1    1    2    0  502  0.52556968617E+02  0.52563732353E+02 -0.29414583817E+02  0.80078016023E+02  0.47000000000E+01 0. -1.
        -11    1    1    2    0    0 -0.56355675162E+02 -0.46684175917E+02 -0.65443232549E+02  0.98174289356E+02  0.00000000000E+00 0.  1.
         11    1    1    2    0    0 -0.65916316226E+02 -0.76495561184E+02  0.19600710974E+02  0.10286262439E+03  0.00000000000E+00 0. -1.
<mgrwt>
<rscale>  0 0.20919766E+03</rscale>
<asrwt>0</asrwt>
<pdfrwt beam="2">  1        2 0.70538904E-01 0.21388596E+03</pdfrwt>
<pdfrwt beam="1">  1       -2 0.17189303E-01 0.21388596E+03</pdfrwt>
<totfact> 0.18568349E+03</totfact>
</mgrwt>
</event>
<event>
 6    1  0.9263730E-006  0.1347415E+03  0.7546771E-02  0.1233340E+00
          1   -1    0    0  501    0  0.00000000000E+00  0.00000000000E+00  0.26237123360E+02  0.26237123360E+02  0.00000000000E+00 0. -1.
         -1   -1    0    0    0  501 -0.00000000000E+00 -0.00000000000E+00 -0.54588443952E+03  0.54588443952E+03  0.00000000000E+00 0.  1.
          5    1    1    2  502    0 -0.21642204708E+01 -0.80961853584E+02 -0.14154401908E+03  0.16314504260E+03  0.47000000000E+01 0.  1.
         -5    1    1    2    0  502 -0.30260058108E+02  0.42586118100E+02 -0.12367065620E+03  0.13433454424E+03  0.47000000000E+01 0.  1.
        -11    1    1    2    0    0 -0.23697195242E+02 -0.80176429496E+01 -0.11101269959E+03  0.11379656907E+03  0.00000000000E+00 0.  1.
         11    1    1    2    0    0  0.56121473821E+02  0.46393378434E+02 -0.14341994128E+03  0.16084540697E+03  0.00000000000E+00 0. -1.
<mgrwt>
<rscale>  0 0.12611296E+03</rscale>
<asrwt>0</asrwt>
<pdfrwt beam="1">  1        1 0.40364804E-02 0.13474153E+03</pdfrwt>
<pdfrwt beam="2">  1       -1 0.83982224E-01 0.13474153E+03</pdfrwt>
<totfact> 0.31823363E+03</totfact>
</mgrwt>
</event>
<event>
 6    1  0.9263730E-006  0.1272080E+03  0.7546771E-02  0.1246956E+00
         -1   -1    0    0    0  501 -0.00000000000E+00  0.00000000000E+00  0.42229672601E+02  0.42229672601E+02  0.00000000000E+00 0.  1.
          1   -1    0    0  501    0  0.00000000000E+00 -0.00000000000E+00 -0.29001907302E+03  0.29001907302E+03  0.00000000000E+00 0. -1.
          5    1    1    2  502    0 -0.14452185088E+01 -0.36327292962E+02 -0.16941747778E+03  0.17333820308E+03  0.47000000000E+01 0.  1.
         -5    1    1    2    0  502 -0.16471041356E+02  0.20898232397E+02  0.11564731464E+02  0.29391569106E+02  0.47000000000E+01 0.  1.
        -11    1    1    2    0    0 -0.10837508155E+02  0.34147977591E+02 -0.28762036683E+01  0.35941737633E+02  0.00000000000E+00 0.  1.
         11    1    1    2    0    0  0.28753768020E+02 -0.18718917026E+02 -0.87060450431E+02  0.93577235796E+02  0.00000000000E+00 0. -1.
<mgrwt>
<rscale>  0 0.11769060E+03</rscale>
<asrwt>0</asrwt>
<pdfrwt beam="2">  1        1 0.44618318E-01 0.12720798E+03</pdfrwt>
<pdfrwt beam="1">  1       -1 0.64968728E-02 0.12720798E+03</pdfrwt>
<totfact> 0.10183794E+04</totfact>
</mgrwt>
</event>
<event>
 6    1  0.9263730E-006  0.1797472E+03  0.7546771E-02  0.1174075E+00
         -2   -1    0    0    0  501 -0.00000000000E+00  0.00000000000E+00  0.25823064194E+03  0.25823064194E+03  0.00000000000E+00 0.  1.
          2   -1    0    0  501    0  0.00000000000E+00 -0.00000000000E+00 -0.13474859682E+03  0.13474859682E+03  0.00000000000E+00 0. -1.
          5    1    1    2  502    0 -0.77044157675E+02 -0.10104590103E+03 -0.40797514261E+02  0.13353877159E+03  0.47000000000E+01 0. -1.
         -5    1    1    2    0  502 -0.30256673861E+02  0.29136604438E+02  0.21178244612E+02  0.47275956640E+02  0.47000000000E+01 0. -1.
        -11    1    1    2    0    0  0.96304331807E+02  0.22065289986E+02  0.62981107168E+02  0.11716663863E+03  0.00000000000E+00 0. -1.
         11    1    1    2    0    0  0.10996499730E+02  0.49844006607E+02  0.80120207601E+02  0.94997871907E+02  0.00000000000E+00 0.  1.
<mgrwt>
<rscale>  0 0.17366871E+03</rscale>
<asrwt>0</asrwt>
<pdfrwt beam="2">  1        2 0.20730553E-01 0.17974718E+03</pdfrwt>
<pdfrwt beam="1">  1       -2 0.39727791E-01 0.17974718E+03</pdfrwt>
<totfact> 0.15850744E+03</totfact>
</mgrwt>
</event>
<event>
 6    1  0.9263730E-006  0.2658519E+03  0.7546771E-02  0.1103677E+00
         -2   -1    0    0    0  501 -0.00000000000E+00  0.00000000000E+00  0.96947597155E+01  0.96947597155E+01  0.00000000000E+00 0.  1.
          2   -1    0    0  501    0  0.00000000000E+00 -0.00000000000E+00 -0.18225621652E+04  0.18225621652E+04  0.00000000000E+00 0. -1.
          5    1    1    2  502    0 -0.35084924576E+02 -0.18440667440E+01 -0.17623713567E+03  0.17976643319E+03  0.47000000000E+01 0. -1.
         -5    1    1    2    0  502  0.82475121383E+02  0.14800329791E+02 -0.12344928120E+04  0.12373422276E+04  0.47000000000E+01 0. -1.
        -11    1    1    2    0    0 -0.32008181934E+02  0.37018551613E+02 -0.23422352224E+03  0.23928133075E+03  0.00000000000E+00 0.  1.
         11    1    1    2    0    0 -0.15382014873E+02 -0.49974814660E+02 -0.16791393563E+03  0.17586693339E+03  0.00000000000E+00 0. -1.
<mgrwt>
<rscale>  0 0.26585186E+03</rscale>
<asrwt>0</asrwt>
<pdfrwt beam="2">  1        2 0.28039407E+00 0.26585186E+03</pdfrwt>
<pdfrwt beam="1">  1       -2 0.14915021E-02 0.26585186E+03</pdfrwt>
<totfact> 0.10948092E+04</totfact>
</mgrwt>
</event>
<event>
 6    1  0.9263730E-006  0.2190669E+03  0.7546771E-02  0.1138974E+00
         -1   -1    0    0    0  501 -0.00000000000E+00  0.00000000000E+00  0.14560024881E+03  0.14560024881E+03  0.00000000000E+00 0.  1.
          1   -1    0    0  501    0  0.00000000000E+00 -0.00000000000E+00 -0.45720500448E+03  0.45720500448E+03  0.00000000000E+00 0. -1.
          5    1    1    2  502    0 -0.14584478702E+03 -0.85137725494E+02 -0.25480268567E+03  0.30572149553E+03  0.47000000000E+01 0.  1.
         -5    1    1    2    0  502  0.21463883954E+02 -0.44846011674E+02 -0.84571581567E+02  0.98215607142E+02  0.47000000000E+01 0.  1.
        -11    1    1    2    0    0  0.15432587781E+02  0.66171114648E+02  0.25537912034E+02  0.72587644475E+02  0.00000000000E+00 0.  1.
         11    1    1    2    0    0  0.10894831528E+03  0.63812622520E+02  0.22315995399E+01  0.12628050615E+03  0.00000000000E+00 0. -1.
<mgrwt>
<rscale>  0 0.21330687E+03</rscale>
<asrwt>0</asrwt>
<pdfrwt beam="2">  1        1 0.70339230E-01 0.21906686E+03</pdfrwt>
<pdfrwt beam="1">  1       -1 0.22400039E-01 0.21906686E+03</pdfrwt>
<totfact> 0.85277522E+02</totfact>
</mgrwt>
</event>
<event>
 6    1  0.9263730E-006  0.3589913E+03  0.7546771E-02  0.1058984E+00
          3   -1    0    0  501    0  0.00000000000E+00  0.00000000000E+00  0.65309980302E+03  0.65309980302E+03  0.00000000000E+00 0. -1.
         -3   -1    0    0    0  501 -0.00000000000E+00 -0.00000000000E+00 -0.49331951157E+02  0.49331951157E+02  0.00000000000E+00 0.  1.
          5    1    1    2  502    0 -0.31543973893E+00 -0.57853261581E+01  0.49135685671E+03  0.49141349202E+03  0.47000000000E+01 0. -1.
         -5    1    1    2    0  502  0.53496412437E+02 -0.80338175483E+00  0.86497954139E+02  0.10181599892E+03  0.47000000000E+01 0.  1.
        -11    1    1    2    0    0 -0.75363971358E+02  0.21518095249E+02  0.25635968184E+02  0.82461866743E+02  0.00000000000E+00 0.  1.
         11    1    1    2    0    0  0.22182998659E+02 -0.14929387336E+02  0.27707283535E+00  0.26740396502E+02  0.00000000000E+00 0. -1.
<mgrwt>
<rscale>  0 0.35899130E+03</rscale>
<asrwt>0</asrwt>
<pdfrwt beam="1">  1        3 0.10047689E+00 0.35899130E+03</pdfrwt>
<pdfrwt beam="2">  1       -3 0.75895314E-02 0.35899130E+03</pdfrwt>
<totfact> 0.26950689E+02</totfact>
</mgrwt>
</event>
<event>
 6    1  0.9263730E-006  0.1406443E+03  0.7546771E-02  0.1223401E+00
         -2   -1    0    0    0  501 -0.00000000000E+00  0.00000000000E+00  0.23810708800E+02  0.23810708800E+02  0.00000000000E+00 0.  1.
          2   -1    0    0  501    0  0.00000000000E+00 -0.00000000000E+00 -0.68215350020E+03  0.68215350020E+03  0.00000000000E+00 0. -1.
          5    1    1    2  502    0 -0.19703635844E+02  0.45803316130E+02 -0.61372378218E+02  0.79213861426E+02  0.47000000000E+01 0.  1.
         -5    1    1    2    0  502 -0.44662490261E+02 -0.42101944230E+02 -0.35429197102E+03  0.35960005906E+03  0.47000000000E+01 0.  1.
        -11    1    1    2    0    0  0.12534796102E+02 -0.34097180966E+01  0.51394102249E+01  0.13969997433E+02  0.00000000000E+00 0.  1.
         11    1    1    2    0    0  0.51831330003E+02 -0.29165380331E+00 -0.24781785239E+03  0.25318029108E+03  0.00000000000E+00 0. -1.
<mgrwt>
<rscale>  0 0.13277089E+03</rscale>
<asrwt>0</asrwt>
<pdfrwt beam="2">  1        2 0.10494668E+00 0.14064425E+03</pdfrwt>
<pdfrwt beam="1">  1       -2 0.36631863E-02 0.14064425E+03</pdfrwt>
<totfact> 0.12977412E+04</totfact>
</mgrwt>
</event>
<event>
 6    1  0.9263730E-006  0.1536274E+03  0.7546771E-02  0.1204492E+00
         -2   -1    0    0    0  501 -0.00000000000E+00  0.00000000000E+00  0.15522806148E+03  0.15522806148E+03  0.00000000000E+00 0.  1.
          2   -1    0    0  501    0  0.00000000000E+00 -0.00000000000E+00 -0.12930654882E+03  0.12930654882E+03  0.00000000000E+00 0. -1.
          5    1    1    2  502    0  0.52932418618E+01  0.98339244589E+02  0.64671055669E+02  0.11791124152E+03  0.47000000000E+01 0.  1.
         -5    1    1    2    0  502  0.11482978753E+02 -0.10616604011E+02 -0.34938989766E+02  0.38566748471E+02  0.47000000000E+01 0.  1.
        -11    1    1    2    0    0 -0.22631617925E+02 -0.10621669421E+03 -0.32771506483E+01  0.10865043016E+03  0.00000000000E+00 0. -1.
         11    1    1    2    0    0  0.58553973103E+01  0.18494053629E+02 -0.53340259393E+00  0.19406190136E+02  0.00000000000E+00 0.  1.
<mgrwt>
<rscale>  0 0.14677559E+03</rscale>
<asrwt>0</asrwt>
<pdfrwt beam="2">  1        2 0.19893315E-01 0.15362736E+03</pdfrwt>
<pdfrwt beam="1">  1       -2 0.23881240E-01 0.15362736E+03</pdfrwt>
<totfact> 0.41552015E+03</totfact>
</mgrwt>
</event>
<event>
 6    1  0.9263730E-006  0.4682021E+03  0.7546771E-02  0.1022429E+00
         -2   -1    0    0    0  501 -0.00000000000E+00  0.00000000000E+00  0.99681340401E+02  0.99681340401E+02  0.00000000000E+00 0.  1.
          2   -1    0    0  501    0  0.00000000000E+00 -0.00000000000E+00 -0.54978500054E+03  0.54978500054E+03  0.00000000000E+00 0. -1.
          5    1    1    2  502    0  0.25044926730E+02  0.13492205691E+02 -0.21581643911E+03  0.21773404272E+03  0.47000000000E+01 0. -1.
         -5    1    1    2    0  502  0.50729159159E+02  0.13428547388E+03 -0.18956289433E+03  0.23782812490E+03  0.47000000000E+01 0. -1.
        -11    1    1    2    0    0 -0.89997365874E+02 -0.87300044880E+02 -0.19676217653E+02  0.12691720625E+03  0.00000000000E+00 0.  1.
         11    1    1    2    0    0  0.14223279984E+02 -0.60477634695E+02 -0.25048109051E+02  0.66986967082E+02  0.00000000000E+00 0. -1.
<mgrwt>
<rscale>  0 0.46820212E+03</rscale>
<asrwt>0</asrwt>
<pdfrwt beam="2">  1        2 0.84582307E-01 0.46820212E+03</pdfrwt>
<pdfrwt beam="1">  1       -2 0.15335591E-01 0.46820212E+03</pdfrwt>
<totfact> 0.18528210E+03</totfact>
</mgrwt>
</event>
<event>
 6    1  0.9263730E-006  0.1347370E+03  0.7546771E-02  0.1233209E+00
          2   -1    0    0  501    0  0.00000000000E+00  0.00000000000E+00  0.39678824588E+03  0.39678824588E+03  0.00000000000E+00 0. -1.
         -2   -1    0    0    0  501 -0.00000000000E+00 -0.00000000000E+00 -0.37336286254E+02  0.37336286254E+02  0.00000000000E+00 0.  1.
          5    1    1    2  502    0  0.46941580962E+02  0.60666318785E+02  0.92284033602E+02  0.12009307689E+03  0.47000000000E+01 0.  1.
         -5    1    1    2    0  502  0.12861871647E+01 -0.45638163905E+02  0.15330777628E+03  0.16003081125E+03  0.47000000000E+01 0.  1.
        -11    1    1    2    0    0 -0.63450784723E+02  0.11871888950E+02  0.45495056627E+02  0.78973058740E+02  0.00000000000E+00 0.  1.
         11    1    1    2    0    0  0.15223016597E+02 -0.26900043830E+02  0.68365093116E+02  0.75027585254E+02  0.00000000000E+00 0. -1.
<mgrwt>
<rscale>  0 0.12619775E+03</rscale>
<asrwt>0</asrwt>
<pdfrwt beam="1">  1        2 0.61044342E-01 0.13473699E+03</pdfrwt>
<pdfrwt beam="2">  1       -2 0.57440443E-02 0.13473699E+03</pdfrwt>
<totfact> 0.12054547E+04</totfact>
</mgrwt>
</event>
<event>
 6    1  0.9263730E-006  0.1464218E+03  0.7546771E-02  0.1216375E+00
         -2   -1    0    0    0  501 -0.00000000000E+00  0.00000000000E+00  0.18790220729E+02  0.18790220729E+02  0.00000000000E+00 0.  1.
          2   -1    0    0  501    0  0.00000000000E+00 -0.00000000000E+00 -0.93181145037E+03  0.93181145037E+03  0.00000000000E+00 0. -1.
          5    1    1    2  502    0 -0.55327166669E+00 -0.32022903929E+02 -0.33574154600E+02  0.46637820947E+02  0.47000000000E+01 0. -1.
         -5    1    1    2    0  502 -0.72937332637E+02  0.11581912950E+02 -0.55328487008E+03  0.55821163788E+03  0.47000000000E+01 0. -1.
        -11    1    1    2    0    0 -0.92868620038E+01  0.29930386619E+02 -0.83793998279E+02  0.89462327248E+02  0.00000000000E+00 0. -1.
         11    1    1    2    0    0  0.82777466308E+02 -0.94893956397E+01 -0.24236820668E+03  0.25628988502E+03  0.00000000000E+00 0.  1.
<mgrwt>
<rscale>  0 0.13775994E+03</rscale>
<asrwt>0</asrwt>
<pdfrwt beam="2">  1        2 0.14335555E+00 0.14642183E+03</pdfrwt>
<pdfrwt beam="1">  1       -2 0.28908043E-02 0.14642183E+03</pdfrwt>
<totfact> 0.12503187E+04</totfact>
</mgrwt>
</event>
<event>
 6    1  0.9263730E-006  0.2319330E+03  0.7546771E-02  0.1128557E+00
          2   -1    0    0  501    0  0.00000000000E+00  0.00000000000E+00  0.50470207118E+03  0.50470207118E+03  0.00000000000E+00 0.  1.
         -2   -1    0    0    0  501 -0.00000000000E+00 -0.00000000000E+00 -0.98527439122E+02  0.98527439122E+02  0.00000000000E+00 0. -1.
          5    1    1    2  502    0 -0.40641842130E+02  0.94611714145E+02  0.28283451322E+02  0.10688863084E+03  0.47000000000E+01 0.  1.
         -5    1    1    2    0  502 -0.21432820359E+02  0.90546887502E+02  0.18997858320E+03  0.21159408474E+03  0.47000000000E+01 0.  1.
        -11    1    1    2    0    0  0.49336718675E+02 -0.93702896633E+02  0.46044274808E+02  0.11547475867E+03  0.00000000000E+00 0.  1.
         11    1    1    2    0    0  0.12737943814E+02 -0.91455705015E+02  0.14186832273E+03  0.16927203605E+03  0.00000000000E+00 0. -1.
<mgrwt>
<rscale>  0 0.22729719E+03</rscale>
<asrwt>0</asrwt>
<pdfrwt beam="1">  1        2 0.77646471E-01 0.23193302E+03</pdfrwt>
<pdfrwt beam="2">  1       -2 0.15158068E-01 0.23193302E+03</pdfrwt>
<totfact> 0.20615659E+03</totfact>
</mgrwt>
</event>
<event>
 6    1  0.9263730E-006  0.1321819E+03  0.7546771E-02  0.1237464E+00
          1   -1    0    0  501    0  0.00000000000E+00  0.00000000000E+00  0.23853054113E+03  0.23853054113E+03  0.00000000000E+00 0. -1.
         -1   -1    0    0    0  501 -0.00000000000E+00 -0.00000000000E+00 -0.64590139354E+02  0.64590139354E+02  0.00000000000E+00 0.  1.
          5    1    1    2  502    0  0.46613746878E+02 -0.13312727002E+02  0.77372724821E+02  0.91425918887E+02  0.47000000000E+01 0.  1.
         -5    1    1    2    0  502 -0.79022138339E+02 -0.14908609193E+02  0.72084419246E+02  0.10809726395E+03  0.47000000000E+01 0.  1.
        -11    1    1    2    0    0  0.55622741182E+02  0.82100599179E+01 -0.10382276209E+02  0.57175922203E+02  0.00000000000E+00 0.  1.
         11    1    1    2    0    0 -0.23214349720E+02  0.20011276276E+02  0.34865533917E+02  0.46421575441E+02  0.00000000000E+00 0. -1.
<mgrwt>
<rscale>  0 0.12347993E+03</rscale>
<asrwt>0</asrwt>
<pdfrwt beam="1">  1        1 0.36697006E-01 0.13218193E+03</pdfrwt>
<pdfrwt beam="2">  1       -1 0.99369446E-02 0.13218193E+03</pdfrwt>
<totfact> 0.68504146E+03</totfact>
</mgrwt>
</event>
<event>
 6    1  0.9263730E-006  0.1853027E+03  0.7546771E-02  0.1168388E+00
          2   -1    0    0  501    0  0.00000000000E+00  0.00000000000E+00  0.19799980942E+04  0.19799980942E+04  0.00000000000E+00 0. -1.
         -2   -1    0    0    0  501 -0.00000000000E+00 -0.00000000000E+00 -0.21720326827E+02  0.21720326827E+02  0.00000000000E+00 0.  1.
          5    1    1    2  502    0  0.55929815492E+02  0.86549756090E+02  0.76727947339E+03  0.77418272057E+03  0.47000000000E+01 0. -1.
         -5    1    1    2    0  502  0.71342409098E+02 -0.36409409193E+02  0.79986891836E+03  0.80388292741E+03  0.47000000000E+01 0. -1.
        -11    1    1    2    0    0 -0.62086852570E+02  0.21381898543E+02  0.14464164719E+03  0.15884951668E+03  0.00000000000E+00 0.  1.
         11    1    1    2    0    0 -0.65185372020E+02 -0.71522245440E+02  0.24648772841E+03  0.26480325635E+03  0.00000000000E+00 0. -1.
<mgrwt>
<rscale>  0 0.17939737E+03</rscale>
<asrwt>0</asrwt>
<pdfrwt beam="1">  1        2 0.30461495E+00 0.18530275E+03</pdfrwt>
<pdfrwt beam="2">  1       -2 0.33415903E-02 0.18530275E+03</pdfrwt>
<totfact> 0.27490722E+03</totfact>
</mgrwt>
</event>
<event>
 6    1  0.9263730E-006  0.2828726E+03  0.7546771E-02  0.1096034E+00
         -1   -1    0    0    0  501 -0.00000000000E+00  0.00000000000E+00  0.65200008278E+02  0.65200008278E+02  0.00000000000E+00 0.  1.
          1   -1    0    0  501    0  0.00000000000E+00 -0.00000000000E+00 -0.15200856835E+04  0.15200856835E+04  0.00000000000E+00 0. -1.
          5    1    1    2  502    0  0.27136785329E+02  0.80380192633E+01 -0.12023524846E+03  0.12361075942E+03  0.47000000000E+01 0. -1.
         -5    1    1    2    0  502  0.55512538483E+02 -0.24795645830E+03 -0.10023558067E+04  0.10340712260E+04  0.47000000000E+01 0. -1.
        -11    1    1    2    0    0 -0.27147349225E+02  0.15410826414E+03 -0.14059280519E+03  0.21036319192E+03  0.00000000000E+00 0. -1.
         11    1    1    2    0    0 -0.55501974587E+02  0.85810174903E+02 -0.19170181483E+03  0.21724051443E+03  0.00000000000E+00 0.  1.
<mgrwt>
<rscale>  0 0.27936975E+03</rscale>
<asrwt>0</asrwt>
<pdfrwt beam="2">  1        1 0.23385931E+00 0.28287259E+03</pdfrwt>
<pdfrwt beam="1">  1       -1 0.10030771E-01 0.28287259E+03</pdfrwt>
<totfact> 0.42143892E+02</totfact>
</mgrwt>
</event>
<event>
 6    1  0.9263730E-006  0.1335464E+03  0.7546771E-02  0.1237386E+00
         -2   -1    0    0    0  501 -0.00000000000E+00  0.00000000000E+00  0.14401982001E+03  0.14401982001E+03  0.00000000000E+00 0.  1.
          2   -1    0    0  501    0  0.00000000000E+00 -0.00000000000E+00 -0.98397243893E+02  0.98397243893E+02  0.00000000000E+00 0. -1.
          5    1    1    2  502    0  0.86840189117E+02  0.20900648198E+02 -0.10927666048E+02  0.90108597960E+02  0.47000000000E+01 0.  1.
         -5    1    1    2    0  502 -0.41112035214E+02 -0.10036000665E+02  0.86871883686E+01  0.43456621941E+02  0.47000000000E+01 0.  1.
        -11    1    1    2    0    0 -0.29809042932E+02  0.47470638568E+01 -0.20801374881E+02  0.36658025761E+02  0.00000000000E+00 0. -1.
         11    1    1    2    0    0 -0.15919110971E+02 -0.15611711390E+02  0.68664428681E+02  0.72193818245E+02  0.00000000000E+00 0.  1.
<mgrwt>
<rscale>  0 0.12352909E+03</rscale>
<asrwt>0</asrwt>
<pdfrwt beam="2">  1        2 0.15138038E-01 0.13354643E+03</pdfrwt>
<pdfrwt beam="1">  1       -2 0.22156895E-01 0.13354643E+03</pdfrwt>
<totfact> 0.64205503E+03</totfact>
</mgrwt>
</event>
<event>
 6    1  0.1111888E-005  0.3894335E+03  0.7546771E-02  0.1047501E+00
         -3   -1    0    0    0  501 -0.00000000000E+00  0.00000000000E+00  0.53770921191E+03  0.53770921191E+03  0.00000000000E+00 0.  1.
          3   -1    0    0  501    0  0.00000000000E+00 -0.00000000000E+00 -0.70511367629E+02  0.70511367629E+02  0.00000000000E+00 0. -1.
          5    1    1    2  502    0  0.62295558015E+01  0.10183860376E+00  0.82880576781E+02  0.83247208627E+02  0.47000000000E+01 0. -1.
         -5    1    1    2    0  502  0.10112849008E+03 -0.93952894390E+02  0.44171004452E+02  0.14500788083E+03  0.47000000000E+01 0. -1.
        -11    1    1    2    0    0 -0.64190406167E+02  0.22066277583E+02  0.23995928760E+03  0.24937479535E+03  0.00000000000E+00 0.  1.
         11    1    1    2    0    0 -0.43167639712E+02  0.71784778204E+02  0.10018697544E+03  0.13059069472E+03  0.00000000000E+00 0. -1.
<mgrwt>
<rscale>  0 0.38943350E+03</rscale>
<asrwt>0</asrwt>
<pdfrwt beam="2">  1        3 0.10847903E-01 0.38943350E+03</pdfrwt>
<pdfrwt beam="1">  1       -3 0.82724492E-01 0.38943350E+03</pdfrwt>
<totfact> 0.23157565E+02</totfact>
</mgrwt>
</event>
<event>
 6    1  0.9263730E-006  0.1615033E+03  0.7546771E-02  0.1194346E+00
         -3   -1    0    0    0  501 -0.00000000000E+00  0.00000000000E+00  0.30534057059E+03  0.30534057059E+03  0.00000000000E+00 0.  1.
          3   -1    0    0  501    0  0.00000000000E+00 -0.00000000000E+00 -0.75024679916E+02  0.75024679916E+02  0.00000000000E+00 0. -1.
          5    1    1    2  502    0  0.33959310381E+02 -0.55876119455E+01  0.30912983962E+02  0.46499018766E+02  0.47000000000E+01 0. -1.
         -5    1    1    2    0  502 -0.10989362330E+03 -0.62915401851E+02  0.12342322797E+03  0.17689075565E+03  0.47000000000E+01 0. -1.
        -11    1    1    2    0    0 -0.57912141663E+01  0.22237414062E+02  0.56596351323E+02  0.61083448894E+02  0.00000000000E+00 0.  1.
         11    1    1    2    0    0  0.81725527090E+02  0.46265599735E+02  0.19383327415E+02  0.95892027191E+02  0.00000000000E+00 0. -1.
<mgrwt>
<rscale>  0 0.15509684E+03</rscale>
<asrwt>0</asrwt>
<pdfrwt beam="2">  1        3 0.11542259E-01 0.16150333E+03</pdfrwt>
<pdfrwt beam="1">  1       -3 0.46975472E-01 0.16150333E+03</pdfrwt>
<totfact> 0.62345116E+02</totfact>
</mgrwt>
</event>
<event>
 6    1  0.9263730E-006  0.1758080E+03  0.7546771E-02  0.1178570E+00
          1   -1    0    0  501    0  0.00000000000E+00  0.00000000000E+00  0.31692326846E+03  0.31692326846E+03  0.00000000000E+00 0. -1.
         -1   -1    0    0    0  501 -0.00000000000E+00 -0.00000000000E+00 -0.12210944446E+03  0.12210944446E+03  0.00000000000E+00 0.  1.
          5    1    1    2  502    0 -0.97490825124E+02  0.38593943121E+02  0.22656254657E+03  0.24969307347E+03  0.47000000000E+01 0. -1.
         -5    1    1    2    0  502 -0.25274590605E+02 -0.24047182220E+02 -0.22882876942E+01  0.35276028172E+02  0.47000000000E+01 0. -1.
        -11    1    1    2    0    0  0.11573954362E+03  0.16978193286E+02 -0.33073415511E+02  0.12156377675E+03  0.00000000000E+00 0. -1.
         11    1    1    2    0    0  0.70258721076E+01 -0.31524954187E+02  0.36129806338E+01  0.32499834529E+02  0.00000000000E+00 0.  1.
<mgrwt>
<rscale>  0 0.16930964E+03</rscale>
<asrwt>0</asrwt>
<pdfrwt beam="1">  1        1 0.48757426E-01 0.17580798E+03</pdfrwt>
<pdfrwt beam="2">  1       -1 0.18786068E-01 0.17580798E+03</pdfrwt>
<totfact> 0.18036311E+03</totfact>
</mgrwt>
</event>
<event>
 6    1  0.9263730E-006  0.1387248E+03  0.7546771E-02  0.1226707E+00
          2   -1    0    0  501    0  0.00000000000E+00  0.00000000000E+00  0.45168868400E+02  0.45168868400E+02  0.00000000000E+00 0. -1.
         -2   -1    0    0    0  501 -0.00000000000E+00 -0.00000000000E+00 -0.35743222362E+03  0.35743222362E+03  0.00000000000E+00 0.  1.
          5    1    1    2  502    0  0.14389083807E+02 -0.38649639310E+02  0.55398169152E+01  0.41876245331E+02  0.47000000000E+01 0. -1.
         -5    1    1    2    0  502 -0.60767582303E+02  0.34714193247E+00 -0.13391777610E+03  0.14713558483E+03  0.47000000000E+01 0. -1.
        -11    1    1    2    0    0  0.71573367576E+02  0.15791001286E+02 -0.10800296062E+03  0.13052487184E+03  0.00000000000E+00 0.  1.
         11    1    1    2    0    0 -0.25194869080E+02  0.22511496091E+02 -0.75882435417E+02  0.83064390018E+02  0.00000000000E+00 0. -1.
<mgrwt>
<rscale>  0 0.13050612E+03</rscale>
<asrwt>0</asrwt>
<pdfrwt beam="1">  1        2 0.69490564E-02 0.13872481E+03</pdfrwt>
<pdfrwt beam="2">  1       -2 0.54989575E-01 0.13872481E+03</pdfrwt>
<totfact> 0.30953486E+03</totfact>
</mgrwt>
</event>
<event>
 6    1  0.9263730E-006  0.1261336E+03  0.7546771E-02  0.1247387E+00
         -2   -1    0    0    0  501 -0.00000000000E+00  0.00000000000E+00  0.45328439890E+02  0.45328439890E+02  0.00000000000E+00 0.  1.
          2   -1    0    0  501    0  0.00000000000E+00 -0.00000000000E+00 -0.27073713947E+03  0.27073713947E+03  0.00000000000E+00 0. -1.
          5    1    1    2  502    0 -0.47037961718E+02  0.23157233272E+02 -0.10193766070E+03  0.11472664888E+03  0.47000000000E+01 0.  1.
         -5    1    1    2    0  502  0.48848349890E+02 -0.39930013418E+02 -0.38595279282E+02  0.74109735133E+02  0.47000000000E+01 0.  1.
        -11    1    1    2    0    0  0.17324186102E+02  0.18187823707E+02  0.12447072405E+02  0.28033087000E+02  0.00000000000E+00 0.  1.
         11    1    1    2    0    0 -0.19134574275E+02 -0.14150435616E+01 -0.97322832008E+02  0.99196108346E+02  0.00000000000E+00 0. -1.
<mgrwt>
<rscale>  0 0.11743645E+03</rscale>
<asrwt>0</asrwt>
<pdfrwt beam="2">  1        2 0.41651868E-01 0.12613355E+03</pdfrwt>
<pdfrwt beam="1">  1       -2 0.69736061E-02 0.12613355E+03</pdfrwt>
<totfact> 0.13391218E+04</totfact>
</mgrwt>
</event>
<event>
 6    1  0.9263730E-006  0.1436439E+03  0.7546771E-02  0.1218382E+00
         -2   -1    0    0    0  501 -0.00000000000E+00  0.00000000000E+00  0.13900256812E+03  0.13900256812E+03  0.00000000000E+00 0.  1.
          2   -1    0    0  501    0  0.00000000000E+00 -0.00000000000E+00 -0.12261004976E+03  0.12261004976E+03  0.00000000000E+00 0. -1.
          5    1    1    2  502    0 -0.29850583007E+02  0.63922396263E+02 -0.17579899719E+02  0.72857895413E+02  0.47000000000E+01 0.  1.
         -5    1    1    2    0  502 -0.40462821618E+02 -0.55827202230E+02  0.15395123619E+02  0.70802657248E+02  0.47000000000E+01 0.  1.
        -11    1    1    2    0    0 -0.10320851681E+02 -0.14334287776E+02 -0.21389860965E+02  0.27740186329E+02  0.00000000000E+00 0. -1.
         11    1    1    2    0    0  0.80634256306E+02  0.62390937440E+01  0.39967155419E+02  0.90211878891E+02  0.00000000000E+00 0.  1.
<mgrwt>
<rscale>  0 0.13631017E+03</rscale>
<asrwt>0</asrwt>
<pdfrwt beam="2">  1        2 0.18863085E-01 0.14364394E+03</pdfrwt>
<pdfrwt beam="1">  1       -2 0.21385010E-01 0.14364394E+03</pdfrwt>
<totfact> 0.53180229E+03</totfact>
</mgrwt>
</event>
<event>
 6    1  0.9263730E-006  0.1247873E+03  0.7546771E-02  0.1249927E+00
         -1   -1    0    0    0  501 -0.00000000000E+00  0.00000000000E+00  0.62998984073E+02  0.62998984073E+02  0.00000000000E+00 0.  1.
          1   -1    0    0  501    0  0.00000000000E+00 -0.00000000000E+00 -0.15212079030E+04  0.15212079030E+04  0.00000000000E+00 0. -1.
          5    1    1    2  502    0  0.63529202538E+01  0.18314810583E+02 -0.14118008204E+04  0.14119417263E+04  0.47000000000E+01 0. -1.
         -5    1    1    2    0  502  0.20249420975E+02 -0.17825007367E+02 -0.70953370374E+02  0.76054195840E+02  0.47000000000E+01 0.  1.
        -11    1    1    2    0    0 -0.32231975932E+02  0.15049620077E+02  0.52689027649E+02  0.63572989323E+02  0.00000000000E+00 0.  1.
         11    1    1    2    0    0  0.56296347024E+01 -0.15539423293E+02 -0.28143755756E+02  0.32637975599E+02  0.00000000000E+00 0. -1.
<mgrwt>
<rscale>  0 0.11595259E+03</rscale>
<asrwt>0</asrwt>
<pdfrwt beam="2">  1        1 0.23403198E+00 0.12478731E+03</pdfrwt>
<pdfrwt beam="1">  1       -1 0.96921517E-02 0.12478731E+03</pdfrwt>
<totfact> 0.45653075E+02</totfact>
</mgrwt>
</event>
<event>
 6    1  0.9263730E-006  0.2028958E+03  0.7546771E-02  0.1151402E+00
         -2   -1    0    0    0  501 -0.00000000000E+00  0.00000000000E+00  0.83751199207E+02  0.83751199207E+02  0.00000000000E+00 0.  1.
          2   -1    0    0  501    0  0.00000000000E+00 -0.00000000000E+00 -0.44870745061E+03  0.44870745061E+03  0.00000000000E+00 0. -1.
          5    1    1    2  502    0  0.12694541485E+03 -0.17168267938E+02 -0.94958065979E+02  0.15952746494E+03  0.47000000000E+01 0. -1.
         -5    1    1    2    0  502  0.52392060710E+01 -0.72666978996E+02 -0.80920535299E+02  0.10898698156E+03  0.47000000000E+01 0. -1.
        -11    1    1    2    0    0  0.61126709767E+01  0.33575379410E+02 -0.26468472351E+02  0.43188550307E+02  0.00000000000E+00 0.  1.
         11    1    1    2    0    0 -0.13829729190E+03  0.56259867525E+02 -0.16260917778E+03  0.22075565301E+03  0.00000000000E+00 0. -1.
<mgrwt>
<rscale>  0 0.19804129E+03</rscale>
<asrwt>0</asrwt>
<pdfrwt beam="2">  1        2 0.69031918E-01 0.20289585E+03</pdfrwt>
<pdfrwt beam="1">  1       -2 0.12884799E-01 0.20289585E+03</pdfrwt>
<totfact> 0.30540121E+03</totfact>
</mgrwt>
</event>
<event>
 6    1  0.9263730E-006  0.4595623E+03  0.7546771E-02  0.1024908E+00
          1   -1    0    0  501    0  0.00000000000E+00  0.00000000000E+00  0.96511930751E+02  0.96511930751E+02  0.00000000000E+00 0. -1.
         -1   -1    0    0    0  501 -0.00000000000E+00 -0.00000000000E+00 -0.54707608911E+03  0.54707608911E+03  0.00000000000E+00 0.  1.
          5    1    1    2  502    0  0.11626032274E+03  0.70692182555E+02  0.15507192516E+02  0.13702704236E+03  0.47000000000E+01 0.  1.
         -5    1    1    2    0  502  0.19329185789E+02 -0.17734367621E+02 -0.51791287354E+02  0.58245623560E+02  0.47000000000E+01 0.  1.
        -11    1    1    2    0    0 -0.43233940636E+02 -0.52249053297E+01 -0.37543482841E+02  0.57497707454E+02  0.00000000000E+00 0. -1.
         11    1    1    2    0    0 -0.92355567897E+02 -0.47732909604E+02 -0.37673658068E+03  0.39081764649E+03  0.00000000000E+00 0.  1.
<mgrwt>
<rscale>  0 0.45956227E+03</rscale>
<asrwt>0</asrwt>
<pdfrwt beam="1">  1        1 0.14847989E-01 0.45956227E+03</pdfrwt>
<pdfrwt beam="2">  1       -1 0.84165553E-01 0.45956227E+03</pdfrwt>
<totfact> 0.55383536E+02</totfact>
</mgrwt>
</event>
<event>
 6    1  0.9263730E-006  0.1428332E+03  0.7546771E-02  0.1219326E+00
          2   -1    0    0  501    0  0.00000000000E+00  0.00000000000E+00  0.12838910242E+04  0.12838910242E+04  0.00000000000E+00 0. -1.
         -2   -1    0    0    0  501 -0.00000000000E+00 -0.00000000000E+00 -0.26174986509E+02  0.26174986509E+02  0.00000000000E+00 0.  1.
          5    1    1    2  502    0 -0.69295682923E+02 -0.24210406848E+02  0.56454376637E+03  0.56931519356E+03  0.47000000000E+01 0.  1.
         -5    1    1    2    0  502  0.53924202567E+02 -0.43168154220E+02  0.55908592633E+03  0.56335643440E+03  0.47000000000E+01 0.  1.
        -11    1    1    2    0    0  0.43158186991E+02  0.54369296179E+02  0.43902831383E+02  0.82134694708E+02  0.00000000000E+00 0.  1.
         11    1    1    2    0    0 -0.27786706635E+02  0.13009264890E+02  0.90183513585E+02  0.95259688017E+02  0.00000000000E+00 0. -1.
<mgrwt>
<rscale>  0 0.13563504E+03</rscale>
<asrwt>0</asrwt>
<pdfrwt beam="1">  1        2 0.19752165E+00 0.14283323E+03</pdfrwt>
<pdfrwt beam="2">  1       -2 0.40269220E-02 0.14283323E+03</pdfrwt>
<totfact> 0.47977285E+03</totfact>
</mgrwt>
</event>
<event>
 6    1  0.9263730E-006  0.1372033E+03  0.7546771E-02  0.1227988E+00
         -3   -1    0    0    0  501 -0.00000000000E+00  0.00000000000E+00  0.29026681875E+03  0.29026681875E+03  0.00000000000E+00 0.  1.
          3   -1    0    0  501    0  0.00000000000E+00 -0.00000000000E+00 -0.62127156168E+02  0.62127156168E+02  0.00000000000E+00 0. -1.
          5    1    1    2  502    0  0.78351236951E+02 -0.38318623642E+02  0.44342173485E+02  0.97956886430E+02  0.47000000000E+01 0.  1.
         -5    1    1    2    0  502 -0.47676242442E+02 -0.91796158292E+01  0.11107191835E+02  0.50027483952E+02  0.47000000000E+01 0.  1.
        -11    1    1    2    0    0  0.16059242942E+01  0.53957494062E+02  0.38664392394E+02  0.66399739439E+02  0.00000000000E+00 0. -1.
         11    1    1    2    0    0 -0.32280918804E+02 -0.64592545912E+01  0.13402590487E+03  0.13800986510E+03  0.00000000000E+00 0.  1.
<mgrwt>
<rscale>  0 0.12964205E+03</rscale>
<asrwt>0</asrwt>
<pdfrwt beam="2">  1        3 0.95580242E-02 0.13720329E+03</pdfrwt>
<pdfrwt beam="1">  1       -3 0.44656433E-01 0.13720329E+03</pdfrwt>
<totfact> 0.92028346E+02</totfact>
</mgrwt>
</event>
<event>
 6    1  0.9263730E-006  0.1270901E+03  0.7546771E-02  0.1246637E+00
          1   -1    0    0  501    0  0.00000000000E+00  0.00000000000E+00  0.23544114434E+03  0.23544114434E+03  0.00000000000E+00 0. -1.
         -1   -1    0    0    0  501 -0.00000000000E+00 -0.00000000000E+00 -0.77136846427E+02  0.77136846427E+02  0.00000000000E+00 0.  1.
          5    1    1    2  502    0  0.46419073232E+02 -0.57003556314E+02  0.12362766147E+03  0.14390977893E+03  0.47000000000E+01 0. -1.
         -5    1    1    2    0  502 -0.34329457263E+02  0.37532140664E+02  0.52146267474E+02  0.72996550811E+02  0.47000000000E+01 0. -1.
        -11    1    1    2    0    0  0.68184109464E+01  0.29444067629E+02  0.30633093813E+02  0.43032897682E+02  0.00000000000E+00 0. -1.
         11    1    1    2    0    0 -0.18908026915E+02 -0.99726519787E+01 -0.48102724840E+02  0.52638763344E+02  0.00000000000E+00 0.  1.
<mgrwt>
<rscale>  0 0.11787958E+03</rscale>
<asrwt>0</asrwt>
<pdfrwt beam="1">  1        1 0.36221714E-01 0.12709005E+03</pdfrwt>
<pdfrwt beam="2">  1       -1 0.11867207E-01 0.12709005E+03</pdfrwt>
<totfact> 0.52904347E+03</totfact>
</mgrwt>
</event>
<event>
 6    1  0.9263730E-006  0.1591606E+03  0.7546771E-02  0.1204957E+00
         -1   -1    0    0    0  501 -0.00000000000E+00  0.00000000000E+00  0.40870523924E+02  0.40870523924E+02  0.00000000000E+00 0.  1.
          1   -1    0    0  501    0  0.00000000000E+00 -0.00000000000E+00 -0.45980480531E+03  0.45980480531E+03  0.00000000000E+00 0. -1.
          5    1    1    2  502    0  0.67809024144E+02 -0.86885757944E+02 -0.17653328628E+03  0.20816649551E+03  0.47000000000E+01 0. -1.
         -5    1    1    2    0  502 -0.38755456751E+02  0.25239144570E+02 -0.45755200298E+02  0.65227511074E+02  0.47000000000E+01 0.  1.
        -11    1    1    2    0    0  0.11353130413E+02  0.71411530757E+02 -0.12064101481E+03  0.14065118112E+03  0.00000000000E+00 0.  1.
         11    1    1    2    0    0 -0.40406697806E+02 -0.97649173832E+01 -0.76004779992E+02  0.86630141525E+02  0.00000000000E+00 0. -1.
<mgrwt>
<rscale>  0 0.14640852E+03</rscale>
<asrwt>0</asrwt>
<pdfrwt beam="2">  1        1 0.70739207E-01 0.15916065E+03</pdfrwt>
<pdfrwt beam="1">  1       -1 0.62877723E-02 0.15916065E+03</pdfrwt>
<totfact> 0.60844177E+03</totfact>
</mgrwt>
</event>
<event>
 6    1  0.9263730E-006  0.3481425E+03  0.7546771E-02  0.1064492E+00
         -2   -1    0    0    0  501 -0.00000000000E+00  0.00000000000E+00  0.15913684198E+04  0.15913684198E+04  0.00000000000E+00 0. -1.
          2   -1    0    0  501    0  0.00000000000E+00 -0.00000000000E+00 -0.73973053473E+02  0.73973053473E+02  0.00000000000E+00 0.  1.
          5    1    1    2  502    0 -0.44991153857E+01 -0.53381461500E+02  0.44987475535E+02  0.70112662381E+02  0.47000000000E+01 0.  1.
         -5    1    1    2    0  502  0.97210194239E+02 -0.25804236760E+03  0.69343887320E+03  0.74626754332E+03  0.47000000000E+01 0.  1.
        -11    1    1    2    0    0 -0.27930581657E+02  0.81664990599E+02  0.11792934157E+03  0.14613903546E+03  0.00000000000E+00 0.  1.
         11    1    1    2    0    0 -0.64780497196E+02  0.22975883850E+03  0.66103967603E+03  0.70282223212E+03  0.00000000000E+00 0. -1.
<mgrwt>
<rscale>  0 0.34546453E+03</rscale>
<asrwt>0</asrwt>
<pdfrwt beam="2">  1        2 0.11380471E-01 0.34814245E+03</pdfrwt>
<pdfrwt beam="1">  1       -2 0.24482589E+00 0.34814245E+03</pdfrwt>
<totfact> 0.41526140E+01</totfact>
</mgrwt>
</event>
<event>
 6    1  0.9263730E-006  0.1354721E+03  0.7546771E-02  0.1232044E+00
          1   -1    0    0  501    0  0.00000000000E+00  0.00000000000E+00  0.18970235434E+03  0.18970235434E+03  0.00000000000E+00 0. -1.
         -1   -1    0    0    0  501 -0.00000000000E+00 -0.00000000000E+00 -0.10623992780E+03  0.10623992780E+03  0.00000000000E+00 0.  1.
          5    1    1    2  502    0  0.23355944316E+01 -0.62044288088E+02  0.77591442936E+02  0.99486032701E+02  0.47000000000E+01 0. -1.
         -5    1    1    2    0  502 -0.52269533750E+02  0.46696194729E+02  0.46614898264E+02  0.84307043008E+02  0.47000000000E+01 0. -1.
        -11    1    1    2    0    0  0.33119379359E+02 -0.31259356473E+02 -0.42884845481E+02  0.62555180666E+02  0.00000000000E+00 0.  1.
         11    1    1    2    0    0  0.16814559960E+02  0.46607449832E+02  0.21409308223E+01  0.49594025761E+02  0.00000000000E+00 0. -1.
<mgrwt>
<rscale>  0 0.12695567E+03</rscale>
<asrwt>0</asrwt>
<pdfrwt beam="1">  1        1 0.29184977E-01 0.13547206E+03</pdfrwt>
<pdfrwt beam="2">  1       -1 0.16344604E-01 0.13547206E+03</pdfrwt>
<totfact> 0.42158383E+03</totfact>
</mgrwt>
</event>
<event>
 6    1  0.9263730E-006  0.1502543E+03  0.7546771E-02  0.1209145E+00
          2   -1    0    0  501    0  0.00000000000E+00  0.00000000000E+00  0.19219064066E+03  0.19219064066E+03  0.00000000000E+00 0. -1.
         -2   -1    0    0    0  501 -0.00000000000E+00 -0.00000000000E+00 -0.98744284616E+02  0.98744284616E+02  0.00000000000E+00 0.  1.
          5    1    1    2  502    0 -0.27235545041E+02  0.49263648986E+02 -0.52385584216E+01  0.56729309174E+02  0.47000000000E+01 0.  1.
         -5    1    1    2    0  502  0.78479675634E+02  0.16496682711E+02  0.71284321538E+02  0.10739992796E+03  0.47000000000E+01 0.  1.
        -11    1    1    2    0    0  0.48680319433E+01  0.15181470721E+02 -0.12782534549E+02  0.20434480119E+02  0.00000000000E+00 0.  1.
         11    1    1    2    0    0 -0.56112162536E+02 -0.80941802417E+02  0.40183127477E+02  0.10637120803E+03  0.00000000000E+00 0. -1.
<mgrwt>
<rscale>  0 0.14315585E+03</rscale>
<asrwt>0</asrwt>
<pdfrwt beam="1">  1        2 0.29567791E-01 0.15025433E+03</pdfrwt>
<pdfrwt beam="2">  1       -2 0.15191428E-01 0.15025433E+03</pdfrwt>
<totfact> 0.57313727E+03</totfact>
</mgrwt>
</event>
<event>
 6    1  0.9263730E-006  0.1254964E+03  0.7546771E-02  0.1249253E+00
          1   -1    0    0  501    0  0.00000000000E+00  0.00000000000E+00  0.19431475496E+03  0.19431475496E+03  0.00000000000E+00 0. -1.
         -1   -1    0    0    0  501 -0.00000000000E+00 -0.00000000000E+00 -0.67129678205E+02  0.67129678205E+02  0.00000000000E+00 0.  1.
          5    1    1    2  502    0  0.19097868384E+02  0.17592443117E+02 -0.19219356292E+02  0.32645004027E+02  0.47000000000E+01 0. -1.
         -5    1    1    2    0  502 -0.30288125334E+02 -0.18279926001E+02  0.12980946282E+03  0.13462582541E+03  0.47000000000E+01 0. -1.
        -11    1    1    2    0    0  0.34309348762E+02 -0.33331465786E+02 -0.43222228344E+01  0.48029154002E+02  0.00000000000E+00 0.  1.
         11    1    1    2    0    0 -0.23119091812E+02  0.34018948669E+02  0.20917193066E+02  0.46144449727E+02  0.00000000000E+00 0. -1.
<mgrwt>
<rscale>  0 0.11634385E+03</rscale>
<asrwt>0</asrwt>
<pdfrwt beam="1">  1        1 0.29894577E-01 0.12549645E+03</pdfrwt>
<pdfrwt beam="2">  1       -1 0.10327643E-01 0.12549645E+03</pdfrwt>
<totfact> 0.82940392E+03</totfact>
</mgrwt>
</event>
<event>
 6    1  0.9263730E-006  0.4199746E+03  0.7546771E-02  0.1037075E+00
         -1   -1    0    0    0  501 -0.00000000000E+00  0.00000000000E+00  0.27705035156E+03  0.27705035156E+03  0.00000000000E+00 0.  1.
          1   -1    0    0  501    0  0.00000000000E+00 -0.00000000000E+00 -0.15915759310E+03  0.15915759310E+03  0.00000000000E+00 0. -1.
          5    1    1    2  502    0  0.10211063066E+03  0.11730843438E+02 -0.88898687387E+02  0.13597521907E+03  0.47000000000E+01 0.  1.
         -5    1    1    2    0  502 -0.37278265810E+02  0.79287461681E+00 -0.20706031098E+02  0.42908361374E+02  0.47000000000E+01 0.  1.
        -11    1    1    2    0    0 -0.36798626874E+02  0.34437529179E+02  0.17269828879E+03  0.17990214369E+03  0.00000000000E+00 0.  1.
         11    1    1    2    0    0 -0.28033737980E+02 -0.46961247234E+02  0.54799188163E+02  0.77422220520E+02  0.00000000000E+00 0. -1.
<mgrwt>
<rscale>  0 0.41997460E+03</rscale>
<asrwt>0</asrwt>
<pdfrwt beam="2">  1        1 0.24485784E-01 0.41997460E+03</pdfrwt>
<pdfrwt beam="1">  1       -1 0.42623131E-01 0.41997460E+03</pdfrwt>
<totfact> 0.10870864E+03</totfact>
</mgrwt>
</event>
<event>
 6    1  0.9263730E-006  0.1296821E+03  0.7546771E-02  0.1244814E+00
          2   -1    0    0  501    0  0.00000000000E+00  0.00000000000E+00  0.41477604046E+03  0.41477604046E+03  0.00000000000E+00 0. -1.
         -2   -1    0    0    0  501 -0.00000000000E+00 -0.00000000000E+00 -0.33455070443E+02  0.33455070443E+02  0.00000000000E+00 0.  1.
          5    1    1    2  502    0  0.43468744618E+02 -0.16117205605E+02  0.13604882050E+03  0.14380774540E+03  0.47000000000E+01 0. -1.
         -5    1    1    2    0  502 -0.75187968949E+02  0.29954171383E+02  0.15870829967E+03  0.17821587315E+03  0.47000000000E+01 0. -1.
        -11    1    1    2    0    0  0.14776801608E+02 -0.26848628377E+02  0.97503950471E+02  0.10220676626E+03  0.00000000000E+00 0. -1.
         11    1    1    2    0    0  0.16942422723E+02  0.13011662599E+02 -0.10940100633E+02  0.24000726097E+02  0.00000000000E+00 0.  1.
<mgrwt>
<rscale>  0 0.11896546E+03</rscale>
<asrwt>0</asrwt>
<pdfrwt beam="1">  1        2 0.63811695E-01 0.12968212E+03</pdfrwt>
<pdfrwt beam="2">  1       -2 0.51469342E-02 0.12968212E+03</pdfrwt>
<totfact> 0.13523708E+04</totfact>
</mgrwt>
</event>
<event>
 6    1  0.9263730E-006  0.2057345E+03  0.7546771E-02  0.1148934E+00
         -1   -1    0    0    0  501 -0.00000000000E+00  0.00000000000E+00  0.45647829087E+02  0.45647829087E+02  0.00000000000E+00 0.  1.
          1   -1    0    0  501    0  0.00000000000E+00 -0.00000000000E+00 -0.11761139752E+04  0.11761139752E+04  0.00000000000E+00 0. -1.
          5    1    1    2  502    0  0.10214749342E+03 -0.68572670016E+02 -0.64051839766E+03  0.65224399516E+03  0.47000000000E+01 0.  1.
         -5    1    1    2    0  502  0.60218069365E+02  0.50167137511E+02 -0.26721556496E+03  0.27851248755E+03  0.47000000000E+01 0.  1.
        -11    1    1    2    0    0 -0.96655137808E+01  0.14597721496E+02  0.36757657294E+01  0.17889295213E+02  0.00000000000E+00 0.  1.
         11    1    1    2    0    0 -0.15270004900E+03  0.38078110099E+01 -0.22640794927E+03  0.27311602641E+03  0.00000000000E+00 0. -1.
<mgrwt>
<rscale>  0 0.20095751E+03</rscale>
<asrwt>0</asrwt>
<pdfrwt beam="2">  1        1 0.18094057E+00 0.20573450E+03</pdfrwt>
<pdfrwt beam="1">  1       -1 0.70227447E-02 0.20573450E+03</pdfrwt>
<totfact> 0.12543294E+03</totfact>
</mgrwt>
</event>
<event>
 6    1  0.9263730E-006  0.1300810E+03  0.7546771E-02  0.1243060E+00
         -1   -1    0    0    0  501 -0.00000000000E+00  0.00000000000E+00  0.93740333248E+02  0.93740333248E+02  0.00000000000E+00 0.  1.
          1   -1    0    0  501    0  0.00000000000E+00 -0.00000000000E+00 -0.15597767043E+03  0.15597767043E+03  0.00000000000E+00 0. -1.
          5    1    1    2  502    0  0.48903445564E+02 -0.13891162125E+02 -0.32085687950E+02  0.60300022757E+02  0.47000000000E+01 0.  1.
         -5    1    1    2    0  502 -0.63518678046E+02  0.46780333371E+02 -0.49400654712E+02  0.93196227054E+02  0.47000000000E+01 0.  1.
        -11    1    1    2    0    0  0.28408292699E+02 -0.31403139852E+02  0.48175276330E+02  0.64140825814E+02  0.00000000000E+00 0.  1.
         11    1    1    2    0    0 -0.13793060217E+02 -0.14860313939E+01 -0.28926270847E+02  0.32080928050E+02  0.00000000000E+00 0. -1.
<mgrwt>
<rscale>  0 0.12002221E+03</rscale>
<asrwt>0</asrwt>
<pdfrwt beam="2">  1        1 0.23996564E-01 0.13008103E+03</pdfrwt>
<pdfrwt beam="1">  1       -1 0.14421590E-01 0.13008103E+03</pdfrwt>
<totfact> 0.65369296E+03</totfact>
</mgrwt>
</event>
<event>
 6    1  0.9263730E-006  0.1508304E+03  0.7546771E-02  0.1207453E+00
         -2   -1    0    0    0  501 -0.00000000000E+00  0.00000000000E+00  0.20815671949E+03  0.20815671949E+03  0.00000000000E+00 0.  1.
          2   -1    0    0  501    0  0.00000000000E+00 -0.00000000000E+00 -0.10924057911E+03  0.10924057911E+03  0.00000000000E+00 0. -1.
          5    1    1    2  502    0 -0.24102151355E+02 -0.29892692491E+02  0.53145596403E+02  0.65734550895E+02  0.47000000000E+01 0.  1.
         -5    1    1    2    0  502  0.21922778654E+02 -0.54492147474E+02 -0.61731958752E+02  0.85340067328E+02  0.47000000000E+01 0.  1.
        -11    1    1    2    0    0  0.17023400820E+01 -0.20312801606E+02  0.80427871377E+01  0.21913336026E+02  0.00000000000E+00 0. -1.
         11    1    1    2    0    0  0.47703261892E+00  0.10469764157E+03  0.99459715586E+02  0.14440934435E+03  0.00000000000E+00 0.  1.
<mgrwt>
<rscale>  0 0.14445802E+03</rscale>
<asrwt>0</asrwt>
<pdfrwt beam="2">  1        2 0.16806243E-01 0.15083042E+03</pdfrwt>
<pdfrwt beam="1">  1       -2 0.32024111E-01 0.15083042E+03</pdfrwt>
<totfact> 0.29883387E+03</totfact>
</mgrwt>
</event>
<event>
 6    1  0.9263730E-006  0.1307593E+03  0.7546771E-02  0.1239606E+00
          2   -1    0    0  501    0  0.00000000000E+00  0.00000000000E+00  0.11365096495E+04  0.11365096495E+04  0.00000000000E+00 0. -1.
         -2   -1    0    0    0  501 -0.00000000000E+00 -0.00000000000E+00 -0.17678280537E+02  0.17678280537E+02  0.00000000000E+00 0.  1.
          5    1    1    2  502    0  0.27201636048E+02  0.70883105034E+02  0.41405274026E+03  0.42098230996E+03  0.47000000000E+01 0.  1.
         -5    1    1    2    0  502 -0.33253551159E+02 -0.32944006207E+02  0.52986045524E+03  0.53194482631E+03  0.47000000000E+01 0.  1.
        -11    1    1    2    0    0  0.44093102745E+02 -0.25081448695E+02  0.13676740826E+03  0.14587187783E+03  0.00000000000E+00 0. -1.
         11    1    1    2    0    0 -0.38041187635E+02 -0.12857650132E+02  0.38150765206E+02  0.55388915944E+02  0.00000000000E+00 0.  1.
<mgrwt>
<rscale>  0 0.12214093E+03</rscale>
<asrwt>0</asrwt>
<pdfrwt beam="1">  1        2 0.17484758E+00 0.13075935E+03</pdfrwt>
<pdfrwt beam="2">  1       -2 0.27197363E-02 0.13075935E+03</pdfrwt>
<totfact> 0.10288835E+04</totfact>
</mgrwt>
</event>
<event>
 6    1  0.9263730E-006  0.1490674E+03  0.7546771E-02  0.1210760E+00
         -2   -1    0    0    0  501 -0.00000000000E+00  0.00000000000E+00  0.28501445646E+02  0.28501445646E+02  0.00000000000E+00 0. -1.
          2   -1    0    0  501    0  0.00000000000E+00 -0.00000000000E+00 -0.78487323154E+03  0.78487323154E+03  0.00000000000E+00 0.  1.
          5    1    1    2  502    0 -0.34317555837E+02  0.43518148062E+02 -0.89688138473E+02  0.10553471482E+03  0.47000000000E+01 0.  1.
         -5    1    1    2    0  502 -0.45862514244E+02 -0.29405473645E+02 -0.48886992821E+03  0.49191864043E+03  0.47000000000E+01 0.  1.
        -11    1    1    2    0    0  0.27717024250E+02 -0.24655786493E+02 -0.80990288607E+01  0.37970192380E+02  0.00000000000E+00 0. -1.
         11    1    1    2    0    0  0.52463045831E+02  0.10543112075E+02 -0.16971469035E+03  0.17795112956E+03  0.00000000000E+00 0.  1.
<mgrwt>
<rscale>  0 0.14192662E+03</rscale>
<asrwt>0</asrwt>
<pdfrwt beam="2">  1        2 0.12074972E+00 0.14906735E+03</pdfrwt>
<pdfrwt beam="1">  1       -2 0.43848381E-02 0.14906735E+03</pdfrwt>
<totfact> 0.84119343E+03</totfact>
</mgrwt>
</event>
<event>
 6    1  0.9263730E-006  0.1321793E+03  0.7546771E-02  0.1239526E+00
          1   -1    0    0  501    0  0.00000000000E+00  0.00000000000E+00  0.25103518197E+02  0.25103518197E+02  0.00000000000E+00 0. -1.
         -1   -1    0    0    0  501 -0.00000000000E+00 -0.00000000000E+00 -0.55143317590E+03  0.55143317590E+03  0.00000000000E+00 0.  1.
          5    1    1    2  502    0  0.16140221014E+02 -0.41014606801E+02 -0.20782391962E+02  0.48956128534E+02  0.47000000000E+01 0. -1.
         -5    1    1    2    0  502 -0.50538495529E+02  0.15269723509E+02 -0.21410660848E+03  0.22056979345E+03  0.47000000000E+01 0. -1.
        -11    1    1    2    0    0  0.24523792808E+02 -0.21489924284E+02 -0.43206948326E+02  0.54130154655E+02  0.00000000000E+00 0. -1.
         11    1    1    2    0    0  0.98744817073E+01  0.47234807576E+02 -0.24823370893E+03  0.25288061745E+03  0.00000000000E+00 0.  1.
<mgrwt>
<rscale>  0 0.12219060E+03</rscale>
<asrwt>0</asrwt>
<pdfrwt beam="1">  1        1 0.38620796E-02 0.13217935E+03</pdfrwt>
<pdfrwt beam="2">  1       -1 0.84835876E-01 0.13217935E+03</pdfrwt>
<totfact> 0.33075855E+03</totfact>
</mgrwt>
</event>
<event>
 6    1  0.9263730E-006  0.1279229E+03  0.7546771E-02  0.1246184E+00
         -2   -1    0    0    0  501 -0.00000000000E+00  0.00000000000E+00  0.19569035785E+02  0.19569035785E+02  0.00000000000E+00 0.  1.
          2   -1    0    0  501    0  0.00000000000E+00 -0.00000000000E+00 -0.63647738771E+03  0.63647738771E+03  0.00000000000E+00 0. -1.
          5    1    1    2  502    0 -0.13238841776E+02  0.31412839714E+02 -0.31771390481E+03  0.31957197741E+03  0.47000000000E+01 0. -1.
         -5    1    1    2    0  502  0.11509328553E+02 -0.82240213226E+01  0.69830719164E+01  0.16460633762E+02  0.47000000000E+01 0. -1.
        -11    1    1    2    0    0  0.39499557462E+02 -0.33689245491E+02 -0.20594414564E+03  0.21238684382E+03  0.00000000000E+00 0.  1.
         11    1    1    2    0    0 -0.37770044239E+02  0.10500427099E+02 -0.10023337338E+03  0.10762696851E+03  0.00000000000E+00 0. -1.
<mgrwt>
<rscale>  0 0.11814818E+03</rscale>
<asrwt>0</asrwt>
<pdfrwt beam="2">  1        2 0.97919599E-01 0.12792289E+03</pdfrwt>
<pdfrwt beam="1">  1       -2 0.30106208E-02 0.12792289E+03</pdfrwt>
<totfact> 0.18655298E+04</totfact>
</mgrwt>
</event>
<event>
 6    1  0.9263730E-006  0.1668924E+03  0.7546771E-02  0.1190508E+00
          2   -1    0    0  501    0  0.00000000000E+00  0.00000000000E+00  0.16498362444E+03  0.16498362444E+03  0.00000000000E+00 0. -1.
         -2   -1    0    0    0  501 -0.00000000000E+00 -0.00000000000E+00 -0.17164094913E+03  0.17164094913E+03  0.00000000000E+00 0.  1.
          5    1    1    2  502    0 -0.41275193632E+02  0.20128074984E+02 -0.33383378695E+02  0.56967718797E+02  0.47000000000E+01 0.  1.
         -5    1    1    2    0  502 -0.38515483057E+02  0.56425153432E+02  0.10339343796E+03  0.12401424671E+03  0.47000000000E+01 0.  1.
        -11    1    1    2    0    0  0.51949533828E+02 -0.99625615715E+01 -0.37258551521E+01  0.53027244834E+02  0.00000000000E+00 0.  1.
         11    1    1    2    0    0  0.27841142860E+02 -0.66590666844E+02 -0.72941528805E+02  0.10261536323E+03  0.00000000000E+00 0. -1.
<mgrwt>
<rscale>  0 0.15840621E+03</rscale>
<asrwt>0</asrwt>
<pdfrwt beam="1">  1        2 0.25382096E-01 0.16689237E+03</pdfrwt>
<pdfrwt beam="2">  1       -2 0.26406300E-01 0.16689237E+03</pdfrwt>
<totfact> 0.26619824E+03</totfact>
</mgrwt>
</event>
<event>
 6    1  0.9263730E-006  0.1379164E+03  0.7546771E-02  0.1234903E+00
          2   -1    0    0  501    0  0.00000000000E+00  0.00000000000E+00  0.47623737241E+02  0.47623737241E+02  0.00000000000E+00 0. -1.
         -2   -1    0    0    0  501 -0.00000000000E+00 -0.00000000000E+00 -0.29602158364E+03  0.29602158364E+03  0.00000000000E+00 0.  1.
          5    1    1    2  502    0  0.88703175810E+02  0.14144857154E+02 -0.55633466214E+02  0.10576153812E+03  0.47000000000E+01 0.  1.
         -5    1    1    2    0  502 -0.40898188518E+02  0.19175106485E+02 -0.53037139917E+02  0.69823883760E+02  0.47000000000E+01 0.  1.
        -11    1    1    2    0    0 -0.44540276438E+02 -0.14701034990E+01 -0.29911523757E+02  0.53672122028E+02  0.00000000000E+00 0.  1.
         11    1    1    2    0    0 -0.32647108536E+01 -0.31849860140E+02 -0.10981571651E+03  0.11438777697E+03  0.00000000000E+00 0. -1.
<mgrwt>
<rscale>  0 0.12510631E+03</rscale>
<asrwt>0</asrwt>
<pdfrwt beam="1">  1        2 0.73267288E-02 0.13791642E+03</pdfrwt>
<pdfrwt beam="2">  1       -2 0.45541782E-01 0.13791642E+03</pdfrwt>
<totfact> 0.42012730E+03</totfact>
</mgrwt>
</event>
<event>
 6    1  0.9263730E-006  0.1264717E+03  0.7546771E-02  0.1245758E+00
         -2   -1    0    0    0  501 -0.00000000000E+00  0.00000000000E+00  0.34227664931E+02  0.34227664931E+02  0.00000000000E+00 0.  1.
          2   -1    0    0  501    0  0.00000000000E+00 -0.00000000000E+00 -0.38774004912E+03  0.38774004912E+03  0.00000000000E+00 0. -1.
          5    1    1    2  502    0  0.30129626549E+02  0.40906910638E+02 -0.41165870788E+02  0.65558284386E+02  0.47000000000E+01 0. -1.
         -5    1    1    2    0  502 -0.12248372291E+02 -0.48055255137E+02 -0.20782238446E+03  0.21370906311E+03  0.47000000000E+01 0. -1.
        -11    1    1    2    0    0 -0.24491414423E+02 -0.31198224268E+02 -0.10630524204E+02  0.41062959255E+02  0.00000000000E+00 0.  1.
         11    1    1    2    0    0  0.66101601653E+01  0.38346568767E+02 -0.93893604737E+02  0.10163740731E+03  0.00000000000E+00 0. -1.
<mgrwt>
<rscale>  0 0.11840109E+03</rscale>
<asrwt>0</asrwt>
<pdfrwt beam="2">  1        2 0.59652314E-01 0.12647174E+03</pdfrwt>
<pdfrwt beam="1">  1       -2 0.52657947E-02 0.12647174E+03</pdfrwt>
<totfact> 0.14013020E+04</totfact>
</mgrwt>
</event>
<event>
 6    1  0.9263730E-006  0.1304294E+03  0.7546771E-02  0.1245422E+00
          1   -1    0    0  501    0  0.00000000000E+00  0.00000000000E+00  0.11286478860E+04  0.11286478860E+04  0.00000000000E+00 0. -1.
         -1   -1    0    0    0  501 -0.00000000000E+00 -0.00000000000E+00 -0.13463266872E+02  0.13463266872E+02  0.00000000000E+00 0.  1.
          5    1    1    2  502    0  0.54330521182E+02 -0.20370221798E+00  0.26001083223E+03  0.26566815749E+03  0.47000000000E+01 0.  1.
         -5    1    1    2    0  502 -0.58469036546E+02  0.37230003029E+02  0.63657897947E+03  0.64035895283E+03  0.47000000000E+01 0.  1.
        -11    1    1    2    0    0 -0.45355088719E+01  0.23856538687E+02  0.36114213710E+02  0.43519440607E+02  0.00000000000E+00 0.  1.
         11    1    1    2    0    0  0.86740242358E+01 -0.60882839498E+02  0.18248059375E+03  0.19256460198E+03  0.00000000000E+00 0. -1.
<mgrwt>
<rscale>  0 0.11860176E+03</rscale>
<asrwt>0</asrwt>
<pdfrwt beam="1">  1        1 0.17363806E+00 0.13042942E+03</pdfrwt>
<pdfrwt beam="2">  1       -1 0.20712727E-02 0.13042942E+03</pdfrwt>
<totfact> 0.81143782E+03</totfact>
</mgrwt>
</event>
<event>
 6    1  0.9263730E-006  0.1255272E+03  0.7546771E-02  0.1249183E+00
          2   -1    0    0  501    0  0.00000000000E+00  0.00000000000E+00  0.45563706612E+03  0.45563706612E+03  0.00000000000E+00 0. -1.
         -2   -1    0    0    0  501 -0.00000000000E+00 -0.00000000000E+00 -0.28239275177E+02  0.28239275177E+02  0.00000000000E+00 0.  1.
          5    1    1    2  502    0  0.53268500622E+02  0.14747404454E+01  0.76991908169E+02  0.93752610318E+02  0.47000000000E+01 0. -1.
         -5    1    1    2    0  502 -0.59870210100E+02  0.79950411738E+01  0.23160107165E+03  0.23939404573E+03  0.47000000000E+01 0. -1.
        -11    1    1    2    0    0 -0.41667537971E+02  0.49811637549E+01  0.46966318927E+02  0.62982781984E+02  0.00000000000E+00 0.  1.
         11    1    1    2    0    0  0.48269247449E+02 -0.14450945374E+02  0.71838492195E+02  0.87746903264E+02  0.00000000000E+00 0. -1.
<mgrwt>
<rscale>  0 0.11638479E+03</rscale>
<asrwt>0</asrwt>
<pdfrwt beam="1">  1        2 0.70098005E-01 0.12552716E+03</pdfrwt>
<pdfrwt beam="2">  1       -2 0.43445042E-02 0.12552716E+03</pdfrwt>
<totfact> 0.15707544E+04</totfact>
</mgrwt>
</event>
<event>
 6    1  0.9263730E-006  0.1325360E+03  0.7546771E-02  0.1237222E+00
          1   -1    0    0  501    0  0.00000000000E+00  0.00000000000E+00  0.12854729643E+04  0.12854729643E+04  0.00000000000E+00 0. -1.
         -1   -1    0    0    0  501 -0.00000000000E+00 -0.00000000000E+00 -0.11541354567E+02  0.11541354567E+02  0.00000000000E+00 0.  1.
          5    1    1    2  502    0 -0.57113732182E+02  0.50209971778E+02  0.47251752987E+03  0.47862085800E+03  0.47000000000E+01 0. -1.
         -5    1    1    2    0  502  0.54961869665E+02 -0.61859965588E+01  0.43347502875E+03  0.43701460413E+03  0.47000000000E+01 0. -1.
        -11    1    1    2    0    0 -0.26067517807E+00  0.20881143488E+02  0.26109044132E+02  0.33433101717E+02  0.00000000000E+00 0.  1.
         11    1    1    2    0    0  0.24125376945E+01 -0.64905118708E+02  0.34183000702E+03  0.34794575507E+03  0.00000000000E+00 0. -1.
<mgrwt>
<rscale>  0 0.12363252E+03</rscale>
<asrwt>0</asrwt>
<pdfrwt beam="1">  1        1 0.19776496E+00 0.13253597E+03</pdfrwt>
<pdfrwt beam="2">  1       -1 0.17755940E-02 0.13253597E+03</pdfrwt>
<totfact> 0.79233612E+03</totfact>
</mgrwt>
</event>
<event>
 6    1  0.9263730E-006  0.1673603E+03  0.7546771E-02  0.1188165E+00
         -2   -1    0    0    0  501 -0.00000000000E+00  0.00000000000E+00  0.16321113402E+02  0.16321113402E+02  0.00000000000E+00 0.  1.
          2   -1    0    0  501    0  0.00000000000E+00 -0.00000000000E+00 -0.14615852897E+04  0.14615852897E+04  0.00000000000E+00 0. -1.
          5    1    1    2  502    0 -0.10500958916E+02 -0.71684520073E+02 -0.70544174064E+03  0.70916787857E+03  0.47000000000E+01 0.  1.
         -5    1    1    2    0  502 -0.46435742886E+02 -0.23932674704E+02 -0.94375010514E+02  0.10797121721E+03  0.47000000000E+01 0.  1.
        -11    1    1    2    0    0 -0.11372033006E+02 -0.70093725422E+01 -0.26670932258E+02  0.29829399351E+02  0.00000000000E+00 0.  1.
         11    1    1    2    0    0  0.68308734809E+02  0.10262656732E+03 -0.61877649285E+03  0.63093790794E+03  0.00000000000E+00 0. -1.
<mgrwt>
<rscale>  0 0.16047156E+03</rscale>
<asrwt>0</asrwt>
<pdfrwt beam="2">  1        2 0.22485929E+00 0.16736029E+03</pdfrwt>
<pdfrwt beam="1">  1       -2 0.25109404E-02 0.16736029E+03</pdfrwt>
<totfact> 0.77860872E+03</totfact>
</mgrwt>
</event>
<event>
 6    1  0.9263730E-006  0.1656327E+03  0.7546771E-02  0.1189586E+00
         -2   -1    0    0    0  501 -0.00000000000E+00  0.00000000000E+00  0.17102220526E+02  0.17102220526E+02  0.00000000000E+00 0.  1.
          2   -1    0    0  501    0  0.00000000000E+00 -0.00000000000E+00 -0.14122560295E+04  0.14122560295E+04  0.00000000000E+00 0. -1.
          5    1    1    2  502    0 -0.19264531239E+02  0.37547543815E+02 -0.21837648439E+03  0.22246644499E+03  0.47000000000E+01 0. -1.
         -5    1    1    2    0  502  0.12297223005E+03 -0.50791971584E+01 -0.64357657991E+03  0.65525634054E+03  0.47000000000E+01 0. -1.
        -11    1    1    2    0    0 -0.84579132866E+02 -0.56937076603E+01 -0.49026900964E+03  0.49754371651E+03  0.00000000000E+00 0. -1.
         11    1    1    2    0    0 -0.19128565942E+02 -0.26774638996E+02 -0.42931735052E+02  0.54091748011E+02  0.00000000000E+00 0.  1.
<mgrwt>
<rscale>  0 0.15921527E+03</rscale>
<asrwt>0</asrwt>
<pdfrwt beam="2">  1        2 0.21727016E+00 0.16563274E+03</pdfrwt>
<pdfrwt beam="1">  1       -2 0.26311108E-02 0.16563274E+03</pdfrwt>
<totfact> 0.77176198E+03</totfact>
</mgrwt>
</event>
<event>
 6    1  0.9263730E-006  0.2517693E+03  0.7546771E-02  0.1112192E+00
         -1   -1    0    0    0  501 -0.00000000000E+00  0.00000000000E+00  0.40726978520E+02  0.40726978520E+02  0.00000000000E+00 0.  1.
          1   -1    0    0  501    0  0.00000000000E+00 -0.00000000000E+00 -0.38910201861E+03  0.38910201861E+03  0.00000000000E+00 0. -1.
          5    1    1    2  502    0 -0.42328672588E+02  0.82861742286E+01 -0.88383176471E+02  0.98458382525E+02  0.47000000000E+01 0. -1.
         -5    1    1    2    0  502  0.78271309684E+02 -0.49260518718E+02 -0.15732429961E+03  0.18255416148E+03  0.47000000000E+01 0. -1.
        -11    1    1    2    0    0  0.14620204855E+01  0.42988278167E+02 -0.10271505631E+03  0.11135758778E+03  0.00000000000E+00 0.  1.
         11    1    1    2    0    0 -0.37404657582E+02 -0.20139336768E+01  0.47492301091E-01  0.37458865348E+02  0.00000000000E+00 0. -1.
<mgrwt>
<rscale>  0 0.25176934E+03</rscale>
<asrwt>0</asrwt>
<pdfrwt beam="2">  1        1 0.59861848E-01 0.25176934E+03</pdfrwt>
<pdfrwt beam="1">  1       -1 0.62656891E-02 0.25176934E+03</pdfrwt>
<totfact> 0.77700620E+03</totfact>
</mgrwt>
</event>
<event>
 6    1  0.9263730E-006  0.1274931E+03  0.7546771E-02  0.1244868E+00
          2   -1    0    0  501    0  0.00000000000E+00  0.00000000000E+00  0.34201458882E+03  0.34201458882E+03  0.00000000000E+00 0. -1.
         -2   -1    0    0    0  501 -0.00000000000E+00 -0.00000000000E+00 -0.40501546942E+02  0.40501546942E+02  0.00000000000E+00 0.  1.
          5    1    1    2  502    0  0.51290649668E+02 -0.22815687754E+02  0.74520672952E+02  0.93416845634E+02  0.47000000000E+01 0.  1.
         -5    1    1    2    0  502 -0.48072259331E+02  0.47684042814E+02  0.15325620823E+03  0.16761344044E+03  0.47000000000E+01 0.  1.
        -11    1    1    2    0    0  0.50991857848E+01  0.25572742478E+02  0.64452289585E+02  0.69527436932E+02  0.00000000000E+00 0.  1.
         11    1    1    2    0    0 -0.83175761222E+01 -0.50441097539E+02  0.92838711187E+01  0.51958412759E+02  0.00000000000E+00 0. -1.
<mgrwt>
<rscale>  0 0.11893305E+03</rscale>
<asrwt>0</asrwt>
<pdfrwt beam="1">  1        2 0.52617627E-01 0.12749315E+03</pdfrwt>
<pdfrwt beam="2">  1       -2 0.62310075E-02 0.12749315E+03</pdfrwt>
<totfact> 0.12425381E+04</totfact>
</mgrwt>
</event>
<event>
 6    1  0.9263730E-006  0.1275878E+03  0.7546771E-02  0.1245475E+00
         -1   -1    0    0    0  501 -0.00000000000E+00  0.00000000000E+00  0.24103193855E+03  0.24103193855E+03  0.00000000000E+00 0.  1.
          1   -1    0    0  501    0  0.00000000000E+00 -0.00000000000E+00 -0.53939714766E+02  0.53939714766E+02  0.00000000000E+00 0. -1.
          5    1    1    2  502    0  0.29824715120E+02 -0.64235052884E+01  0.90036056538E+02  0.95180652073E+02  0.47000000000E+01 0.  1.
         -5    1    1    2    0  502 -0.41366542188E+02  0.29195431605E+02 -0.14772746049E+02  0.52951752238E+02  0.47000000000E+01 0.  1.
        -11    1    1    2    0    0 -0.18006008040E+02 -0.18490750056E+01  0.10903374567E+03  0.11052598382E+03  0.00000000000E+00 0.  1.
         11    1    1    2    0    0  0.29547835109E+02 -0.20922851311E+02  0.27951676263E+01  0.36313265189E+02  0.00000000000E+00 0. -1.
<mgrwt>
<rscale>  0 0.11856984E+03</rscale>
<asrwt>0</asrwt>
<pdfrwt beam="2">  1        1 0.82984178E-02 0.12758779E+03</pdfrwt>
<pdfrwt beam="1">  1       -1 0.37081836E-01 0.12758779E+03</pdfrwt>
<totfact> 0.55359161E+03</totfact>
</mgrwt>
</event>
<event>
 6    1  0.9263730E-006  0.2274289E+03  0.7546771E-02  0.1217946E+00
          2   -1    0    0  501    0  0.00000000000E+00  0.00000000000E+00  0.10706465464E+04  0.10706465464E+04  0.00000000000E+00 0. -1.
         -2   -1    0    0    0  501 -0.00000000000E+00 -0.00000000000E+00 -0.18304986564E+02  0.18304986564E+02  0.00000000000E+00 0.  1.
          5    1    1    2  502    0  0.94714544305E+02  0.25275394187E+02  0.70163382554E+03  0.70846439967E+03  0.47000000000E+01 0. -1.
         -5    1    1    2    0  502 -0.10893432841E+03 -0.68152820778E+01  0.31857224071E+03  0.33678405326E+03  0.47000000000E+01 0.  1.
        -11    1    1    2    0    0  0.41150239969E+01 -0.17202159583E+02  0.12743321805E+02  0.21799999253E+02  0.00000000000E+00 0.  1.
         11    1    1    2    0    0  0.10104760108E+02 -0.12579525260E+01  0.19392171739E+02  0.21903080746E+02  0.00000000000E+00 0. -1.
<mgrwt>
<rscale>  0 0.13662365E+03</rscale>
<asrwt>0</asrwt>
<pdfrwt beam="1">  1        2 0.16471480E+00 0.22742891E+03</pdfrwt>
<pdfrwt beam="2">  1       -2 0.28161526E-02 0.22742891E+03</pdfrwt>
<totfact> 0.10959507E+04</totfact>
</mgrwt>
</event>
<event>
 6    1  0.9263730E-006  0.1424137E+03  0.7546771E-02  0.1219838E+00
          4   -1    0    0  501    0  0.00000000000E+00  0.00000000000E+00  0.10427146478E+03  0.10427146478E+03  0.00000000000E+00 0. -1.
         -4   -1    0    0    0  501 -0.00000000000E+00 -0.00000000000E+00 -0.20556587528E+03  0.20556587528E+03  0.00000000000E+00 0.  1.
          5    1    1    2  502    0 -0.67106591509E+02 -0.69220606716E+02 -0.94654195522E+01  0.96986963997E+02  0.47000000000E+01 0. -1.
         -5    1    1    2    0  502  0.71222845353E+01  0.36648720739E+02  0.27407874935E+02  0.46552521706E+02  0.47000000000E+01 0. -1.
        -11    1    1    2    0    0  0.76489099817E+02  0.12699051054E+02 -0.11701150259E+03  0.14036929873E+03  0.00000000000E+00 0.  1.
         11    1    1    2    0    0 -0.16504792844E+02  0.19872834923E+02 -0.22253632924E+01  0.25928555619E+02  0.00000000000E+00 0. -1.
<mgrwt>
<rscale>  0 0.13527070E+03</rscale>
<asrwt>0</asrwt>
<pdfrwt beam="1">  1        4 0.16041764E-01 0.14241367E+03</pdfrwt>
<pdfrwt beam="2">  1       -4 0.31625519E-01 0.14241367E+03</pdfrwt>
<totfact> 0.53864808E+02</totfact>
</mgrwt>
</event>
<event>
 6    1  0.9263730E-006  0.1597560E+03  0.7546771E-02  0.1196088E+00
          2   -1    0    0  501    0  0.00000000000E+00  0.00000000000E+00  0.12464786545E+03  0.12464786545E+03  0.00000000000E+00 0. -1.
         -2   -1    0    0    0  501 -0.00000000000E+00 -0.00000000000E+00 -0.22754845643E+03  0.22754845643E+03  0.00000000000E+00 0.  1.
          5    1    1    2  502    0  0.30632818633E+02 -0.13076903717E+02  0.74334092216E+02  0.81590576991E+02  0.47000000000E+01 0. -1.
         -5    1    1    2    0  502  0.54792537358E+02 -0.37901878129E+02 -0.45407286642E+02  0.80763148750E+02  0.47000000000E+01 0. -1.
        -11    1    1    2    0    0 -0.30594499777E+02  0.58428543946E+02 -0.26920169227E+02  0.71236322726E+02  0.00000000000E+00 0. -1.
         11    1    1    2    0    0 -0.54830856215E+02 -0.74497621002E+01 -0.10490722733E+03  0.11860627342E+03  0.00000000000E+00 0.  1.
<mgrwt>
<rscale>  0 0.15362499E+03</rscale>
<asrwt>0</asrwt>
<pdfrwt beam="1">  1        2 0.19176595E-01 0.15975598E+03</pdfrwt>
<pdfrwt beam="2">  1       -2 0.35007454E-01 0.15975598E+03</pdfrwt>
<totfact> 0.21861365E+03</totfact>
</mgrwt>
</event>
<event>
 6    1  0.9263730E-006  0.1536256E+03  0.7546771E-02  0.1204618E+00
          2   -1    0    0  501    0  0.00000000000E+00  0.00000000000E+00  0.72254670237E+03  0.72254670237E+03  0.00000000000E+00 0.  1.
         -2   -1    0    0    0  501 -0.00000000000E+00 -0.00000000000E+00 -0.33072206414E+02  0.33072206414E+02  0.00000000000E+00 0. -1.
          5    1    1    2  502    0 -0.38140690087E+02  0.13996167075E+02  0.15465830547E+03  0.15997464294E+03  0.47000000000E+01 0. -1.
         -5    1    1    2    0  502  0.10085542830E+03  0.49585896979E+02  0.37266845113E+03  0.38927425174E+03  0.47000000000E+01 0. -1.
        -11    1    1    2    0    0  0.88669905582E+01  0.99081643907E+01  0.60523918780E+02  0.61967249315E+02  0.00000000000E+00 0.  1.
         11    1    1    2    0    0 -0.71581728776E+02 -0.73490228444E+02  0.10162382058E+03  0.14440276479E+03  0.00000000000E+00 0. -1.
<mgrwt>
<rscale>  0 0.14667640E+03</rscale>
<asrwt>0</asrwt>
<pdfrwt beam="1">  1        2 0.11116102E+00 0.15362565E+03</pdfrwt>
<pdfrwt beam="2">  1       -2 0.50880323E-02 0.15362565E+03</pdfrwt>
<totfact> 0.74562666E+03</totfact>
</mgrwt>
</event>
<event>
 6    1  0.9263730E-006  0.1321350E+03  0.7546771E-02  0.1237160E+00
          2   -1    0    0  501    0  0.00000000000E+00  0.00000000000E+00  0.37354531481E+03  0.37354531481E+03  0.00000000000E+00 0. -1.
         -2   -1    0    0    0  501 -0.00000000000E+00 -0.00000000000E+00 -0.36566850005E+02  0.36566850005E+02  0.00000000000E+00 0.  1.
          5    1    1    2  502    0 -0.53817096710E+02 -0.48347374005E+02  0.19122798007E+03  0.20450911675E+03  0.47000000000E+01 0. -1.
         -5    1    1    2    0  502  0.31096132432E+02  0.12041382343E+02  0.80970961264E+01  0.34635492008E+02  0.47000000000E+01 0. -1.
        -11    1    1    2    0    0 -0.11861739696E+02  0.58862868259E+02  0.84498076082E+02  0.10366032505E+03  0.00000000000E+00 0.  1.
         11    1    1    2    0    0  0.34582703973E+02 -0.22556876597E+02  0.53155312526E+02  0.67307231006E+02  0.00000000000E+00 0. -1.
<mgrwt>
<rscale>  0 0.12367166E+03</rscale>
<asrwt>0</asrwt>
<pdfrwt beam="1">  1        2 0.57468507E-01 0.13213500E+03</pdfrwt>
<pdfrwt beam="2">  1       -2 0.56256695E-02 0.13213500E+03</pdfrwt>
<totfact> 0.13245917E+04</totfact>
</mgrwt>
</event>
<event>
 6    1  0.9263730E-006  0.1296786E+03  0.7546771E-02  0.1243392E+00
         -1   -1    0    0    0  501 -0.00000000000E+00  0.00000000000E+00  0.54458520276E+02  0.54458520276E+02  0.00000000000E+00 0.  1.
          1   -1    0    0  501    0  0.00000000000E+00 -0.00000000000E+00 -0.24975053732E+03  0.24975053732E+03  0.00000000000E+00 0. -1.
          5    1    1    2  502    0 -0.27673348104E+02  0.29332692936E+02  0.47371575093E+01  0.40874830048E+02  0.47000000000E+01 0. -1.
         -5    1    1    2    0  502 -0.62971478008E+01 -0.23210065695E+02 -0.15799962392E+03  0.15988849984E+03  0.47000000000E+01 0. -1.
        -11    1    1    2    0    0 -0.26938565715E+02  0.15376708996E+01  0.32317902690E+01  0.27175268589E+02  0.00000000000E+00 0.  1.
         11    1    1    2    0    0  0.60909061619E+02 -0.76602981410E+01 -0.45261340900E+02  0.76270459124E+02  0.00000000000E+00 0. -1.
<mgrwt>
<rscale>  0 0.11982161E+03</rscale>
<asrwt>0</asrwt>
<pdfrwt beam="2">  1        1 0.38423160E-01 0.12967857E+03</pdfrwt>
<pdfrwt beam="1">  1       -1 0.83782339E-02 0.12967857E+03</pdfrwt>
<totfact> 0.83729313E+03</totfact>
</mgrwt>
</event>
<event>
 6    1  0.9263730E-006  0.1281867E+03  0.7546771E-02  0.1244374E+00
         -2   -1    0    0    0  501 -0.00000000000E+00  0.00000000000E+00  0.10009649003E+03  0.10009649003E+03  0.00000000000E+00 0.  1.
          2   -1    0    0  501    0  0.00000000000E+00 -0.00000000000E+00 -0.17118914665E+03  0.17118914665E+03  0.00000000000E+00 0. -1.
          5    1    1    2  502    0  0.47535832287E+02 -0.18919538407E+02 -0.74252803011E+02  0.90294922558E+02  0.47000000000E+01 0. -1.
         -5    1    1    2    0  502 -0.69601620579E+02  0.10581191904E+01 -0.34612787122E+02  0.77882220281E+02  0.47000000000E+01 0. -1.
        -11    1    1    2    0    0 -0.26385889984E+02  0.24826470428E+02 -0.68507480576E+01  0.36871419462E+02  0.00000000000E+00 0. -1.
         11    1    1    2    0    0  0.48451678276E+02 -0.69650512114E+01  0.44623681562E+02  0.66237074379E+02  0.00000000000E+00 0.  1.
<mgrwt>
<rscale>  0 0.11922922E+03</rscale>
<asrwt>0</asrwt>
<pdfrwt beam="2">  1        2 0.26336792E-01 0.12818672E+03</pdfrwt>
<pdfrwt beam="1">  1       -2 0.15399460E-01 0.12818672E+03</pdfrwt>
<totfact> 0.62937103E+03</totfact>
</mgrwt>
</event>
<event>
 6    1  0.9263730E-006  0.1351883E+03  0.7546771E-02  0.1231780E+00
         -1   -1    0    0    0  501 -0.00000000000E+00  0.00000000000E+00  0.11792588410E+03  0.11792588410E+03  0.00000000000E+00 0.  1.
          1   -1    0    0  501    0  0.00000000000E+00 -0.00000000000E+00 -0.12978917302E+03  0.12978917302E+03  0.00000000000E+00 0. -1.
          5    1    1    2  502    0 -0.33675218240E+02 -0.27252047854E+02  0.18775029689E+02  0.47447720446E+02  0.47000000000E+01 0. -1.
         -5    1    1    2    0  502  0.74784230840E+02 -0.37236662120E+01 -0.53449264664E+02  0.92116560756E+02  0.47000000000E+01 0. -1.
        -11    1    1    2    0    0 -0.35826501993E+02  0.18525715616E+01  0.54206776517E+02  0.65002652921E+02  0.00000000000E+00 0.  1.
         11    1    1    2    0    0 -0.52825106068E+01  0.29123142504E+02 -0.31395830465E+02  0.43148122998E+02  0.00000000000E+00 0. -1.
<mgrwt>
<rscale>  0 0.12712806E+03</rscale>
<asrwt>0</asrwt>
<pdfrwt beam="2">  1        1 0.19967565E-01 0.13518834E+03</pdfrwt>
<pdfrwt beam="1">  1       -1 0.18142444E-01 0.13518834E+03</pdfrwt>
<totfact> 0.57586514E+03</totfact>
</mgrwt>
</event>
<event>
 6    1  0.9263730E-006  0.1701173E+03  0.7546771E-02  0.1188767E+00
         -3   -1    0    0    0  501 -0.00000000000E+00  0.00000000000E+00  0.27160576307E+03  0.27160576307E+03  0.00000000000E+00 0.  1.
          3   -1    0    0  501    0  0.00000000000E+00 -0.00000000000E+00 -0.13838606342E+03  0.13838606342E+03  0.00000000000E+00 0. -1.
          5    1    1    2  502    0 -0.11662815975E+03 -0.18324039850E+02 -0.32235706402E+02  0.12247093064E+03  0.47000000000E+01 0. -1.
         -5    1    1    2    0  502  0.36606387045E+02 -0.35823060455E+02 -0.23463591540E+02  0.56532728227E+02  0.47000000000E+01 0.  1.
        -11    1    1    2    0    0 -0.12966222992E+02 -0.12836820635E+02  0.28452099598E+02  0.33799835417E+02  0.00000000000E+00 0. -1.
         11    1    1    2    0    0  0.92987995701E+02  0.66983920940E+02  0.16046689799E+03  0.19718833221E+03  0.00000000000E+00 0.  1.
<mgrwt>
<rscale>  0 0.15993777E+03</rscale>
<asrwt>0</asrwt>
<pdfrwt beam="2">  1        3 0.21290164E-01 0.17011731E+03</pdfrwt>
<pdfrwt beam="1">  1       -3 0.41785502E-01 0.17011731E+03</pdfrwt>
<totfact> 0.27449998E+02</totfact>
</mgrwt>
</event>
<event>
 6    1  0.9263730E-006  0.1330916E+03  0.7546771E-02  0.1235984E+00
         -1   -1    0    0    0  501 -0.00000000000E+00  0.00000000000E+00  0.39566996970E+02  0.39566996970E+02  0.00000000000E+00 0.  1.
          1   -1    0    0  501    0  0.00000000000E+00 -0.00000000000E+00 -0.43237409185E+03  0.43237409185E+03  0.00000000000E+00 0. -1.
          5    1    1    2  502    0 -0.51863717842E+02 -0.54843264925E+02 -0.12073156130E+03  0.14246342979E+03  0.47000000000E+01 0.  1.
         -5    1    1    2    0  502  0.42511181904E+02  0.10115082951E+02 -0.20026086811E+03  0.20502687820E+03  0.47000000000E+01 0.  1.
        -11    1    1    2    0    0  0.46083343911E+02  0.45567194509E+02 -0.48353555989E+02  0.80858581352E+02  0.00000000000E+00 0.  1.
         11    1    1    2    0    0 -0.36730807973E+02 -0.83901253480E+00 -0.23461109489E+02  0.43592199473E+02  0.00000000000E+00 0. -1.
<mgrwt>
<rscale>  0 0.12441678E+03</rscale>
<asrwt>0</asrwt>
<pdfrwt beam="2">  1        1 0.66519094E-01 0.13309160E+03</pdfrwt>
<pdfrwt beam="1">  1       -1 0.60872300E-02 0.13309160E+03</pdfrwt>
<totfact> 0.68384350E+03</totfact>
</mgrwt>
</event>
<event>
 6    1  0.9263730E-006  0.1492762E+03  0.7546771E-02  0.1212348E+00
          2   -1    0    0  501    0  0.00000000000E+00  0.00000000000E+00  0.53679662573E+03  0.53679662573E+03  0.00000000000E+00 0. -1.
         -2   -1    0    0    0  501 -0.00000000000E+00 -0.00000000000E+00 -0.34414708207E+02  0.34414708207E+02  0.00000000000E+00 0.  1.
          5    1    1    2  502    0  0.23473420678E+02  0.10009681225E+02  0.22197392538E+03  0.22348536584E+03  0.47000000000E+01 0. -1.
         -5    1    1    2    0  502  0.29354752699E+01 -0.87216600826E+02  0.10987244206E+03  0.14039015635E+03  0.47000000000E+01 0. -1.
        -11    1    1    2    0    0 -0.54262833447E+02  0.44466303831E+02  0.75680480437E+02  0.10319516650E+03  0.00000000000E+00 0.  1.
         11    1    1    2    0    0  0.27853937499E+02  0.32740615770E+02  0.94855069645E+02  0.10414064525E+03  0.00000000000E+00 0. -1.
<mgrwt>
<rscale>  0 0.14073182E+03</rscale>
<asrwt>0</asrwt>
<pdfrwt beam="1">  1        2 0.82584090E-01 0.14927620E+03</pdfrwt>
<pdfrwt beam="2">  1       -2 0.52945709E-02 0.14927620E+03</pdfrwt>
<totfact> 0.98825620E+03</totfact>
</mgrwt>
</event>
<event>
 6    1  0.9263730E-006  0.4183295E+03  0.7546771E-02  0.1037611E+00
          2   -1    0    0  501    0  0.00000000000E+00  0.00000000000E+00  0.86164826852E+02  0.86164826852E+02  0.00000000000E+00 0. -1.
         -2   -1    0    0    0  501 -0.00000000000E+00 -0.00000000000E+00 -0.50774642246E+03  0.50774642246E+03  0.00000000000E+00 0.  1.
          5    1    1    2  502    0 -0.12769577969E+02  0.24719873716E+02 -0.94876468793E+01  0.29769778658E+02  0.47000000000E+01 0. -1.
         -5    1    1    2    0  502  0.13182629794E+03 -0.73699689227E+02 -0.34988598181E+02  0.15510031923E+03  0.47000000000E+01 0. -1.
        -11    1    1    2    0    0 -0.44155349263E+02  0.16394478829E+02 -0.27138351140E+03  0.27544052727E+03  0.00000000000E+00 0.  1.
         11    1    1    2    0    0 -0.74901370714E+02  0.32585336683E+02 -0.10572183915E+03  0.13360062415E+03  0.00000000000E+00 0. -1.
<mgrwt>
<rscale>  0 0.41832945E+03</rscale>
<asrwt>0</asrwt>
<pdfrwt beam="1">  1        2 0.13256127E-01 0.41832945E+03</pdfrwt>
<pdfrwt beam="2">  1       -2 0.78114834E-01 0.41832945E+03</pdfrwt>
<totfact> 0.68376247E+02</totfact>
</mgrwt>
</event>
<event>
 6    1  0.9263730E-006  0.1271319E+03  0.7546771E-02  0.1246098E+00
         -2   -1    0    0    0  501 -0.00000000000E+00  0.00000000000E+00  0.16010958113E+02  0.16010958113E+02  0.00000000000E+00 0.  1.
          2   -1    0    0  501    0  0.00000000000E+00 -0.00000000000E+00 -0.93777307751E+03  0.93777307751E+03  0.00000000000E+00 0. -1.
          5    1    1    2  502    0  0.36392976871E+02 -0.24002884582E+01 -0.70974081016E+03  0.71069284347E+03  0.47000000000E+01 0. -1.
         -5    1    1    2    0  502 -0.13836102761E+02 -0.27551190164E+01 -0.56512760721E+01  0.15907713276E+02  0.47000000000E+01 0. -1.
        -11    1    1    2    0    0  0.14625377676E+02 -0.36398182875E+02 -0.83933021485E+02  0.92647080280E+02  0.00000000000E+00 0. -1.
         11    1    1    2    0    0 -0.37182251786E+02  0.41553590350E+02 -0.12243701168E+03  0.13453639860E+03  0.00000000000E+00 0.  1.
<mgrwt>
<rscale>  0 0.11819915E+03</rscale>
<asrwt>0</asrwt>
<pdfrwt beam="2">  1        2 0.14427279E+00 0.12713195E+03</pdfrwt>
<pdfrwt beam="1">  1       -2 0.24632241E-02 0.12713195E+03</pdfrwt>
<totfact> 0.15528143E+04</totfact>
</mgrwt>
</event>
<event>
 6    1  0.9263730E-006  0.1387327E+03  0.7546771E-02  0.1227441E+00
         -2   -1    0    0    0  501 -0.00000000000E+00  0.00000000000E+00  0.37575070954E+02  0.37575070954E+02  0.00000000000E+00 0.  1.
          2   -1    0    0  501    0  0.00000000000E+00 -0.00000000000E+00 -0.42066985009E+03  0.42066985009E+03  0.00000000000E+00 0. -1.
          5    1    1    2  502    0 -0.60991407164E+01 -0.58103359296E+02 -0.96920212391E+02  0.11326436972E+03  0.47000000000E+01 0. -1.
         -5    1    1    2    0  502  0.64931244637E+02  0.45426619998E+02 -0.16646185114E+03  0.18442147982E+03  0.47000000000E+01 0. -1.
        -11    1    1    2    0    0  0.12987633695E+02 -0.16479577285E+02 -0.57369904011E+02  0.61086504097E+02  0.00000000000E+00 0. -1.
         11    1    1    2    0    0 -0.71819737616E+02  0.29156316584E+02 -0.62342811592E+02  0.99472567400E+02  0.00000000000E+00 0.  1.
<mgrwt>
<rscale>  0 0.13000967E+03</rscale>
<asrwt>0</asrwt>
<pdfrwt beam="2">  1        2 0.64718439E-01 0.13873267E+03</pdfrwt>
<pdfrwt beam="1">  1       -2 0.57807801E-02 0.13873267E+03</pdfrwt>
<totfact> 0.11238663E+04</totfact>
</mgrwt>
</event>
<event>
 6    1  0.9263730E-006  0.1294202E+03  0.7546771E-02  0.1242790E+00
         -1   -1    0    0    0  501 -0.00000000000E+00  0.00000000000E+00  0.15059681731E+03  0.15059681731E+03  0.00000000000E+00 0.  1.
          1   -1    0    0  501    0  0.00000000000E+00 -0.00000000000E+00 -0.85012963714E+02  0.85012963714E+02  0.00000000000E+00 0. -1.
          5    1    1    2  502    0 -0.47632955344E+02 -0.47914844385E+02 -0.79827166004E+01  0.68194900921E+02  0.47000000000E+01 0. -1.
         -5    1    1    2    0  502  0.14201108285E+02  0.50628144475E+02  0.36919806701E+02  0.64420824399E+02  0.47000000000E+01 0. -1.
        -11    1    1    2    0    0  0.70181736080E+01  0.37363998773E+02  0.39612031636E+02  0.54903881606E+02  0.00000000000E+00 0.  1.
         11    1    1    2    0    0  0.26413673451E+02 -0.40077298862E+02 -0.29652681435E+01  0.48090174095E+02  0.00000000000E+00 0. -1.
<mgrwt>
<rscale>  0 0.12018655E+03</rscale>
<asrwt>0</asrwt>
<pdfrwt beam="2">  1        1 0.13078918E-01 0.12942015E+03</pdfrwt>
<pdfrwt beam="1">  1       -1 0.23168741E-01 0.12942015E+03</pdfrwt>
<totfact> 0.66789133E+03</totfact>
</mgrwt>
</event>
<event>
 6    1  0.9263730E-006  0.1256620E+03  0.7546771E-02  0.1249200E+00
          1   -1    0    0  501    0  0.00000000000E+00  0.00000000000E+00  0.36284809324E+03  0.36284809324E+03  0.00000000000E+00 0. -1.
         -1   -1    0    0    0  501 -0.00000000000E+00 -0.00000000000E+00 -0.54689114133E+02  0.54689114133E+02  0.00000000000E+00 0.  1.
          5    1    1    2  502    0  0.23535235300E+02  0.58088132161E+02  0.12263433073E+03  0.13780205903E+03  0.47000000000E+01 0. -1.
         -5    1    1    2    0  502 -0.33741812092E+02 -0.50248982546E+02  0.17675184503E+03  0.18688706443E+03  0.47000000000E+01 0. -1.
        -11    1    1    2    0    0  0.48344113136E+02  0.11466145792E+02  0.50257174772E+01  0.49938798648E+02  0.00000000000E+00 0. -1.
         11    1    1    2    0    0 -0.38137536344E+02 -0.19305295407E+02  0.37470858646E+01  0.42909285261E+02  0.00000000000E+00 0.  1.
<mgrwt>
<rscale>  0 0.11637494E+03</rscale>
<asrwt>0</asrwt>
<pdfrwt beam="1">  1        1 0.55822782E-01 0.12566203E+03</pdfrwt>
<pdfrwt beam="2">  1       -1 0.84137101E-02 0.12566203E+03</pdfrwt>
<totfact> 0.52297528E+03</totfact>
</mgrwt>
</event>
<event>
 6    1  0.9263730E-006  0.1272857E+03  0.7546771E-02  0.1244762E+00
         -1   -1    0    0    0  501 -0.00000000000E+00  0.00000000000E+00  0.47115952643E+02  0.47115952643E+02  0.00000000000E+00 0.  1.
          1   -1    0    0  501    0  0.00000000000E+00 -0.00000000000E+00 -0.49695051405E+03  0.49695051405E+03  0.00000000000E+00 0. -1.
          5    1    1    2  502    0 -0.46793001243E+02  0.25448828826E+02 -0.15195819283E+03  0.16109193096E+03  0.47000000000E+01 0. -1.
         -5    1    1    2    0  502  0.70004766814E+02 -0.19102150586E+02 -0.27313285538E+03  0.28264678704E+03  0.47000000000E+01 0. -1.
        -11    1    1    2    0    0 -0.56815895182E+01 -0.23734561366E+02  0.30945151493E+02  0.39410814044E+02  0.00000000000E+00 0.  1.
         11    1    1    2    0    0 -0.17530176053E+02  0.17387883126E+02 -0.55688664689E+02  0.60916934647E+02  0.00000000000E+00 0. -1.
<mgrwt>
<rscale>  0 0.11899626E+03</rscale>
<asrwt>0</asrwt>
<pdfrwt beam="2">  1        1 0.76453927E-01 0.12728570E+03</pdfrwt>
<pdfrwt beam="1">  1       -1 0.72486079E-02 0.12728570E+03</pdfrwt>
<totfact> 0.43938608E+03</totfact>
</mgrwt>
</event>
<event>
 6    1  0.9263730E-006  0.1609217E+03  0.7546771E-02  0.1196919E+00
          2   -1    0    0  501    0  0.00000000000E+00  0.00000000000E+00  0.94169515820E+02  0.94169515820E+02  0.00000000000E+00 0. -1.
         -2   -1    0    0    0  501 -0.00000000000E+00 -0.00000000000E+00 -0.22735634037E+03  0.22735634037E+03  0.00000000000E+00 0.  1.
          5    1    1    2  502    0 -0.40653207518E+02 -0.11926550530E+02 -0.19932218579E+02  0.47056447236E+02  0.47000000000E+01 0. -1.
         -5    1    1    2    0  502  0.34021408066E+02  0.11308216541E+03 -0.44386638412E+02  0.12624300381E+03  0.47000000000E+01 0. -1.
        -11    1    1    2    0    0 -0.16002424293E+02 -0.10670745441E+03 -0.55044261127E+02  0.12112980266E+03  0.00000000000E+00 0. -1.
         11    1    1    2    0    0  0.22634223745E+02  0.55518395281E+01 -0.13823706437E+02  0.27096602486E+02  0.00000000000E+00 0.  1.
<mgrwt>
<rscale>  0 0.15292944E+03</rscale>
<asrwt>0</asrwt>
<pdfrwt beam="1">  1        2 0.14487618E-01 0.16092167E+03</pdfrwt>
<pdfrwt beam="2">  1       -2 0.34977898E-01 0.16092167E+03</pdfrwt>
<totfact> 0.30335393E+03</totfact>
</mgrwt>
</event>
<event>
 6    1  0.9263730E-006  0.1387730E+03  0.7546771E-02  0.1232085E+00
          2   -1    0    0  501    0  0.00000000000E+00  0.00000000000E+00  0.10515996937E+03  0.10515996937E+03  0.00000000000E+00 0. -1.
         -2   -1    0    0    0  501 -0.00000000000E+00 -0.00000000000E+00 -0.15760117369E+03  0.15760117369E+03  0.00000000000E+00 0.  1.
          5    1    1    2  502    0  0.63619138607E+02  0.18449501309E+02  0.56673007057E+02  0.87302340315E+02  0.47000000000E+01 0. -1.
         -5    1    1    2    0  502 -0.39216052783E+02 -0.74352773498E+01 -0.34825661277E+02  0.53179872400E+02  0.47000000000E+01 0.  1.
        -11    1    1    2    0    0  0.11270981770E+01 -0.46263651889E+02 -0.61400697376E+02  0.76887199681E+02  0.00000000000E+00 0.  1.
         11    1    1    2    0    0 -0.25530184001E+02  0.35249427931E+02 -0.12887852723E+02  0.45391730661E+02  0.00000000000E+00 0. -1.
<mgrwt>
<rscale>  0 0.12692932E+03</rscale>
<asrwt>0</asrwt>
<pdfrwt beam="1">  1        2 0.16178457E-01 0.13877300E+03</pdfrwt>
<pdfrwt beam="2">  1       -2 0.24246334E-01 0.13877300E+03</pdfrwt>
<totfact> 0.50989540E+03</totfact>
</mgrwt>
</event>
<event>
 6    1  0.9263730E-006  0.1625844E+03  0.7546771E-02  0.1193172E+00
         -2   -1    0    0    0  501 -0.00000000000E+00  0.00000000000E+00  0.15073224328E+02  0.15073224328E+02  0.00000000000E+00 0.  1.
          2   -1    0    0  501    0  0.00000000000E+00 -0.00000000000E+00 -0.15124500207E+04  0.15124500207E+04  0.00000000000E+00 0. -1.
          5    1    1    2  502    0  0.23717425791E+02  0.82195065874E+00 -0.33305553361E+02  0.41164812324E+02  0.47000000000E+01 0.  1.
         -5    1    1    2    0  502 -0.39879303840E+02  0.10188034959E+03 -0.84449626557E+03  0.85156678955E+03  0.47000000000E+01 0.  1.
        -11    1    1    2    0    0  0.40932980246E+02 -0.10018737098E+03 -0.55752977486E+03  0.56793702823E+03  0.00000000000E+00 0.  1.
         11    1    1    2    0    0 -0.24771102197E+02 -0.25149292602E+01 -0.62045202564E+02  0.66854614907E+02  0.00000000000E+00 0. -1.
<mgrwt>
<rscale>  0 0.15609971E+03</rscale>
<asrwt>0</asrwt>
<pdfrwt beam="2">  1        2 0.23268463E+00 0.16258438E+03</pdfrwt>
<pdfrwt beam="1">  1       -2 0.23189575E-02 0.16258438E+03</pdfrwt>
<totfact> 0.82185760E+03</totfact>
</mgrwt>
</event>
<event>
 6    1  0.9263730E-006  0.1803049E+03  0.7546771E-02  0.1173778E+00
         -1   -1    0    0    0  501 -0.00000000000E+00  0.00000000000E+00  0.68668411242E+03  0.68668411242E+03  0.00000000000E+00 0.  1.
          1   -1    0    0  501    0  0.00000000000E+00 -0.00000000000E+00 -0.49989566413E+02  0.49989566413E+02  0.00000000000E+00 0. -1.
          5    1    1    2  502    0  0.19105129551E+02  0.75741029758E+01 -0.17765659760E+02  0.27569578847E+02  0.47000000000E+01 0. -1.
         -5    1    1    2    0  502  0.11063970027E+03 -0.51042768062E+00  0.20107567303E+03  0.22955374120E+03  0.47000000000E+01 0. -1.
        -11    1    1    2    0    0 -0.62397349264E+01 -0.29808449430E+02  0.98560380243E+02  0.10315825950E+03  0.00000000000E+00 0.  1.
         11    1    1    2    0    0 -0.12350509490E+03  0.22744774134E+02  0.35482415249E+03  0.37639209929E+03  0.00000000000E+00 0. -1.
<mgrwt>
<rscale>  0 0.17396176E+03</rscale>
<asrwt>0</asrwt>
<pdfrwt beam="2">  1        1 0.76907031E-02 0.18030486E+03</pdfrwt>
<pdfrwt beam="1">  1       -1 0.10564370E+00 0.18030486E+03</pdfrwt>
<totfact> 0.81186893E+02</totfact>
</mgrwt>
</event>
<event>
 6    1  0.9263730E-006  0.2175540E+03  0.7546771E-02  0.1138654E+00
          1   -1    0    0  501    0  0.00000000000E+00  0.00000000000E+00  0.80825032619E+03  0.80825032619E+03  0.00000000000E+00 0. -1.
         -1   -1    0    0    0  501 -0.00000000000E+00 -0.00000000000E+00 -0.55566612892E+02  0.55566612892E+02  0.00000000000E+00 0.  1.
          5    1    1    2  502    0 -0.90348077856E+02  0.14836011699E+03  0.29102556195E+03  0.33895643849E+03  0.47000000000E+01 0. -1.
         -5    1    1    2    0  502  0.21087146633E+02  0.15678477621E+02  0.15518772541E+03  0.15746682994E+03  0.47000000000E+01 0. -1.
        -11    1    1    2    0    0 -0.15233672889E+02 -0.84903359662E+02  0.14487769402E+03  0.16861254845E+03  0.00000000000E+00 0.  1.
         11    1    1    2    0    0  0.84494604112E+02 -0.79135234947E+02  0.16159273192E+03  0.19878112220E+03  0.00000000000E+00 0. -1.
<mgrwt>
<rscale>  0 0.21371982E+03</rscale>
<asrwt>0</asrwt>
<pdfrwt beam="1">  1        1 0.12434620E+00 0.21755405E+03</pdfrwt>
<pdfrwt beam="2">  1       -1 0.85487102E-02 0.21755405E+03</pdfrwt>
<totfact> 0.17583840E+03</totfact>
</mgrwt>
</event>
<event>
 6    1  0.9263730E-006  0.3535478E+03  0.7546771E-02  0.1061168E+00
          2   -1    0    0  501    0  0.00000000000E+00  0.00000000000E+00  0.18734207565E+04  0.18734207565E+04  0.00000000000E+00 0. -1.
         -2   -1    0    0    0  501 -0.00000000000E+00 -0.00000000000E+00 -0.16680190054E+02  0.16680190054E+02  0.00000000000E+00 0.  1.
          5    1    1    2  502    0 -0.62347950778E+00  0.45948354402E+02  0.58884935385E+03  0.59065835432E+03  0.47000000000E+01 0.  1.
         -5    1    1    2    0  502 -0.11331813485E+03 -0.29258743442E+02  0.79545591018E+03  0.80403312667E+03  0.47000000000E+01 0.  1.
        -11    1    1    2    0    0  0.41944313992E+02 -0.52759087273E+02  0.24666958311E+03  0.25571220151E+03  0.00000000000E+00 0.  1.
         11    1    1    2    0    0  0.71997300370E+02  0.36069476313E+02  0.22576571935E+03  0.23969726410E+03  0.00000000000E+00 0. -1.
<mgrwt>
<rscale>  0 0.35354781E+03</rscale>
<asrwt>0</asrwt>
<pdfrwt beam="1">  1        2 0.28821841E+00 0.35354781E+03</pdfrwt>
<pdfrwt beam="2">  1       -2 0.25661846E-02 0.35354781E+03</pdfrwt>
<totfact> 0.46276834E+03</totfact>
</mgrwt>
</event>
<event>
 6    1  0.9263730E-006  0.2439169E+03  0.7546771E-02  0.1119725E+00
          2   -1    0    0  501    0  0.00000000000E+00  0.00000000000E+00  0.22879662720E+03  0.22879662720E+03  0.00000000000E+00 0.  1.
         -2   -1    0    0    0  501 -0.00000000000E+00 -0.00000000000E+00 -0.24499898878E+03  0.24499898878E+03  0.00000000000E+00 0. -1.
          5    1    1    2  502    0 -0.57696930224E+02  0.62449048469E+02  0.27320619435E+02  0.89427767825E+02  0.47000000000E+01 0. -1.
         -5    1    1    2    0  502 -0.14679808364E+03 -0.17184490761E+02 -0.47525018649E+02  0.15532450380E+03  0.47000000000E+01 0. -1.
        -11    1    1    2    0    0  0.11511452864E+03  0.21718327471E+02 -0.23472989996E+01  0.11716889632E+03  0.00000000000E+00 0.  1.
         11    1    1    2    0    0  0.89380485228E+02 -0.66982885179E+02  0.63493366293E+01  0.11187444803E+03  0.00000000000E+00 0. -1.
<mgrwt>
<rscale>  0 0.24010117E+03</rscale>
<asrwt>0</asrwt>
<pdfrwt beam="1">  1        2 0.35199481E-01 0.24391691E+03</pdfrwt>
<pdfrwt beam="2">  1       -2 0.37692152E-01 0.24391691E+03</pdfrwt>
<totfact> 0.98079226E+02</totfact>
</mgrwt>
</event>
<event>
 6    1  0.9263730E-006  0.1250974E+03  0.7546771E-02  0.1250329E+00
         -1   -1    0    0    0  501 -0.00000000000E+00  0.00000000000E+00  0.79008311783E+02  0.79008311783E+02  0.00000000000E+00 0.  1.
          1   -1    0    0  501    0  0.00000000000E+00 -0.00000000000E+00 -0.19102738356E+03  0.19102738356E+03  0.00000000000E+00 0. -1.
          5    1    1    2  502    0  0.45646849610E+02 -0.38332600134E+02 -0.31065482245E+02  0.67380837777E+02  0.47000000000E+01 0.  1.
         -5    1    1    2    0  502 -0.43365961950E+02  0.35068055074E+02 -0.94727114285E+02  0.11002586661E+03  0.47000000000E+01 0.  1.
        -11    1    1    2    0    0  0.14391229237E+02 -0.40755038464E+02 -0.11872908986E+01  0.43237602834E+02  0.00000000000E+00 0.  1.
         11    1    1    2    0    0 -0.16672116897E+02  0.44019583525E+02  0.14960815652E+02  0.49391388121E+02  0.00000000000E+00 0. -1.
<mgrwt>
<rscale>  0 0.11572021E+03</rscale>
<asrwt>0</asrwt>
<pdfrwt beam="2">  1        1 0.29388828E-01 0.12509741E+03</pdfrwt>
<pdfrwt beam="1">  1       -1 0.12155125E-01 0.12509741E+03</pdfrwt>
<totfact> 0.65974691E+03</totfact>
</mgrwt>
</event>
<event>
 6    1  0.1223342E-005  0.3967395E+03  0.7546771E-02  0.1045703E+00
          1   -1    0    0  501    0  0.00000000000E+00  0.00000000000E+00  0.28316073283E+04  0.28316073283E+04  0.00000000000E+00 0. -1.
         -1   -1    0    0    0  501 -0.00000000000E+00 -0.00000000000E+00 -0.61416300810E+02  0.61416300810E+02  0.00000000000E+00 0.  1.
          5    1    1    2  502    0  0.38858852730E+01 -0.63331861946E+02  0.41129178187E+03  0.41618390727E+03  0.47000000000E+01 0.  1.
         -5    1    1    2    0  502 -0.22225131759E+03 -0.24341595108E+03  0.14784303074E+04  0.15147360289E+04  0.47000000000E+01 0.  1.
        -11    1    1    2    0    0  0.12233587040E+03  0.16255549258E+03  0.58769558949E+03  0.62191354645E+03  0.00000000000E+00 0. -1.
         11    1    1    2    0    0  0.96029561913E+02  0.14419232045E+03  0.29277334876E+03  0.34019014651E+03  0.00000000000E+00 0.  1.
<mgrwt>
<rscale>  0 0.39449503E+03</rscale>
<asrwt>0</asrwt>
<pdfrwt beam="1">  1        1 0.43563180E+00 0.39673949E+03</pdfrwt>
<pdfrwt beam="2">  1       -1 0.94486639E-02 0.39673949E+03</pdfrwt>
<totfact> 0.60945300E+01</totfact>
</mgrwt>
</event>
<event>
 6    1  0.9263730E-006  0.3373540E+03  0.7546771E-02  0.1067929E+00
          1   -1    0    0  501    0  0.00000000000E+00  0.00000000000E+00  0.60702929464E+02  0.60702929464E+02  0.00000000000E+00 0. -1.
         -1   -1    0    0    0  501 -0.00000000000E+00 -0.00000000000E+00 -0.46870777880E+03  0.46870777880E+03  0.00000000000E+00 0.  1.
          5    1    1    2  502    0 -0.87041838608E+02  0.17676979604E+02 -0.80432237596E+02  0.11991743877E+03  0.47000000000E+01 0.  1.
         -5    1    1    2    0  502  0.14635661096E+02 -0.31075853771E+02  0.16818039622E+02  0.38533721856E+02  0.47000000000E+01 0.  1.
        -11    1    1    2    0    0  0.54257582956E+02  0.47370715956E+02 -0.31326651229E+03  0.32144016202E+03  0.00000000000E+00 0.  1.
         11    1    1    2    0    0  0.18148594556E+02 -0.33971841788E+02 -0.31124139071E+02  0.49519385616E+02  0.00000000000E+00 0. -1.
<mgrwt>
<rscale>  0 0.33735403E+03</rscale>
<asrwt>0</asrwt>
<pdfrwt beam="1">  1        1 0.93389122E-02 0.33735403E+03</pdfrwt>
<pdfrwt beam="2">  1       -1 0.72108889E-01 0.33735403E+03</pdfrwt>
<totfact> 0.14257824E+03</totfact>
</mgrwt>
</event>
<event>
 6    1  0.9263730E-006  0.1260830E+03  0.7546771E-02  0.1248128E+00
          2   -1    0    0  501    0  0.00000000000E+00  0.00000000000E+00  0.44774074238E+02  0.44774074238E+02  0.00000000000E+00 0.  1.
         -2   -1    0    0    0  501 -0.00000000000E+00 -0.00000000000E+00 -0.28311941165E+03  0.28311941165E+03  0.00000000000E+00 0. -1.
          5    1    1    2  502    0  0.17906327209E+01 -0.46162371157E+02 -0.94761279279E+02  0.10552706253E+03  0.47000000000E+01 0. -1.
         -5    1    1    2    0  502  0.19662797003E+02  0.51330766857E+02 -0.52739115036E+01  0.55420008613E+02  0.47000000000E+01 0. -1.
        -11    1    1    2    0    0 -0.49325970706E+02  0.20035040855E+02 -0.60852256142E+02  0.80854507145E+02  0.00000000000E+00 0.  1.
         11    1    1    2    0    0  0.27872540981E+02 -0.25203436556E+02 -0.77457890491E+02  0.86091907601E+02  0.00000000000E+00 0. -1.
<mgrwt>
<rscale>  0 0.11700113E+03</rscale>
<asrwt>0</asrwt>
<pdfrwt beam="1">  1        2 0.68883191E-02 0.12608299E+03</pdfrwt>
<pdfrwt beam="2">  1       -2 0.43556833E-01 0.12608299E+03</pdfrwt>
<totfact> 0.49191568E+03</totfact>
</mgrwt>
</event>
<event>
 6    1  0.9263730E-006  0.4749758E+03  0.7546771E-02  0.1075916E+00
          2   -1    0    0  501    0  0.00000000000E+00  0.00000000000E+00  0.57588405333E+03  0.57588405333E+03  0.00000000000E+00 0. -1.
         -2   -1    0    0    0  501 -0.00000000000E+00 -0.00000000000E+00 -0.14259932000E+03  0.14259932000E+03  0.00000000000E+00 0.  1.
          5    1    1    2  502    0  0.22380968834E+02 -0.11899470402E+03  0.45757359226E+03  0.47334588799E+03  0.47000000000E+01 0. -1.
         -5    1    1    2    0  502 -0.37113051828E+02  0.96094835609E+02 -0.82344333005E+02  0.13196315859E+03  0.47000000000E+01 0.  1.
        -11    1    1    2    0    0 -0.37929422361E+02  0.16234820433E+02  0.12186339024E+02  0.43019964364E+02  0.00000000000E+00 0.  1.
         11    1    1    2    0    0  0.52661505355E+02  0.66650479756E+01  0.45869135053E+02  0.70154362383E+02  0.00000000000E+00 0. -1.
<mgrwt>
<rscale>  0 0.31942108E+03</rscale>
<asrwt>0</asrwt>
<pdfrwt beam="1">  1        2 0.88597545E-01 0.47497584E+03</pdfrwt>
<pdfrwt beam="2">  1       -2 0.21938357E-01 0.47497584E+03</pdfrwt>
<totfact> 0.94873007E+02</totfact>
</mgrwt>
</event>
<event>
 6    1  0.9263730E-006  0.1917365E+03  0.7546771E-02  0.1173579E+00
          2   -1    0    0  501    0  0.00000000000E+00  0.00000000000E+00  0.42909662844E+03  0.42909662844E+03  0.00000000000E+00 0. -1.
         -2   -1    0    0    0  501 -0.00000000000E+00 -0.00000000000E+00 -0.61137373684E+02  0.61137373684E+02  0.00000000000E+00 0.  1.
          5    1    1    2  502    0 -0.80134759732E+01  0.31321595745E+02  0.19189624165E+03  0.19465743170E+03  0.47000000000E+01 0. -1.
         -5    1    1    2    0  502  0.10030984671E+03 -0.22502243584E+02  0.51170996799E+02  0.11493031465E+03  0.47000000000E+01 0.  1.
        -11    1    1    2    0    0 -0.49661124366E+00 -0.18434196698E+02  0.71872268866E+02  0.74200331958E+02  0.00000000000E+00 0.  1.
         11    1    1    2    0    0 -0.91799759489E+02  0.96148445369E+01  0.53019747438E+02  0.10644592381E+03  0.00000000000E+00 0. -1.
<mgrwt>
<rscale>  0 0.17415925E+03</rscale>
<asrwt>0</asrwt>
<pdfrwt beam="1">  1        2 0.66014864E-01 0.19173651E+03</pdfrwt>
<pdfrwt beam="2">  1       -2 0.94057501E-02 0.19173651E+03</pdfrwt>
<totfact> 0.52917866E+03</totfact>
</mgrwt>
</event>
<event>
 6    1  0.9263730E-006  0.1317632E+03  0.7546771E-02  0.1243150E+00
         -1   -1    0    0    0  501 -0.00000000000E+00  0.00000000000E+00  0.41468290951E+02  0.41468290951E+02  0.00000000000E+00 0.  1.
          1   -1    0    0  501    0  0.00000000000E+00 -0.00000000000E+00 -0.33534324947E+03  0.33534324947E+03  0.00000000000E+00 0. -1.
          5    1    1    2  502    0  0.27807583768E-01 -0.61514760010E+02 -0.18122154050E+03  0.19143511489E+03  0.47000000000E+01 0.  1.
         -5    1    1    2    0  502  0.36767645212E+02  0.41954788086E+02 -0.51862999553E+02  0.76314642765E+02  0.47000000000E+01 0.  1.
        -11    1    1    2    0    0 -0.11184274345E+02 -0.31687182223E+01  0.18977541729E+02  0.22254794042E+02  0.00000000000E+00 0.  1.
         11    1    1    2    0    0 -0.25611178451E+02  0.22728690147E+02 -0.79767960188E+02  0.86806988717E+02  0.00000000000E+00 0. -1.
<mgrwt>
<rscale>  0 0.11996805E+03</rscale>
<asrwt>0</asrwt>
<pdfrwt beam="2">  1        1 0.51591268E-01 0.13176316E+03</pdfrwt>
<pdfrwt beam="1">  1       -1 0.63797372E-02 0.13176316E+03</pdfrwt>
<totfact> 0.87659187E+03</totfact>
</mgrwt>
</event>
<event>
 6    1  0.9263730E-006  0.3613876E+03  0.7546771E-02  0.1058036E+00
          1   -1    0    0  501    0  0.00000000000E+00  0.00000000000E+00  0.76360227611E+03  0.76360227611E+03  0.00000000000E+00 0. -1.
         -1   -1    0    0    0  501 -0.00000000000E+00 -0.00000000000E+00 -0.42758199348E+02  0.42758199348E+02  0.00000000000E+00 0.  1.
          5    1    1    2  502    0  0.27803515101E+02  0.62435902265E+01  0.61667141143E+02  0.68095111187E+02  0.47000000000E+01 0. -1.
         -5    1    1    2    0  502 -0.12104579745E+03  0.95334860317E+01  0.55910135956E+03  0.57215329475E+03  0.47000000000E+01 0. -1.
        -11    1    1    2    0    0  0.37459097981E+02  0.39100065766E+02  0.36661620154E+02  0.65391693332E+02  0.00000000000E+00 0.  1.
         11    1    1    2    0    0  0.55783184372E+02 -0.54877142024E+02  0.63413955907E+02  0.10072037619E+03  0.00000000000E+00 0. -1.
<mgrwt>
<rscale>  0 0.36138765E+03</rscale>
<asrwt>0</asrwt>
<pdfrwt beam="1">  1        1 0.11747726E+00 0.36138765E+03</pdfrwt>
<pdfrwt beam="2">  1       -1 0.65781851E-02 0.36138765E+03</pdfrwt>
<totfact> 0.28842345E+03</totfact>
</mgrwt>
</event>
<event>
 6    1  0.9263730E-006  0.1282414E+03  0.7546771E-02  0.1244813E+00
          1   -1    0    0  501    0  0.00000000000E+00  0.00000000000E+00  0.42022000768E+03  0.42022000768E+03  0.00000000000E+00 0. -1.
         -1   -1    0    0    0  501 -0.00000000000E+00 -0.00000000000E+00 -0.33398469216E+02  0.33398469216E+02  0.00000000000E+00 0.  1.
          5    1    1    2  502    0 -0.59504084169E+02 -0.27645117538E+02  0.12105752324E+03  0.13777518822E+03  0.47000000000E+01 0.  1.
         -5    1    1    2    0  502  0.37641649399E+02  0.46143656276E+02  0.17324765221E+03  0.18325656818E+03  0.47000000000E+01 0.  1.
        -11    1    1    2    0    0  0.53299810396E+02 -0.21178951341E+02  0.80462640665E+02  0.98811205391E+02  0.00000000000E+00 0.  1.
         11    1    1    2    0    0 -0.31437375625E+02  0.26804126037E+01  0.12053722344E+02  0.33775515100E+02  0.00000000000E+00 0. -1.
<mgrwt>
<rscale>  0 0.11896569E+03</rscale>
<asrwt>0</asrwt>
<pdfrwt beam="1">  1        1 0.64649228E-01 0.12824138E+03</pdfrwt>
<pdfrwt beam="2">  1       -1 0.51382263E-02 0.12824138E+03</pdfrwt>
<totfact> 0.90950650E+03</totfact>
</mgrwt>
</event>
<event>
 6    1  0.9263730E-006  0.4726185E+03  0.7546771E-02  0.1021184E+00
         -2   -1    0    0    0  501 -0.00000000000E+00  0.00000000000E+00  0.16530465627E+03  0.16530465627E+03  0.00000000000E+00 0.  1.
          2   -1    0    0  501    0  0.00000000000E+00 -0.00000000000E+00 -0.33781296984E+03  0.33781296984E+03  0.00000000000E+00 0. -1.
          5    1    1    2  502    0 -0.10911649149E+03 -0.85708177410E+02 -0.20702025463E+03  0.24926246452E+03  0.47000000000E+01 0. -1.
         -5    1    1    2    0  502  0.33516884280E+02 -0.34168490230E+02 -0.46124031590E+02  0.66636202972E+02  0.47000000000E+01 0. -1.
        -11    1    1    2    0    0  0.37989832089E+02  0.51000595762E+02  0.87805841883E+02  0.10841657613E+03  0.00000000000E+00 0.  1.
         11    1    1    2    0    0  0.37609775125E+02  0.68876071877E+02 -0.71698692301E+01  0.78802382496E+02  0.00000000000E+00 0. -1.
<mgrwt>
<rscale>  0 0.47261848E+03</rscale>
<asrwt>0</asrwt>
<pdfrwt beam="2">  1        2 0.51971226E-01 0.47261848E+03</pdfrwt>
<pdfrwt beam="1">  1       -2 0.25431486E-01 0.47261848E+03</pdfrwt>
<totfact> 0.13332494E+03</totfact>
</mgrwt>
</event>
<event>
 6    1  0.9263730E-006  0.1573949E+03  0.7546771E-02  0.1212326E+00
         -1   -1    0    0    0  501 -0.00000000000E+00  0.00000000000E+00  0.17347881871E+03  0.17347881871E+03  0.00000000000E+00 0.  1.
          1   -1    0    0  501    0  0.00000000000E+00 -0.00000000000E+00 -0.13189495561E+04  0.13189495561E+04  0.00000000000E+00 0. -1.
          5    1    1    2  502    0 -0.22974937361E+02  0.33575947833E+02 -0.85651894970E+03  0.85749751791E+03  0.47000000000E+01 0. -1.
         -5    1    1    2    0  502  0.38206917816E+01 -0.87061681681E+02 -0.44267205300E+03  0.45119283085E+03  0.47000000000E+01 0.  1.
        -11    1    1    2    0    0  0.11477994172E+02 -0.13513300291E+02  0.21720130865E+01  0.17862566328E+02  0.00000000000E+00 0. -1.
         11    1    1    2    0    0  0.76762514078E+01  0.66999034138E+02  0.15154825219E+03  0.16587545976E+03  0.00000000000E+00 0.  1.
<mgrwt>
<rscale>  0 0.14074821E+03</rscale>
<asrwt>0</asrwt>
<pdfrwt beam="2">  1        1 0.20291532E+00 0.15739494E+03</pdfrwt>
<pdfrwt beam="1">  1       -1 0.26689048E-01 0.15739494E+03</pdfrwt>
<totfact> 0.12352040E+02</totfact>
</mgrwt>
</event>
<event>
 6    1  0.9263730E-006  0.3836281E+03  0.7546771E-02  0.1049601E+00
         -2   -1    0    0    0  501 -0.00000000000E+00  0.00000000000E+00  0.29140958130E+02  0.29140958130E+02  0.00000000000E+00 0.  1.
          2   -1    0    0  501    0  0.00000000000E+00 -0.00000000000E+00 -0.12625746569E+04  0.12625746569E+04  0.00000000000E+00 0. -1.
          5    1    1    2  502    0  0.23511621513E+01  0.20563066960E+01 -0.75710148440E+03  0.75712251587E+03  0.47000000000E+01 0.  1.
         -5    1    1    2    0  502  0.47241946854E+02 -0.69010768580E+02 -0.33750086633E+03  0.34774015083E+03  0.47000000000E+01 0.  1.
        -11    1    1    2    0    0 -0.50485309766E+02  0.59487291169E+01 -0.22705704381E+02  0.55674975453E+02  0.00000000000E+00 0.  1.
         11    1    1    2    0    0  0.89220076091E+00  0.61005732767E+02 -0.11612564363E+03  0.13117797285E+03  0.00000000000E+00 0. -1.
<mgrwt>
<rscale>  0 0.38362813E+03</rscale>
<asrwt>0</asrwt>
<pdfrwt beam="2">  1        2 0.19424223E+00 0.38362813E+03</pdfrwt>
<pdfrwt beam="1">  1       -2 0.44832248E-02 0.38362813E+03</pdfrwt>
<totfact> 0.42719092E+03</totfact>
</mgrwt>
</event>
<event>
 6    1  0.9263730E-006  0.1331530E+03  0.7546771E-02  0.1235558E+00
         -2   -1    0    0    0  501 -0.00000000000E+00  0.00000000000E+00  0.25566692745E+02  0.25566692745E+02  0.00000000000E+00 0.  1.
          2   -1    0    0  501    0  0.00000000000E+00 -0.00000000000E+00 -0.59101507817E+03  0.59101507817E+03  0.00000000000E+00 0. -1.
          5    1    1    2  502    0  0.18374743504E+02 -0.22696834853E+02 -0.32727125041E+03  0.32860514125E+03  0.47000000000E+01 0.  1.
         -5    1    1    2    0  502  0.11150832262E+02  0.57784427552E+02 -0.76990731379E+02  0.97020842328E+02  0.47000000000E+01 0.  1.
        -11    1    1    2    0    0  0.33271613713E+02 -0.14572768203E+02 -0.57477607883E+02  0.67992950077E+02  0.00000000000E+00 0.  1.
         11    1    1    2    0    0 -0.62797189480E+02 -0.20514824496E+02 -0.10370879576E+03  0.12296283726E+03  0.00000000000E+00 0. -1.
<mgrwt>
<rscale>  0 0.12468789E+03</rscale>
<asrwt>0</asrwt>
<pdfrwt beam="2">  1        2 0.90925393E-01 0.13315302E+03</pdfrwt>
<pdfrwt beam="1">  1       -2 0.39333375E-02 0.13315302E+03</pdfrwt>
<totfact> 0.13728267E+04</totfact>
</mgrwt>
</event>
<event>
 6    1  0.9263730E-006  0.2949907E+03  0.7546771E-02  0.1087772E+00
         -2   -1    0    0    0  501 -0.00000000000E+00  0.00000000000E+00  0.18434748267E+02  0.18434748267E+02  0.00000000000E+00 0. -1.
          2   -1    0    0  501    0  0.00000000000E+00 -0.00000000000E+00 -0.11801015669E+04  0.11801015669E+04  0.00000000000E+00 0.  1.
          5    1    1    2  502    0  0.51364785981E+02 -0.85286173617E+02 -0.57646233677E+03  0.58501537446E+03  0.47000000000E+01 0.  1.
         -5    1    1    2    0  502  0.21188876490E+02  0.17598886872E+02 -0.25793787521E+02  0.38027605509E+02  0.47000000000E+01 0.  1.
        -11    1    1    2    0    0 -0.22795256695E+02  0.79823475617E+02 -0.31343861821E+03  0.32424555259E+03  0.00000000000E+00 0.  1.
         11    1    1    2    0    0 -0.49758405776E+02 -0.12136188873E+02 -0.24597207610E+03  0.25124778257E+03  0.00000000000E+00 0. -1.
<mgrwt>
<rscale>  0 0.29499068E+03</rscale>
<asrwt>0</asrwt>
<pdfrwt beam="2">  1        2 0.18155413E+00 0.29499068E+03</pdfrwt>
<pdfrwt beam="1">  1       -2 0.28361144E-02 0.29499068E+03</pdfrwt>
<totfact> 0.94571631E+03</totfact>
</mgrwt>
</event>
<event>
 6    1  0.9263730E-006  0.1350180E+03  0.7546771E-02  0.1232259E+00
         -1   -1    0    0    0  501 -0.00000000000E+00  0.00000000000E+00  0.22277809494E+02  0.22277809494E+02  0.00000000000E+00 0.  1.
          1   -1    0    0  501    0  0.00000000000E+00 -0.00000000000E+00 -0.90741674407E+03  0.90741674407E+03  0.00000000000E+00 0. -1.
          5    1    1    2  502    0  0.43573049456E+02 -0.58740223751E+02 -0.67954731515E+03  0.68348786972E+03  0.47000000000E+01 0. -1.
         -5    1    1    2    0  502 -0.28164081272E+02  0.10082588017E+02 -0.50051601368E+02  0.58498947465E+02  0.47000000000E+01 0. -1.
        -11    1    1    2    0    0  0.23766562324E+01 -0.25619789381E+02 -0.60763328193E+02  0.65986393718E+02  0.00000000000E+00 0. -1.
         11    1    1    2    0    0 -0.17785624417E+02  0.74277425115E+02 -0.94776689866E+02  0.12172134266E+03  0.00000000000E+00 0.  1.
<mgrwt>
<rscale>  0 0.12681547E+03</rscale>
<asrwt>0</asrwt>
<pdfrwt beam="2">  1        1 0.13960255E+00 0.13501799E+03</pdfrwt>
<pdfrwt beam="1">  1       -1 0.34273558E-02 0.13501799E+03</pdfrwt>
<totfact> 0.56690968E+03</totfact>
</mgrwt>
</event>
<event>
 6    1  0.9263730E-006  0.3232966E+03  0.7546771E-02  0.1074142E+00
         -2   -1    0    0    0  501 -0.00000000000E+00  0.00000000000E+00  0.22059558970E+03  0.22059558970E+03  0.00000000000E+00 0.  1.
          2   -1    0    0  501    0  0.00000000000E+00 -0.00000000000E+00 -0.11845286651E+03  0.11845286651E+03  0.00000000000E+00 0. -1.
          5    1    1    2  502    0 -0.54139953703E+02  0.92949801591E+02  0.47069901261E+02  0.11750942859E+03  0.47000000000E+01 0. -1.
         -5    1    1    2    0  502 -0.57674309258E+00 -0.39474385276E+00 -0.47135731772E+02  0.47374631027E+02  0.47000000000E+01 0. -1.
        -11    1    1    2    0    0 -0.97195175696E-02 -0.23683611330E+02 -0.14686559163E+02  0.27867697432E+02  0.00000000000E+00 0. -1.
         11    1    1    2    0    0  0.54726416313E+02 -0.68871446408E+02  0.11689511286E+03  0.14629669916E+03  0.00000000000E+00 0.  1.
<mgrwt>
<rscale>  0 0.32329664E+03</rscale>
<asrwt>0</asrwt>
<pdfrwt beam="2">  1        2 0.18223518E-01 0.32329664E+03</pdfrwt>
<pdfrwt beam="1">  1       -2 0.33937783E-01 0.32329664E+03</pdfrwt>
<totfact> 0.25240907E+03</totfact>
</mgrwt>
</event>
<event>
 6    1  0.9263730E-006  0.1371199E+03  0.7546771E-02  0.1229035E+00
         -1   -1    0    0    0  501 -0.00000000000E+00  0.00000000000E+00  0.62916130993E+02  0.62916130993E+02  0.00000000000E+00 0.  1.
          1   -1    0    0  501    0  0.00000000000E+00 -0.00000000000E+00 -0.27304056083E+03  0.27304056083E+03  0.00000000000E+00 0. -1.
          5    1    1    2  502    0 -0.32959791657E+02 -0.10674782795E+02 -0.11867029343E+03  0.12371348914E+03  0.47000000000E+01 0. -1.
         -5    1    1    2    0  502  0.49214527515E+02  0.64629621220E+02 -0.58002599346E+02  0.99927219457E+02  0.47000000000E+01 0. -1.
        -11    1    1    2    0    0 -0.78915937868E+01 -0.14315389223E+02  0.31659463213E+02  0.35630453717E+02  0.00000000000E+00 0.  1.
         11    1    1    2    0    0 -0.83631420710E+01 -0.39639449203E+02 -0.65111000273E+02  0.76685529502E+02  0.00000000000E+00 0. -1.
<mgrwt>
<rscale>  0 0.12894159E+03</rscale>
<asrwt>0</asrwt>
<pdfrwt beam="2">  1        1 0.42006240E-01 0.13711986E+03</pdfrwt>
<pdfrwt beam="1">  1       -1 0.96794048E-02 0.13711986E+03</pdfrwt>
<totfact> 0.60477971E+03</totfact>
</mgrwt>
</event>
<event>
 6    1  0.9263730E-006  0.1702848E+03  0.7546771E-02  0.1184096E+00
          1   -1    0    0  501    0  0.00000000000E+00  0.00000000000E+00  0.93920866847E+03  0.93920866847E+03  0.00000000000E+00 0. -1.
         -1   -1    0    0    0  501 -0.00000000000E+00 -0.00000000000E+00 -0.30818810202E+02  0.30818810202E+02  0.00000000000E+00 0.  1.
          5    1    1    2  502    0 -0.20743169074E+02 -0.56933532924E+02  0.34659060398E+03  0.35187901756E+03  0.47000000000E+01 0.  1.
         -5    1    1    2    0  502  0.98008493931E+02 -0.29099147042E+02  0.31130560149E+03  0.32769756295E+03  0.47000000000E+01 0.  1.
        -11    1    1    2    0    0 -0.42062961315E+02  0.36538491654E+02  0.21045377910E+03  0.21770426551E+03  0.00000000000E+00 0. -1.
         11    1    1    2    0    0 -0.35202363541E+02  0.49494188313E+02  0.40039873697E+02  0.72746632646E+02  0.00000000000E+00 0.  1.
<mgrwt>
<rscale>  0 0.16414416E+03</rscale>
<asrwt>0</asrwt>
<pdfrwt beam="1">  1        1 0.14449362E+00 0.17028480E+03</pdfrwt>
<pdfrwt beam="2">  1       -1 0.47413561E-02 0.17028480E+03</pdfrwt>
<totfact> 0.33518299E+03</totfact>
</mgrwt>
</event>
<event>
 6    1  0.9263730E-006  0.1273374E+03  0.7546771E-02  0.1241257E+00
          1   -1    0    0  501    0  0.00000000000E+00  0.00000000000E+00  0.17628690694E+03  0.17628690694E+03  0.00000000000E+00 0. -1.
         -1   -1    0    0    0  501 -0.00000000000E+00 -0.00000000000E+00 -0.76118732140E+02  0.76118732140E+02  0.00000000000E+00 0.  1.
          5    1    1    2  502    0 -0.28133340466E+02 -0.11678011359E+02  0.84851090425E+02  0.90275458135E+02  0.47000000000E+01 0.  1.
         -5    1    1    2    0  502  0.30185198990E+02 -0.12511923975E+02 -0.33494447271E+02  0.47028315700E+02  0.47000000000E+01 0.  1.
        -11    1    1    2    0    0 -0.14705465096E+02 -0.22116017791E+02 -0.18543043976E+02  0.32391564126E+02  0.00000000000E+00 0.  1.
         11    1    1    2    0    0  0.12653606572E+02  0.46305953125E+02  0.67354575626E+02  0.82710301123E+02  0.00000000000E+00 0. -1.
<mgrwt>
<rscale>  0 0.12112259E+03</rscale>
<asrwt>0</asrwt>
<pdfrwt beam="1">  1        1 0.27121063E-01 0.12733743E+03</pdfrwt>
<pdfrwt beam="2">  1       -1 0.11710574E-01 0.12733743E+03</pdfrwt>
<totfact> 0.77310124E+03</totfact>
</mgrwt>
</event>
<event>
 6    1  0.9263730E-006  0.2578808E+03  0.7546771E-02  0.1108423E+00
         -2   -1    0    0    0  501 -0.00000000000E+00  0.00000000000E+00  0.17649458069E+02  0.17649458069E+02  0.00000000000E+00 0.  1.
          2   -1    0    0  501    0  0.00000000000E+00 -0.00000000000E+00 -0.94199052731E+03  0.94199052731E+03  0.00000000000E+00 0. -1.
          5    1    1    2  502    0  0.45669151769E+02 -0.95296316388E+01 -0.66522456068E+03  0.66687501936E+03  0.47000000000E+01 0.  1.
         -5    1    1    2    0  502  0.55318744338E+01 -0.11551714840E+02 -0.15046202622E+01  0.13725801712E+02  0.47000000000E+01 0.  1.
        -11    1    1    2    0    0 -0.24572778845E+02  0.50430950672E+02 -0.20859287040E+03  0.21600483288E+03  0.00000000000E+00 0.  1.
         11    1    1    2    0    0 -0.26628247358E+02 -0.29349604192E+02 -0.49019017893E+02  0.63034331430E+02  0.00000000000E+00 0. -1.
<mgrwt>
<rscale>  0 0.25788077E+03</rscale>
<asrwt>0</asrwt>
<pdfrwt beam="2">  1        2 0.14492165E+00 0.25788077E+03</pdfrwt>
<pdfrwt beam="1">  1       -2 0.27153006E-02 0.25788077E+03</pdfrwt>
<totfact> 0.13947440E+04</totfact>
</mgrwt>
</event>
<event>
 6    1  0.9263730E-006  0.1252040E+03  0.7546771E-02  0.1250546E+00
          2   -1    0    0  501    0  0.00000000000E+00  0.00000000000E+00  0.12344955847E+03  0.12344955847E+03  0.00000000000E+00 0. -1.
         -2   -1    0    0    0  501 -0.00000000000E+00 -0.00000000000E+00 -0.12791236543E+03  0.12791236543E+03  0.00000000000E+00 0.  1.
          5    1    1    2  502    0  0.18207560653E+02 -0.36464414394E+02 -0.22915564667E+02  0.46993423860E+02  0.47000000000E+01 0.  1.
         -5    1    1    2    0  502 -0.22481340454E+02  0.30743669833E+02  0.83927978197E+02  0.92285315341E+02  0.47000000000E+01 0.  1.
        -11    1    1    2    0    0  0.10951576426E+02  0.32293498183E+02 -0.75551183802E+02  0.82890219116E+02  0.00000000000E+00 0.  1.
         11    1    1    2    0    0 -0.66777966253E+01 -0.26572753623E+02  0.10075963317E+02  0.29192965585E+02  0.00000000000E+00 0. -1.
<mgrwt>
<rscale>  0 0.11559497E+03</rscale>
<asrwt>0</asrwt>
<pdfrwt beam="1">  1        2 0.18992240E-01 0.12520404E+03</pdfrwt>
<pdfrwt beam="2">  1       -2 0.19678825E-01 0.12520404E+03</pdfrwt>
<totfact> 0.60205346E+03</totfact>
</mgrwt>
</event>
<event>
 6    1  0.9263730E-006  0.1285255E+03  0.7546771E-02  0.1244535E+00
          2   -1    0    0  501    0  0.00000000000E+00  0.00000000000E+00  0.12551051122E+03  0.12551051122E+03  0.00000000000E+00 0. -1.
         -2   -1    0    0    0  501 -0.00000000000E+00 -0.00000000000E+00 -0.18424031519E+03  0.18424031519E+03  0.00000000000E+00 0.  1.
          5    1    1    2  502    0  0.58180731193E+02  0.64967520410E+01  0.13886064231E+02  0.60349963124E+02  0.47000000000E+01 0. -1.
         -5    1    1    2    0  502 -0.59978735628E+02  0.23344713274E+02  0.58807887791E+02  0.87309117690E+02  0.47000000000E+01 0. -1.
        -11    1    1    2    0    0  0.44119717920E+02 -0.38122402240E+01 -0.50846325553E+02  0.67427231199E+02  0.00000000000E+00 0. -1.
         11    1    1    2    0    0 -0.42321713485E+02 -0.26029225091E+02 -0.80577430435E+02  0.94664514400E+02  0.00000000000E+00 0.  1.
<mgrwt>
<rscale>  0 0.11913282E+03</rscale>
<asrwt>0</asrwt>
<pdfrwt beam="1">  1        2 0.19309309E-01 0.12852546E+03</pdfrwt>
<pdfrwt beam="2">  1       -2 0.28344664E-01 0.12852546E+03</pdfrwt>
<totfact> 0.31480316E+03</totfact>
</mgrwt>
</event>
<event>
 6    1  0.9263730E-006  0.3476449E+03  0.7546771E-02  0.1063586E+00
          3   -1    0    0  501    0  0.00000000000E+00  0.00000000000E+00  0.22563788189E+03  0.22563788189E+03  0.00000000000E+00 0. -1.
         -3   -1    0    0    0  501 -0.00000000000E+00 -0.00000000000E+00 -0.13390589752E+03  0.13390589752E+03  0.00000000000E+00 0.  1.
          5    1    1    2  502    0  0.23145328097E-01 -0.76961835592E+01  0.83034344421E+02  0.83522596526E+02  0.47000000000E+01 0.  1.
         -5    1    1    2    0  502 -0.84444302238E+02 -0.83044056097E+02  0.19309897424E+02  0.12009212119E+03  0.47000000000E+01 0.  1.
        -11    1    1    2    0    0  0.39789288265E+02  0.79899990719E+02 -0.43641272324E+02  0.99356714054E+02  0.00000000000E+00 0.  1.
         11    1    1    2    0    0  0.44631868645E+02  0.10840248937E+02  0.33029014846E+02  0.56572347639E+02  0.00000000000E+00 0. -1.
<mgrwt>
<rscale>  0 0.34764489E+03</rscale>
<asrwt>0</asrwt>
<pdfrwt beam="1">  1        3 0.34713520E-01 0.34764489E+03</pdfrwt>
<pdfrwt beam="2">  1       -3 0.20600907E-01 0.34764489E+03</pdfrwt>
<totfact> 0.44980350E+02</totfact>
</mgrwt>
</event>
<event>
 6    1  0.9263730E-006  0.2420005E+03  0.7546771E-02  0.1120950E+00
          3   -1    0    0  501    0  0.00000000000E+00  0.00000000000E+00  0.21162326205E+04  0.21162326205E+04  0.00000000000E+00 0. -1.
         -3   -1    0    0    0  501 -0.00000000000E+00 -0.00000000000E+00 -0.26105176725E+02  0.26105176725E+02  0.00000000000E+00 0.  1.
          5    1    1    2  502    0  0.19802016677E+03 -0.78410821205E+02  0.90096206316E+03  0.92580504026E+03  0.47000000000E+01 0. -1.
         -5    1    1    2    0  502 -0.56709981255E-02  0.17347364465E+02  0.23301038231E+03  0.23370250181E+03  0.47000000000E+01 0. -1.
        -11    1    1    2    0    0 -0.66363186552E+02 -0.56620681355E+01  0.16340772635E+03  0.17646024078E+03  0.00000000000E+00 0.  1.
         11    1    1    2    0    0 -0.13165130922E+03  0.66725524876E+02  0.79274727191E+03  0.80637001433E+03  0.00000000000E+00 0. -1.
<mgrwt>
<rscale>  0 0.23827175E+03</rscale>
<asrwt>0</asrwt>
<pdfrwt beam="1">  1        3 0.32557411E+00 0.24200048E+03</pdfrwt>
<pdfrwt beam="2">  1       -3 0.40161827E-02 0.24200048E+03</pdfrwt>
<totfact> 0.26342722E+01</totfact>
</mgrwt>
</event>
<event>
 6    1  0.9263730E-006  0.1348743E+03  0.7546771E-02  0.1231252E+00
         -1   -1    0    0    0  501 -0.00000000000E+00  0.00000000000E+00  0.28775894950E+02  0.28775894950E+02  0.00000000000E+00 0.  1.
          1   -1    0    0  501    0  0.00000000000E+00 -0.00000000000E+00 -0.59036800862E+03  0.59036800862E+03  0.00000000000E+00 0. -1.
          5    1    1    2  502    0 -0.47598176828E+02 -0.39725500648E+02 -0.17727444716E+03  0.18786170833E+03  0.47000000000E+01 0. -1.
         -5    1    1    2    0  502  0.82984901018E+01  0.71638612785E+02 -0.24379621650E+03  0.25428260059E+03  0.47000000000E+01 0. -1.
        -11    1    1    2    0    0  0.62274802528E+02 -0.20527420981E+02 -0.48733882771E+02  0.81697719503E+02  0.00000000000E+00 0. -1.
         11    1    1    2    0    0 -0.22975115802E+02 -0.11385691156E+02 -0.91787567232E+02  0.95301875153E+02  0.00000000000E+00 0.  1.
<mgrwt>
<rscale>  0 0.12747430E+03</rscale>
<asrwt>0</asrwt>
<pdfrwt beam="2">  1        1 0.90825842E-01 0.13487433E+03</pdfrwt>
<pdfrwt beam="1">  1       -1 0.44270610E-02 0.13487433E+03</pdfrwt>
<totfact> 0.72965975E+03</totfact>
</mgrwt>
</event>
<event>
 6    1  0.9263730E-006  0.2203186E+03  0.7546771E-02  0.1136751E+00
          2   -1    0    0  501    0  0.00000000000E+00  0.00000000000E+00  0.21075159707E+04  0.21075159707E+04  0.00000000000E+00 0. -1.
         -2   -1    0    0    0  501 -0.00000000000E+00 -0.00000000000E+00 -0.55030099789E+02  0.55030099789E+02  0.00000000000E+00 0.  1.
          5    1    1    2  502    0 -0.11952371230E+03  0.72196558822E+02  0.17671991756E+04  0.17727135350E+04  0.47000000000E+01 0.  1.
         -5    1    1    2    0  502 -0.32523126363E+02  0.26782154412E+02  0.11931736302E+03  0.12662448681E+03  0.47000000000E+01 0.  1.
        -11    1    1    2    0    0  0.14497615879E+03 -0.11221826217E+03  0.13151468825E+03  0.22562610267E+03  0.00000000000E+00 0.  1.
         11    1    1    2    0    0  0.70706798746E+01  0.13239548932E+02  0.34454644007E+02  0.37581945977E+02  0.00000000000E+00 0. -1.
<mgrwt>
<rscale>  0 0.21619609E+03</rscale>
<asrwt>0</asrwt>
<pdfrwt beam="1">  1        2 0.32423317E+00 0.22031857E+03</pdfrwt>
<pdfrwt beam="2">  1       -2 0.84661708E-02 0.22031857E+03</pdfrwt>
<totfact> 0.56993873E+02</totfact>
</mgrwt>
</event>
<event>
 6    1  0.9263730E-006  0.3133155E+03  0.7546771E-02  0.1078767E+00
          2   -1    0    0  501    0  0.00000000000E+00  0.00000000000E+00  0.68963761966E+03  0.68963761966E+03  0.00000000000E+00 0. -1.
         -2   -1    0    0    0  501 -0.00000000000E+00 -0.00000000000E+00 -0.35586305838E+02  0.35586305838E+02  0.00000000000E+00 0.  1.
          5    1    1    2  502    0 -0.11215940010E+02  0.20703586458E+02  0.19151316452E+02  0.30713168582E+02  0.47000000000E+01 0.  1.
         -5    1    1    2    0  502  0.11032610785E+03 -0.65150027359E+02  0.39636433298E+03  0.41658510607E+03  0.47000000000E+01 0.  1.
        -11    1    1    2    0    0 -0.45280226551E+02  0.18828382174E+02  0.22754515662E+02  0.54060844193E+02  0.00000000000E+00 0. -1.
         11    1    1    2    0    0 -0.53829941292E+02  0.25618058727E+02  0.21578114873E+03  0.22386480665E+03  0.00000000000E+00 0.  1.
<mgrwt>
<rscale>  0 0.31331553E+03</rscale>
<asrwt>0</asrwt>
<pdfrwt beam="1">  1        2 0.10609809E+00 0.31331553E+03</pdfrwt>
<pdfrwt beam="2">  1       -2 0.54748168E-02 0.31331553E+03</pdfrwt>
<totfact> 0.72883788E+03</totfact>
</mgrwt>
</event>
<event>
 6    1  0.9263730E-006  0.1327791E+03  0.7546771E-02  0.1236254E+00
         -1   -1    0    0    0  501 -0.00000000000E+00  0.00000000000E+00  0.73761543583E+02  0.73761543583E+02  0.00000000000E+00 0.  1.
          1   -1    0    0  501    0  0.00000000000E+00 -0.00000000000E+00 -0.18991413269E+03  0.18991413269E+03  0.00000000000E+00 0. -1.
          5    1    1    2  502    0 -0.15464945881E+02 -0.52846161494E+02  0.14158870199E+02  0.57047742646E+02  0.47000000000E+01 0. -1.
         -5    1    1    2    0  502 -0.11713287043E+02  0.17211267996E+02 -0.97300420005E+02  0.99613706751E+02  0.47000000000E+01 0. -1.
        -11    1    1    2    0    0  0.13691199697E+02  0.45862517044E+02 -0.59016555994E+02  0.75985349246E+02  0.00000000000E+00 0. -1.
         11    1    1    2    0    0  0.13487033228E+02 -0.10227623546E+02  0.26005516692E+02  0.31028877632E+02  0.00000000000E+00 0.  1.
<mgrwt>
<rscale>  0 0.12424514E+03</rscale>
<asrwt>0</asrwt>
<pdfrwt beam="2">  1        1 0.29217559E-01 0.13277911E+03</pdfrwt>
<pdfrwt beam="1">  1       -1 0.11347930E-01 0.13277911E+03</pdfrwt>
<totfact> 0.74183743E+03</totfact>
</mgrwt>
</event>
<event>
 6    1  0.9263730E-006  0.3603464E+03  0.7546771E-02  0.1058447E+00
          1   -1    0    0  501    0  0.00000000000E+00  0.00000000000E+00  0.52845142079E+03  0.52845142079E+03  0.00000000000E+00 0. -1.
         -1   -1    0    0    0  501 -0.00000000000E+00 -0.00000000000E+00 -0.61429259241E+02  0.61429259241E+02  0.00000000000E+00 0.  1.
          5    1    1    2  502    0 -0.14622267635E+02 -0.42421312400E+01  0.92315595086E+02  0.93680656938E+02  0.47000000000E+01 0. -1.
         -5    1    1    2    0  502  0.13450775341E+03  0.80024440422E+02  0.19206953165E+03  0.24780847802E+03  0.47000000000E+01 0. -1.
        -11    1    1    2    0    0 -0.51202955075E+02  0.10345080623E+02  0.91748301378E+02  0.10557705294E+03  0.00000000000E+00 0.  1.
         11    1    1    2    0    0 -0.68682530698E+02 -0.86127389805E+02  0.90888733442E+02  0.14281449214E+03  0.00000000000E+00 0. -1.
<mgrwt>
<rscale>  0 0.36034639E+03</rscale>
<asrwt>0</asrwt>
<pdfrwt beam="1">  1        1 0.81300216E-01 0.36034639E+03</pdfrwt>
<pdfrwt beam="2">  1       -1 0.94506556E-02 0.36034639E+03</pdfrwt>
<totfact> 0.27982097E+03</totfact>
</mgrwt>
</event>
<event>
 6    1  0.9263730E-006  0.1354299E+03  0.7546771E-02  0.1232063E+00
          1   -1    0    0  501    0  0.00000000000E+00  0.00000000000E+00  0.70965070690E+03  0.70965070690E+03  0.00000000000E+00 0. -1.
         -1   -1    0    0    0  501 -0.00000000000E+00 -0.00000000000E+00 -0.22340296998E+02  0.22340296998E+02  0.00000000000E+00 0.  1.
          5    1    1    2  502    0  0.77093461777E+02 -0.19547030156E+02  0.22534864951E+03  0.23901797437E+03  0.47000000000E+01 0. -1.
         -5    1    1    2    0  502 -0.44683045433E+02 -0.21259718757E+02  0.26859144618E+03  0.27315198178E+03  0.47000000000E+01 0. -1.
        -11    1    1    2    0    0 -0.26230681369E+02  0.60468411297E+02  0.18695793429E+03  0.19823659250E+03  0.00000000000E+00 0. -1.
         11    1    1    2    0    0 -0.61797349756E+01 -0.19661662385E+02  0.64123799212E+01  0.21584455248E+02  0.00000000000E+00 0.  1.
<mgrwt>
<rscale>  0 0.12694320E+03</rscale>
<asrwt>0</asrwt>
<pdfrwt beam="1">  1        1 0.10917701E+00 0.13542986E+03</pdfrwt>
<pdfrwt beam="2">  1       -1 0.34369693E-02 0.13542986E+03</pdfrwt>
<totfact> 0.81876130E+03</totfact>
</mgrwt>
</event>
<event>
 6    1  0.9263730E-006  0.3507347E+03  0.7546771E-02  0.1062314E+00
         -1   -1    0    0    0  501 -0.00000000000E+00  0.00000000000E+00  0.26864492589E+02  0.26864492589E+02  0.00000000000E+00 0.  1.
          1   -1    0    0  501    0  0.00000000000E+00 -0.00000000000E+00 -0.11447716530E+04  0.11447716530E+04  0.00000000000E+00 0. -1.
          5    1    1    2  502    0 -0.70800663306E+02 -0.83390144906E+02 -0.82947615982E+03  0.83667164402E+03  0.47000000000E+01 0. -1.
         -5    1    1    2    0  502  0.34006341848E+02 -0.25969062657E+01 -0.98424753199E+02  0.10427222665E+03  0.47000000000E+01 0. -1.
        -11    1    1    2    0    0  0.50973627212E+02  0.34213303459E+02 -0.45140208112E+02  0.76200388405E+02  0.00000000000E+00 0.  1.
         11    1    1    2    0    0 -0.14179305753E+02  0.51773747713E+02 -0.14486603930E+03  0.15449188653E+03  0.00000000000E+00 0. -1.
<mgrwt>
<rscale>  0 0.35073471E+03</rscale>
<asrwt>0</asrwt>
<pdfrwt beam="2">  1        1 0.17611873E+00 0.35073471E+03</pdfrwt>
<pdfrwt beam="1">  1       -1 0.41329985E-02 0.35073471E+03</pdfrwt>
<totfact> 0.29404563E+03</totfact>
</mgrwt>
</event>
<event>
 6    1  0.9263730E-006  0.1363586E+03  0.7546771E-02  0.1229156E+00
         -1   -1    0    0    0  501 -0.00000000000E+00  0.00000000000E+00  0.40661580930E+03  0.40661580930E+03  0.00000000000E+00 0.  1.
          1   -1    0    0  501    0  0.00000000000E+00 -0.00000000000E+00 -0.37124257024E+02  0.37124257024E+02  0.00000000000E+00 0. -1.
          5    1    1    2  502    0 -0.91461256579E+02 -0.37700189690E+02  0.14875866925E+03  0.17871121240E+03  0.47000000000E+01 0. -1.
         -5    1    1    2    0  502  0.35147798935E+02  0.90932751859E+01  0.41082199010E+02  0.55026289163E+02  0.47000000000E+01 0.  1.
        -11    1    1    2    0    0  0.46190290649E+02  0.12349904811E+02  0.18421183333E+03  0.19031569205E+03  0.00000000000E+00 0.  1.
         11    1    1    2    0    0  0.10123166996E+02  0.16257009693E+02 -0.45611493240E+01  0.19686872716E+02  0.00000000000E+00 0. -1.
<mgrwt>
<rscale>  0 0.12886051E+03</rscale>
<asrwt>0</asrwt>
<pdfrwt beam="2">  1        1 0.57114244E-02 0.13635859E+03</pdfrwt>
<pdfrwt beam="1">  1       -1 0.62556275E-01 0.13635859E+03</pdfrwt>
<totfact> 0.35622838E+03</totfact>
</mgrwt>
</event>
<event>
 6    1  0.9263730E-006  0.2908330E+03  0.7546771E-02  0.1089915E+00
         -2   -1    0    0    0  501 -0.00000000000E+00  0.00000000000E+00  0.17991400505E+02  0.17991400505E+02  0.00000000000E+00 0.  1.
          2   -1    0    0  501    0  0.00000000000E+00 -0.00000000000E+00 -0.11753365844E+04  0.11753365844E+04  0.00000000000E+00 0. -1.
          5    1    1    2  502    0 -0.77632702775E+02  0.35313804639E+02 -0.73297543789E+03  0.73793562314E+03  0.47000000000E+01 0.  1.
         -5    1    1    2    0  502  0.27333282849E+01  0.18715157756E+02 -0.11578776910E+02  0.22669060150E+02  0.47000000000E+01 0.  1.
        -11    1    1    2    0    0  0.41740067693E+02  0.20741401775E+02 -0.12038507585E+03  0.12909301099E+03  0.00000000000E+00 0.  1.
         11    1    1    2    0    0  0.33159306797E+02 -0.74770364171E+02 -0.29240589321E+03  0.30363029060E+03  0.00000000000E+00 0. -1.
<mgrwt>
<rscale>  0 0.29083295E+03</rscale>
<asrwt>0</asrwt>
<pdfrwt beam="2">  1        2 0.18082109E+00 0.29083295E+03</pdfrwt>
<pdfrwt beam="1">  1       -2 0.27679066E-02 0.29083295E+03</pdfrwt>
<totfact> 0.98646352E+03</totfact>
</mgrwt>
</event>
<event>
 6    1  0.9263730E-006  0.1177332E+03  0.7546771E-02  0.1259052E+00
          2   -1    0    0  501    0  0.00000000000E+00  0.00000000000E+00  0.22310773416E+02  0.22310773416E+02  0.00000000000E+00 0. -1.
         -2   -1    0    0    0  501 -0.00000000000E+00 -0.00000000000E+00 -0.50925953255E+03  0.50925953255E+03  0.00000000000E+00 0.  1.
          5    1    1    2  502    0  0.15434899740E+02 -0.27461537116E+02 -0.53257563131E+01  0.32292813923E+02  0.47000000000E+01 0. -1.
         -5    1    1    2    0  502 -0.59919416373E+00  0.26876649885E+02 -0.22238401437E+03  0.22405234475E+03  0.47000000000E+01 0.  1.
        -11    1    1    2    0    0  0.44725964886E+01  0.43889265523E+02 -0.10586018227E+03  0.11468500310E+03  0.00000000000E+00 0.  1.
         11    1    1    2    0    0 -0.19308302065E+02 -0.43304378292E+02 -0.15337880618E+03  0.16054014418E+03  0.00000000000E+00 0. -1.
<mgrwt>
<rscale>  0 0.11082353E+03</rscale>
<asrwt>0</asrwt>
<pdfrwt beam="1">  1        2 0.34324274E-02 0.11773318E+03</pdfrwt>
<pdfrwt beam="2">  1       -2 0.78347605E-01 0.11773318E+03</pdfrwt>
<totfact> 0.36571269E+03</totfact>
</mgrwt>
</event>
<event>
 6    1  0.9263730E-006  0.1302176E+03  0.7546771E-02  0.1239913E+00
         -2   -1    0    0    0  501 -0.00000000000E+00  0.00000000000E+00  0.27746693459E+03  0.27746693459E+03  0.00000000000E+00 0.  1.
          2   -1    0    0  501    0  0.00000000000E+00 -0.00000000000E+00 -0.65575018375E+02  0.65575018375E+02  0.00000000000E+00 0. -1.
          5    1    1    2  502    0 -0.53599738062E+02  0.26474425578E+02 -0.27895974015E+02  0.66136997938E+02  0.47000000000E+01 0. -1.
         -5    1    1    2    0  502  0.37001784119E+02  0.60151667323E+01  0.55233951570E+02  0.66919307116E+02  0.47000000000E+01 0. -1.
        -11    1    1    2    0    0  0.73253594230E+01 -0.64231487801E+02  0.98742586504E+02  0.11802306260E+03  0.00000000000E+00 0. -1.
         11    1    1    2    0    0  0.92725945197E+01  0.31741895490E+02  0.85811352160E+02  0.91962585316E+02  0.00000000000E+00 0.  1.
<mgrwt>
<rscale>  0 0.12195102E+03</rscale>
<asrwt>0</asrwt>
<pdfrwt beam="2">  1        2 0.10088465E-01 0.13021757E+03</pdfrwt>
<pdfrwt beam="1">  1       -2 0.42687220E-01 0.13021757E+03</pdfrwt>
<totfact> 0.31835303E+03</totfact>
</mgrwt>
</event>
<event>
 6    1  0.9263730E-006  0.1336672E+03  0.7546771E-02  0.1234536E+00
          1   -1    0    0  501    0  0.00000000000E+00  0.00000000000E+00  0.11984460946E+03  0.11984460946E+03  0.00000000000E+00 0. -1.
         -1   -1    0    0    0  501 -0.00000000000E+00 -0.00000000000E+00 -0.11793632502E+03  0.11793632502E+03  0.00000000000E+00 0.  1.
          5    1    1    2  502    0 -0.27808821974E+02  0.64265268243E+02 -0.17985096172E+02  0.72449354491E+02  0.47000000000E+01 0.  1.
         -5    1    1    2    0  502  0.49684205237E+02 -0.22297852032E+02  0.28464060990E+02  0.61627974356E+02  0.47000000000E+01 0.  1.
        -11    1    1    2    0    0  0.29861153734E+02  0.75667575163E+01 -0.89419179259E+01  0.32076505698E+02  0.00000000000E+00 0. -1.
         11    1    1    2    0    0 -0.51736536996E+02 -0.49534173728E+02  0.37123754680E+00  0.71627099931E+02  0.00000000000E+00 0.  1.
<mgrwt>
<rscale>  0 0.12534154E+03</rscale>
<asrwt>0</asrwt>
<pdfrwt beam="1">  1        1 0.18437632E-01 0.13366720E+03</pdfrwt>
<pdfrwt beam="2">  1       -1 0.18144050E-01 0.13366720E+03</pdfrwt>
<totfact> 0.63685283E+03</totfact>
</mgrwt>
</event>
<event>
 6    1  0.9263730E-006  0.1856505E+03  0.7546771E-02  0.1167369E+00
         -4   -1    0    0    0  501 -0.00000000000E+00  0.00000000000E+00  0.25147993014E+03  0.25147993014E+03  0.00000000000E+00 0. -1.
          4   -1    0    0  501    0  0.00000000000E+00 -0.00000000000E+00 -0.13217868650E+03  0.13217868650E+03  0.00000000000E+00 0.  1.
          5    1    1    2  502    0 -0.71492139694E+01 -0.88020610689E+02  0.22533849922E+01  0.88464156077E+02  0.47000000000E+01 0. -1.
         -5    1    1    2    0  502  0.95471239056E+02 -0.17079429304E+02  0.93115416748E+01  0.97546190087E+02  0.47000000000E+01 0. -1.
        -11    1    1    2    0    0 -0.56698300486E+02  0.92996988838E+02  0.11960593033E+03  0.16176747442E+03  0.00000000000E+00 0. -1.
         11    1    1    2    0    0 -0.31623724600E+02  0.12103051155E+02 -0.11869613349E+02  0.35880796060E+02  0.00000000000E+00 0.  1.
<mgrwt>
<rscale>  0 0.18044927E+03</rscale>
<asrwt>0</asrwt>
<pdfrwt beam="2">  1        4 0.20335183E-01 0.18565048E+03</pdfrwt>
<pdfrwt beam="1">  1       -4 0.38689220E-01 0.18565048E+03</pdfrwt>
<totfact> 0.24998667E+02</totfact>
</mgrwt>
</event>
<event>
 6    1  0.9263730E-006  0.2279718E+03  0.7546771E-02  0.1131928E+00
         -4   -1    0    0    0  501 -0.00000000000E+00  0.00000000000E+00  0.69406559134E+03  0.69406559134E+03  0.00000000000E+00 0.  1.
          4   -1    0    0  501    0  0.00000000000E+00 -0.00000000000E+00 -0.72389656784E+02  0.72389656784E+02  0.00000000000E+00 0. -1.
          5    1    1    2  502    0 -0.62088158694E+02 -0.96381784907E+02  0.19459050805E+03  0.22590250936E+03  0.47000000000E+01 0.  1.
         -5    1    1    2    0  502  0.21503575579E+02 -0.89894078222E+02  0.38804096333E+02  0.10035535339E+03  0.47000000000E+01 0.  1.
        -11    1    1    2    0    0  0.52854987304E+02  0.89343736621E+02  0.25170129675E+03  0.27226732405E+03  0.00000000000E+00 0. -1.
         11    1    1    2    0    0 -0.12270404189E+02  0.96932126507E+02  0.13658003342E+03  0.16793006132E+03  0.00000000000E+00 0.  1.
<mgrwt>
<rscale>  0 0.22264285E+03</rscale>
<asrwt>0</asrwt>
<pdfrwt beam="2">  1        4 0.11136871E-01 0.22797182E+03</pdfrwt>
<pdfrwt beam="1">  1       -4 0.10677932E+00 0.22797182E+03</pdfrwt>
<totfact> 0.83628787E+01</totfact>
</mgrwt>
</event>
<event>
 6    1  0.9263730E-006  0.2063717E+03  0.7546771E-02  0.1150124E+00
          1   -1    0    0  501    0  0.00000000000E+00  0.00000000000E+00  0.32977244130E+03  0.32977244130E+03  0.00000000000E+00 0. -1.
         -1   -1    0    0    0  501 -0.00000000000E+00 -0.00000000000E+00 -0.11875025063E+03  0.11875025063E+03  0.00000000000E+00 0.  1.
          5    1    1    2  502    0  0.20282796047E+02  0.22902938698E+02 -0.55811197998E+00  0.30957033215E+02  0.47000000000E+01 0.  1.
         -5    1    1    2    0  502 -0.13519263640E+03  0.94394888071E+02  0.16034036589E+03  0.23004035899E+03  0.47000000000E+01 0.  1.
        -11    1    1    2    0    0 -0.76167336599E+00 -0.41366091310E+02  0.18591521692E+02  0.45358332591E+02  0.00000000000E+00 0.  1.
         11    1    1    2    0    0  0.11567151372E+03 -0.75931735459E+02  0.32648415072E+02  0.14216696713E+03  0.00000000000E+00 0. -1.
<mgrwt>
<rscale>  0 0.19954466E+03</rscale>
<asrwt>0</asrwt>
<pdfrwt beam="1">  1        1 0.50734221E-01 0.20637168E+03</pdfrwt>
<pdfrwt beam="2">  1       -1 0.18269269E-01 0.20637168E+03</pdfrwt>
<totfact> 0.18017960E+03</totfact>
</mgrwt>
</event>
<event>
 6    1  0.9263730E-006  0.1470456E+03  0.7546771E-02  0.1213339E+00
         -2   -1    0    0    0  501 -0.00000000000E+00  0.00000000000E+00  0.13193048612E+02  0.13193048612E+02  0.00000000000E+00 0. -1.
          2   -1    0    0  501    0  0.00000000000E+00 -0.00000000000E+00 -0.15457916110E+04  0.15457916110E+04  0.00000000000E+00 0.  1.
          5    1    1    2  502    0  0.16010009236E+02 -0.16475928185E+02 -0.28846579292E+02  0.37175149525E+02  0.47000000000E+01 0.  1.
         -5    1    1    2    0  502  0.49667208533E+02 -0.24566437424E+02 -0.10729960633E+04  0.10744361235E+04  0.47000000000E+01 0.  1.
        -11    1    1    2    0    0 -0.88362387682E+01 -0.27730058048E+02 -0.71328812988E+02  0.77037878977E+02  0.00000000000E+00 0. -1.
         11    1    1    2    0    0 -0.56840979001E+02  0.68772423657E+02 -0.35942710679E+03  0.37033550768E+03  0.00000000000E+00 0.  1.
<mgrwt>
<rscale>  0 0.13999240E+03</rscale>
<asrwt>0</asrwt>
<pdfrwt beam="2">  1        2 0.23781408E+00 0.14704562E+03</pdfrwt>
<pdfrwt beam="1">  1       -2 0.20296999E-02 0.14704562E+03</pdfrwt>
<totfact> 0.95562213E+03</totfact>
</mgrwt>
</event>
<event>
 6    1  0.9263730E-006  0.3037964E+03  0.7546771E-02  0.1084880E+00
          1   -1    0    0  501    0  0.00000000000E+00  0.00000000000E+00  0.92362375357E+02  0.92362375357E+02  0.00000000000E+00 0. -1.
         -1   -1    0    0    0  501 -0.00000000000E+00 -0.00000000000E+00 -0.96121276308E+03  0.96121276308E+03  0.00000000000E+00 0.  1.
          5    1    1    2  502    0  0.46906756996E+02 -0.22488003195E+03 -0.24289015505E+03  0.33434860557E+03  0.47000000000E+01 0. -1.
         -5    1    1    2    0  502  0.86502378614E+00 -0.47846283290E+02 -0.18025601592E+03  0.18655920338E+03  0.47000000000E+01 0. -1.
        -11    1    1    2    0    0  0.21245720755E+02  0.18360375253E+02 -0.40189045074E+02  0.49026965782E+02  0.00000000000E+00 0.  1.
         11    1    1    2    0    0 -0.69017501537E+02  0.25436593999E+03 -0.40551517167E+03  0.48364036370E+03  0.00000000000E+00 0. -1.
<mgrwt>
<rscale>  0 0.30072314E+03</rscale>
<asrwt>0</asrwt>
<pdfrwt beam="1">  1        1 0.14209597E-01 0.30379642E+03</pdfrwt>
<pdfrwt beam="2">  1       -1 0.14787888E+00 0.30379642E+03</pdfrwt>
<totfact> 0.15714088E+02</totfact>
</mgrwt>
</event>
<event>
 6    1  0.9263730E-006  0.1346774E+03  0.7546771E-02  0.1233050E+00
         -1   -1    0    0    0  501 -0.00000000000E+00  0.00000000000E+00  0.17711318890E+03  0.17711318890E+03  0.00000000000E+00 0.  1.
          1   -1    0    0  501    0  0.00000000000E+00 -0.00000000000E+00 -0.86115834937E+02  0.86115834937E+02  0.00000000000E+00 0. -1.
          5    1    1    2  502    0  0.38419786542E+02  0.46565867426E+02 -0.21645964902E+02  0.64304726137E+02  0.47000000000E+01 0. -1.
         -5    1    1    2    0  502 -0.59565449193E+02 -0.11104210298E+01  0.39299192511E+02  0.71524767070E+02  0.47000000000E+01 0. -1.
        -11    1    1    2    0    0 -0.30663465311E+02 -0.39890114951E+02  0.47671945632E+02  0.69311498152E+02  0.00000000000E+00 0.  1.
         11    1    1    2    0    0  0.51809127963E+02 -0.55653314452E+01  0.25672180723E+02  0.58088032480E+02  0.00000000000E+00 0. -1.
<mgrwt>
<rscale>  0 0.12630085E+03</rscale>
<asrwt>0</asrwt>
<pdfrwt beam="2">  1        1 0.13248590E-01 0.13467745E+03</pdfrwt>
<pdfrwt beam="1">  1       -1 0.27248183E-01 0.13467745E+03</pdfrwt>
<totfact> 0.50455728E+03</totfact>
</mgrwt>
</event>
<event>
 6    1  0.9263730E-006  0.1320343E+03  0.7546771E-02  0.1237099E+00
          2   -1    0    0  501    0  0.00000000000E+00  0.00000000000E+00  0.34076200321E+03  0.34076200321E+03  0.00000000000E+00 0. -1.
         -2   -1    0    0    0  501 -0.00000000000E+00 -0.00000000000E+00 -0.42153194889E+02  0.42153194889E+02  0.00000000000E+00 0.  1.
          5    1    1    2  502    0  0.71738750757E+02  0.32213523643E+02  0.90915546570E+02  0.12029915242E+03  0.47000000000E+01 0. -1.
         -5    1    1    2    0  502 -0.46096199739E+02  0.16673437174E+01  0.11870054407E+03  0.12743448837E+03  0.47000000000E+01 0. -1.
        -11    1    1    2    0    0 -0.36857841068E+02  0.10656623561E+02  0.40025992922E+01  0.38575703169E+02  0.00000000000E+00 0.  1.
         11    1    1    2    0    0  0.11215290049E+02 -0.44537490921E+02  0.84990118390E+02  0.96605854132E+02  0.00000000000E+00 0. -1.
<mgrwt>
<rscale>  0 0.12371016E+03</rscale>
<asrwt>0</asrwt>
<pdfrwt beam="1">  1        2 0.52424922E-01 0.13203428E+03</pdfrwt>
<pdfrwt beam="2">  1       -2 0.64851071E-02 0.13203428E+03</pdfrwt>
<totfact> 0.11771839E+04</totfact>
</mgrwt>
</event>
<event>
 6    1  0.9263730E-006  0.1269831E+03  0.7546771E-02  0.1246551E+00
          4   -1    0    0  501    0  0.00000000000E+00  0.00000000000E+00  0.25338477384E+03  0.25338477384E+03  0.00000000000E+00 0. -1.
         -4   -1    0    0    0  501 -0.00000000000E+00 -0.00000000000E+00 -0.52606659479E+02  0.52606659479E+02  0.00000000000E+00 0.  1.
          5    1    1    2  502    0  0.19318106619E+02 -0.28971209089E+02 -0.43135898703E+01  0.35400808706E+02  0.47000000000E+01 0.  1.
         -5    1    1    2    0  502 -0.44706234347E+00  0.41166018647E+02  0.16117697714E+03  0.16641799457E+03  0.47000000000E+01 0.  1.
        -11    1    1    2    0    0 -0.45958996594E+02  0.13105044558E+02  0.46935465755E+02  0.66984397485E+02  0.00000000000E+00 0.  1.
         11    1    1    2    0    0  0.27087952318E+02 -0.25299854115E+02 -0.30207386624E+01  0.37188232562E+02  0.00000000000E+00 0. -1.
<mgrwt>
<rscale>  0 0.11793045E+03</rscale>
<asrwt>0</asrwt>
<pdfrwt beam="1">  1        4 0.38982272E-01 0.12698310E+03</pdfrwt>
<pdfrwt beam="2">  1       -4 0.80933324E-02 0.12698310E+03</pdfrwt>
<totfact> 0.11275390E+03</totfact>
</mgrwt>
</event>
<event>
 6    1  0.9263730E-006  0.1290466E+03  0.7546771E-02  0.1242011E+00
          1   -1    0    0  501    0  0.00000000000E+00  0.00000000000E+00  0.11983335313E+03  0.11983335313E+03  0.00000000000E+00 0. -1.
         -1   -1    0    0    0  501 -0.00000000000E+00 -0.00000000000E+00 -0.10863928248E+03  0.10863928248E+03  0.00000000000E+00 0.  1.
          5    1    1    2  502    0 -0.22262649728E+02 -0.28339873128E+02 -0.54062228459E+02  0.65142831745E+02  0.47000000000E+01 0. -1.
         -5    1    1    2    0  502 -0.92026477627E+01  0.34536107186E+02  0.52772991711E+02  0.63910171957E+02  0.47000000000E+01 0. -1.
        -11    1    1    2    0    0  0.69182279399E+01  0.42249102086E+02  0.14135737576E+02  0.45085114857E+02  0.00000000000E+00 0.  1.
         11    1    1    2    0    0  0.24547069551E+02 -0.48445336143E+02 -0.16524301861E+01  0.54334517050E+02  0.00000000000E+00 0. -1.
<mgrwt>
<rscale>  0 0.12066052E+03</rscale>
<asrwt>0</asrwt>
<pdfrwt beam="1">  1        1 0.18435901E-01 0.12904656E+03</pdfrwt>
<pdfrwt beam="2">  1       -1 0.16713736E-01 0.12904656E+03</pdfrwt>
<totfact> 0.72357195E+03</totfact>
</mgrwt>
</event>
<event>
 6    1  0.9263730E-006  0.1411275E+03  0.7546771E-02  0.1216933E+00
          1   -1    0    0  501    0  0.00000000000E+00  0.00000000000E+00  0.16046589647E+03  0.16046589647E+03  0.00000000000E+00 0. -1.
         -1   -1    0    0    0  501 -0.00000000000E+00 -0.00000000000E+00 -0.23563236984E+03  0.23563236984E+03  0.00000000000E+00 0.  1.
          5    1    1    2  502    0 -0.69282617041E+02 -0.72422633926E+02  0.85311928729E+02  0.13170168606E+03  0.47000000000E+01 0. -1.
         -5    1    1    2    0  502 -0.10558697478E+02  0.37846752256E+02  0.19672286400E+02  0.44192211995E+02  0.47000000000E+01 0.  1.
        -11    1    1    2    0    0  0.64626161696E+02  0.65584766019E+02 -0.13255529335E+03  0.16139643151E+03  0.00000000000E+00 0.  1.
         11    1    1    2    0    0  0.15215152823E+02 -0.31008884349E+02 -0.47595395150E+02  0.58807936739E+02  0.00000000000E+00 0. -1.
<mgrwt>
<rscale>  0 0.13735509E+03</rscale>
<asrwt>0</asrwt>
<pdfrwt beam="1">  1        1 0.24687061E-01 0.14112752E+03</pdfrwt>
<pdfrwt beam="2">  1       -1 0.36251134E-01 0.14112752E+03</pdfrwt>
<totfact> 0.14064169E+03</totfact>
</mgrwt>
</event>
<event>
 6    1  0.9263730E-006  0.1918836E+03  0.7546771E-02  0.1187567E+00
         -3   -1    0    0    0  501 -0.00000000000E+00  0.00000000000E+00  0.20203805804E+02  0.20203805804E+02  0.00000000000E+00 0.  1.
          3   -1    0    0  501    0  0.00000000000E+00 -0.00000000000E+00 -0.11058480612E+04  0.11058480612E+04  0.00000000000E+00 0. -1.
          5    1    1    2  502    0  0.10143375450E+03 -0.30141574041E+02 -0.50690111330E+03  0.51784954350E+03  0.47000000000E+01 0. -1.
         -5    1    1    2    0  502 -0.85257184421E+02  0.41091413484E+01 -0.35372429153E+03  0.36390745658E+03  0.47000000000E+01 0.  1.
        -11    1    1    2    0    0 -0.31308078569E+02  0.44352557029E+02 -0.20825602385E+03  0.21521597657E+03  0.00000000000E+00 0.  1.
         11    1    1    2    0    0  0.15131508485E+02 -0.18320124336E+02 -0.16762826708E+02  0.29078890350E+02  0.00000000000E+00 0. -1.
<mgrwt>
<rscale>  0 0.16100467E+03</rscale>
<asrwt>0</asrwt>
<pdfrwt beam="2">  1        3 0.17013058E+00 0.19188361E+03</pdfrwt>
<pdfrwt beam="1">  1       -3 0.31082759E-02 0.19188361E+03</pdfrwt>
<totfact> 0.29235690E+02</totfact>
</mgrwt>
</event>
<event>
 6    1  0.9263730E-006  0.1479551E+03  0.7546771E-02  0.1212565E+00
          2   -1    0    0  501    0  0.00000000000E+00  0.00000000000E+00  0.91111668895E+03  0.91111668895E+03  0.00000000000E+00 0. -1.
         -2   -1    0    0    0  501 -0.00000000000E+00 -0.00000000000E+00 -0.21569408343E+02  0.21569408343E+02  0.00000000000E+00 0.  1.
          5    1    1    2  502    0 -0.90169815255E+02 -0.19779293181E+02  0.30782147996E+03  0.32140001485E+03  0.47000000000E+01 0. -1.
         -5    1    1    2    0  502  0.15553047170E+02  0.46287838385E+02  0.31217123795E+03  0.31600226749E+03  0.47000000000E+01 0. -1.
        -11    1    1    2    0    0  0.86805303672E+02 -0.36050177135E+02  0.26140565547E+03  0.27779073550E+03  0.00000000000E+00 0. -1.
         11    1    1    2    0    0 -0.12188535588E+02  0.95416319315E+01  0.81489072325E+01  0.17493079454E+02  0.00000000000E+00 0.  1.
<mgrwt>
<rscale>  0 0.14056956E+03</rscale>
<asrwt>0</asrwt>
<pdfrwt beam="1">  1        2 0.14017177E+00 0.14795506E+03</pdfrwt>
<pdfrwt beam="2">  1       -2 0.33183712E-02 0.14795506E+03</pdfrwt>
<totfact> 0.10516870E+04</totfact>
</mgrwt>
</event>
<event>
 6    1  0.9263730E-006  0.1252914E+03  0.7546771E-02  0.1250700E+00
         -1   -1    0    0    0  501 -0.00000000000E+00  0.00000000000E+00  0.79360203538E+02  0.79360203538E+02  0.00000000000E+00 0.  1.
          1   -1    0    0  501    0  0.00000000000E+00 -0.00000000000E+00 -0.14670842230E+03  0.14670842230E+03  0.00000000000E+00 0. -1.
          5    1    1    2  502    0  0.19846685214E+02 -0.38895848219E+02 -0.69342646508E+02  0.82080878086E+02  0.47000000000E+01 0. -1.
         -5    1    1    2    0  502 -0.24276139595E+02  0.31437904654E+02  0.29158007149E+02  0.49496991662E+02  0.47000000000E+01 0. -1.
        -11    1    1    2    0    0  0.31086900705E+02 -0.64115193574E+01  0.20758560680E+02  0.37926518657E+02  0.00000000000E+00 0. -1.
         11    1    1    2    0    0 -0.26657446323E+02  0.13869462922E+02 -0.47922140085E+02  0.56564237434E+02  0.00000000000E+00 0.  1.
<mgrwt>
<rscale>  0 0.11550629E+03</rscale>
<asrwt>0</asrwt>
<pdfrwt beam="2">  1        1 0.22570526E-01 0.12529138E+03</pdfrwt>
<pdfrwt beam="1">  1       -1 0.12209262E-01 0.12529138E+03</pdfrwt>
<totfact> 0.91152365E+03</totfact>
</mgrwt>
</event>
<event>
 6    1  0.9263730E-006  0.1435445E+03  0.7546771E-02  0.1220097E+00
         -1   -1    0    0    0  501 -0.00000000000E+00  0.00000000000E+00  0.16267720206E+03  0.16267720206E+03  0.00000000000E+00 0.  1.
          1   -1    0    0  501    0  0.00000000000E+00 -0.00000000000E+00 -0.11302954410E+03  0.11302954410E+03  0.00000000000E+00 0. -1.
          5    1    1    2  502    0  0.33790471755E+02  0.71250533510E+01  0.96324757568E+01  0.36158497699E+02  0.47000000000E+01 0. -1.
         -5    1    1    2    0  502 -0.10018438820E+03 -0.31073816945E+02 -0.27146162816E+02  0.10845043981E+03  0.47000000000E+01 0. -1.
        -11    1    1    2    0    0  0.20199597122E+02 -0.16151370477E+02 -0.14044389286E+02  0.29430177753E+02  0.00000000000E+00 0. -1.
         11    1    1    2    0    0  0.46194319322E+02  0.40100134070E+02  0.81205734305E+02  0.10166763091E+03  0.00000000000E+00 0.  1.
<mgrwt>
<rscale>  0 0.13508670E+03</rscale>
<asrwt>0</asrwt>
<pdfrwt beam="2">  1        1 0.17389161E-01 0.14354447E+03</pdfrwt>
<pdfrwt beam="1">  1       -1 0.25027262E-01 0.14354447E+03</pdfrwt>
<totfact> 0.40991783E+03</totfact>
</mgrwt>
</event>
<event>
 6    1  0.1538575E-005  0.2587425E+03  0.7546771E-02  0.1110149E+00
         -1   -1    0    0    0  501 -0.00000000000E+00  0.00000000000E+00  0.10696208582E+03  0.10696208582E+03  0.00000000000E+00 0.  1.
          1   -1    0    0  501    0  0.00000000000E+00 -0.00000000000E+00 -0.59371317811E+03  0.59371317811E+03  0.00000000000E+00 0. -1.
          5    1    1    2  502    0  0.73962057484E+02  0.52257227063E+02 -0.16299057895E+02  0.92135514411E+02  0.47000000000E+01 0. -1.
         -5    1    1    2    0  502  0.89574075045E+02  0.10451973289E+03 -0.21264968762E+03  0.25335719672E+03  0.47000000000E+01 0. -1.
        -11    1    1    2    0    0 -0.93456728556E+02 -0.75549085708E+02 -0.19998283590E+03  0.23331300675E+03  0.00000000000E+00 0.  1.
         11    1    1    2    0    0 -0.70079403973E+02 -0.81227874248E+02 -0.57819510865E+02  0.12186954604E+03  0.00000000000E+00 0. -1.
<mgrwt>
<rscale>  0 0.25505914E+03</rscale>
<asrwt>0</asrwt>
<pdfrwt beam="2">  1        1 0.91340489E-01 0.25874251E+03</pdfrwt>
<pdfrwt beam="1">  1       -1 0.16455705E-01 0.25874251E+03</pdfrwt>
<totfact> 0.99034635E+02</totfact>
</mgrwt>
</event>
<event>
 6    1  0.9263730E-006  0.3441813E+03  0.7546771E-02  0.1065029E+00
          2   -1    0    0  501    0  0.00000000000E+00  0.00000000000E+00  0.65424375873E+03  0.65424375873E+03  0.00000000000E+00 0. -1.
         -2   -1    0    0    0  501 -0.00000000000E+00 -0.00000000000E+00 -0.45266303797E+02  0.45266303797E+02  0.00000000000E+00 0.  1.
          5    1    1    2  502    0  0.41325158092E+01 -0.27727770455E+01 -0.73998245403E+01  0.10080346357E+02  0.47000000000E+01 0.  1.
         -5    1    1    2    0  502  0.87063621236E+02  0.81591927060E+02  0.44421239817E+03  0.45998267510E+03  0.47000000000E+01 0.  1.
        -11    1    1    2    0    0 -0.54680162227E+02 -0.89408013869E+02  0.15644546608E+03  0.18830532903E+03  0.00000000000E+00 0. -1.
         11    1    1    2    0    0 -0.36515974818E+02  0.10588863854E+02  0.15719415229E+02  0.41141712042E+02  0.00000000000E+00 0.  1.
<mgrwt>
<rscale>  0 0.34418133E+03</rscale>
<asrwt>0</asrwt>
<pdfrwt beam="1">  1        2 0.10065288E+00 0.34418133E+03</pdfrwt>
<pdfrwt beam="2">  1       -2 0.69640472E-02 0.34418133E+03</pdfrwt>
<totfact> 0.53684320E+03</totfact>
</mgrwt>
</event>
<event>
 6    1  0.9263730E-006  0.1389349E+03  0.7546771E-02  0.1229256E+00
          1   -1    0    0  501    0  0.00000000000E+00  0.00000000000E+00  0.25354491054E+03  0.25354491054E+03  0.00000000000E+00 0. -1.
         -1   -1    0    0    0  501 -0.00000000000E+00 -0.00000000000E+00 -0.57603629067E+02  0.57603629067E+02  0.00000000000E+00 0.  1.
          5    1    1    2  502    0  0.92251812258E+02 -0.31172869102E+02  0.89556147350E+02  0.13238027860E+03  0.47000000000E+01 0.  1.
         -5    1    1    2    0  502 -0.40761251837E+02 -0.85546220252E+00  0.28858100759E+02  0.50170623340E+02  0.47000000000E+01 0.  1.
        -11    1    1    2    0    0 -0.63742915440E+02  0.36023784650E+02  0.29611369459E+02  0.78979146176E+02  0.00000000000E+00 0.  1.
         11    1    1    2    0    0  0.12252355020E+02 -0.39954533454E+01  0.47915663909E+02  0.49618491501E+02  0.00000000000E+00 0. -1.
<mgrwt>
<rscale>  0 0.12879413E+03</rscale>
<asrwt>0</asrwt>
<pdfrwt beam="1">  1        1 0.39006909E-01 0.13893487E+03</pdfrwt>
<pdfrwt beam="2">  1       -1 0.88620969E-02 0.13893487E+03</pdfrwt>
<totfact> 0.75856025E+03</totfact>
</mgrwt>
</event>
<event>
 6    1  0.9263730E-006  0.1304022E+03  0.7546771E-02  0.1240863E+00
         -1   -1    0    0    0  501 -0.00000000000E+00  0.00000000000E+00  0.23773104039E+03  0.23773104039E+03  0.00000000000E+00 0. -1.
          1   -1    0    0  501    0  0.00000000000E+00 -0.00000000000E+00 -0.57053358798E+02  0.57053358798E+02  0.00000000000E+00 0.  1.
          5    1    1    2  502    0 -0.10097497615E+02  0.47342179775E+02 -0.12410487968E+02  0.50193143512E+02  0.47000000000E+01 0. -1.
         -5    1    1    2    0  502  0.41561512966E+02 -0.27612058140E+02  0.86005670359E+02  0.99543208953E+02  0.47000000000E+01 0. -1.
        -11    1    1    2    0    0 -0.28850743012E+02  0.52801949060E+01 -0.53706434390E+01  0.29817606234E+02  0.00000000000E+00 0.  1.
         11    1    1    2    0    0 -0.26132723390E+01 -0.25010316541E+02  0.11245314264E+03  0.11523044049E+03  0.00000000000E+00 0. -1.
<mgrwt>
<rscale>  0 0.12136417E+03</rscale>
<asrwt>0</asrwt>
<pdfrwt beam="2">  1        1 0.87774400E-02 0.13040216E+03</pdfrwt>
<pdfrwt beam="1">  1       -1 0.36574006E-01 0.13040216E+03</pdfrwt>
<totfact> 0.52683383E+03</totfact>
</mgrwt>
</event>
