<event>
 7    1  0.2670433E-009  0.1143696E+03  0.7561462E-02  0.1252685E+00
         -1   -1    0    0    0  501 -0.00000000000E+00  0.00000000000E+00  0.76282615008E+02  0.76282615008E+02  0.00000000000E+00 0.  1.
          1   -1    0    0  501    0  0.00000000000E+00 -0.00000000000E+00 -0.24482430868E+03  0.24482430868E+03  0.00000000000E+00 0. -1.
         25    2    1    2    0    0 -0.55580758972E+02  0.64506843501E+02 -0.10545536131E+03  0.18444166051E+03  0.12509012461E+03 0.  0.
          5    1    3    3  502    0 -0.26333392241E+02  0.76075268351E+02 -0.69027073631E+01  0.80907439525E+02  0.41800000000E+01 0. -1.
         -5    1    3    3    0  502 -0.29247366731E+02 -0.11568424849E+02 -0.98552653946E+02  0.10353422098E+03  0.41800000000E+01 0. -1.
        -11    1    1    2    0    0 -0.53850414286E+01 -0.54321054376E+02 -0.48810393057E+02  0.73227249642E+02  0.00000000000E+00 0. -1.
         11    1    1    2    0    0  0.60965800400E+02 -0.10185789126E+02 -0.14275939303E+02  0.63438013537E+02  0.00000000000E+00 0.  1.
</event>
<event>
 7    1  0.2670433E-009  0.8495736E+02  0.7561462E-02  0.1315544E+00
         -2   -1    0    0    0  501 -0.00000000000E+00  0.00000000000E+00  0.98290510612E+02  0.98290510612E+02  0.00000000000E+00 0.  1.
          2   -1    0    0  501    0  0.00000000000E+00 -0.00000000000E+00 -0.11360742152E+03  0.11360742152E+03  0.00000000000E+00 0. -1.
         25    2    1    2    0    0 -0.35768221776E+01 -0.44535631806E+01 -0.19322352931E+02  0.12671775481E+03  0.12510558812E+03 0.  0.
          5    1    3    3  502    0  0.20320535477E+02 -0.44169902918E+02  0.31283128620E+02  0.57965602059E+02  0.41800000000E+01 0. -1.
         -5    1    3    3    0  502 -0.23897357654E+02  0.39716339738E+02 -0.50605481551E+02  0.68752152752E+02  0.41800000000E+01 0. -1.
        -11    1    1    2    0    0  0.38968426229E+02  0.58025319608E+00  0.22561075127E+02  0.45031955847E+02  0.00000000000E+00 0.  1.
         11    1    1    2    0    0 -0.35391604051E+02  0.38733099845E+01 -0.18555633102E+02  0.40148221472E+02  0.00000000000E+00 0. -1.
</event>
<event>
 7    1  0.2670433E-009  0.7679328E+02  0.7561462E-02  0.1338406E+00
         -1   -1    0    0    0  501 -0.00000000000E+00  0.00000000000E+00  0.20828407774E+03  0.20828407774E+03  0.00000000000E+00 0.  1.
          1   -1    0    0  501    0  0.00000000000E+00 -0.00000000000E+00 -0.64413664548E+02  0.64413664548E+02  0.00000000000E+00 0. -1.
         25    2    1    2    0    0  0.13302738920E+02  0.18263911178E+01  0.34796796513E+02  0.13053400624E+03  0.12509201081E+03 0.  0.
          5    1    3    3  502    0 -0.57255464621E+01  0.47233681521E+02 -0.24229490098E+02  0.53556914985E+02  0.41800000000E+01 0. -1.
         -5    1    3    3    0  502  0.19028285382E+02 -0.45407290403E+02  0.59026286611E+02  0.76977091251E+02  0.41800000000E+01 0. -1.
        -11    1    1    2    0    0 -0.12197060472E+02  0.25919396432E+02  0.11070199753E+03  0.11434822103E+03  0.00000000000E+00 0.  1.
         11    1    1    2    0    0 -0.11056784475E+01 -0.27745787550E+02 -0.16283808545E+01  0.27815515020E+02  0.00000000000E+00 0. -1.
</event>
<event>
 7    1  0.2670433E-009  0.1318820E+03  0.7561462E-02  0.1224690E+00
         -2   -1    0    0    0  501 -0.00000000000E+00  0.00000000000E+00  0.25888444058E+02  0.25888444058E+02  0.00000000000E+00 0. -1.
          2   -1    0    0  501    0  0.00000000000E+00 -0.00000000000E+00 -0.94235094903E+03  0.94235094903E+03  0.00000000000E+00 0.  1.
         25    2    1    2    0    0 -0.18599688335E+02  0.10127978956E+03 -0.62334909505E+03  0.64406175202E+03  0.12509157421E+03 0.  0.
          5    1    3    3  502    0 -0.53202879391E+02  0.20068432798E+02 -0.11810792769E+03  0.13114969826E+03  0.41800000000E+01 0.  1.
         -5    1    3    3    0  502  0.34603191057E+02  0.81211356762E+02 -0.50524116736E+03  0.51291205376E+03  0.41800000000E+01 0.  1.
        -11    1    1    2    0    0 -0.79748554127E+01 -0.88548247919E+02 -0.27629924272E+03  0.29025103282E+03  0.00000000000E+00 0.  1.
         11    1    1    2    0    0  0.26574543747E+02 -0.12731541641E+02 -0.16814167200E+02  0.33926608239E+02  0.00000000000E+00 0. -1.
</event>
<event>
 7    1  0.2670433E-009  0.9303708E+02  0.7561462E-02  0.1295659E+00
         -2   -1    0    0    0  501 -0.00000000000E+00  0.00000000000E+00  0.82870684122E+02  0.82870684122E+02  0.00000000000E+00 0.  1.
          2   -1    0    0  501    0  0.00000000000E+00 -0.00000000000E+00 -0.20794355863E+03  0.20794355863E+03  0.00000000000E+00 0. -1.
         25    2    1    2    0    0  0.49857655434E+02 -0.53315805633E+02 -0.81442950613E+02  0.16615884162E+03  0.12508974981E+03 0.  0.
          5    1    3    3  502    0  0.19493531795E+02  0.12386206881E+01  0.31348820645E+02  0.37171937250E+02  0.41800000000E+01 0.  1.
         -5    1    3    3    0  502  0.30364123640E+02 -0.54554426321E+02 -0.11279177126E+03  0.12898690437E+03  0.41800000000E+01 0.  1.
        -11    1    1    2    0    0 -0.20475241145E+02 -0.17448962212E+02  0.12509476856E+02  0.29667975890E+02  0.00000000000E+00 0.  1.
         11    1    1    2    0    0 -0.29382414290E+02  0.70764767845E+02 -0.56139400755E+02  0.94987425245E+02  0.00000000000E+00 0. -1.
</event>
<event>
 7    1  0.2670433E-009  0.8413871E+02  0.7561462E-02  0.1317700E+00
         -2   -1    0    0    0  501 -0.00000000000E+00  0.00000000000E+00  0.44291889023E+02  0.44291889023E+02  0.00000000000E+00 0.  1.
          2   -1    0    0  501    0  0.00000000000E+00 -0.00000000000E+00 -0.40674965002E+03  0.40674965002E+03  0.00000000000E+00 0. -1.
         25    2    1    2    0    0 -0.80425083522E+01  0.14815438174E+02 -0.74772683412E+02  0.14671002589E+03  0.12509475753E+03 0.  0.
          5    1    3    3  502    0 -0.15587429967E+01  0.44309645546E+02  0.18767884758E+02  0.48326806913E+02  0.41800000000E+01 0. -1.
         -5    1    3    3    0  502 -0.64837653555E+01 -0.29494207372E+02 -0.93540568170E+02  0.98383218972E+02  0.41800000000E+01 0. -1.
        -11    1    1    2    0    0  0.36337228002E+02  0.25220668036E+02 -0.85217589820E+02  0.96013092075E+02  0.00000000000E+00 0.  1.
         11    1    1    2    0    0 -0.28294719650E+02 -0.40036106210E+02 -0.20246748777E+03  0.20831842109E+03  0.00000000000E+00 0. -1.
</event>
<event>
 7    1  0.2670433E-009  0.1027834E+03  0.7561462E-02  0.1274549E+00
          2   -1    0    0  501    0  0.00000000000E+00  0.00000000000E+00  0.10796167829E+03  0.10796167829E+03  0.00000000000E+00 0. -1.
         -2   -1    0    0    0  501 -0.00000000000E+00 -0.00000000000E+00 -0.14285625749E+03  0.14285625749E+03  0.00000000000E+00 0.  1.
         25    2    1    2    0    0  0.37757624498E+02 -0.37660485593E+02  0.10534786085E+02  0.13639037416E+03  0.12508957616E+03 0.  0.
          5    1    3    3  502    0  0.17873195206E+02 -0.69774089533E+02  0.45046551748E+02  0.85056092676E+02  0.41800000000E+01 0.  1.
         -5    1    3    3    0  502  0.19884429292E+02  0.32113603939E+02 -0.34511765663E+02  0.51334281484E+02  0.41800000000E+01 0.  1.
        -11    1    1    2    0    0 -0.16448785987E+02  0.61371510735E+02 -0.61426352681E+01  0.63833822213E+02  0.00000000000E+00 0. -1.
         11    1    1    2    0    0 -0.21308838511E+02 -0.23711025141E+02 -0.39286730016E+02  0.50593739408E+02  0.00000000000E+00 0.  1.
</event>
<event>
 7    1  0.3987775E-009  0.1549967E+03  0.7561462E-02  0.1194464E+00
          1   -1    0    0  501    0  0.00000000000E+00  0.00000000000E+00  0.72238170929E+03  0.72238170929E+03  0.00000000000E+00 0. -1.
         -1   -1    0    0    0  501 -0.00000000000E+00 -0.00000000000E+00 -0.54541624305E+02  0.54541624305E+02  0.00000000000E+00 0.  1.
         25    2    1    2    0    0  0.76734558535E+02  0.10392065982E+03  0.14597702838E+03  0.23161450165E+03  0.12509311952E+03 0.  0.
          5    1    3    3  502    0 -0.31264864479E+02  0.22730110479E+02  0.10590843624E+02  0.40296253448E+02  0.41800000000E+01 0. -1.
         -5    1    3    3    0  502  0.10799942301E+03  0.81190549342E+02  0.13538618475E+03  0.19131824820E+03  0.41800000000E+01 0. -1.
        -11    1    1    2    0    0 -0.78830093019E+02 -0.81389377768E+02  0.50371621752E+03  0.51630266528E+03  0.00000000000E+00 0. -1.
         11    1    1    2    0    0  0.20955344845E+01 -0.22531282053E+02  0.18146839086E+02  0.29006166664E+02  0.00000000000E+00 0.  1.
</event>
<event>
 7    1  0.2670433E-009  0.1352869E+03  0.7561462E-02  0.1219815E+00
          2   -1    0    0  501    0  0.00000000000E+00  0.00000000000E+00  0.38991095745E+03  0.38991095745E+03  0.00000000000E+00 0. -1.
         -2   -1    0    0    0  501 -0.00000000000E+00 -0.00000000000E+00 -0.64408041524E+02  0.64408041524E+02  0.00000000000E+00 0.  1.
         25    2    1    2    0    0  0.19970533137E+02 -0.81767039199E+02  0.62829448426E+02  0.16333744443E+03  0.12508761038E+03 0.  0.
          5    1    3    3  502    0 -0.43275129720E+02 -0.40249060182E+00  0.18447022169E+01  0.43517515752E+02  0.41800000000E+01 0.  1.
         -5    1    3    3    0  502  0.63245662857E+02 -0.81364548597E+02  0.60984746209E+02  0.11981992868E+03  0.41800000000E+01 0.  1.
        -11    1    1    2    0    0 -0.47789685689E+02  0.12627461110E+02  0.12524201921E+03  0.13464349300E+03  0.00000000000E+00 0. -1.
         11    1    1    2    0    0  0.27819152552E+02  0.69139578089E+02  0.13743144830E+03  0.15633806155E+03  0.00000000000E+00 0.  1.
</event>
<event>
 7    1  0.2670433E-009  0.1002515E+03  0.7561462E-02  0.1279768E+00
         -2   -1    0    0    0  501 -0.00000000000E+00  0.00000000000E+00  0.40315969032E+02  0.40315969032E+02  0.00000000000E+00 0.  1.
          2   -1    0    0  501    0  0.00000000000E+00 -0.00000000000E+00 -0.34314711393E+03  0.34314711393E+03  0.00000000000E+00 0. -1.
         25    2    1    2    0    0  0.35975102952E+02 -0.18161338854E+02 -0.15581708399E+03  0.20384037020E+03  0.12509152889E+03 0.  0.
          5    1    3    3  502    0 -0.41377129442E+02 -0.30330865329E+02 -0.46925301393E+02  0.69652598970E+02  0.41800000000E+01 0. -1.
         -5    1    3    3    0  502  0.77352232394E+02  0.12169526476E+02 -0.10889178260E+03  0.13418777123E+03  0.41800000000E+01 0. -1.
        -11    1    1    2    0    0 -0.46340579723E+02 -0.36310044827E+01 -0.14834216939E+03  0.15545427862E+03  0.00000000000E+00 0. -1.
         11    1    1    2    0    0  0.10365476771E+02  0.21792343337E+02  0.13281084762E+01  0.24168434143E+02  0.00000000000E+00 0.  1.
</event>
<event>
 7    1  0.2670433E-009  0.8454118E+02  0.7561462E-02  0.1316637E+00
          1   -1    0    0  501    0  0.00000000000E+00  0.00000000000E+00  0.17595011195E+04  0.17595011195E+04  0.00000000000E+00 0. -1.
         -1   -1    0    0    0  501 -0.00000000000E+00 -0.00000000000E+00 -0.10207168484E+02  0.10207168484E+02  0.00000000000E+00 0.  1.
         25    2    1    2    0    0  0.11140545003E+02 -0.45100473759E+02  0.13771934588E+04  0.13836429152E+04  0.12509088384E+03 0.  0.
          5    1    3    3  502    0  0.91125235468E+01 -0.54728008831E+02  0.23867675192E+03  0.24507602360E+03  0.41800000000E+01 0. -1.
         -5    1    3    3    0  502  0.20280214557E+01  0.96275350718E+01  0.11385167069E+04  0.11385668916E+04  0.41800000000E+01 0. -1.
        -11    1    1    2    0    0  0.25553820535E+02  0.58382100376E+02  0.24052850071E+03  0.24882810742E+03  0.00000000000E+00 0.  1.
         11    1    1    2    0    0 -0.36694365537E+02 -0.13281626618E+02  0.13157199147E+03  0.13723726537E+03  0.00000000000E+00 0. -1.
</event>
<event>
 7    1  0.2670433E-009  0.1237219E+03  0.7561462E-02  0.1237080E+00
         -1   -1    0    0    0  501 -0.00000000000E+00  0.00000000000E+00  0.82872436623E+03  0.82872436623E+03  0.00000000000E+00 0. -1.
          1   -1    0    0  501    0  0.00000000000E+00 -0.00000000000E+00 -0.25521756960E+02  0.25521756960E+02  0.00000000000E+00 0.  1.
         25    2    1    2    0    0 -0.72967016465E+02  0.19462968146E+02  0.24386765142E+03  0.28429177329E+03  0.12508952128E+03 0.  0.
          5    1    3    3  502    0 -0.69877648304E+02 -0.38397052336E+02  0.18544558316E+03  0.20190283820E+03  0.41800000000E+01 0. -1.
         -5    1    3    3    0  502 -0.30893681600E+01  0.57860020482E+02  0.58422068258E+02  0.82388935091E+02  0.41800000000E+01 0. -1.
        -11    1    1    2    0    0  0.22742250993E+02 -0.47012779774E+02  0.26589339293E+03  0.27097362943E+03  0.00000000000E+00 0.  1.
         11    1    1    2    0    0  0.50224765471E+02  0.27549811628E+02  0.29344156492E+03  0.29898072047E+03  0.00000000000E+00 0. -1.
</event>
<event>
 7    1  0.2670433E-009  0.2892929E+03  0.7561462E-02  0.1090719E+00
          1   -1    0    0  501    0  0.00000000000E+00  0.00000000000E+00  0.25599240097E+03  0.25599240097E+03  0.00000000000E+00 0. -1.
         -1   -1    0    0    0  501 -0.00000000000E+00 -0.00000000000E+00 -0.39663173117E+03  0.39663173117E+03  0.00000000000E+00 0.  1.
         25    2    1    2    0    0  0.12681365765E+03  0.25199620037E+03  0.31085128883E+02  0.31015812116E+03  0.12509191068E+03 0.  0.
          5    1    3    3  502    0  0.24189342305E+02  0.97381454747E+02  0.67493853794E+02  0.12100068062E+03  0.41800000000E+01 0.  1.
         -5    1    3    3    0  502  0.10262431535E+03  0.15461474562E+03 -0.36408724911E+02  0.18915744055E+03  0.41800000000E+01 0.  1.
        -11    1    1    2    0    0 -0.49956245198E+02 -0.31567877405E+02 -0.57974184366E+02  0.82783835203E+02  0.00000000000E+00 0. -1.
         11    1    1    2    0    0 -0.76857412456E+02 -0.22042832297E+03 -0.11375027472E+03  0.25968217577E+03  0.00000000000E+00 0.  1.
</event>
<event>
 7    1  0.2670433E-009  0.1024690E+03  0.7561462E-02  0.1275188E+00
          1   -1    0    0  501    0  0.00000000000E+00  0.00000000000E+00  0.36747185502E+02  0.36747185502E+02  0.00000000000E+00 0. -1.
         -1   -1    0    0    0  501 -0.00000000000E+00 -0.00000000000E+00 -0.50702003852E+03  0.50702003852E+03  0.00000000000E+00 0.  1.
         25    2    1    2    0    0  0.24464235709E+01 -0.43885543845E+02 -0.38578509895E+03  0.40793714847E+03  0.12510255224E+03 0.  0.
          5    1    3    3  502    0  0.31494486873E+02 -0.79501066475E+02 -0.22810784668E+03  0.24364520186E+03  0.41800000000E+01 0.  1.
         -5    1    3    3    0  502 -0.29048063302E+02  0.35615522630E+02 -0.15767725228E+03  0.16429194661E+03  0.41800000000E+01 0.  1.
        -11    1    1    2    0    0  0.27794762316E+02  0.25887747576E+02  0.62618464326E+01  0.38495908971E+02  0.00000000000E+00 0. -1.
         11    1    1    2    0    0 -0.30241185887E+02  0.17997796269E+02 -0.90749600493E+02  0.97334166581E+02  0.00000000000E+00 0.  1.
</event>
<event>
 7    1  0.2670433E-009  0.1117774E+03  0.7561462E-02  0.1257313E+00
          1   -1    0    0  501    0  0.00000000000E+00  0.00000000000E+00  0.17516718853E+03  0.17516718853E+03  0.00000000000E+00 0. -1.
         -1   -1    0    0    0  501 -0.00000000000E+00 -0.00000000000E+00 -0.74789209306E+02  0.74789209306E+02  0.00000000000E+00 0.  1.
         25    2    1    2    0    0  0.34362170053E+02  0.14830888138E+01  0.52072784945E+02  0.13979218770E+03  0.12508925824E+03 0.  0.
          5    1    3    3  502    0 -0.17715188802E+01  0.58806244667E+02  0.97260180743E+01  0.59777759397E+02  0.41800000000E+01 0. -1.
         -5    1    3    3    0  502  0.36133688933E+02 -0.57323155853E+02  0.42346766871E+02  0.80014428307E+02  0.41800000000E+01 0. -1.
        -11    1    1    2    0    0 -0.22696433879E+02 -0.45661344291E+02  0.37265419031E+02  0.63156930964E+02  0.00000000000E+00 0.  1.
         11    1    1    2    0    0 -0.11665736174E+02  0.44178255477E+02  0.11039775251E+02  0.47007279171E+02  0.00000000000E+00 0. -1.
</event>
<event>
 7    1  0.2670433E-009  0.1313600E+03  0.7561462E-02  0.1225452E+00
          2   -1    0    0  501    0  0.00000000000E+00  0.00000000000E+00  0.51060822598E+02  0.51060822598E+02  0.00000000000E+00 0. -1.
         -2   -1    0    0    0  501 -0.00000000000E+00 -0.00000000000E+00 -0.48729216883E+03  0.48729216883E+03  0.00000000000E+00 0.  1.
         25    2    1    2    0    0  0.28112880794E+02 -0.11008096762E+03 -0.23764633995E+03  0.29160127703E+03  0.12508944150E+03 0.  0.
          5    1    3    3  502    0 -0.39300127500E+01 -0.22176297682E+02  0.11356947075E+02  0.25567280379E+02  0.41800000000E+01 0. -1.
         -5    1    3    3    0  502  0.32042893544E+02 -0.87904669936E+02 -0.24900328702E+03  0.26603399665E+03  0.41800000000E+01 0. -1.
        -11    1    1    2    0    0 -0.32475973739E+02 -0.33448382939E+01 -0.51188800220E+02  0.60713837644E+02  0.00000000000E+00 0. -1.
         11    1    1    2    0    0  0.43630929455E+01  0.11342580591E+03 -0.14739620606E+03  0.18603787676E+03  0.00000000000E+00 0.  1.
</event>
<event>
 7    1  0.2670433E-009  0.3128322E+03  0.7561462E-02  0.1078996E+00
         -1   -1    0    0    0  501 -0.00000000000E+00  0.00000000000E+00  0.25167156789E+03  0.25167156789E+03  0.00000000000E+00 0.  1.
          1   -1    0    0  501    0  0.00000000000E+00 -0.00000000000E+00 -0.51493382680E+03  0.51493382680E+03  0.00000000000E+00 0. -1.
         25    2    1    2    0    0  0.18931895544E+03 -0.23323617945E+03 -0.31028011880E+03  0.44962443257E+03  0.12509035114E+03 0.  0.
          5    1    3    3  502    0  0.21148930010E+02 -0.11982743292E+03 -0.13156052454E+03  0.17925271250E+03  0.41800000000E+01 0.  1.
         -5    1    3    3    0  502  0.16817002543E+03 -0.11340874653E+03 -0.17871959426E+03  0.27037172007E+03  0.41800000000E+01 0.  1.
        -11    1    1    2    0    0 -0.39601836984E+02  0.36921242774E+02 -0.25235439346E+02  0.59735341796E+02  0.00000000000E+00 0. -1.
         11    1    1    2    0    0 -0.14971711845E+03  0.19631493668E+03  0.72253299232E+02  0.25724562032E+03  0.00000000000E+00 0.  1.
</event>
<event>
 7    1  0.2670433E-009  0.1724720E+03  0.7561462E-02  0.1175294E+00
         -1   -1    0    0    0  501 -0.00000000000E+00  0.00000000000E+00  0.27670438868E+02  0.27670438868E+02  0.00000000000E+00 0.  1.
          1   -1    0    0  501    0  0.00000000000E+00 -0.00000000000E+00 -0.13282430804E+04  0.13282430804E+04  0.00000000000E+00 0. -1.
         25    2    1    2    0    0 -0.14586961643E+03 -0.58215132562E+02 -0.74385694733E+03  0.77047855992E+03  0.12508839492E+03 0.  0.
          5    1    3    3  502    0  0.15549312039E+02  0.12972143784E+00 -0.16200875969E+02  0.22841600529E+02  0.41800000000E+01 0.  1.
         -5    1    3    3    0  502 -0.16141892847E+03 -0.58344854000E+02 -0.72765607136E+03  0.74763695939E+03  0.41800000000E+01 0.  1.
        -11    1    1    2    0    0  0.49121457350E+02  0.22388964793E+02 -0.72727252315E+02  0.90572824545E+02  0.00000000000E+00 0.  1.
         11    1    1    2    0    0  0.96748159083E+02  0.35826167769E+02 -0.48398844185E+03  0.49486213477E+03  0.00000000000E+00 0. -1.
</event>
<event>
 7    1  0.2670433E-009  0.7502761E+02  0.7561462E-02  0.1343786E+00
         -2   -1    0    0    0  501 -0.00000000000E+00  0.00000000000E+00  0.80375560246E+02  0.80375560246E+02  0.00000000000E+00 0.  1.
          2   -1    0    0  501    0  0.00000000000E+00 -0.00000000000E+00 -0.16024381278E+03  0.16024381278E+03  0.00000000000E+00 0. -1.
         25    2    1    2    0    0  0.80321778825E+01  0.58592780328E+01 -0.80364694052E+02  0.14901524125E+03  0.12509280977E+03 0.  0.
          5    1    3    3  502    0 -0.27871675520E+02  0.25124848809E+02 -0.97545618022E+02  0.10459784089E+03  0.41800000000E+01 0.  1.
         -5    1    3    3    0  502  0.35903853402E+02 -0.19265570776E+02  0.17180923971E+02  0.44417400362E+02  0.41800000000E+01 0.  1.
        -11    1    1    2    0    0  0.69106886366E+01  0.30897304490E+02  0.28852432473E+02  0.42835311389E+02  0.00000000000E+00 0.  1.
         11    1    1    2    0    0 -0.14942866519E+02 -0.36756582523E+02 -0.28355990956E+02  0.48768820384E+02  0.00000000000E+00 0. -1.
</event>
<event>
 7    1  0.2670433E-009  0.6445790E+02  0.7561462E-02  0.1380022E+00
          1   -1    0    0  501    0  0.00000000000E+00  0.00000000000E+00  0.72417559741E+02  0.72417559741E+02  0.00000000000E+00 0. -1.
         -1   -1    0    0    0  501 -0.00000000000E+00 -0.00000000000E+00 -0.13982621999E+03  0.13982621999E+03  0.00000000000E+00 0.  1.
         25    2    1    2    0    0 -0.46836467342E+01  0.14900379857E+02 -0.11670981103E+02  0.12659852933E+03  0.12508804084E+03 0.  0.
          5    1    3    3  502    0  0.72702196405E+01 -0.23201348512E+02  0.48411451471E+02  0.54335068785E+02  0.41800000000E+01 0. -1.
         -5    1    3    3    0  502 -0.11953866375E+02  0.38101728369E+02 -0.60082432574E+02  0.72263460545E+02  0.41800000000E+01 0. -1.
        -11    1    1    2    0    0  0.27785418459E+02  0.10551535002E+02 -0.18698151791E+02  0.35113889705E+02  0.00000000000E+00 0. -1.
         11    1    1    2    0    0 -0.23101771725E+02 -0.25451914859E+02 -0.37039527351E+02  0.50531360690E+02  0.00000000000E+00 0.  1.
</event>
<event>
 7    1  0.2670433E-009  0.9034881E+02  0.7561462E-02  0.1302009E+00
          4   -1    0    0  501    0  0.00000000000E+00  0.00000000000E+00  0.10008645556E+03  0.10008645556E+03  0.00000000000E+00 0. -1.
         -4   -1    0    0    0  501 -0.00000000000E+00 -0.00000000000E+00 -0.13274873843E+03  0.13274873843E+03  0.00000000000E+00 0.  1.
         25    2    1    2    0    0 -0.18911186161E+02  0.23230606093E+02  0.69204568286E+01  0.12880580972E+03  0.12508297195E+03 0.  0.
          5    1    3    3  502    0 -0.50675229944E+02  0.56096908335E+02 -0.16181232342E+02  0.77421875040E+02  0.41800000000E+01 0.  1.
         -5    1    3    3    0  502  0.31764043783E+02 -0.32866302242E+02  0.23101689170E+02  0.51383934678E+02  0.41800000000E+01 0.  1.
        -11    1    1    2    0    0  0.19107072215E+02  0.12837394486E+02 -0.58811107616E+02  0.63155564164E+02  0.00000000000E+00 0.  1.
         11    1    1    2    0    0 -0.19588605403E+00 -0.36068000579E+02  0.19228367919E+02  0.40873820104E+02  0.00000000000E+00 0. -1.
</event>
<event>
 7    1  0.2670433E-009  0.1203505E+03  0.7561462E-02  0.1242520E+00
         -1   -1    0    0    0  501 -0.00000000000E+00  0.00000000000E+00  0.16538552006E+03  0.16538552006E+03  0.00000000000E+00 0.  1.
          1   -1    0    0  501    0  0.00000000000E+00 -0.00000000000E+00 -0.11377350585E+03  0.11377350585E+03  0.00000000000E+00 0. -1.
         25    2    1    2    0    0  0.51221874024E+02 -0.26377477227E+02 -0.35505541455E+02  0.14223946506E+03  0.12510783454E+03 0.  0.
          5    1    3    3  502    0  0.14557398832E+02 -0.74490215138E+02 -0.10855639931E+02  0.76785593247E+02  0.41800000000E+01 0.  1.
         -5    1    3    3    0  502  0.36664475192E+02  0.48112737911E+02 -0.24649901523E+02  0.65453871814E+02  0.41800000000E+01 0.  1.
        -11    1    1    2    0    0 -0.14793926731E+02  0.55484749735E+02  0.59668539964E+02  0.82811547399E+02  0.00000000000E+00 0.  1.
         11    1    1    2    0    0 -0.36427947293E+02 -0.29107272507E+02  0.27449015703E+02  0.54108013454E+02  0.00000000000E+00 0. -1.
</event>
<event>
 7    1  0.2670433E-009  0.1455660E+03  0.7561462E-02  0.1206030E+00
          2   -1    0    0  501    0  0.00000000000E+00  0.00000000000E+00  0.14145854026E+03  0.14145854026E+03  0.00000000000E+00 0.  1.
         -2   -1    0    0    0  501 -0.00000000000E+00 -0.00000000000E+00 -0.15341797694E+03  0.15341797694E+03  0.00000000000E+00 0. -1.
         25    2    1    2    0    0  0.79660509712E+02 -0.56092940099E+02 -0.57511120641E+01  0.15865936720E+03  0.12508998670E+03 0.  0.
          5    1    3    3  502    0  0.98874887861E+02 -0.10501844974E+01  0.55617043122E+01  0.99124927701E+02  0.41800000000E+01 0.  1.
         -5    1    3    3    0  502 -0.19214378149E+02 -0.55042755601E+02 -0.11312816376E+02  0.59534439497E+02  0.41800000000E+01 0.  1.
        -11    1    1    2    0    0  0.18233332017E+02  0.25114083822E+02  0.92437402820E+01  0.32382376952E+02  0.00000000000E+00 0. -1.
         11    1    1    2    0    0 -0.97893841729E+02  0.30978856277E+02 -0.15452064903E+02  0.10383477305E+03  0.00000000000E+00 0.  1.
</event>
<event>
 7    1  0.2670433E-009  0.1515497E+03  0.7561462E-02  0.1198582E+00
         -2   -1    0    0    0  501 -0.00000000000E+00  0.00000000000E+00  0.43175907917E+02  0.43175907917E+02  0.00000000000E+00 0.  1.
          2   -1    0    0  501    0  0.00000000000E+00 -0.00000000000E+00 -0.71830029501E+03  0.71830029501E+03  0.00000000000E+00 0. -1.
         25    2    1    2    0    0 -0.33464435900E+01  0.13844758933E+03 -0.37038025160E+03  0.41474408665E+03  0.12510872454E+03 0.  0.
          5    1    3    3  502    0 -0.21579116926E+02  0.11527969146E+03 -0.14104400445E+03  0.18348283064E+03  0.41800000000E+01 0.  1.
         -5    1    3    3    0  502  0.18232673336E+02  0.23167897865E+02 -0.22933624716E+03  0.23126125600E+03  0.41800000000E+01 0.  1.
        -11    1    1    2    0    0 -0.31366973285E+02 -0.96763809070E+02 -0.13835814978E+03  0.17172681611E+03  0.00000000000E+00 0.  1.
         11    1    1    2    0    0  0.34713416875E+02 -0.41683780259E+02 -0.16638598571E+03  0.17500530017E+03  0.00000000000E+00 0. -1.
</event>
<event>
 7    1  0.2670433E-009  0.3210695E+03  0.7561462E-02  0.1075158E+00
          2   -1    0    0  501    0  0.00000000000E+00  0.00000000000E+00  0.14480738159E+03  0.14480738159E+03  0.00000000000E+00 0. -1.
         -2   -1    0    0    0  501 -0.00000000000E+00 -0.00000000000E+00 -0.75820596159E+03  0.75820596159E+03  0.00000000000E+00 0.  1.
         25    2    1    2    0    0 -0.12674302442E+03  0.28413995475E+03 -0.25224250604E+03  0.41960953570E+03  0.12508626013E+03 0.  0.
          5    1    3    3  502    0  0.54002214817E+01  0.88616627824E+02 -0.25858513579E+02  0.92564594978E+02  0.41800000000E+01 0. -1.
         -5    1    3    3    0  502 -0.13214324590E+03  0.19552332693E+03 -0.22638399246E+03  0.32704494073E+03  0.41800000000E+01 0. -1.
        -11    1    1    2    0    0 -0.19046883092E+01 -0.50337294346E+02 -0.88854288674E+02  0.10213988279E+03  0.00000000000E+00 0.  1.
         11    1    1    2    0    0  0.12864771273E+03 -0.23380266041E+03 -0.27230178528E+03  0.38126392469E+03  0.00000000000E+00 0. -1.
</event>
<event>
 7    1  0.2670433E-009  0.1211426E+03  0.7561462E-02  0.1241224E+00
          1   -1    0    0  501    0  0.00000000000E+00  0.00000000000E+00  0.33329852594E+03  0.33329852594E+03  0.00000000000E+00 0.  1.
         -1   -1    0    0    0  501 -0.00000000000E+00 -0.00000000000E+00 -0.65193623901E+02  0.65193623901E+02  0.00000000000E+00 0. -1.
         25    2    1    2    0    0 -0.66220003796E+02 -0.59209804677E+02  0.21118328638E+03  0.26103040221E+03  0.12509036957E+03 0.  0.
          5    1    3    3  502    0  0.18335682195E+01 -0.72906647822E+02  0.59681898643E+02  0.94329967108E+02  0.41800000000E+01 0.  1.
         -5    1    3    3    0  502 -0.68053572016E+02  0.13696843145E+02  0.15150138774E+03  0.16670043510E+03  0.41800000000E+01 0.  1.
        -11    1    1    2    0    0  0.19668667295E+02  0.47907915650E+02  0.70679133754E+02  0.87621714223E+02  0.00000000000E+00 0.  1.
         11    1    1    2    0    0  0.46551336501E+02  0.11301889027E+02 -0.13757518099E+02  0.49840033406E+02  0.00000000000E+00 0. -1.
</event>
<event>
 7    1  0.2670433E-009  0.1286780E+03  0.7561462E-02  0.1229431E+00
         -2   -1    0    0    0  501 -0.00000000000E+00  0.00000000000E+00  0.95966091579E+02  0.95966091579E+02  0.00000000000E+00 0.  1.
          2   -1    0    0  501    0  0.00000000000E+00 -0.00000000000E+00 -0.26947920154E+03  0.26947920154E+03  0.00000000000E+00 0. -1.
         25    2    1    2    0    0 -0.80414055542E+02 -0.44147930036E+02 -0.52810525213E+01  0.15520615839E+03  0.12508238098E+03 0.  0.
          5    1    3    3  502    0  0.14827867194E+02  0.14679646098E+02  0.30870431138E+02  0.37494180531E+02  0.41800000000E+01 0. -1.
         -5    1    3    3    0  502 -0.95241922736E+02 -0.58827576134E+02 -0.36151483659E+02  0.11771197786E+03  0.41800000000E+01 0. -1.
        -11    1    1    2    0    0  0.91942063381E+02  0.15587658440E+02 -0.14145203489E+03  0.16942548890E+03  0.00000000000E+00 0. -1.
         11    1    1    2    0    0 -0.11528007839E+02  0.28560271596E+02 -0.26780022548E+02  0.40813645831E+02  0.00000000000E+00 0.  1.
</event>
<event>
 7    1  0.4046601E-009  0.8378109E+02  0.7561462E-02  0.1318651E+00
         -2   -1    0    0    0  501 -0.00000000000E+00  0.00000000000E+00  0.38769919641E+02  0.38769919641E+02  0.00000000000E+00 0.  1.
          2   -1    0    0  501    0  0.00000000000E+00 -0.00000000000E+00 -0.43136588897E+03  0.43136588897E+03  0.00000000000E+00 0. -1.
         25    2    1    2    0    0  0.22181172642E+02  0.27267670017E+02 -0.32904309677E+03  0.35376475844E+03  0.12507843351E+03 0.  0.
          5    1    3    3  502    0  0.72350818766E+02  0.23425360753E+01 -0.20917833259E+03  0.22138919503E+03  0.41800000000E+01 0. -1.
         -5    1    3    3    0  502 -0.50169646124E+02  0.24925133942E+02 -0.11986476419E+03  0.13237556341E+03  0.41800000000E+01 0. -1.
        -11    1    1    2    0    0 -0.13846507237E+02 -0.43858907160E+01 -0.83585308169E+02  0.84837877990E+02  0.00000000000E+00 0. -1.
         11    1    1    2    0    0 -0.83346654054E+01 -0.22881779301E+02  0.20032435614E+02  0.31533172185E+02  0.00000000000E+00 0.  1.
</event>
<event>
 7    1  0.2670433E-009  0.1405412E+03  0.7561462E-02  0.1212603E+00
          2   -1    0    0  501    0  0.00000000000E+00  0.00000000000E+00  0.20970932763E+03  0.20970932763E+03  0.00000000000E+00 0. -1.
         -2   -1    0    0    0  501 -0.00000000000E+00 -0.00000000000E+00 -0.11431899000E+03  0.11431899000E+03  0.00000000000E+00 0.  1.
         25    2    1    2    0    0 -0.90128625808E+02 -0.43413421423E+02  0.93972306014E+02  0.18570485020E+03  0.12509037829E+03 0.  0.
          5    1    3    3  502    0 -0.87194681607E+02 -0.82496389638E+02  0.63344296908E+02  0.13578858256E+03  0.41800000000E+01 0. -1.
         -5    1    3    3    0  502 -0.29339442004E+01  0.39082968215E+02  0.30628009105E+02  0.49916267637E+02  0.41800000000E+01 0. -1.
        -11    1    1    2    0    0  0.22004444598E+02  0.48486475441E+02 -0.32159818087E+02  0.62204403237E+02  0.00000000000E+00 0. -1.
         11    1    1    2    0    0  0.68124181210E+02 -0.50730540174E+01  0.33577849703E+02  0.76119064191E+02  0.00000000000E+00 0.  1.
</event>
<event>
 7    1  0.2670433E-009  0.1368453E+03  0.7561462E-02  0.1217638E+00
          2   -1    0    0  501    0  0.00000000000E+00  0.00000000000E+00  0.29637000820E+03  0.29637000820E+03  0.00000000000E+00 0. -1.
         -2   -1    0    0    0  501 -0.00000000000E+00 -0.00000000000E+00 -0.63614960069E+02  0.63614960069E+02  0.00000000000E+00 0.  1.
         25    2    1    2    0    0 -0.81442552622E+02  0.19648466310E+02  0.12727066501E+03  0.19713374733E+03  0.12507973680E+03 0.  0.
          5    1    3    3  502    0  0.32907876603E+02  0.12002675304E+02  0.37585609784E+02  0.51547483157E+02  0.41800000000E+01 0. -1.
         -5    1    3    3    0  502 -0.11435042923E+03  0.76457910064E+01  0.89685055228E+02  0.14558626417E+03  0.41800000000E+01 0. -1.
        -11    1    1    2    0    0 -0.90844096994E+01 -0.31177058002E+02  0.33119275937E+02  0.46383422511E+02  0.00000000000E+00 0.  1.
         11    1    1    2    0    0  0.90526962321E+02  0.11528591692E+02  0.72365107183E+02  0.11646779843E+03  0.00000000000E+00 0. -1.
</event>
<event>
 7    1  0.2670433E-009  0.2000656E+03  0.7561462E-02  0.1149684E+00
         -2   -1    0    0    0  501 -0.00000000000E+00  0.00000000000E+00  0.39462857727E+02  0.39462857727E+02  0.00000000000E+00 0.  1.
          2   -1    0    0  501    0  0.00000000000E+00 -0.00000000000E+00 -0.10954166066E+04  0.10954166066E+04  0.00000000000E+00 0. -1.
         25    2    1    2    0    0  0.26865881199E+02  0.17188551795E+03 -0.49889398834E+03  0.54296291578E+03  0.12508840657E+03 0.  0.
          5    1    3    3  502    0  0.32882736430E+02  0.56375939190E+01 -0.28756513535E+02  0.44243262662E+02  0.41800000000E+01 0.  1.
         -5    1    3    3    0  502 -0.60168552308E+01  0.16624792403E+03 -0.47013747480E+03  0.49871965312E+03  0.41800000000E+01 0.  1.
        -11    1    1    2    0    0  0.31476814130E+02 -0.19750490080E+02 -0.10716985535E+03  0.11342949168E+03  0.00000000000E+00 0.  1.
         11    1    1    2    0    0 -0.58342695330E+02 -0.15213502787E+03 -0.44988990518E+03  0.47848705687E+03  0.00000000000E+00 0. -1.
</event>
<event>
 7    1  0.2670433E-009  0.9950707E+02  0.7561462E-02  0.1281336E+00
          2   -1    0    0  501    0  0.00000000000E+00  0.00000000000E+00  0.16950038910E+02  0.16950038910E+02  0.00000000000E+00 0. -1.
         -2   -1    0    0    0  501 -0.00000000000E+00 -0.00000000000E+00 -0.72909533071E+03  0.72909533071E+03  0.00000000000E+00 0.  1.
         25    2    1    2    0    0 -0.62894288648E+01  0.23154684782E+02 -0.36060807869E+03  0.38243989901E+03  0.12508554512E+03 0.  0.
          5    1    3    3  502    0 -0.38580760297E+02  0.54071840683E+02 -0.29832611594E+03  0.30566024091E+03  0.41800000000E+01 0. -1.
         -5    1    3    3    0  502  0.32291331433E+02 -0.30917155902E+02 -0.62281962753E+02  0.76779658108E+02  0.41800000000E+01 0. -1.
        -11    1    1    2    0    0  0.24110597764E+02  0.25888260788E+02 -0.20556997271E+03  0.20859179431E+03  0.00000000000E+00 0. -1.
         11    1    1    2    0    0 -0.17821168899E+02 -0.49042945569E+02 -0.14596724039E+03  0.15501367630E+03  0.00000000000E+00 0.  1.
</event>
<event>
 7    1  0.2670433E-009  0.1713305E+03  0.7561462E-02  0.1176467E+00
         -2   -1    0    0    0  501 -0.00000000000E+00  0.00000000000E+00  0.10647224459E+03  0.10647224459E+03  0.00000000000E+00 0.  1.
          2   -1    0    0  501    0  0.00000000000E+00 -0.00000000000E+00 -0.28282734538E+03  0.28282734538E+03  0.00000000000E+00 0. -1.
         25    2    1    2    0    0 -0.42039420339E+02  0.12549832610E+03 -0.12343142718E+03  0.21999985983E+03  0.12508988126E+03 0.  0.
          5    1    3    3  502    0  0.33755705955E+02  0.93613411829E+02 -0.62753909734E+02  0.11772189323E+03  0.41800000000E+01 0.  1.
         -5    1    3    3    0  502 -0.75795126294E+02  0.31884914266E+02 -0.60677517450E+02  0.10227796660E+03  0.41800000000E+01 0.  1.
        -11    1    1    2    0    0  0.47903549221E+01  0.14805253068E+02 -0.68253107995E+01  0.16991994768E+02  0.00000000000E+00 0.  1.
         11    1    1    2    0    0  0.37249065416E+02 -0.14030357916E+03 -0.46098362813E+02  0.15230773537E+03  0.00000000000E+00 0. -1.
</event>
<event>
 7    1  0.2670433E-009  0.1260333E+03  0.7561462E-02  0.1233463E+00
         -1   -1    0    0    0  501 -0.00000000000E+00  0.00000000000E+00  0.46404222699E+03  0.46404222699E+03  0.00000000000E+00 0.  1.
          1   -1    0    0  501    0  0.00000000000E+00 -0.00000000000E+00 -0.57568696490E+02  0.57568696490E+02  0.00000000000E+00 0. -1.
         25    2    1    2    0    0 -0.60157145052E+02  0.75989152290E+02  0.88740053262E+02  0.18142407414E+03  0.12508662702E+03 0.  0.
          5    1    3    3  502    0 -0.12623346897E+01  0.76894749261E+02  0.94710014102E+02  0.12207315481E+03  0.41800000000E+01 0. -1.
         -5    1    3    3    0  502 -0.58894810363E+02 -0.90559697136E+00 -0.59699608403E+01  0.59350919335E+02  0.41800000000E+01 0. -1.
        -11    1    1    2    0    0 -0.22815795270E+01 -0.47177358487E+02  0.18198775699E+03  0.18801715999E+03  0.00000000000E+00 0.  1.
         11    1    1    2    0    0  0.62438724579E+02 -0.28811793803E+02  0.13574572025E+03  0.15216968935E+03  0.00000000000E+00 0. -1.
</event>
<event>
 7    1  0.2670433E-009  0.1033718E+03  0.7561462E-02  0.1273361E+00
         -1   -1    0    0    0  501 -0.00000000000E+00  0.00000000000E+00  0.48138409069E+02  0.48138409069E+02  0.00000000000E+00 0.  1.
          1   -1    0    0  501    0  0.00000000000E+00 -0.00000000000E+00 -0.27292638313E+03  0.27292638313E+03  0.00000000000E+00 0. -1.
         25    2    1    2    0    0  0.37644412481E+02 -0.62586490138E+01 -0.13716203943E+03  0.18951871529E+03  0.12509055083E+03 0.  0.
          5    1    3    3  502    0  0.15274959400E+02  0.53152777478E+02 -0.25586548137E+02  0.61079341711E+02  0.41800000000E+01 0.  1.
         -5    1    3    3    0  502  0.22369453081E+02 -0.59411426491E+02 -0.11157549129E+03  0.12843937358E+03  0.41800000000E+01 0.  1.
        -11    1    1    2    0    0  0.22225073393E+02 -0.11752631179E+02 -0.56210698710E+02  0.61576950854E+02  0.00000000000E+00 0. -1.
         11    1    1    2    0    0 -0.59869485874E+02  0.18011280193E+02 -0.31415235929E+02  0.69969126060E+02  0.00000000000E+00 0.  1.
</event>
<event>
 7    1  0.2670433E-009  0.9321265E+02  0.7561462E-02  0.1295253E+00
          2   -1    0    0  501    0  0.00000000000E+00  0.00000000000E+00  0.34258879820E+02  0.34258879820E+02  0.00000000000E+00 0. -1.
         -2   -1    0    0    0  501 -0.00000000000E+00 -0.00000000000E+00 -0.43927343989E+03  0.43927343989E+03  0.00000000000E+00 0.  1.
         25    2    1    2    0    0  0.30457949405E+02 -0.50518999242E+02 -0.23005911164E+03  0.26843147690E+03  0.12509359287E+03 0.  0.
          5    1    3    3  502    0 -0.15110038431E+02 -0.12025097257E+02  0.92128993869E+01  0.21800599545E+02  0.41800000000E+01 0.  1.
         -5    1    3    3    0  502  0.45567987836E+02 -0.38493901985E+02 -0.23927201103E+03  0.24663087736E+03  0.41800000000E+01 0.  1.
        -11    1    1    2    0    0 -0.37571974670E+02  0.73644429387E+02 -0.13999568390E+03  0.16258519850E+03  0.00000000000E+00 0.  1.
         11    1    1    2    0    0  0.71140252649E+01 -0.23125430145E+02 -0.34959764528E+02  0.42515644306E+02  0.00000000000E+00 0. -1.
</event>
<event>
 7    1  0.2670433E-009  0.9485918E+02  0.7561462E-02  0.1291494E+00
          1   -1    0    0  501    0  0.00000000000E+00  0.00000000000E+00  0.63403004011E+02  0.63403004011E+02  0.00000000000E+00 0. -1.
         -1   -1    0    0    0  501 -0.00000000000E+00 -0.00000000000E+00 -0.21092013500E+03  0.21092013500E+03  0.00000000000E+00 0.  1.
         25    2    1    2    0    0 -0.36874758399E+02 -0.13243367937E+02 -0.80382067817E+02  0.15376828908E+03  0.12509306655E+03 0.  0.
          5    1    3    3  502    0 -0.44498259017E+02  0.33428730121E+02  0.50403750937E+01  0.56039743344E+02  0.41800000000E+01 0.  1.
         -5    1    3    3    0  502  0.76235006177E+01 -0.46672098058E+02 -0.85422442911E+02  0.97728545736E+02  0.41800000000E+01 0.  1.
        -11    1    1    2    0    0  0.56679777547E+02  0.26530332589E+02 -0.72840981281E+02  0.96032620938E+02  0.00000000000E+00 0.  1.
         11    1    1    2    0    0 -0.19805019148E+02 -0.13286964652E+02  0.57059181133E+01  0.24522228990E+02  0.00000000000E+00 0. -1.
</event>
<event>
 7    1  0.2670433E-009  0.1674946E+03  0.7561462E-02  0.1180486E+00
         -1   -1    0    0    0  501 -0.00000000000E+00  0.00000000000E+00  0.87908809843E+02  0.87908809843E+02  0.00000000000E+00 0.  1.
          1   -1    0    0  501    0  0.00000000000E+00 -0.00000000000E+00 -0.38505387255E+03  0.38505387255E+03  0.00000000000E+00 0. -1.
         25    2    1    2    0    0  0.98508281801E+02  0.10711630885E+03 -0.11860516426E+03  0.22559887771E+03  0.12509949413E+03 0.  0.
          5    1    3    3  502    0  0.50949390853E+02 -0.13077150012E+02 -0.42051006327E+01  0.52933992406E+02  0.41800000000E+01 0.  1.
         -5    1    3    3    0  502  0.47558890948E+02  0.12019345886E+03 -0.11440006363E+03  0.17266488531E+03  0.41800000000E+01 0.  1.
        -11    1    1    2    0    0 -0.18232423710E+02 -0.53084833747E+02 -0.16281887366E+02  0.58442456352E+02  0.00000000000E+00 0.  1.
         11    1    1    2    0    0 -0.80275858090E+02 -0.54031475099E+02 -0.16225801109E+03  0.18892134833E+03  0.00000000000E+00 0. -1.
</event>
<event>
 7    1  0.2670433E-009  0.1100835E+03  0.7561462E-02  0.1260415E+00
          1   -1    0    0  501    0  0.00000000000E+00  0.00000000000E+00  0.48455890037E+02  0.48455890037E+02  0.00000000000E+00 0. -1.
         -1   -1    0    0    0  501 -0.00000000000E+00 -0.00000000000E+00 -0.33291743318E+03  0.33291743318E+03  0.00000000000E+00 0.  1.
         25    2    1    2    0    0  0.64935323742E+02  0.21353584945E+01 -0.16348393530E+03  0.21585866683E+03  0.12508721325E+03 0.  0.
          5    1    3    3  502    0  0.35289521731E+01 -0.38990999949E+02 -0.34377252288E+01  0.39522676215E+02  0.41800000000E+01 0. -1.
         -5    1    3    3    0  502  0.61406371569E+02  0.41126358444E+02 -0.16004621007E+03  0.17633599062E+03  0.41800000000E+01 0. -1.
        -11    1    1    2    0    0  0.15242282967E+01 -0.33321923740E+02 -0.14953859276E+02  0.36555324932E+02  0.00000000000E+00 0. -1.
         11    1    1    2    0    0 -0.66459552039E+02  0.31186565245E+02 -0.10602374857E+03  0.12895933145E+03  0.00000000000E+00 0.  1.
</event>
<event>
 7    1  0.2670433E-009  0.9395776E+02  0.7561462E-02  0.1293541E+00
          1   -1    0    0  501    0  0.00000000000E+00  0.00000000000E+00  0.30172630841E+03  0.30172630841E+03  0.00000000000E+00 0.  1.
         -1   -1    0    0    0  501 -0.00000000000E+00 -0.00000000000E+00 -0.50380103720E+02  0.50380103720E+02  0.00000000000E+00 0. -1.
         25    2    1    2    0    0 -0.57677089047E+02 -0.65644368994E+01  0.12767990180E+03  0.18793744316E+03  0.12509431157E+03 0.  0.
          5    1    3    3  502    0 -0.84919376320E+02  0.87594483254E+01  0.39250926550E+02  0.94053899678E+02  0.41800000000E+01 0.  1.
         -5    1    3    3    0  502  0.27242287272E+02 -0.15323885225E+02  0.88428975247E+02  0.93883543486E+02  0.41800000000E+01 0.  1.
        -11    1    1    2    0    0  0.29474604454E+02  0.23776101906E+02  0.18091228895E+01  0.37912112249E+02  0.00000000000E+00 0. -1.
         11    1    1    2    0    0  0.28202484594E+02 -0.17211665007E+02  0.12185718000E+03  0.12625685671E+03  0.00000000000E+00 0.  1.
</event>
<event>
 7    1  0.2670433E-009  0.1522113E+03  0.7561462E-02  0.1197782E+00
         -2   -1    0    0    0  501 -0.00000000000E+00  0.00000000000E+00  0.94960974846E+02  0.94960974846E+02  0.00000000000E+00 0.  1.
          2   -1    0    0  501    0  0.00000000000E+00 -0.00000000000E+00 -0.32420452264E+03  0.32420452264E+03  0.00000000000E+00 0. -1.
         25    2    1    2    0    0  0.10591576011E+03 -0.78935544928E+02 -0.16632740983E+03  0.24649909047E+03  0.12509206947E+03 0.  0.
          5    1    3    3  502    0  0.91843188102E+01 -0.63711706284E+02 -0.15036859042E+02  0.66235283343E+02  0.41800000000E+01 0. -1.
         -5    1    3    3    0  502  0.96731441305E+02 -0.15223838644E+02 -0.15129055079E+03  0.18026380712E+03  0.41800000000E+01 0. -1.
        -11    1    1    2    0    0 -0.87420132420E+02  0.34874198468E+02 -0.78336088294E+02  0.12245420369E+03  0.00000000000E+00 0. -1.
         11    1    1    2    0    0 -0.18495627695E+02  0.44061346460E+02  0.15419950331E+02  0.50212203337E+02  0.00000000000E+00 0.  1.
</event>
<event>
 7    1  0.2670433E-009  0.6596147E+02  0.7561462E-02  0.1374391E+00
         -1   -1    0    0    0  501 -0.00000000000E+00  0.00000000000E+00  0.20436283599E+03  0.20436283599E+03  0.00000000000E+00 0.  1.
          1   -1    0    0  501    0  0.00000000000E+00 -0.00000000000E+00 -0.84875487873E+02  0.84875487873E+02  0.00000000000E+00 0. -1.
         25    2    1    2    0    0  0.45499020857E+02 -0.32344052515E+02  0.11987785419E+03  0.18202666131E+03  0.12508679735E+03 0.  0.
          5    1    3    3  502    0  0.12205889478E+02 -0.28119530678E+02  0.13952538277E+03  0.14291429803E+03  0.41800000000E+01 0. -1.
         -5    1    3    3    0  502  0.33293131380E+02 -0.42245218366E+01 -0.19647528583E+02  0.39112363279E+02  0.41800000000E+01 0. -1.
        -11    1    1    2    0    0 -0.23532329072E+02 -0.47954745590E+01  0.40938212562E+02  0.47462662541E+02  0.00000000000E+00 0.  1.
         11    1    1    2    0    0 -0.21966691785E+02  0.37139527074E+02 -0.41328718631E+02  0.59749000016E+02  0.00000000000E+00 0. -1.
</event>
<event>
 7    1  0.2670433E-009  0.1063339E+03  0.7561462E-02  0.1267514E+00
          2   -1    0    0  501    0  0.00000000000E+00  0.00000000000E+00  0.80113080903E+03  0.80113080903E+03  0.00000000000E+00 0. -1.
         -2   -1    0    0    0  501 -0.00000000000E+00 -0.00000000000E+00 -0.23878240289E+02  0.23878240289E+02  0.00000000000E+00 0.  1.
         25    2    1    2    0    0  0.15905175284E+02 -0.83080073533E+02  0.38355116070E+03  0.41220677255E+03  0.12509059614E+03 0.  0.
          5    1    3    3  502    0 -0.21238336936E+02 -0.33292432748E+02  0.32275584217E+03  0.32518957407E+03  0.41800000000E+01 0. -1.
         -5    1    3    3    0  502  0.37143512220E+02 -0.49787640785E+02  0.60795318531E+02  0.87017198474E+02  0.41800000000E+01 0. -1.
        -11    1    1    2    0    0 -0.44520152602E+02  0.49181500506E+02  0.31980351716E+03  0.32661162497E+03  0.00000000000E+00 0. -1.
         11    1    1    2    0    0  0.28614977319E+02  0.33898573027E+02  0.73897890880E+02  0.86190651795E+02  0.00000000000E+00 0.  1.
</event>
<event>
 7    1  0.2670433E-009  0.1089146E+03  0.7561462E-02  0.1262593E+00
          1   -1    0    0  501    0  0.00000000000E+00  0.00000000000E+00  0.13484136021E+02  0.13484136021E+02  0.00000000000E+00 0. -1.
         -1   -1    0    0    0  501 -0.00000000000E+00 -0.00000000000E+00 -0.10914701434E+04  0.10914701434E+04  0.00000000000E+00 0.  1.
         25    2    1    2    0    0  0.36949237553E+01 -0.55118274840E+02 -0.60094769632E+03  0.61630951222E+03  0.12509038518E+03 0.  0.
          5    1    3    3  502    0 -0.17583800238E+02 -0.78813835871E+02 -0.55115868345E+03  0.55705850455E+03  0.41800000000E+01 0. -1.
         -5    1    3    3    0  502  0.21278723993E+02  0.23695561032E+02 -0.49789012871E+02  0.59251007671E+02  0.41800000000E+01 0. -1.
        -11    1    1    2    0    0  0.10731201576E+02 -0.23015600696E+02 -0.14698175754E+03  0.14915935643E+03  0.00000000000E+00 0.  1.
         11    1    1    2    0    0 -0.14426125331E+02  0.78133875536E+02 -0.33005655355E+03  0.33948541079E+03  0.00000000000E+00 0. -1.
</event>
<event>
 7    1  0.2670433E-009  0.1292826E+03  0.7561462E-02  0.1228524E+00
          2   -1    0    0  501    0  0.00000000000E+00  0.00000000000E+00  0.32221707014E+03  0.32221707014E+03  0.00000000000E+00 0. -1.
         -2   -1    0    0    0  501 -0.00000000000E+00 -0.00000000000E+00 -0.70395906272E+02  0.70395906272E+02  0.00000000000E+00 0.  1.
         25    2    1    2    0    0  0.99401338035E+02  0.29997191556E+02  0.12839875144E+03  0.20715679928E+03  0.12508893881E+03 0.  0.
          5    1    3    3  502    0  0.10854275591E+03 -0.13505125281E+02  0.58221801877E+02  0.12398051816E+03  0.41800000000E+01 0.  1.
         -5    1    3    3    0  502 -0.91414178730E+01  0.43502316837E+02  0.70176949566E+02  0.83176281122E+02  0.41800000000E+01 0.  1.
        -11    1    1    2    0    0 -0.75028534284E+02 -0.27690747987E+02  0.24639684124E+02  0.83684959907E+02  0.00000000000E+00 0.  1.
         11    1    1    2    0    0 -0.24372803751E+02 -0.23064435689E+01  0.98782728297E+02  0.10177121722E+03  0.00000000000E+00 0. -1.
</event>
<event>
 7    1  0.2670433E-009  0.1195331E+03  0.7561462E-02  0.1243869E+00
         -1   -1    0    0    0  501 -0.00000000000E+00  0.00000000000E+00  0.16519986850E+02  0.16519986850E+02  0.00000000000E+00 0.  1.
          1   -1    0    0  501    0  0.00000000000E+00 -0.00000000000E+00 -0.95869202017E+03  0.95869202017E+03  0.00000000000E+00 0. -1.
         25    2    1    2    0    0 -0.44216657272E+02  0.46010117336E+02 -0.59268804442E+03  0.60909681367E+03  0.12509103383E+03 0.  0.
          5    1    3    3  502    0 -0.67481206223E+01  0.83522311000E+02 -0.42409030699E+03  0.43230958173E+03  0.41800000000E+01 0. -1.
         -5    1    3    3    0  502 -0.37468536649E+02 -0.37512193663E+02 -0.16859773743E+03  0.17678723194E+03  0.41800000000E+01 0. -1.
        -11    1    1    2    0    0  0.48860990029E+02  0.64797490465E+01 -0.23461146351E+03  0.23973302298E+03  0.00000000000E+00 0. -1.
         11    1    1    2    0    0 -0.46443327573E+01 -0.52489866383E+02 -0.11487252539E+03  0.12638217037E+03  0.00000000000E+00 0.  1.
</event>
<event>
 7    1  0.2670433E-009  0.8366542E+02  0.7561462E-02  0.1318960E+00
          2   -1    0    0  501    0  0.00000000000E+00  0.00000000000E+00  0.14617777476E+03  0.14617777476E+03  0.00000000000E+00 0.  1.
         -2   -1    0    0    0  501 -0.00000000000E+00 -0.00000000000E+00 -0.11353482538E+03  0.11353482538E+03  0.00000000000E+00 0. -1.
         25    2    1    2    0    0 -0.25232865841E+02  0.29671910486E+02 -0.43934068406E+02  0.13818347905E+03  0.12508937495E+03 0.  0.
          5    1    3    3  502    0 -0.44593557415E+02  0.30895818046E+01  0.32130937734E+02  0.55208698937E+02  0.41800000000E+01 0. -1.
         -5    1    3    3    0  502  0.19360691574E+02  0.26582328681E+02 -0.76065006140E+02  0.82974780117E+02  0.41800000000E+01 0. -1.
        -11    1    1    2    0    0  0.28988632777E+02 -0.55804228172E+02  0.34150860852E+02  0.71559304141E+02  0.00000000000E+00 0. -1.
         11    1    1    2    0    0 -0.37557669358E+01  0.26132317686E+02  0.42426156932E+02  0.49969816939E+02  0.00000000000E+00 0.  1.
</event>
<event>
 7    1  0.2670433E-009  0.2544529E+03  0.7561462E-02  0.1110523E+00
         -2   -1    0    0    0  501 -0.00000000000E+00  0.00000000000E+00  0.75649774904E+02  0.75649774904E+02  0.00000000000E+00 0.  1.
          2   -1    0    0  501    0  0.00000000000E+00 -0.00000000000E+00 -0.92943953675E+03  0.92943953675E+03  0.00000000000E+00 0. -1.
         25    2    1    2    0    0  0.13931203419E+03  0.20001905316E+03 -0.53669176488E+03  0.60257895788E+03  0.12509150848E+03 0.  0.
          5    1    3    3  502    0  0.94003253834E+02  0.46485321130E+02 -0.14148259517E+03  0.17615985339E+03  0.41800000000E+01 0. -1.
         -5    1    3    3    0  502  0.45308780356E+02  0.15353373203E+03 -0.39520916971E+03  0.42641910449E+03  0.41800000000E+01 0. -1.
        -11    1    1    2    0    0 -0.95029135531E+02 -0.14101272810E+03 -0.18551229670E+03  0.25165440253E+03  0.00000000000E+00 0. -1.
         11    1    1    2    0    0 -0.44282898658E+02 -0.59006325059E+02 -0.13158570027E+03  0.15085595125E+03  0.00000000000E+00 0.  1.
</event>
<event>
 7    1  0.2670433E-009  0.1316920E+03  0.7561462E-02  0.1224967E+00
          1   -1    0    0  501    0  0.00000000000E+00  0.00000000000E+00  0.86023882480E+03  0.86023882480E+03  0.00000000000E+00 0. -1.
         -1   -1    0    0    0  501 -0.00000000000E+00 -0.00000000000E+00 -0.22602537620E+02  0.22602537620E+02  0.00000000000E+00 0.  1.
         25    2    1    2    0    0  0.28263446489E+02  0.74554640647E+02  0.57643567898E+03  0.59521754515E+03  0.12509443317E+03 0.  0.
          5    1    3    3  502    0  0.73609070192E+02  0.25638004239E+02  0.24586265409E+03  0.25795642956E+03  0.41800000000E+01 0. -1.
         -5    1    3    3    0  502 -0.45345623703E+02  0.48916636408E+02  0.33057302489E+03  0.33726111559E+03  0.41800000000E+01 0. -1.
        -11    1    1    2    0    0  0.21475848930E+02  0.73247001549E+01  0.32205778216E+02  0.39396389049E+02  0.00000000000E+00 0. -1.
         11    1    1    2    0    0 -0.49739295419E+02 -0.81879340802E+02  0.22899482999E+03  0.24822742822E+03  0.00000000000E+00 0.  1.
</event>
<event>
 7    1  0.2670433E-009  0.9725852E+02  0.7561462E-02  0.1286169E+00
          1   -1    0    0  501    0  0.00000000000E+00  0.00000000000E+00  0.31457307916E+02  0.31457307916E+02  0.00000000000E+00 0. -1.
         -1   -1    0    0    0  501 -0.00000000000E+00 -0.00000000000E+00 -0.36217163806E+03  0.36217163806E+03  0.00000000000E+00 0.  1.
         25    2    1    2    0    0  0.34272460158E+02  0.93983854092E+01 -0.21326128407E+03  0.24978039465E+03  0.12508772561E+03 0.  0.
          5    1    3    3  502    0  0.42146939161E+02 -0.50839206834E+02 -0.84321682266E+02  0.10718492400E+03  0.41800000000E+01 0. -1.
         -5    1    3    3    0  502 -0.78744790028E+01  0.60237592244E+02 -0.12893960180E+03  0.14259547066E+03  0.41800000000E+01 0. -1.
        -11    1    1    2    0    0 -0.15833763994E+02  0.24321478858E+02 -0.11633695388E+02  0.31266360269E+02  0.00000000000E+00 0. -1.
         11    1    1    2    0    0 -0.18438696164E+02 -0.33719864268E+02 -0.10581935068E+03  0.11258219105E+03  0.00000000000E+00 0.  1.
</event>
<event>
 7    1  0.2670433E-009  0.1523504E+03  0.7561462E-02  0.1197614E+00
          2   -1    0    0  501    0  0.00000000000E+00  0.00000000000E+00  0.10080505493E+03  0.10080505493E+03  0.00000000000E+00 0.  1.
         -2   -1    0    0    0  501 -0.00000000000E+00 -0.00000000000E+00 -0.24793379709E+03  0.24793379709E+03  0.00000000000E+00 0. -1.
         25    2    1    2    0    0  0.81733318043E+02 -0.80800290536E+02 -0.10492686299E+03  0.19966647851E+03  0.12509210140E+03 0.  0.
          5    1    3    3  502    0  0.22973754128E+02 -0.10397162320E+03 -0.64740470561E+02  0.12468637751E+03  0.41800000000E+01 0.  1.
         -5    1    3    3    0  502  0.58759563915E+02  0.23171332659E+02 -0.40186392429E+02  0.74980100995E+02  0.41800000000E+01 0.  1.
        -11    1    1    2    0    0 -0.40995548138E+02 -0.35666519077E+01 -0.36839771745E+02  0.55231555791E+02  0.00000000000E+00 0. -1.
         11    1    1    2    0    0 -0.40737769905E+02  0.84366942443E+02 -0.53621074285E+01  0.93840817719E+02  0.00000000000E+00 0.  1.
</event>
<event>
 7    1  0.2670433E-009  0.1385255E+03  0.7561462E-02  0.1215327E+00
          1   -1    0    0  501    0  0.00000000000E+00  0.00000000000E+00  0.52104302615E+02  0.52104302615E+02  0.00000000000E+00 0. -1.
         -1   -1    0    0    0  501 -0.00000000000E+00 -0.00000000000E+00 -0.40096112248E+03  0.40096112248E+03  0.00000000000E+00 0.  1.
         25    2    1    2    0    0 -0.47482996852E+02 -0.81584655454E+02 -0.19871412808E+03  0.25307338263E+03  0.12509253095E+03 0.  0.
          5    1    3    3  502    0 -0.72189971494E+02 -0.95422733679E+02 -0.18721540273E+03  0.22222504248E+03  0.41800000000E+01 0. -1.
         -5    1    3    3    0  502  0.24706974642E+02  0.13838078225E+02 -0.11498725352E+02  0.30848340144E+02  0.41800000000E+01 0. -1.
        -11    1    1    2    0    0 -0.25225044631E+02  0.31756944494E+02 -0.27660121852E+02  0.49090617648E+02  0.00000000000E+00 0. -1.
         11    1    1    2    0    0  0.72708041483E+02  0.49827710960E+02 -0.12248256993E+03  0.15090142482E+03  0.00000000000E+00 0.  1.
</event>
<event>
 7    1  0.2670433E-009  0.6585942E+02  0.7561462E-02  0.1374768E+00
          2   -1    0    0  501    0  0.00000000000E+00  0.00000000000E+00  0.94515452424E+02  0.94515452424E+02  0.00000000000E+00 0. -1.
         -2   -1    0    0    0  501 -0.00000000000E+00 -0.00000000000E+00 -0.13281679007E+03  0.13281679007E+03  0.00000000000E+00 0.  1.
         25    2    1    2    0    0  0.24353229129E+02 -0.27231567725E+01 -0.91538013138E+01  0.12779815632E+03  0.12509229125E+03 0.  0.
          5    1    3    3  502    0 -0.27231081126E+02 -0.76154975182E+01 -0.52721451179E+02  0.59971254749E+02  0.41800000000E+01 0. -1.
         -5    1    3    3    0  502  0.51584310256E+02  0.48923407457E+01  0.43567649865E+02  0.67826901575E+02  0.41800000000E+01 0. -1.
        -11    1    1    2    0    0 -0.21743729787E+02  0.22449499864E+02  0.26159514129E+02  0.40756471985E+02  0.00000000000E+00 0. -1.
         11    1    1    2    0    0 -0.26094993425E+01 -0.19726343091E+02 -0.55307050465E+02  0.58777614189E+02  0.00000000000E+00 0.  1.
</event>
<event>
 7    1  0.2670433E-009  0.1294447E+03  0.7561462E-02  0.1228282E+00
         -1   -1    0    0    0  501 -0.00000000000E+00  0.00000000000E+00  0.87759609114E+02  0.87759609114E+02  0.00000000000E+00 0.  1.
          1   -1    0    0  501    0  0.00000000000E+00 -0.00000000000E+00 -0.24860663914E+03  0.24860663914E+03  0.00000000000E+00 0. -1.
         25    2    1    2    0    0  0.56828078747E+02  0.52300911575E+02 -0.12180084504E+02  0.14750275919E+03  0.12507555167E+03 0.  0.
          5    1    3    3  502    0 -0.31243685226E+02  0.45893955742E+02 -0.19018329185E+02  0.58835297952E+02  0.41800000000E+01 0.  1.
         -5    1    3    3    0  502  0.88071763973E+02  0.64069558328E+01  0.68382446806E+01  0.88667461239E+02  0.41800000000E+01 0.  1.
        -11    1    1    2    0    0 -0.26835143577E+02  0.21988944177E+02 -0.31088351543E+02  0.46584591857E+02  0.00000000000E+00 0.  1.
         11    1    1    2    0    0 -0.29992935170E+02 -0.74289855752E+02 -0.11757859398E+03  0.14227889720E+03  0.00000000000E+00 0. -1.
</event>
<event>
 7    1  0.2670433E-009  0.1029172E+03  0.7561462E-02  0.1274278E+00
         -2   -1    0    0    0  501 -0.00000000000E+00  0.00000000000E+00  0.23446975292E+03  0.23446975292E+03  0.00000000000E+00 0.  1.
          2   -1    0    0  501    0  0.00000000000E+00 -0.00000000000E+00 -0.50592913422E+02  0.50592913422E+02  0.00000000000E+00 0. -1.
         25    2    1    2    0    0  0.37440933862E+01 -0.12600744233E+02  0.10189692964E+03  0.16187411967E+03  0.12508976520E+03 0.  0.
          5    1    3    3  502    0 -0.92674204195E+00  0.50544110878E+02  0.12494467250E+02  0.52241268238E+02  0.41800000000E+01 0.  1.
         -5    1    3    3    0  502  0.46708354282E+01 -0.63144855111E+02  0.89402462394E+02  0.10963285143E+03  0.41800000000E+01 0.  1.
        -11    1    1    2    0    0  0.91662777480E+01 -0.38176349155E+02  0.40038469503E+02  0.56076138621E+02  0.00000000000E+00 0.  1.
         11    1    1    2    0    0 -0.12910371134E+02  0.50777093388E+02  0.41941440348E+02  0.67112408049E+02  0.00000000000E+00 0. -1.
</event>
<event>
 7    1  0.2670433E-009  0.1200670E+03  0.7561462E-02  0.1242987E+00
         -2   -1    0    0    0  501 -0.00000000000E+00  0.00000000000E+00  0.78033559984E+02  0.78033559984E+02  0.00000000000E+00 0.  1.
          2   -1    0    0  501    0  0.00000000000E+00 -0.00000000000E+00 -0.28468807508E+03  0.28468807508E+03  0.00000000000E+00 0. -1.
         25    2    1    2    0    0  0.47630532891E+02  0.84086993459E+02 -0.15821950694E+03  0.22365033607E+03  0.12508705096E+03 0.  0.
          5    1    3    3  502    0  0.67697938850E+02  0.40650612736E+02 -0.26420733869E+02  0.83372722268E+02  0.41800000000E+01 0.  1.
         -5    1    3    3    0  502 -0.20067405959E+02  0.43436380724E+02 -0.13179877307E+03  0.14027761381E+03  0.41800000000E+01 0.  1.
        -11    1    1    2    0    0  0.12254551006E+02 -0.37269438325E+01  0.15566537845E+02  0.20158899552E+02  0.00000000000E+00 0.  1.
         11    1    1    2    0    0 -0.59885083896E+02 -0.80360049627E+02 -0.64001546001E+02  0.11891239944E+03  0.00000000000E+00 0. -1.
</event>
<event>
 7    1  0.2670433E-009  0.2229679E+03  0.7561462E-02  0.1131690E+00
         -1   -1    0    0    0  501 -0.00000000000E+00  0.00000000000E+00  0.61553104670E+02  0.61553104670E+02  0.00000000000E+00 0.  1.
          1   -1    0    0  501    0  0.00000000000E+00 -0.00000000000E+00 -0.93157236759E+03  0.93157236759E+03  0.00000000000E+00 0. -1.
         25    2    1    2    0    0  0.64695894099E+02  0.19634399634E+03 -0.55889520829E+03  0.60889072312E+03  0.12509010850E+03 0.  0.
          5    1    3    3  502    0 -0.17947671316E+02  0.18039588120E+02 -0.13405632021E+02  0.29064222251E+02  0.41800000000E+01 0. -1.
         -5    1    3    3    0  502  0.82643565415E+02  0.17830440822E+03 -0.54548957627E+03  0.57982650087E+03  0.41800000000E+01 0. -1.
        -11    1    1    2    0    0  0.20452823780E+02 -0.53555234559E+02 -0.59277598822E+02  0.82464021678E+02  0.00000000000E+00 0.  1.
         11    1    1    2    0    0 -0.85148717880E+02 -0.14278876178E+03 -0.25184645580E+03  0.30177072745E+03  0.00000000000E+00 0. -1.
</event>
<event>
 7    1  0.2670433E-009  0.9202310E+02  0.7561462E-02  0.1298025E+00
         -2   -1    0    0    0  501 -0.00000000000E+00  0.00000000000E+00  0.68627961448E+02  0.68627961448E+02  0.00000000000E+00 0.  1.
          2   -1    0    0  501    0  0.00000000000E+00 -0.00000000000E+00 -0.49572622334E+03  0.49572622334E+03  0.00000000000E+00 0. -1.
         25    2    1    2    0    0 -0.41802633239E+02 -0.34530584860E+02 -0.43733115461E+03  0.45808903914E+03  0.12508879864E+03 0.  0.
          5    1    3    3  502    0  0.32685072010E+02  0.17680496775E+02 -0.20811090061E+03  0.21144392460E+03  0.41800000000E+01 0. -1.
         -5    1    3    3    0  502 -0.74487705248E+02 -0.52211081635E+02 -0.22922025401E+03  0.24664511454E+03  0.41800000000E+01 0. -1.
        -11    1    1    2    0    0  0.31834578921E+02  0.18808556516E+02 -0.38932768816E+02  0.53693227701E+02  0.00000000000E+00 0. -1.
         11    1    1    2    0    0  0.99680543176E+01  0.15722028344E+02  0.49165661539E+02  0.52571917948E+02  0.00000000000E+00 0.  1.
</event>
<event>
 7    1  0.2670433E-009  0.1251338E+03  0.7561462E-02  0.1234860E+00
         -3   -1    0    0    0  501 -0.00000000000E+00  0.00000000000E+00  0.12998279884E+03  0.12998279884E+03  0.00000000000E+00 0.  1.
          3   -1    0    0  501    0  0.00000000000E+00 -0.00000000000E+00 -0.12292218403E+03  0.12292218403E+03  0.00000000000E+00 0. -1.
         25    2    1    2    0    0  0.31546147471E+02  0.56698506222E+02  0.11639311632E+01  0.14092137629E+03  0.12509036546E+03 0.  0.
          5    1    3    3  502    0  0.45315784464E+01 -0.39977350020E+02  0.19550532357E+00  0.40450393573E+02  0.41800000000E+01 0. -1.
         -5    1    3    3    0  502  0.27014569025E+02  0.96675856242E+02  0.96842583962E+00  0.10047098272E+03  0.41800000000E+01 0. -1.
        -11    1    1    2    0    0  0.13708696574E+02  0.17628376942E+02 -0.82788509896E+01  0.23816536463E+02  0.00000000000E+00 0. -1.
         11    1    1    2    0    0 -0.45254844045E+02 -0.74326883164E+02  0.14175534630E+02  0.88167070114E+02  0.00000000000E+00 0.  1.
</event>
<event>
 7    1  0.2670433E-009  0.1914052E+03  0.7561462E-02  0.1157200E+00
         -3   -1    0    0    0  501 -0.00000000000E+00  0.00000000000E+00  0.78647646635E+02  0.78647646635E+02  0.00000000000E+00 0.  1.
          3   -1    0    0  501    0  0.00000000000E+00 -0.00000000000E+00 -0.52042666060E+03  0.52042666060E+03  0.00000000000E+00 0. -1.
         25    2    1    2    0    0 -0.16398217139E+03  0.15345799539E+02 -0.29831197220E+03  0.36299131167E+03  0.12508802297E+03 0.  0.
          5    1    3    3  502    0 -0.96783617817E+02 -0.52263373380E+02 -0.18013681052E+03  0.21110488336E+03  0.41800000000E+01 0.  1.
         -5    1    3    3    0  502 -0.67198553572E+02  0.67609172919E+02 -0.11817516168E+03  0.15188642830E+03  0.41800000000E+01 0.  1.
        -11    1    1    2    0    0  0.11248995114E+03  0.20817184324E+02 -0.12723135941E+03  0.17109986291E+03  0.00000000000E+00 0. -1.
         11    1    1    2    0    0  0.51492220254E+02 -0.36162983863E+02 -0.16235682350E+02  0.64983132657E+02  0.00000000000E+00 0.  1.
</event>
<event>
 7    1  0.2670433E-009  0.2680606E+03  0.7561462E-02  0.1102395E+00
         -2   -1    0    0    0  501 -0.00000000000E+00  0.00000000000E+00  0.61786484193E+03  0.61786484193E+03  0.00000000000E+00 0.  1.
          2   -1    0    0  501    0  0.00000000000E+00 -0.00000000000E+00 -0.14398605807E+03  0.14398605807E+03  0.00000000000E+00 0. -1.
         25    2    1    2    0    0  0.16305456555E+03 -0.19619955562E+03  0.38478452511E+03  0.47831788243E+03  0.12509120242E+03 0.  0.
          5    1    3    3  502    0  0.77795562873E+02 -0.21158711173E+02  0.63890539038E+02  0.10295297004E+03  0.41800000000E+01 0. -1.
         -5    1    3    3    0  502  0.85259002675E+02 -0.17504084444E+03  0.32089398607E+03  0.37536491239E+03  0.41800000000E+01 0. -1.
        -11    1    1    2    0    0 -0.20988079846E+02  0.61075007055E+02  0.54362785234E+02  0.84415451197E+02  0.00000000000E+00 0.  1.
         11    1    1    2    0    0 -0.14206648570E+03  0.13512454856E+03  0.34731473522E+02  0.19911756637E+03  0.00000000000E+00 0. -1.
</event>
<event>
 7    1  0.2670433E-009  0.2529285E+03  0.7561462E-02  0.1111468E+00
          1   -1    0    0  501    0  0.00000000000E+00  0.00000000000E+00  0.13906721331E+04  0.13906721331E+04  0.00000000000E+00 0. -1.
         -1   -1    0    0    0  501 -0.00000000000E+00 -0.00000000000E+00 -0.51637734304E+02  0.51637734304E+02  0.00000000000E+00 0.  1.
         25    2    1    2    0    0  0.24035676908E+03  0.19745211979E+01  0.78916595505E+03  0.83438722808E+03  0.12507544364E+03 0.  0.
          5    1    3    3  502    0 -0.56224340439E+01  0.14762717738E+02  0.12394051004E+03  0.12501308743E+03  0.41800000000E+01 0. -1.
         -5    1    3    3    0  502  0.24597920312E+03 -0.12788196540E+02  0.66522544501E+03  0.70937414065E+03  0.41800000000E+01 0. -1.
        -11    1    1    2    0    0 -0.17003786541E+03  0.15405629712E+02  0.47024781961E+03  0.50028314078E+03  0.00000000000E+00 0.  1.
         11    1    1    2    0    0 -0.70318903662E+02 -0.17380150910E+02  0.79620624122E+02  0.10763949853E+03  0.00000000000E+00 0. -1.
</event>
<event>
 7    1  0.2670433E-009  0.1702034E+03  0.7561462E-02  0.1177636E+00
         -1   -1    0    0    0  501 -0.00000000000E+00  0.00000000000E+00  0.77054342408E+02  0.77054342408E+02  0.00000000000E+00 0.  1.
          1   -1    0    0  501    0  0.00000000000E+00 -0.00000000000E+00 -0.48255031649E+03  0.48255031649E+03  0.00000000000E+00 0. -1.
         25    2    1    2    0    0 -0.14214091087E+03 -0.23278099663E+02 -0.11547116321E+03  0.22299514375E+03  0.12508931263E+03 0.  0.
          5    1    3    3  502    0 -0.43338939130E+02 -0.51705611988E+02 -0.97349445671E+02  0.11851633191E+03  0.41800000000E+01 0. -1.
         -5    1    3    3    0  502 -0.98801971741E+02  0.28427512325E+02 -0.18121717537E+02  0.10447881184E+03  0.41800000000E+01 0. -1.
        -11    1    1    2    0    0  0.12038684287E+03 -0.19469546693E+02 -0.22335253536E+03  0.25447673810E+03  0.00000000000E+00 0. -1.
         11    1    1    2    0    0  0.21754068006E+02  0.42747646356E+02 -0.66672275517E+02  0.82132777053E+02  0.00000000000E+00 0.  1.
</event>
<event>
 7    1  0.2670433E-009  0.1004384E+03  0.7561462E-02  0.1279377E+00
         -1   -1    0    0    0  501 -0.00000000000E+00  0.00000000000E+00  0.26446841692E+02  0.26446841692E+02  0.00000000000E+00 0.  1.
          1   -1    0    0  501    0  0.00000000000E+00 -0.00000000000E+00 -0.47361983337E+03  0.47361983337E+03  0.00000000000E+00 0. -1.
         25    2    1    2    0    0 -0.22011876856E+02 -0.73213426438E+01 -0.26424099461E+03  0.29327267641E+03  0.12508970668E+03 0.  0.
          5    1    3    3  502    0 -0.71041476830E+02  0.92063700787E-01 -0.10833976436E+03  0.12962205386E+03  0.41800000000E+01 0.  1.
         -5    1    3    3    0  502  0.49029599974E+02 -0.74134063446E+01 -0.15590123025E+03  0.16365062255E+03  0.41800000000E+01 0.  1.
        -11    1    1    2    0    0  0.48453521513E+02 -0.84161204443E+01 -0.49188149228E+02  0.69556084240E+02  0.00000000000E+00 0.  1.
         11    1    1    2    0    0 -0.26441644657E+02  0.15737463088E+02 -0.13374384784E+03  0.13723791441E+03  0.00000000000E+00 0. -1.
</event>
<event>
 7    1  0.2670433E-009  0.2137545E+03  0.7561462E-02  0.1138627E+00
         -1   -1    0    0    0  501 -0.00000000000E+00  0.00000000000E+00  0.57089865034E+03  0.57089865034E+03  0.00000000000E+00 0.  1.
          1   -1    0    0  501    0  0.00000000000E+00 -0.00000000000E+00 -0.84017318944E+02  0.84017318944E+02  0.00000000000E+00 0. -1.
         25    2    1    2    0    0  0.10497854203E+03  0.15760056728E+03  0.29028427597E+03  0.36847136888E+03  0.12509098972E+03 0.  0.
          5    1    3    3  502    0  0.11641316206E+03  0.17196053495E+03  0.27193497921E+03  0.34218204979E+03  0.41800000000E+01 0.  1.
         -5    1    3    3    0  502 -0.11434620023E+02 -0.14359967666E+02  0.18349296759E+02  0.26289319085E+02  0.41800000000E+01 0.  1.
        -11    1    1    2    0    0 -0.41607682027E+02 -0.13800309491E+02  0.78353653777E+02  0.89782753388E+02  0.00000000000E+00 0.  1.
         11    1    1    2    0    0 -0.63370860008E+02 -0.14380025779E+03  0.11824340164E+03  0.19666184702E+03  0.00000000000E+00 0. -1.
</event>
<event>
 7    1  0.2670433E-009  0.1129865E+03  0.7561462E-02  0.1255137E+00
          2   -1    0    0  501    0  0.00000000000E+00  0.00000000000E+00  0.64862446810E+03  0.64862446810E+03  0.00000000000E+00 0.  1.
         -2   -1    0    0    0  501 -0.00000000000E+00 -0.00000000000E+00 -0.21901586938E+02  0.21901586938E+02  0.00000000000E+00 0. -1.
         25    2    1    2    0    0 -0.42863432991E+02 -0.28295673034E+02  0.39923262169E+03  0.42151159829E+03  0.12508965694E+03 0.  0.
          5    1    3    3  502    0 -0.40008196537E+02  0.44101478227E+02  0.22465637863E+03  0.23245119280E+03  0.41800000000E+01 0.  1.
         -5    1    3    3    0  502 -0.28552364535E+01 -0.72397151261E+02  0.17457624305E+03  0.18906040549E+03  0.41800000000E+01 0.  1.
        -11    1    1    2    0    0  0.65606858032E+02  0.26943753663E+02  0.12222991793E+03  0.14131658968E+03  0.00000000000E+00 0. -1.
         11    1    1    2    0    0 -0.22743425041E+02  0.13519193711E+01  0.10526034154E+03  0.10769786707E+03  0.00000000000E+00 0.  1.
</event>
<event>
 7    1  0.2670433E-009  0.1171771E+03  0.7561462E-02  0.1247828E+00
          1   -1    0    0  501    0  0.00000000000E+00  0.00000000000E+00  0.28792666222E+02  0.28792666222E+02  0.00000000000E+00 0. -1.
         -1   -1    0    0    0  501 -0.00000000000E+00 -0.00000000000E+00 -0.67510134914E+03  0.67510134914E+03  0.00000000000E+00 0.  1.
         25    2    1    2    0    0 -0.81161412393E+02  0.31564712699E+02 -0.37782519495E+03  0.40740974106E+03  0.12508922107E+03 0.  0.
          5    1    3    3  502    0 -0.38308438438E+02  0.52900501623E+02 -0.34003800360E+03  0.34627924544E+03  0.41800000000E+01 0.  1.
         -5    1    3    3    0  502 -0.42852973955E+02 -0.21335788924E+02 -0.37787191345E+02  0.61130495627E+02  0.41800000000E+01 0.  1.
        -11    1    1    2    0    0  0.68647861969E+01  0.25983945901E+02 -0.10015940344E+03  0.10370244371E+03  0.00000000000E+00 0.  1.
         11    1    1    2    0    0  0.74296626196E+02 -0.57548658600E+02 -0.16832408453E+03  0.19278183059E+03  0.00000000000E+00 0. -1.
</event>
<event>
 7    1  0.3315788E-009  0.8807019E+02  0.7561462E-02  0.1307593E+00
          1   -1    0    0  501    0  0.00000000000E+00  0.00000000000E+00  0.78476492936E+03  0.78476492936E+03  0.00000000000E+00 0. -1.
         -1   -1    0    0    0  501 -0.00000000000E+00 -0.00000000000E+00 -0.20943125937E+02  0.20943125937E+02  0.00000000000E+00 0.  1.
         25    2    1    2    0    0  0.30808337687E+02  0.53811017992E+02  0.33101397315E+03  0.35925358945E+03  0.12509241297E+03 0.  0.
          5    1    3    3  502    0  0.12651984231E+02  0.31574530836E+01  0.29280772316E+03  0.29312774921E+03  0.41800000000E+01 0.  1.
         -5    1    3    3    0  502  0.18156353457E+02  0.50653564908E+02  0.38206249983E+02  0.66125840233E+02  0.41800000000E+01 0.  1.
        -11    1    1    2    0    0  0.20700757315E+02 -0.53066248044E+02  0.19605400938E+03  0.20416102133E+03  0.00000000000E+00 0.  1.
         11    1    1    2    0    0 -0.51509095002E+02 -0.74476994753E+00  0.23675382090E+03  0.24229344453E+03  0.00000000000E+00 0. -1.
</event>
<event>
 7    1  0.2670433E-009  0.1003609E+03  0.7561462E-02  0.1279539E+00
         -2   -1    0    0    0  501 -0.00000000000E+00  0.00000000000E+00  0.74526883730E+02  0.74526883730E+02  0.00000000000E+00 0.  1.
          2   -1    0    0  501    0  0.00000000000E+00 -0.00000000000E+00 -0.18629482878E+03  0.18629482878E+03  0.00000000000E+00 0. -1.
         25    2    1    2    0    0 -0.40877935172E+02  0.17106822677E+02 -0.75785327103E+02  0.15281972226E+03  0.12508718056E+03 0.  0.
          5    1    3    3  502    0  0.15531045878E+02 -0.45415966705E+02 -0.31749649064E+02  0.57700398903E+02  0.41800000000E+01 0.  1.
         -5    1    3    3    0  502 -0.56408981050E+02  0.62522789383E+02 -0.44035678039E+02  0.95119323356E+02  0.41800000000E+01 0.  1.
        -11    1    1    2    0    0  0.78503347674E+01 -0.31308982185E+02 -0.57617316524E+02  0.66042677754E+02  0.00000000000E+00 0. -1.
         11    1    1    2    0    0  0.33027600405E+02  0.14202159508E+02  0.21634698574E+02  0.41959312501E+02  0.00000000000E+00 0.  1.
</event>
<event>
 7    1  0.2670433E-009  0.8711969E+02  0.7561462E-02  0.1309981E+00
          2   -1    0    0  501    0  0.00000000000E+00  0.00000000000E+00  0.13318173128E+04  0.13318173128E+04  0.00000000000E+00 0. -1.
         -2   -1    0    0    0  501 -0.00000000000E+00 -0.00000000000E+00 -0.12665003413E+02  0.12665003413E+02  0.00000000000E+00 0.  1.
         25    2    1    2    0    0 -0.50619402244E+02 -0.32041515759E+02  0.94327249594E+03  0.95341404994E+03  0.12508543643E+03 0.  0.
          5    1    3    3  502    0 -0.17241653924E+02  0.11507090069E+02  0.22055246648E+02  0.30554771421E+02  0.41800000000E+01 0.  1.
         -5    1    3    3    0  502 -0.33377748320E+02 -0.43548605827E+02  0.92121724929E+03  0.92285927852E+03  0.41800000000E+01 0.  1.
        -11    1    1    2    0    0 -0.20545756768E+02  0.13297437474E+02  0.37508067954E+02  0.44786215806E+02  0.00000000000E+00 0.  1.
         11    1    1    2    0    0  0.71165159012E+02  0.18744078285E+02  0.33837174545E+03  0.34628205042E+03  0.00000000000E+00 0. -1.
</event>
<event>
 7    1  0.2670433E-009  0.1540512E+03  0.7561462E-02  0.1195581E+00
          2   -1    0    0  501    0  0.00000000000E+00  0.00000000000E+00  0.40256084859E+03  0.40256084859E+03  0.00000000000E+00 0. -1.
         -2   -1    0    0    0  501 -0.00000000000E+00 -0.00000000000E+00 -0.72415225715E+02  0.72415225715E+02  0.00000000000E+00 0.  1.
         25    2    1    2    0    0 -0.71823932733E+02  0.10946314919E+03  0.18395797730E+03  0.25812683931E+03  0.12509224363E+03 0.  0.
          5    1    3    3  502    0  0.25107682737E+02 -0.45286789006E+01  0.78973747964E+01  0.27032306481E+02  0.41800000000E+01 0. -1.
         -5    1    3    3    0  502 -0.96931615469E+02  0.11399182809E+03  0.17606060250E+03  0.23109453283E+03  0.41800000000E+01 0. -1.
        -11    1    1    2    0    0  0.56368727948E+02 -0.68102745380E+02  0.31321891037E+02  0.93789542471E+02  0.00000000000E+00 0.  1.
         11    1    1    2    0    0  0.15455204784E+02 -0.41360403813E+02  0.11486575454E+03  0.12305969252E+03  0.00000000000E+00 0. -1.
</event>
<event>
 7    1  0.2670433E-009  0.1510649E+03  0.7561462E-02  0.1199171E+00
          2   -1    0    0  501    0  0.00000000000E+00  0.00000000000E+00  0.38653601955E+03  0.38653601955E+03  0.00000000000E+00 0. -1.
         -2   -1    0    0    0  501 -0.00000000000E+00 -0.00000000000E+00 -0.66061920148E+02  0.66061920148E+02  0.00000000000E+00 0.  1.
         25    2    1    2    0    0  0.38410740299E+02  0.10638448394E+03  0.21089490565E+03  0.27003218620E+03  0.12509067495E+03 0.  0.
          5    1    3    3  502    0 -0.19699212439E+02  0.99647313331E+02  0.90481745718E+02  0.13609579249E+03  0.41800000000E+01 0. -1.
         -5    1    3    3    0  502  0.58109952738E+02  0.67371706091E+01  0.12041315993E+03  0.13393639371E+03  0.41800000000E+01 0. -1.
        -11    1    1    2    0    0  0.15504493414E+02 -0.80560511228E+02  0.41411086503E+02  0.91898114076E+02  0.00000000000E+00 0.  1.
         11    1    1    2    0    0 -0.53915233713E+02 -0.25823972712E+02  0.68168107249E+02  0.90667639425E+02  0.00000000000E+00 0. -1.
</event>
<event>
 7    1  0.2670433E-009  0.1119407E+03  0.7561462E-02  0.1257018E+00
         -1   -1    0    0    0  501 -0.00000000000E+00  0.00000000000E+00  0.52990852036E+02  0.52990852036E+02  0.00000000000E+00 0.  1.
          1   -1    0    0  501    0  0.00000000000E+00 -0.00000000000E+00 -0.34790557724E+03  0.34790557724E+03  0.00000000000E+00 0. -1.
         25    2    1    2    0    0  0.14787228158E+02 -0.77596360176E+02 -0.19576196079E+03  0.24537734157E+03  0.12508971674E+03 0.  0.
          5    1    3    3  502    0 -0.53460652107E+02 -0.28888902811E+02 -0.10756649781E+03  0.12361486108E+03  0.41800000000E+01 0. -1.
         -5    1    3    3    0  502  0.68247880265E+02 -0.48707457365E+02 -0.88195462987E+02  0.12176248049E+03  0.41800000000E+01 0. -1.
        -11    1    1    2    0    0 -0.11075961461E+02  0.52922093394E+02 -0.82520180676E+00  0.54075002076E+02  0.00000000000E+00 0.  1.
         11    1    1    2    0    0 -0.37112666967E+01  0.24674266782E+02 -0.98327562604E+02  0.10144408563E+03  0.00000000000E+00 0. -1.
</event>
<event>
 7    1  0.2670433E-009  0.2089125E+03  0.7561462E-02  0.1142430E+00
          1   -1    0    0  501    0  0.00000000000E+00  0.00000000000E+00  0.12215487606E+04  0.12215487606E+04  0.00000000000E+00 0. -1.
         -1   -1    0    0    0  501 -0.00000000000E+00 -0.00000000000E+00 -0.41507549223E+02  0.41507549223E+02  0.00000000000E+00 0.  1.
         25    2    1    2    0    0  0.44942820547E+02  0.18287191673E+03  0.79293250987E+03  0.82453094771E+03  0.12508926202E+03 0.  0.
          5    1    3    3  502    0  0.36526121844E+02 -0.57532953067E+01  0.12906659546E+03  0.13432392359E+03  0.41800000000E+01 0. -1.
         -5    1    3    3    0  502  0.84166987022E+01  0.18862521204E+03  0.66386591441E+03  0.69020702412E+03  0.41800000000E+01 0. -1.
        -11    1    1    2    0    0 -0.37527936156E+02 -0.77363794953E+02  0.96412721272E+02  0.12918558582E+03  0.00000000000E+00 0.  1.
         11    1    1    2    0    0 -0.74148843908E+01 -0.10550812178E+03  0.29069598026E+03  0.30933977632E+03  0.00000000000E+00 0. -1.
</event>
<event>
 7    1  0.2670433E-009  0.1003753E+03  0.7561462E-02  0.1279509E+00
          1   -1    0    0  501    0  0.00000000000E+00  0.00000000000E+00  0.89864111744E+03  0.89864111744E+03  0.00000000000E+00 0. -1.
         -1   -1    0    0    0  501 -0.00000000000E+00 -0.00000000000E+00 -0.49079904575E+02  0.49079904575E+02  0.00000000000E+00 0.  1.
         25    2    1    2    0    0 -0.48443375297E+02 -0.47993232222E+02  0.82180010506E+03  0.83405554288E+03  0.12507247893E+03 0.  0.
          5    1    3    3  502    0 -0.54073390146E+02 -0.67386521567E+01  0.13038937853E+03  0.14137964277E+03  0.41800000000E+01 0.  1.
         -5    1    3    3    0  502  0.56300148490E+01 -0.41254580065E+02  0.69141072653E+03  0.69267590011E+03  0.41800000000E+01 0.  1.
        -11    1    1    2    0    0  0.34459000705E+01 -0.21329603575E+02  0.21973661243E+02  0.30816683864E+02  0.00000000000E+00 0. -1.
         11    1    1    2    0    0  0.44997475226E+02  0.69322835797E+02  0.57874465612E+01  0.82848795268E+02  0.00000000000E+00 0.  1.
</event>
<event>
 7    1  0.2670433E-009  0.1301711E+03  0.7561462E-02  0.1227202E+00
         -1   -1    0    0    0  501 -0.00000000000E+00  0.00000000000E+00  0.14697670550E+03  0.14697670550E+03  0.00000000000E+00 0.  1.
          1   -1    0    0  501    0  0.00000000000E+00 -0.00000000000E+00 -0.12096631994E+03  0.12096631994E+03  0.00000000000E+00 0. -1.
         25    2    1    2    0    0 -0.44458954511E+02 -0.61817192972E+02  0.25522091054E+02  0.14864838097E+03  0.12508796925E+03 0.  0.
          5    1    3    3  502    0 -0.71252022447E+02 -0.81237447574E+02  0.25853508107E+01  0.10816898830E+03  0.41800000000E+01 0.  1.
         -5    1    3    3    0  502  0.26793067936E+02  0.19420254602E+02  0.22936740243E+02  0.40479392673E+02  0.41800000000E+01 0.  1.
        -11    1    1    2    0    0  0.70539871883E+02  0.60171714597E+02  0.46436026929E+01  0.92833570484E+02  0.00000000000E+00 0. -1.
         11    1    1    2    0    0 -0.26080917371E+02  0.16454783746E+01 -0.41553081922E+01  0.26461073980E+02  0.00000000000E+00 0.  1.
</event>
<event>
 7    1  0.2670433E-009  0.1438342E+03  0.7561462E-02  0.1208261E+00
         -2   -1    0    0    0  501 -0.00000000000E+00  0.00000000000E+00  0.88527580643E+02  0.88527580643E+02  0.00000000000E+00 0. -1.
          2   -1    0    0  501    0  0.00000000000E+00 -0.00000000000E+00 -0.45390047005E+03  0.45390047005E+03  0.00000000000E+00 0.  1.
         25    2    1    2    0    0 -0.12085058706E+03 -0.13993598352E+02 -0.32369092533E+02  0.17747499496E+03  0.12509568536E+03 0.  0.
          5    1    3    3  502    0 -0.13828678023E+03 -0.20360277433E+02 -0.52873973490E+02  0.14950218713E+03  0.41800000000E+01 0. -1.
         -5    1    3    3    0  502  0.17436193172E+02  0.63666790809E+01  0.20504880957E+02  0.27972807830E+02  0.41800000000E+01 0. -1.
        -11    1    1    2    0    0  0.84211820860E+02 -0.10301269555E+02 -0.29462141685E+03  0.30659342164E+03  0.00000000000E+00 0.  1.
         11    1    1    2    0    0  0.36638766198E+02  0.24294867907E+02 -0.38382380019E+02  0.58359634089E+02  0.00000000000E+00 0. -1.
</event>
<event>
 7    1  0.2670433E-009  0.1107372E+03  0.7561462E-02  0.1259211E+00
          1   -1    0    0  501    0  0.00000000000E+00  0.00000000000E+00  0.58971747232E+03  0.58971747232E+03  0.00000000000E+00 0. -1.
         -1   -1    0    0    0  501 -0.00000000000E+00 -0.00000000000E+00 -0.28926892096E+02  0.28926892096E+02  0.00000000000E+00 0.  1.
         25    2    1    2    0    0  0.10646847813E+01 -0.63662955439E+02  0.24368934139E+03  0.28122250290E+03  0.12508994996E+03 0.  0.
          5    1    3    3  502    0 -0.36990656469E+02  0.23606335992E+02  0.62213962765E+02  0.76247080783E+02  0.41800000000E+01 0.  1.
         -5    1    3    3    0  502  0.38055341250E+02 -0.87269291431E+02  0.18147537862E+03  0.20497542212E+03  0.41800000000E+01 0.  1.
        -11    1    1    2    0    0 -0.25091853956E+02  0.19339516111E+02  0.23298713082E+02  0.39324903682E+02  0.00000000000E+00 0.  1.
         11    1    1    2    0    0  0.24027169175E+02  0.44323439328E+02  0.29380252575E+03  0.29809695784E+03  0.00000000000E+00 0. -1.
</event>
<event>
 7    1  0.2670433E-009  0.9145111E+02  0.7561462E-02  0.1299375E+00
         -1   -1    0    0    0  501 -0.00000000000E+00  0.00000000000E+00  0.12484396113E+02  0.12484396113E+02  0.00000000000E+00 0.  1.
          1   -1    0    0  501    0  0.00000000000E+00 -0.00000000000E+00 -0.13084705416E+04  0.13084705416E+04  0.00000000000E+00 0. -1.
         25    2    1    2    0    0  0.59279420000E+02  0.13313081479E+02 -0.88298356027E+03  0.89386725070E+03  0.12508959345E+03 0.  0.
          5    1    3    3  502    0  0.20192275021E+02  0.36475206300E+02 -0.86867578456E+02  0.96444892203E+02  0.41800000000E+01 0.  1.
         -5    1    3    3    0  502  0.39087144978E+02 -0.23162124821E+02 -0.79611598181E+03  0.79742235850E+03  0.41800000000E+01 0.  1.
        -11    1    1    2    0    0  0.73587708025E+01  0.19684484415E+02 -0.28216965601E+02  0.35182773940E+02  0.00000000000E+00 0.  1.
         11    1    1    2    0    0 -0.66638190802E+02 -0.32997565894E+02 -0.38478561957E+03  0.39190491303E+03  0.00000000000E+00 0. -1.
</event>
<event>
 7    1  0.2670433E-009  0.8168836E+02  0.7561462E-02  0.1324327E+00
          1   -1    0    0  501    0  0.00000000000E+00  0.00000000000E+00  0.44224567671E+02  0.44224567671E+02  0.00000000000E+00 0. -1.
         -1   -1    0    0    0  501 -0.00000000000E+00 -0.00000000000E+00 -0.27856615957E+03  0.27856615957E+03  0.00000000000E+00 0.  1.
         25    2    1    2    0    0  0.17600237870E+02  0.14675077115E+02 -0.13965171382E+03  0.18887519417E+03  0.12508441764E+03 0.  0.
          5    1    3    3  502    0  0.44645209775E+02 -0.15358657336E+02 -0.14045375288E+03  0.14823566443E+03  0.41800000000E+01 0.  1.
         -5    1    3    3    0  502 -0.27044971905E+02  0.30033734451E+02  0.80203905924E+00  0.40639529735E+02  0.41800000000E+01 0.  1.
        -11    1    1    2    0    0  0.27373311767E+01 -0.41552449849E+02 -0.90917349359E+02  0.10000031742E+03  0.00000000000E+00 0.  1.
         11    1    1    2    0    0 -0.20337569047E+02  0.26877372734E+02 -0.37725287207E+01  0.33915215653E+02  0.00000000000E+00 0. -1.
</event>
<event>
 7    1  0.2670433E-009  0.6488464E+02  0.7561462E-02  0.1378406E+00
          2   -1    0    0  501    0  0.00000000000E+00  0.00000000000E+00  0.79857015424E+02  0.79857015424E+02  0.00000000000E+00 0. -1.
         -2   -1    0    0    0  501 -0.00000000000E+00 -0.00000000000E+00 -0.17903965780E+03  0.17903965780E+03  0.00000000000E+00 0.  1.
         25    2    1    2    0    0 -0.22204799128E+02 -0.39005211790E+02 -0.81581573656E+02  0.15593809887E+03  0.12508668142E+03 0.  0.
          5    1    3    3  502    0  0.30382478139E+01 -0.21742977514E+02 -0.11104267982E+03  0.11326931254E+03  0.41800000000E+01 0.  1.
         -5    1    3    3    0  502 -0.25243046942E+02 -0.17262234276E+02  0.29461106163E+02  0.42668786337E+02  0.41800000000E+01 0.  1.
        -11    1    1    2    0    0 -0.18322221940E+02  0.29822186324E+02 -0.42077073550E+02  0.54731588069E+02  0.00000000000E+00 0.  1.
         11    1    1    2    0    0  0.40527021068E+02  0.91830254662E+01  0.24476004831E+02  0.48226986282E+02  0.00000000000E+00 0. -1.
</event>
<event>
 7    1  0.2670433E-009  0.1078707E+03  0.7561462E-02  0.1264565E+00
          1   -1    0    0  501    0  0.00000000000E+00  0.00000000000E+00  0.16063106386E+03  0.16063106386E+03  0.00000000000E+00 0. -1.
         -1   -1    0    0    0  501 -0.00000000000E+00 -0.00000000000E+00 -0.12793041554E+03  0.12793041554E+03  0.00000000000E+00 0.  1.
         25    2    1    2    0    0 -0.62961250637E+02 -0.47473945361E+02 -0.31592908541E+02  0.15120837643E+03  0.12509183291E+03 0.  0.
          5    1    3    3  502    0 -0.51052796307E+02 -0.58842854728E+02 -0.72757349734E+02  0.10667696051E+03  0.41800000000E+01 0. -1.
         -5    1    3    3    0  502 -0.11908454330E+02  0.11368909367E+02  0.41164441193E+02  0.44531415916E+02  0.41800000000E+01 0. -1.
        -11    1    1    2    0    0  0.60851491223E+02  0.73051323461E+02  0.44672849372E+02  0.10504790962E+03  0.00000000000E+00 0.  1.
         11    1    1    2    0    0  0.21097594138E+01 -0.25577378099E+02  0.19620707495E+02  0.32305193357E+02  0.00000000000E+00 0. -1.
</event>
<event>
 7    1  0.2670433E-009  0.1149362E+03  0.7561462E-02  0.1251693E+00
         -1   -1    0    0    0  501 -0.00000000000E+00  0.00000000000E+00  0.94228171026E+01  0.94228171026E+01  0.00000000000E+00 0.  1.
          1   -1    0    0  501    0  0.00000000000E+00 -0.00000000000E+00 -0.16350600224E+04  0.16350600224E+04  0.00000000000E+00 0. -1.
         25    2    1    2    0    0 -0.27536370450E+01 -0.49500442926E+02 -0.11466693993E+04  0.11545368669E+04  0.12508712649E+03 0.  0.
          5    1    3    3  502    0  0.57930111326E+02 -0.40834745767E+02 -0.71506205280E+03  0.71857816973E+03  0.41800000000E+01 0. -1.
         -5    1    3    3    0  502 -0.60683748371E+02 -0.86656971582E+01 -0.43160734653E+03  0.43595869713E+03  0.41800000000E+01 0. -1.
        -11    1    1    2    0    0  0.27010037815E+02 -0.13301886974E+02 -0.82921750717E+02  0.88218473586E+02  0.00000000000E+00 0.  1.
         11    1    1    2    0    0 -0.24256400770E+02  0.62802329900E+02 -0.39604605529E+03  0.40172749909E+03  0.00000000000E+00 0. -1.
</event>
<event>
 7    1  0.2670433E-009  0.1010401E+03  0.7561462E-02  0.1278124E+00
          2   -1    0    0  501    0  0.00000000000E+00  0.00000000000E+00  0.24231279007E+03  0.24231279007E+03  0.00000000000E+00 0.  1.
         -2   -1    0    0    0  501 -0.00000000000E+00 -0.00000000000E+00 -0.74009251145E+02  0.74009251145E+02  0.00000000000E+00 0. -1.
         25    2    1    2    0    0 -0.14148850975E+02 -0.75536278141E+02  0.95649121238E+02  0.17522052079E+03  0.12509019631E+03 0.  0.
          5    1    3    3  502    0  0.19562584181E+02 -0.44597715126E+01 -0.24254209452E+02  0.31754107418E+02  0.41800000000E+01 0.  1.
         -5    1    3    3    0  502 -0.33711435156E+02 -0.71076506628E+02  0.11990333069E+03  0.14346641337E+03  0.41800000000E+01 0.  1.
        -11    1    1    2    0    0  0.69165700204E+01  0.88067941503E+02  0.25749119916E+02  0.92015316322E+02  0.00000000000E+00 0. -1.
         11    1    1    2    0    0  0.72322809543E+01 -0.12531663363E+02  0.46905297770E+02  0.49086204104E+02  0.00000000000E+00 0.  1.
</event>
<event>
 7    1  0.2670433E-009  0.1100127E+03  0.7561462E-02  0.1260546E+00
          2   -1    0    0  501    0  0.00000000000E+00  0.00000000000E+00  0.15663558826E+03  0.15663558826E+03  0.00000000000E+00 0. -1.
         -2   -1    0    0    0  501 -0.00000000000E+00 -0.00000000000E+00 -0.82060120049E+02  0.82060120049E+02  0.00000000000E+00 0.  1.
         25    2    1    2    0    0  0.12305900826E+02 -0.24736569943E+02  0.21146624636E+02  0.12983881645E+03  0.12509038906E+03 0.  0.
          5    1    3    3  502    0 -0.49063126961E+02 -0.40011911060E+02  0.14320762475E+01  0.63463900732E+02  0.41800000000E+01 0. -1.
         -5    1    3    3    0  502  0.61369027787E+02  0.15275341117E+02  0.19714548389E+02  0.66374915713E+02  0.41800000000E+01 0. -1.
        -11    1    1    2    0    0  0.20209393760E+02  0.48752476333E+02  0.40140166847E+02  0.66305780587E+02  0.00000000000E+00 0.  1.
         11    1    1    2    0    0 -0.32515294586E+02 -0.24015906390E+02  0.13288676728E+02  0.42551111278E+02  0.00000000000E+00 0. -1.
</event>
<event>
 7    1  0.2670433E-009  0.1074123E+03  0.7561462E-02  0.1265438E+00
          1   -1    0    0  501    0  0.00000000000E+00  0.00000000000E+00  0.10657688510E+03  0.10657688510E+03  0.00000000000E+00 0. -1.
         -1   -1    0    0    0  501 -0.00000000000E+00 -0.00000000000E+00 -0.15968462670E+03  0.15968462670E+03  0.00000000000E+00 0.  1.
         25    2    1    2    0    0  0.67251182793E+02  0.13971741244E+02 -0.21487030322E+02  0.14431712881E+03  0.12509120695E+03 0.  0.
          5    1    3    3  502    0  0.10149446637E+03 -0.64943485246E+01 -0.84407836532E+01  0.10213727280E+03  0.41800000000E+01 0.  1.
         -5    1    3    3    0  502 -0.34243283581E+02  0.20466089768E+02 -0.13046246669E+02  0.42179856009E+02  0.41800000000E+01 0.  1.
        -11    1    1    2    0    0 -0.57729337393E+02 -0.21819881865E+01 -0.63985875217E+02  0.86206900510E+02  0.00000000000E+00 0.  1.
         11    1    1    2    0    0 -0.95218454007E+01 -0.11789753057E+02  0.32365163942E+02  0.35737482480E+02  0.00000000000E+00 0. -1.
</event>
<event>
 7    1  0.2670433E-009  0.1566740E+03  0.7561462E-02  0.1192504E+00
          4   -1    0    0  501    0  0.00000000000E+00  0.00000000000E+00  0.77327023628E+02  0.77327023628E+02  0.00000000000E+00 0. -1.
         -4   -1    0    0    0  501 -0.00000000000E+00 -0.00000000000E+00 -0.32376843264E+03  0.32376843264E+03  0.00000000000E+00 0.  1.
         25    2    1    2    0    0 -0.22263409750E+02  0.11202178363E+03 -0.11886805775E+03  0.20693466411E+03  0.12509116930E+03 0.  0.
          5    1    3    3  502    0  0.48494310617E+02  0.75028961851E+02 -0.62762911525E+02  0.10925977641E+03  0.41800000000E+01 0.  1.
         -5    1    3    3    0  502 -0.70757720367E+02  0.36992821774E+02 -0.56105146222E+02  0.97674887699E+02  0.41800000000E+01 0.  1.
        -11    1    1    2    0    0  0.48999201155E+02 -0.10567313958E+03 -0.88013706920E+02  0.14599365311E+03  0.00000000000E+00 0.  1.
         11    1    1    2    0    0 -0.26735791405E+02 -0.63486440440E+01 -0.39559644347E+02  0.48167139048E+02  0.00000000000E+00 0. -1.
</event>
<event>
 7    1  0.2670433E-009  0.2359520E+03  0.7561462E-02  0.1122519E+00
         -2   -1    0    0    0  501 -0.00000000000E+00  0.00000000000E+00  0.13469616879E+03  0.13469616879E+03  0.00000000000E+00 0.  1.
          2   -1    0    0  501    0  0.00000000000E+00 -0.00000000000E+00 -0.53731742151E+03  0.53731742151E+03  0.00000000000E+00 0. -1.
         25    2    1    2    0    0  0.18368149213E+03  0.14694812197E+03 -0.11592340958E+03  0.29054904478E+03  0.12509144428E+03 0.  0.
          5    1    3    3  502    0  0.73341310652E+02  0.69284341470E+02  0.15480091462E+02  0.10215857014E+03  0.41800000000E+01 0. -1.
         -5    1    3    3    0  502  0.11034018147E+03  0.77663780502E+02 -0.13140350104E+03  0.18839047464E+03  0.41800000000E+01 0. -1.
        -11    1    1    2    0    0 -0.10516724920E+03 -0.72551629412E+02 -0.87692406845E+02  0.15496401987E+03  0.00000000000E+00 0.  1.
         11    1    1    2    0    0 -0.78514242927E+02 -0.74396492561E+02 -0.19900543630E+03  0.22650052566E+03  0.00000000000E+00 0. -1.
</event>
<event>
 7    1  0.2670433E-009  0.1009393E+03  0.7561462E-02  0.1278333E+00
         -1   -1    0    0    0  501 -0.00000000000E+00  0.00000000000E+00  0.43081809360E+03  0.43081809360E+03  0.00000000000E+00 0.  1.
          1   -1    0    0  501    0  0.00000000000E+00 -0.00000000000E+00 -0.54263716945E+02  0.54263716945E+02  0.00000000000E+00 0. -1.
         25    2    1    2    0    0 -0.63187091751E+02  0.61816352974E+01  0.33948233652E+03  0.36733020609E+03  0.12510956128E+03 0.  0.
          5    1    3    3  502    0 -0.47067999394E+01  0.36694122259E+02  0.26560890847E+03  0.26820547577E+03  0.41800000000E+01 0. -1.
         -5    1    3    3    0  502 -0.58480291811E+02 -0.30512486961E+02  0.73873428049E+02  0.99124730328E+02  0.41800000000E+01 0. -1.
        -11    1    1    2    0    0 -0.19493583478E+01 -0.29354100416E+02  0.38681261007E+02  0.48597357565E+02  0.00000000000E+00 0.  1.
         11    1    1    2    0    0  0.65136450099E+02  0.23172465119E+02 -0.16092208631E+01  0.69154246890E+02  0.00000000000E+00 0. -1.
</event>
<event>
 7    1  0.2670433E-009  0.1944083E+03  0.7561462E-02  0.1154544E+00
          2   -1    0    0  501    0  0.00000000000E+00  0.00000000000E+00  0.70427945293E+03  0.70427945293E+03  0.00000000000E+00 0. -1.
         -2   -1    0    0    0  501 -0.00000000000E+00 -0.00000000000E+00 -0.65172952419E+02  0.65172952419E+02  0.00000000000E+00 0.  1.
         25    2    1    2    0    0 -0.47784410087E+02  0.16167137651E+03  0.47651374149E+03  0.52070485688E+03  0.12508884170E+03 0.  0.
          5    1    3    3  502    0  0.14029873509E+02 -0.14203068765E+02  0.25429412196E+02  0.32598955775E+02  0.41800000000E+01 0.  1.
         -5    1    3    3    0  502 -0.61814283596E+02  0.17587444528E+03  0.45108432930E+03  0.48810590111E+03  0.41800000000E+01 0.  1.
        -11    1    1    2    0    0  0.60618160574E+02 -0.15699679075E+03  0.12764196218E+03  0.21122268867E+03  0.00000000000E+00 0.  1.
         11    1    1    2    0    0 -0.12833750487E+02 -0.46745857641E+01  0.34950796835E+02  0.37524859800E+02  0.00000000000E+00 0. -1.
</event>
<event>
 7    1  0.2670433E-009  0.1071465E+03  0.7561462E-02  0.1265947E+00
          2   -1    0    0  501    0  0.00000000000E+00  0.00000000000E+00  0.50018535171E+03  0.50018535171E+03  0.00000000000E+00 0. -1.
         -2   -1    0    0    0  501 -0.00000000000E+00 -0.00000000000E+00 -0.24764723325E+02  0.24764723325E+02  0.00000000000E+00 0.  1.
         25    2    1    2    0    0  0.82112226826E+00  0.11837977812E+02  0.21555885703E+03  0.24951339897E+03  0.12510197224E+03 0.  0.
          5    1    3    3  502    0  0.50249636738E+02  0.43223752892E+02  0.12599830974E+03  0.14243021190E+03  0.41800000000E+01 0.  1.
         -5    1    3    3    0  502 -0.49428514470E+02 -0.31385775079E+02  0.89560547298E+02  0.10708318707E+03  0.41800000000E+01 0.  1.
        -11    1    1    2    0    0 -0.40913094398E+01  0.38509044767E+02  0.14295677558E+03  0.14810916591E+03  0.00000000000E+00 0. -1.
         11    1    1    2    0    0  0.32701871716E+01 -0.50347022579E+02  0.11690499578E+03  0.12732751016E+03  0.00000000000E+00 0.  1.
</event>
<event>
 7    1  0.2670433E-009  0.1010196E+03  0.7561462E-02  0.1278166E+00
         -1   -1    0    0    0  501 -0.00000000000E+00  0.00000000000E+00  0.25261777422E+03  0.25261777422E+03  0.00000000000E+00 0.  1.
          1   -1    0    0  501    0  0.00000000000E+00 -0.00000000000E+00 -0.61268908682E+02  0.61268908682E+02  0.00000000000E+00 0. -1.
         25    2    1    2    0    0 -0.41314199608E+02 -0.20000670712E+02  0.56095874716E+02  0.14457237669E+03  0.12509010761E+03 0.  0.
          5    1    3    3  502    0  0.22691122158E+02  0.27076990127E+02 -0.14296002092E+02  0.38339255274E+02  0.41800000000E+01 0. -1.
         -5    1    3    3    0  502 -0.64005321767E+02 -0.47077660840E+02  0.70391876808E+02  0.10623312141E+03  0.41800000000E+01 0. -1.
        -11    1    1    2    0    0 -0.19545402075E+02  0.17103681804E+02  0.89297664458E+02  0.92998019072E+02  0.00000000000E+00 0.  1.
         11    1    1    2    0    0  0.60859601684E+02  0.28969889078E+01  0.45955326362E+02  0.76316287140E+02  0.00000000000E+00 0. -1.
</event>
<event>
 7    1  0.2670433E-009  0.9757462E+02  0.7561462E-02  0.1285480E+00
          4   -1    0    0  501    0  0.00000000000E+00  0.00000000000E+00  0.11542103385E+04  0.11542103385E+04  0.00000000000E+00 0. -1.
         -4   -1    0    0    0  501 -0.00000000000E+00 -0.00000000000E+00 -0.19331130663E+02  0.19331130663E+02  0.00000000000E+00 0.  1.
         25    2    1    2    0    0  0.55098747901E+02 -0.53923797773E+02  0.87225269139E+03  0.88454264621E+03  0.12508911759E+03 0.  0.
          5    1    3    3  502    0  0.16155026875E+02 -0.66569984875E+01  0.10917856875E+02  0.21023142509E+02  0.41800000000E+01 0. -1.
         -5    1    3    3    0  502  0.38943721025E+02 -0.47266799286E+02  0.86133483451E+03  0.86351950370E+03  0.41800000000E+01 0. -1.
        -11    1    1    2    0    0 -0.13278607339E+02  0.69809927179E+02  0.19828070517E+03  0.21062997268E+03  0.00000000000E+00 0. -1.
         11    1    1    2    0    0 -0.41820140562E+02 -0.15886129406E+02  0.64345811233E+02  0.78368850236E+02  0.00000000000E+00 0.  1.
</event>
<event>
 7    1  0.2670433E-009  0.2131950E+03  0.7561462E-02  0.1139061E+00
         -2   -1    0    0    0  501 -0.00000000000E+00  0.00000000000E+00  0.12997476668E+03  0.12997476668E+03  0.00000000000E+00 0.  1.
          2   -1    0    0  501    0  0.00000000000E+00 -0.00000000000E+00 -0.44150026679E+03  0.44150026679E+03  0.00000000000E+00 0. -1.
         25    2    1    2    0    0  0.14496405466E+03 -0.14431829912E+03 -0.86995648804E+02  0.25506584489E+03  0.12509194105E+03 0.  0.
          5    1    3    3  502    0  0.10764051046E+03 -0.10928197815E+03 -0.11931848046E+03  0.19437953189E+03  0.41800000000E+01 0.  1.
         -5    1    3    3    0  502  0.37323544198E+02 -0.35036320972E+02  0.32322831656E+02  0.60686312996E+02  0.41800000000E+01 0.  1.
        -11    1    1    2    0    0 -0.97861423601E+02  0.37434722937E+02 -0.88834505750E+02  0.13736734009E+03  0.00000000000E+00 0.  1.
         11    1    1    2    0    0 -0.47102631057E+02  0.10688357618E+03 -0.13569534555E+03  0.17904184850E+03  0.00000000000E+00 0. -1.
</event>
<event>
 7    1  0.2670433E-009  0.1261172E+03  0.7561462E-02  0.1233334E+00
          1   -1    0    0  501    0  0.00000000000E+00  0.00000000000E+00  0.71245049835E+03  0.71245049835E+03  0.00000000000E+00 0.  1.
         -1   -1    0    0    0  501 -0.00000000000E+00 -0.00000000000E+00 -0.24572624193E+02  0.24572624193E+02  0.00000000000E+00 0. -1.
         25    2    1    2    0    0 -0.68958293087E+02  0.27300960825E+02  0.35806191201E+03  0.38646459346E+03  0.12508381397E+03 0.  0.
          5    1    3    3  502    0 -0.10553655386E+03  0.15549979536E+02  0.26046666118E+03  0.28149621676E+03  0.41800000000E+01 0. -1.
         -5    1    3    3    0  502  0.36578260770E+02  0.11750981290E+02  0.97595250831E+02  0.10496837670E+03  0.41800000000E+01 0. -1.
        -11    1    1    2    0    0  0.31955699013E+02  0.26513039399E+02  0.60101860631E+02  0.73050267685E+02  0.00000000000E+00 0. -1.
         11    1    1    2    0    0  0.37002594074E+02 -0.53814000225E+02  0.26971410151E+03  0.27750826140E+03  0.00000000000E+00 0.  1.
</event>
<event>
 7    1  0.2670433E-009  0.8688553E+02  0.7561462E-02  0.1310574E+00
         -2   -1    0    0    0  501 -0.00000000000E+00  0.00000000000E+00  0.27873578016E+02  0.27873578016E+02  0.00000000000E+00 0.  1.
          2   -1    0    0  501    0  0.00000000000E+00 -0.00000000000E+00 -0.40730377117E+03  0.40730377117E+03  0.00000000000E+00 0. -1.
         25    2    1    2    0    0  0.21253460799E+02 -0.45956413498E+02 -0.24322849616E+03  0.27816513124E+03  0.12510810269E+03 0.  0.
          5    1    3    3  502    0 -0.40894295436E+02  0.30056203950E+01 -0.30832071526E+02  0.51472965600E+02  0.41800000000E+01 0. -1.
         -5    1    3    3    0  502  0.62147756235E+02 -0.48962033893E+02 -0.21239642463E+03  0.22669216564E+03  0.41800000000E+01 0. -1.
        -11    1    1    2    0    0 -0.17909316391E+02  0.18802847652E+02 -0.12463085997E+03  0.12730727375E+03  0.00000000000E+00 0. -1.
         11    1    1    2    0    0 -0.33441444084E+01  0.27153565846E+02 -0.11570837034E+02  0.29704944196E+02  0.00000000000E+00 0.  1.
</event>
<event>
 7    1  0.2670433E-009  0.1131529E+03  0.7561462E-02  0.1254840E+00
         -1   -1    0    0    0  501 -0.00000000000E+00  0.00000000000E+00  0.65651798666E+02  0.65651798666E+02  0.00000000000E+00 0.  1.
          1   -1    0    0  501    0  0.00000000000E+00 -0.00000000000E+00 -0.30295124372E+03  0.30295124372E+03  0.00000000000E+00 0. -1.
         25    2    1    2    0    0 -0.17264411730E+02 -0.96963721889E+02 -0.12670705706E+03  0.20346665892E+03  0.12507589579E+03 0.  0.
          5    1    3    3  502    0 -0.26318457449E+02 -0.74228077061E+02 -0.14997079452E+03  0.16944373767E+03  0.41800000000E+01 0.  1.
         -5    1    3    3    0  502  0.90540457192E+01 -0.22735644828E+02  0.23263737458E+02  0.34022921246E+02  0.41800000000E+01 0.  1.
        -11    1    1    2    0    0  0.46155122900E+02  0.59500742624E+02 -0.66382184552E+02  0.10038539818E+03  0.00000000000E+00 0. -1.
         11    1    1    2    0    0 -0.28890711170E+02  0.37462979265E+02 -0.44210203442E+02  0.64750985287E+02  0.00000000000E+00 0.  1.
</event>
<event>
 7    1  0.2670433E-009  0.1389220E+03  0.7561462E-02  0.1214787E+00
          2   -1    0    0  501    0  0.00000000000E+00  0.00000000000E+00  0.81248194395E+03  0.81248194395E+03  0.00000000000E+00 0. -1.
         -2   -1    0    0    0  501 -0.00000000000E+00 -0.00000000000E+00 -0.35673906644E+02  0.35673906644E+02  0.00000000000E+00 0.  1.
         25    2    1    2    0    0  0.88078189580E+02 -0.80973472539E+02  0.55355563678E+03  0.57998877593E+03  0.12509462999E+03 0.  0.
          5    1    3    3  502    0  0.20647387197E+02  0.59796419560E+01  0.78168416627E+01  0.23251798416E+02  0.41800000000E+01 0.  1.
         -5    1    3    3    0  502  0.67430802383E+02 -0.86953114495E+02  0.54573879512E+03  0.55673697751E+03  0.41800000000E+01 0.  1.
        -11    1    1    2    0    0 -0.57527634619E+02  0.95898151455E+02  0.14721074462E+03  0.18486992056E+03  0.00000000000E+00 0.  1.
         11    1    1    2    0    0 -0.30550554962E+02 -0.14924678916E+02  0.76041655913E+02  0.83297154112E+02  0.00000000000E+00 0. -1.
</event>
<event>
 7    1  0.2670433E-009  0.1282681E+03  0.7561462E-02  0.1230048E+00
          1   -1    0    0  501    0  0.00000000000E+00  0.00000000000E+00  0.25893548975E+02  0.25893548975E+02  0.00000000000E+00 0. -1.
         -1   -1    0    0    0  501 -0.00000000000E+00 -0.00000000000E+00 -0.10012912423E+04  0.10012912423E+04  0.00000000000E+00 0.  1.
         25    2    1    2    0    0  0.73912456191E+02 -0.91179410671E+02 -0.45916962013E+03  0.49016389989E+03  0.12508865891E+03 0.  0.
          5    1    3    3  502    0  0.33840348305E+02 -0.65970028144E+02 -0.42547033785E+03  0.43190241326E+03  0.41800000000E+01 0.  1.
         -5    1    3    3    0  502  0.40072107886E+02 -0.25209382527E+02 -0.33699282284E+02  0.58261486630E+02  0.41800000000E+01 0.  1.
        -11    1    1    2    0    0 -0.10709633748E+02  0.65759264341E+02 -0.36673268719E+03  0.37273561804E+03  0.00000000000E+00 0.  1.
         11    1    1    2    0    0 -0.63202822443E+02  0.25420146330E+02 -0.14949538603E+03  0.16428527337E+03  0.00000000000E+00 0. -1.
</event>
<event>
 7    1  0.2670433E-009  0.1142462E+03  0.7561462E-02  0.1252903E+00
          2   -1    0    0  501    0  0.00000000000E+00  0.00000000000E+00  0.13717132703E+03  0.13717132703E+03  0.00000000000E+00 0. -1.
         -2   -1    0    0    0  501 -0.00000000000E+00 -0.00000000000E+00 -0.11657606417E+03  0.11657606417E+03  0.00000000000E+00 0.  1.
         25    2    1    2    0    0  0.35746446519E+02  0.52635891026E+02  0.22855503937E+02  0.14219225081E+03  0.12509163309E+03 0.  0.
          5    1    3    3  502    0  0.76990960971E+02  0.26928510138E+02  0.39406387400E+02  0.90681246669E+02  0.41800000000E+01 0. -1.
         -5    1    3    3    0  502 -0.41244514452E+02  0.25707380888E+02 -0.16550883463E+02  0.51511004144E+02  0.41800000000E+01 0. -1.
        -11    1    1    2    0    0  0.22948751759E+02 -0.22177929086E+02 -0.26135193558E+02  0.41249898038E+02  0.00000000000E+00 0. -1.
         11    1    1    2    0    0 -0.58695198278E+02 -0.30457961940E+02  0.23874952484E+02  0.70305242355E+02  0.00000000000E+00 0.  1.
</event>
<event>
 7    1  0.2670433E-009  0.1187713E+03  0.7561462E-02  0.1245138E+00
          2   -1    0    0  501    0  0.00000000000E+00  0.00000000000E+00  0.29757680923E+03  0.29757680923E+03  0.00000000000E+00 0. -1.
         -2   -1    0    0    0  501 -0.00000000000E+00 -0.00000000000E+00 -0.10416165614E+03  0.10416165614E+03  0.00000000000E+00 0.  1.
         25    2    1    2    0    0  0.86839648765E+02  0.13346512810E+02  0.22460090747E+03  0.27169079720E+03  0.12510422714E+03 0.  0.
          5    1    3    3  502    0 -0.54581456266E+01 -0.18366023018E+02 -0.66076953979E+01  0.20693868504E+02  0.41800000000E+01 0.  1.
         -5    1    3    3    0  502  0.92297794392E+02  0.31712535828E+02  0.23120860287E+03  0.25099692870E+03  0.41800000000E+01 0.  1.
        -11    1    1    2    0    0  0.55487717078E+01 -0.26369523037E+02 -0.24644297129E+02  0.36516872725E+02  0.00000000000E+00 0.  1.
         11    1    1    2    0    0 -0.92388420473E+02  0.13023010226E+02 -0.65414572475E+01  0.93530795441E+02  0.00000000000E+00 0. -1.
</event>
<event>
 7    1  0.2670433E-009  0.1005597E+03  0.7561462E-02  0.1279123E+00
         -2   -1    0    0    0  501 -0.00000000000E+00  0.00000000000E+00  0.40572843101E+02  0.40572843101E+02  0.00000000000E+00 0.  1.
          2   -1    0    0  501    0  0.00000000000E+00 -0.00000000000E+00 -0.37692609122E+03  0.37692609122E+03  0.00000000000E+00 0. -1.
         25    2    1    2    0    0  0.41363260381E+02  0.22180744107E+02 -0.24601184824E+03  0.27995616678E+03  0.12510284219E+03 0.  0.
          5    1    3    3  502    0  0.72900333150E+02  0.52292384592E+02 -0.16568907897E+03  0.18846563440E+03  0.41800000000E+01 0.  1.
         -5    1    3    3    0  502 -0.31537072769E+02 -0.30111640485E+02 -0.80322769276E+02  0.91490532383E+02  0.41800000000E+01 0.  1.
        -11    1    1    2    0    0  0.20511177222E+01 -0.23963782100E+02  0.11618323286E+02  0.26710585401E+02  0.00000000000E+00 0.  1.
         11    1    1    2    0    0 -0.43414378103E+02  0.17830379929E+01 -0.10195972316E+03  0.11083218214E+03  0.00000000000E+00 0. -1.
</event>
<event>
 7    1  0.2670433E-009  0.3119499E+03  0.7561462E-02  0.1079415E+00
          1   -1    0    0  501    0  0.00000000000E+00  0.00000000000E+00  0.12028473053E+04  0.12028473053E+04  0.00000000000E+00 0. -1.
         -1   -1    0    0    0  501 -0.00000000000E+00 -0.00000000000E+00 -0.87306154121E+02  0.87306154121E+02  0.00000000000E+00 0.  1.
         25    2    1    2    0    0  0.92547871846E+02  0.28187314730E+03  0.70762804438E+03  0.77743285939E+03  0.12508725721E+03 0.  0.
          5    1    3    3  502    0 -0.27973181411E+02  0.24097918231E+02  0.91356575858E+02  0.98624058393E+02  0.41800000000E+01 0.  1.
         -5    1    3    3    0  502  0.12052105326E+03  0.25777522907E+03  0.61627146852E+03  0.67880880100E+03  0.41800000000E+01 0.  1.
        -11    1    1    2    0    0 -0.54916097926E+02 -0.81488827672E+02  0.80570143688E+02  0.12707381674E+03  0.00000000000E+00 0.  1.
         11    1    1    2    0    0 -0.37631773920E+02 -0.20038431962E+03  0.32734296307E+03  0.38564678325E+03  0.00000000000E+00 0. -1.
</event>
<event>
 7    1  0.2670433E-009  0.1637809E+03  0.7561462E-02  0.1184493E+00
         -1   -1    0    0    0  501 -0.00000000000E+00  0.00000000000E+00  0.13466174660E+03  0.13466174660E+03  0.00000000000E+00 0.  1.
          1   -1    0    0  501    0  0.00000000000E+00 -0.00000000000E+00 -0.21642891246E+03  0.21642891246E+03  0.00000000000E+00 0. -1.
         25    2    1    2    0    0 -0.12470892336E+03  0.35192908959E+02 -0.16648883293E+02  0.18086158327E+03  0.12507146191E+03 0.  0.
          5    1    3    3  502    0 -0.53730059289E+02  0.79503243532E+02 -0.13803860186E+02  0.97034550338E+02  0.41800000000E+01 0. -1.
         -5    1    3    3    0  502 -0.70978864068E+02 -0.44310334572E+02 -0.28450231062E+01  0.83827032936E+02  0.41800000000E+01 0. -1.
        -11    1    1    2    0    0  0.60253080039E+02  0.19365975976E+02 -0.57381197120E+02  0.85428780060E+02  0.00000000000E+00 0. -1.
         11    1    1    2    0    0  0.64455843318E+02 -0.54558884935E+02 -0.77370854446E+01  0.84800295721E+02  0.00000000000E+00 0.  1.
</event>
<event>
 7    1  0.2670433E-009  0.1099211E+03  0.7561462E-02  0.1260716E+00
         -3   -1    0    0    0  501 -0.00000000000E+00  0.00000000000E+00  0.40365249670E+03  0.40365249670E+03  0.00000000000E+00 0.  1.
          3   -1    0    0  501    0  0.00000000000E+00 -0.00000000000E+00 -0.53969459300E+02  0.53969459300E+02  0.00000000000E+00 0. -1.
         25    2    1    2    0    0  0.20914667975E+02  0.85947262404E+02  0.26135126036E+03  0.30294636612E+03  0.12509062397E+03 0.  0.
          5    1    3    3  502    0  0.39733430991E+02  0.63239686374E+02  0.26268676515E+03  0.27312966235E+03  0.41800000000E+01 0. -1.
         -5    1    3    3    0  502 -0.18818763016E+02  0.22707576030E+02 -0.13355047956E+01  0.29816703769E+02  0.41800000000E+01 0. -1.
        -11    1    1    2    0    0  0.63964190680E+01 -0.87655046470E+02  0.91804077178E+02  0.12709173826E+03  0.00000000000E+00 0.  1.
         11    1    1    2    0    0 -0.27311087043E+02  0.17077840655E+01 -0.34723001296E+01  0.27583851618E+02  0.00000000000E+00 0. -1.
</event>
<event>
 7    1  0.2670433E-009  0.1071491E+03  0.7561462E-02  0.1265942E+00
         -2   -1    0    0    0  501 -0.00000000000E+00  0.00000000000E+00  0.66942528196E+03  0.66942528196E+03  0.00000000000E+00 0.  1.
          2   -1    0    0  501    0  0.00000000000E+00 -0.00000000000E+00 -0.18829606760E+02  0.18829606760E+02  0.00000000000E+00 0. -1.
         25    2    1    2    0    0  0.61426017399E+01 -0.23747629852E+02  0.33321851274E+03  0.35676848605E+03  0.12508994334E+03 0.  0.
          5    1    3    3  502    0  0.41382211709E+02  0.32964399614E+02  0.20953229662E+03  0.21614901067E+03  0.41800000000E+01 0.  1.
         -5    1    3    3    0  502 -0.35239609969E+02 -0.56712029466E+02  0.12368621613E+03  0.14061947538E+03  0.41800000000E+01 0.  1.
        -11    1    1    2    0    0 -0.48533185048E+02  0.16872598521E+02  0.14480131212E+03  0.15364756628E+03  0.00000000000E+00 0. -1.
         11    1    1    2    0    0  0.42390583308E+02  0.68750313316E+01  0.17257585034E+03  0.17783883639E+03  0.00000000000E+00 0.  1.
</event>
<event>
 7    1  0.2670433E-009  0.2959028E+03  0.7561462E-02  0.1087307E+00
         -2   -1    0    0    0  501 -0.00000000000E+00  0.00000000000E+00  0.14616359158E+03  0.14616359158E+03  0.00000000000E+00 0.  1.
          2   -1    0    0  501    0  0.00000000000E+00 -0.00000000000E+00 -0.67919096492E+03  0.67919096492E+03  0.00000000000E+00 0. -1.
         25    2    1    2    0    0 -0.36106528991E+02 -0.28620429069E+03 -0.18874383295E+03  0.36672392323E+03  0.12508246858E+03 0.  0.
          5    1    3    3  502    0  0.11703696894E+02 -0.10005928588E+03 -0.52360894886E+01  0.10096398489E+03  0.41800000000E+01 0. -1.
         -5    1    3    3    0  502 -0.47810225885E+02 -0.18614500481E+03 -0.18350774346E+03  0.26575993834E+03  0.41800000000E+01 0. -1.
        -11    1    1    2    0    0 -0.24665195739E+02  0.92464895214E+02 -0.14783494084E+03  0.17610592966E+03  0.00000000000E+00 0. -1.
         11    1    1    2    0    0  0.60771724729E+02  0.19373939548E+03 -0.19644859955E+03  0.28252470361E+03  0.00000000000E+00 0.  1.
</event>
<event>
 7    1  0.2670433E-009  0.1865254E+03  0.7561462E-02  0.1161633E+00
         -2   -1    0    0    0  501 -0.00000000000E+00  0.00000000000E+00  0.73835376429E+02  0.73835376429E+02  0.00000000000E+00 0.  1.
          2   -1    0    0  501    0  0.00000000000E+00 -0.00000000000E+00 -0.53603536264E+03  0.53603536264E+03  0.00000000000E+00 0. -1.
         25    2    1    2    0    0 -0.16272638217E+03 -0.35983868380E+02 -0.22908425053E+03  0.30968043821E+03  0.12509063009E+03 0.  0.
          5    1    3    3  502    0 -0.31013711761E+02 -0.54999181559E+02 -0.29637388071E+02  0.69875657142E+02  0.41800000000E+01 0.  1.
         -5    1    3    3    0  502 -0.13171267041E+03  0.19015313179E+02 -0.19944686246E+03  0.23980478107E+03  0.41800000000E+01 0.  1.
        -11    1    1    2    0    0  0.14323670295E+03  0.50977947505E+02 -0.15025187321E+03  0.21375483528E+03  0.00000000000E+00 0.  1.
         11    1    1    2    0    0  0.19489679220E+02 -0.14994079125E+02 -0.82863862472E+02  0.86435465572E+02  0.00000000000E+00 0. -1.
</event>
<event>
 7    1  0.2670433E-009  0.1007724E+03  0.7561462E-02  0.1278680E+00
         -2   -1    0    0    0  501 -0.00000000000E+00  0.00000000000E+00  0.10491275187E+04  0.10491275187E+04  0.00000000000E+00 0. -1.
          2   -1    0    0  501    0  0.00000000000E+00 -0.00000000000E+00 -0.22995455067E+02  0.22995455067E+02  0.00000000000E+00 0.  1.
         25    2    1    2    0    0 -0.63849349903E+02  0.44641712769E+02  0.81419551526E+03  0.82742453012E+03  0.12508954379E+03 0.  0.
          5    1    3    3  502    0 -0.82510137131E+02  0.53459889097E+02  0.37410856598E+03  0.38683403936E+03  0.41800000000E+01 0.  1.
         -5    1    3    3    0  502  0.18660787228E+02 -0.88181763286E+01  0.44008694928E+03  0.44059049076E+03  0.41800000000E+01 0.  1.
        -11    1    1    2    0    0  0.32643801333E+02 -0.73578499012E+01  0.18716334014E+03  0.19013119579E+03  0.00000000000E+00 0. -1.
         11    1    1    2    0    0  0.31205548569E+02 -0.37283862867E+02  0.24773208215E+02  0.54567247842E+02  0.00000000000E+00 0.  1.
</event>
<event>
 7    1  0.2670433E-009  0.1969669E+03  0.7561462E-02  0.1152324E+00
          1   -1    0    0  501    0  0.00000000000E+00  0.00000000000E+00  0.79983055065E+02  0.79983055065E+02  0.00000000000E+00 0. -1.
         -1   -1    0    0    0  501 -0.00000000000E+00 -0.00000000000E+00 -0.58415181800E+03  0.58415181800E+03  0.00000000000E+00 0.  1.
         25    2    1    2    0    0 -0.18435620276E+03 -0.32196493127E+02 -0.25748142063E+03  0.34200600546E+03  0.12509037585E+03 0.  0.
          5    1    3    3  502    0 -0.13347038059E+03 -0.59142512644E+02 -0.10763996453E+03  0.18142770919E+03  0.41800000000E+01 0.  1.
         -5    1    3    3    0  502 -0.50885822175E+02  0.26946019518E+02 -0.14984145610E+03  0.16057829627E+03  0.41800000000E+01 0.  1.
        -11    1    1    2    0    0  0.10548642440E+03  0.35267882710E+02 -0.20410919131E+03  0.23244735159E+03  0.00000000000E+00 0. -1.
         11    1    1    2    0    0  0.78869778367E+02 -0.30713895833E+01 -0.42578150993E+02  0.89681516020E+02  0.00000000000E+00 0.  1.
</event>
<event>
 7    1  0.2670433E-009  0.1152957E+03  0.7561462E-02  0.1251066E+00
          1   -1    0    0  501    0  0.00000000000E+00  0.00000000000E+00  0.27893167484E+03  0.27893167484E+03  0.00000000000E+00 0. -1.
         -1   -1    0    0    0  501 -0.00000000000E+00 -0.00000000000E+00 -0.10729377898E+03  0.10729377898E+03  0.00000000000E+00 0.  1.
         25    2    1    2    0    0 -0.42413993891E+02  0.99577702258E+02  0.30520901353E+01  0.16543981383E+03  0.12508537516E+03 0.  0.
          5    1    3    3  502    0 -0.22854910003E+02  0.83250973389E+02 -0.54625556212E+02  0.10224722624E+03  0.41800000000E+01 0.  1.
         -5    1    3    3    0  502 -0.19559083888E+02  0.16326728869E+02  0.57677646348E+02  0.63192587590E+02  0.41800000000E+01 0.  1.
        -11    1    1    2    0    0  0.24811259669E+02 -0.97509716553E+02  0.17506099819E+03  0.20191606305E+03  0.00000000000E+00 0. -1.
         11    1    1    2    0    0  0.17602734221E+02 -0.20679857058E+01 -0.64751924651E+01  0.18869576954E+02  0.00000000000E+00 0.  1.
</event>
<event>
 7    1  0.2670433E-009  0.1826648E+03  0.7561462E-02  0.1165249E+00
          1   -1    0    0  501    0  0.00000000000E+00  0.00000000000E+00  0.11813241588E+04  0.11813241588E+04  0.00000000000E+00 0. -1.
         -1   -1    0    0    0  501 -0.00000000000E+00 -0.00000000000E+00 -0.35434546985E+02  0.35434546985E+02  0.00000000000E+00 0.  1.
         25    2    1    2    0    0  0.16695899896E+03 -0.14440972944E+02  0.45933893002E+03  0.50470129720E+03  0.12508915914E+03 0.  0.
          5    1    3    3  502    0  0.83264235912E+02  0.41301428956E+02  0.31702138491E+03  0.33039184600E+03  0.41800000000E+01 0. -1.
         -5    1    3    3    0  502  0.83694763053E+02 -0.55742401900E+02  0.14231754511E+03  0.17430945120E+03  0.41800000000E+01 0. -1.
        -11    1    1    2    0    0 -0.83314725966E+02 -0.11421887787E+02  0.48610506734E+03  0.49332538915E+03  0.00000000000E+00 0. -1.
         11    1    1    2    0    0 -0.83644272999E+02  0.25862860731E+02  0.20044561446E+03  0.21873201944E+03  0.00000000000E+00 0.  1.
</event>
<event>
 7    1  0.2670433E-009  0.1620932E+03  0.7561462E-02  0.1186354E+00
         -1   -1    0    0    0  501 -0.00000000000E+00  0.00000000000E+00  0.54009363609E+03  0.54009363609E+03  0.00000000000E+00 0.  1.
          1   -1    0    0  501    0  0.00000000000E+00 -0.00000000000E+00 -0.86427286893E+02  0.86427286893E+02  0.00000000000E+00 0. -1.
         25    2    1    2    0    0 -0.74999916209E+02  0.12232640534E+03  0.40886056615E+03  0.45100357003E+03  0.12509404765E+03 0.  0.
          5    1    3    3  502    0 -0.22980880881E+02  0.11928872431E+03  0.35798220514E+03  0.37805641408E+03  0.41800000000E+01 0.  1.
         -5    1    3    3    0  502 -0.52019035328E+02  0.30376810333E+01  0.50878361010E+02  0.72947155953E+02  0.41800000000E+01 0.  1.
        -11    1    1    2    0    0  0.79840839626E+00 -0.38097714597E+02  0.50332345378E+02  0.63130169529E+02  0.00000000000E+00 0.  1.
         11    1    1    2    0    0  0.74201507813E+02 -0.84228690747E+02 -0.55265623231E+01  0.11238718342E+03  0.00000000000E+00 0. -1.
</event>
<event>
 7    1  0.2670433E-009  0.7931628E+02  0.7561462E-02  0.1331003E+00
         -2   -1    0    0    0  501 -0.00000000000E+00  0.00000000000E+00  0.31461355272E+02  0.31461355272E+02  0.00000000000E+00 0.  1.
          2   -1    0    0  501    0  0.00000000000E+00 -0.00000000000E+00 -0.41327827346E+03  0.41327827346E+03  0.00000000000E+00 0. -1.
         25    2    1    2    0    0 -0.81880925213E+01 -0.30603117570E+02 -0.17081929981E+03  0.21407837336E+03  0.12508685417E+03 0.  0.
          5    1    3    3  502    0  0.18382246727E+02 -0.33466710880E+02 -0.18110957591E+03  0.18513799885E+03  0.41800000000E+01 0. -1.
         -5    1    3    3    0  502 -0.26570339248E+02  0.28635933105E+01  0.10290276099E+02  0.28940374507E+02  0.41800000000E+01 0. -1.
        -11    1    1    2    0    0 -0.14894434957E+02 -0.27155677244E+02 -0.72336651509E+02  0.78688411795E+02  0.00000000000E+00 0. -1.
         11    1    1    2    0    0  0.23082527478E+02  0.57758794814E+02 -0.13866096687E+03  0.15197284358E+03  0.00000000000E+00 0.  1.
</event>
<event>
 7    1  0.2670433E-009  0.3823620E+03  0.7561462E-02  0.1050064E+00
          1   -1    0    0  501    0  0.00000000000E+00  0.00000000000E+00  0.33231958461E+03  0.33231958461E+03  0.00000000000E+00 0. -1.
         -1   -1    0    0    0  501 -0.00000000000E+00 -0.00000000000E+00 -0.46925435712E+03  0.46925435712E+03  0.00000000000E+00 0.  1.
         25    2    1    2    0    0  0.19637899435E+03 -0.31828409239E+03 -0.13585345405E+03  0.41710098454E+03  0.12509035708E+03 0.  0.
          5    1    3    3  502    0  0.19605318401E+03 -0.23011158983E+03 -0.12854691560E+03  0.32852698009E+03  0.41800000000E+01 0.  1.
         -5    1    3    3    0  502  0.32581033196E+00 -0.88172502555E+02 -0.73065384494E+01  0.88574004444E+02  0.41800000000E+01 0.  1.
        -11    1    1    2    0    0 -0.69343894660E+02  0.12136965937E+03 -0.43361421322E+02  0.14635362244E+03  0.00000000000E+00 0.  1.
         11    1    1    2    0    0 -0.12703509969E+03  0.19691443302E+03  0.42280102856E+02  0.23811933475E+03  0.00000000000E+00 0. -1.
</event>
<event>
 7    1  0.2670433E-009  0.1031606E+03  0.7561462E-02  0.1273787E+00
         -1   -1    0    0    0  501 -0.00000000000E+00  0.00000000000E+00  0.92413997476E+02  0.92413997476E+02  0.00000000000E+00 0.  1.
          1   -1    0    0  501    0  0.00000000000E+00 -0.00000000000E+00 -0.15437064530E+03  0.15437064530E+03  0.00000000000E+00 0. -1.
         25    2    1    2    0    0  0.39352643977E+02 -0.18122212282E+02 -0.57990259309E+02  0.14452495462E+03  0.12509015615E+03 0.  0.
          5    1    3    3  502    0  0.67506175539E+02 -0.30146268465E+02 -0.78127656635E+02  0.10764424912E+03  0.41800000000E+01 0. -1.
         -5    1    3    3    0  502 -0.28153531562E+02  0.12024056183E+02  0.20137397326E+02  0.36880705492E+02  0.41800000000E+01 0. -1.
        -11    1    1    2    0    0  0.15681327693E+02  0.39371933970E+02  0.46720188387E+01  0.42636615517E+02  0.00000000000E+00 0. -1.
         11    1    1    2    0    0 -0.55033971670E+02 -0.21249721688E+02 -0.86384073531E+01  0.59623072641E+02  0.00000000000E+00 0.  1.
</event>
<event>
 7    1  0.2670433E-009  0.7152538E+02  0.7561462E-02  0.1354981E+00
          4   -1    0    0  501    0  0.00000000000E+00  0.00000000000E+00  0.19106662449E+03  0.19106662449E+03  0.00000000000E+00 0. -1.
         -4   -1    0    0    0  501 -0.00000000000E+00 -0.00000000000E+00 -0.68658164964E+02  0.68658164964E+02  0.00000000000E+00 0.  1.
         25    2    1    2    0    0 -0.19683854327E+02 -0.88364681053E+01  0.11074520819E+03  0.16845387484E+03  0.12508664806E+03 0.  0.
          5    1    3    3  502    0 -0.27837898399E+02  0.14100569038E+02  0.13210165483E+03  0.13580167246E+03  0.41800000000E+01 0.  1.
         -5    1    3    3    0  502  0.81540440721E+01 -0.22937037143E+02 -0.21356446636E+02  0.32652202384E+02  0.41800000000E+01 0.  1.
        -11    1    1    2    0    0  0.50637866618E+02 -0.85649603976E+01 -0.58280798807E+01  0.51686735216E+02  0.00000000000E+00 0.  1.
         11    1    1    2    0    0 -0.30954012291E+02  0.17401428503E+02  0.17491331219E+02  0.39584179398E+02  0.00000000000E+00 0. -1.
</event>
<event>
 7    1  0.2670433E-009  0.1180868E+03  0.7561462E-02  0.1246287E+00
         -2   -1    0    0    0  501 -0.00000000000E+00  0.00000000000E+00  0.80062498880E+02  0.80062498880E+02  0.00000000000E+00 0.  1.
          2   -1    0    0  501    0  0.00000000000E+00 -0.00000000000E+00 -0.28561684751E+03  0.28561684751E+03  0.00000000000E+00 0. -1.
         25    2    1    2    0    0  0.99665705517E+02 -0.38268094318E+01 -0.69783337898E+02  0.17454335660E+03  0.12509105387E+03 0.  0.
          5    1    3    3  502    0  0.76227666563E+02  0.50382084981E+01 -0.10574078427E+03  0.13051676733E+03  0.41800000000E+01 0. -1.
         -5    1    3    3    0  502  0.23438038954E+02 -0.88650179298E+01  0.35957446376E+02  0.44026589270E+02  0.41800000000E+01 0. -1.
        -11    1    1    2    0    0 -0.10897099284E+03 -0.18078743190E+02 -0.11617809759E+03  0.16030866663E+03  0.00000000000E+00 0. -1.
         11    1    1    2    0    0  0.93052873281E+01  0.21905552622E+02 -0.19592913139E+02  0.30827323160E+02  0.00000000000E+00 0.  1.
</event>
<event>
 7    1  0.2670433E-009  0.1750624E+03  0.7561462E-02  0.1172669E+00
          1   -1    0    0  501    0  0.00000000000E+00  0.00000000000E+00  0.15198357631E+04  0.15198357631E+04  0.00000000000E+00 0. -1.
         -1   -1    0    0    0  501 -0.00000000000E+00 -0.00000000000E+00 -0.27208673612E+02  0.27208673612E+02  0.00000000000E+00 0.  1.
         25    2    1    2    0    0  0.66297453323E+02 -0.14306941959E+03  0.10402342828E+04  0.10595277497E+04  0.12508988031E+03 0.  0.
          5    1    3    3  502    0  0.96697960673E+02 -0.11704845371E+03  0.66404774310E+03  0.68119579684E+03  0.41800000000E+01 0.  1.
         -5    1    3    3    0  502 -0.30400507350E+02 -0.26020965883E+02  0.37618653972E+03  0.37833195290E+03  0.41800000000E+01 0.  1.
        -11    1    1    2    0    0 -0.13955328118E+02  0.21281452205E+02  0.13027151268E+02  0.28589474654E+02  0.00000000000E+00 0.  1.
         11    1    1    2    0    0 -0.52342125205E+02  0.12178796739E+03  0.43936565540E+03  0.45892721233E+03  0.00000000000E+00 0. -1.
</event>
<event>
 7    1  0.2670433E-009  0.1424173E+03  0.7561462E-02  0.1210113E+00
         -2   -1    0    0    0  501 -0.00000000000E+00  0.00000000000E+00  0.29534311666E+03  0.29534311666E+03  0.00000000000E+00 0. -1.
          2   -1    0    0  501    0  0.00000000000E+00 -0.00000000000E+00 -0.13409531622E+03  0.13409531622E+03  0.00000000000E+00 0.  1.
         25    2    1    2    0    0  0.13097306749E+02 -0.93582497071E+02 -0.60580232965E+02  0.16806230151E+03  0.12508296991E+03 0.  0.
          5    1    3    3  502    0  0.33943661814E+02  0.14259663742E+02  0.87932593053E+01  0.38082856991E+02  0.41800000000E+01 0. -1.
         -5    1    3    3    0  502 -0.20846355064E+02 -0.10784216081E+03 -0.69373492270E+02  0.12997944452E+03  0.41800000000E+01 0. -1.
        -11    1    1    2    0    0  0.36852763854E+02  0.76773261265E+02  0.14624174367E+03  0.16923033842E+03  0.00000000000E+00 0.  1.
         11    1    1    2    0    0 -0.49950070604E+02  0.16809235806E+02  0.75586289734E+02  0.92145792945E+02  0.00000000000E+00 0. -1.
</event>
<event>
 7    1  0.2670433E-009  0.1075505E+03  0.7561462E-02  0.1265174E+00
          4   -1    0    0  501    0  0.00000000000E+00  0.00000000000E+00  0.63198905345E+03  0.63198905345E+03  0.00000000000E+00 0. -1.
         -4   -1    0    0    0  501 -0.00000000000E+00 -0.00000000000E+00 -0.20211132245E+02  0.20211132245E+02  0.00000000000E+00 0.  1.
         25    2    1    2    0    0 -0.87730584151E+01 -0.51798776090E+01  0.29964433975E+03  0.32486680189E+03  0.12509161020E+03 0.  0.
          5    1    3    3  502    0  0.98329899752E+01 -0.62926634068E+02  0.13436749940E+03  0.14875666796E+03  0.41800000000E+01 0. -1.
         -5    1    3    3    0  502 -0.18606048390E+02  0.57746756459E+02  0.16527684035E+03  0.17611013393E+03  0.41800000000E+01 0. -1.
        -11    1    1    2    0    0 -0.42662176257E+01 -0.41639971203E+02  0.21119896454E+03  0.21530696792E+03  0.00000000000E+00 0. -1.
         11    1    1    2    0    0  0.13039276041E+02  0.46819848812E+02  0.10093461692E+03  0.11202641588E+03  0.00000000000E+00 0.  1.
</event>
<event>
 7    1  0.2670433E-009  0.9706367E+02  0.7561462E-02  0.1286595E+00
          3   -1    0    0  501    0  0.00000000000E+00  0.00000000000E+00  0.15375017856E+03  0.15375017856E+03  0.00000000000E+00 0. -1.
         -3   -1    0    0    0  501 -0.00000000000E+00 -0.00000000000E+00 -0.11173562524E+03  0.11173562524E+03  0.00000000000E+00 0.  1.
         25    2    1    2    0    0 -0.12361335538E+02  0.37202183917E+02 -0.38978980138E+02  0.13676806092E+03  0.12509730809E+03 0.  0.
          5    1    3    3  502    0  0.41220999336E+02  0.31998486489E+01  0.23394663205E+02  0.47688494253E+02  0.41800000000E+01 0. -1.
         -5    1    3    3    0  502 -0.53582334874E+02  0.34002335268E+02 -0.62373643343E+02  0.89079566670E+02  0.41800000000E+01 0. -1.
        -11    1    1    2    0    0 -0.12891059090E+02  0.21501041168E+02  0.53632646952E+02  0.59202491458E+02  0.00000000000E+00 0. -1.
         11    1    1    2    0    0  0.25252394628E+02 -0.58703225085E+02  0.27360886505E+02  0.69515251421E+02  0.00000000000E+00 0.  1.
</event>
<event>
 7    1  0.2670433E-009  0.9272009E+02  0.7561462E-02  0.1296395E+00
          1   -1    0    0  501    0  0.00000000000E+00  0.00000000000E+00  0.45522950124E+02  0.45522950124E+02  0.00000000000E+00 0. -1.
         -1   -1    0    0    0  501 -0.00000000000E+00 -0.00000000000E+00 -0.31440640852E+03  0.31440640852E+03  0.00000000000E+00 0.  1.
         25    2    1    2    0    0  0.54722102104E+00 -0.45507359401E+02 -0.11636801572E+03  0.17680866330E+03  0.12509424098E+03 0.  0.
          5    1    3    3  502    0  0.53535023112E+02 -0.20073877755E+01 -0.86676870346E+02  0.10198225610E+03  0.41800000000E+01 0.  1.
         -5    1    3    3    0  502 -0.52987802091E+02 -0.43499971625E+02 -0.29691145374E+02  0.74826407207E+02  0.41800000000E+01 0.  1.
        -11    1    1    2    0    0 -0.22065995797E+02  0.23803204154E+02 -0.14883889133E+03  0.15233685133E+03  0.00000000000E+00 0.  1.
         11    1    1    2    0    0  0.21518774776E+02  0.21704155246E+02 -0.36765513459E+01  0.30783844020E+02  0.00000000000E+00 0. -1.
</event>
<event>
 7    1  0.2670433E-009  0.9937393E+02  0.7561462E-02  0.1281618E+00
         -2   -1    0    0    0  501 -0.00000000000E+00  0.00000000000E+00  0.39047442461E+02  0.39047442461E+02  0.00000000000E+00 0. -1.
          2   -1    0    0  501    0  0.00000000000E+00 -0.00000000000E+00 -0.37298079072E+03  0.37298079072E+03  0.00000000000E+00 0.  1.
         25    2    1    2    0    0  0.37167603699E+02 -0.37238193100E+02 -0.19066101736E+03  0.23402291067E+03  0.12508791064E+03 0.  0.
          5    1    3    3  502    0  0.56977865061E+02 -0.59436148947E+02 -0.65465096482E+02  0.10527242833E+03  0.41800000000E+01 0. -1.
         -5    1    3    3    0  502 -0.19810261362E+02  0.22197955847E+02 -0.12519592088E+03  0.12875048235E+03  0.41800000000E+01 0. -1.
        -11    1    1    2    0    0 -0.47887877982E+02  0.39370650951E+00 -0.12807063328E+03  0.13673145568E+03  0.00000000000E+00 0.  1.
         11    1    1    2    0    0  0.10720274283E+02  0.36844486590E+02 -0.15201697614E+02  0.41273866831E+02  0.00000000000E+00 0. -1.
</event>
<event>
 7    1  0.2670433E-009  0.6193101E+02  0.7561462E-02  0.1389902E+00
          2   -1    0    0  501    0  0.00000000000E+00  0.00000000000E+00  0.15863504458E+03  0.15863504458E+03  0.00000000000E+00 0. -1.
         -2   -1    0    0    0  501 -0.00000000000E+00 -0.00000000000E+00 -0.74626666495E+02  0.74626666495E+02  0.00000000000E+00 0.  1.
         25    2    1    2    0    0 -0.10554925093E+02 -0.26758000483E+01  0.46820490604E+02  0.13402318389E+03  0.12510591166E+03 0.  0.
          5    1    3    3  502    0 -0.29926210006E+02  0.36294683781E+02 -0.22307588849E+02  0.52230097036E+02  0.41800000000E+01 0. -1.
         -5    1    3    3    0  502  0.19371284914E+02 -0.38970483829E+02  0.69128079453E+02  0.81793086859E+02  0.41800000000E+01 0. -1.
        -11    1    1    2    0    0  0.58036322272E+01  0.16926460470E+02 -0.27511171794E+02  0.32818467127E+02  0.00000000000E+00 0.  1.
         11    1    1    2    0    0  0.47512928655E+01 -0.14250660421E+02  0.64699059273E+02  0.66420060051E+02  0.00000000000E+00 0. -1.
</event>
<event>
 7    1  0.2670433E-009  0.3440315E+03  0.7561462E-02  0.1065092E+00
          2   -1    0    0  501    0  0.00000000000E+00  0.00000000000E+00  0.73450088805E+03  0.73450088805E+03  0.00000000000E+00 0. -1.
         -2   -1    0    0    0  501 -0.00000000000E+00 -0.00000000000E+00 -0.17907483910E+03  0.17907483910E+03  0.00000000000E+00 0.  1.
         25    2    1    2    0    0 -0.31739769414E+03 -0.91551310645E+02  0.41013093399E+03  0.54127619724E+03  0.12509836114E+03 0.  0.
          5    1    3    3  502    0 -0.41997536752E+02 -0.52233429608E+02  0.39747840027E+02  0.78035168025E+02  0.41800000000E+01 0. -1.
         -5    1    3    3    0  502 -0.27540015738E+03 -0.39317881037E+02  0.37038309396E+03  0.46324102921E+03  0.41800000000E+01 0. -1.
        -11    1    1    2    0    0  0.18419992424E+03  0.99302935955E+02  0.92920098118E+02  0.22896469119E+03  0.00000000000E+00 0.  1.
         11    1    1    2    0    0  0.13319776990E+03 -0.77516253095E+01  0.52375016845E+02  0.14333483872E+03  0.00000000000E+00 0. -1.
</event>
<event>
 7    1  0.2670433E-009  0.8233105E+02  0.7561462E-02  0.1322563E+00
         -1   -1    0    0    0  501 -0.00000000000E+00  0.00000000000E+00  0.11048113968E+03  0.11048113968E+03  0.00000000000E+00 0.  1.
          1   -1    0    0  501    0  0.00000000000E+00 -0.00000000000E+00 -0.12963426707E+03  0.12963426707E+03  0.00000000000E+00 0. -1.
         25    2    1    2    0    0 -0.30482844473E+02  0.36209699823E+02 -0.22590782212E+02  0.13564343889E+03  0.12509377644E+03 0.  0.
          5    1    3    3  502    0  0.21161698203E+02 -0.23973256277E+02  0.26963863987E+02  0.42036375302E+02  0.41800000000E+01 0.  1.
         -5    1    3    3    0  502 -0.51644542676E+02  0.60182956100E+02 -0.49554646200E+02  0.93607063585E+02  0.41800000000E+01 0.  1.
        -11    1    1    2    0    0 -0.13821826698E+01 -0.14210012195E+02  0.45270753348E+02  0.47468684248E+02  0.00000000000E+00 0.  1.
         11    1    1    2    0    0  0.31865027142E+02 -0.21999687628E+02 -0.41833098530E+02  0.57003283617E+02  0.00000000000E+00 0. -1.
</event>
<event>
 7    1  0.2670433E-009  0.1051492E+03  0.7561462E-02  0.1269826E+00
         -1   -1    0    0    0  501 -0.00000000000E+00  0.00000000000E+00  0.15933008182E+03  0.15933008182E+03  0.00000000000E+00 0.  1.
          1   -1    0    0  501    0  0.00000000000E+00 -0.00000000000E+00 -0.10540082628E+03  0.10540082628E+03  0.00000000000E+00 0. -1.
         25    2    1    2    0    0 -0.41308536822E+02  0.45571685983E+02 -0.10543218148E+02  0.13979003727E+03  0.12508765444E+03 0.  0.
          5    1    3    3  502    0  0.32944629594E+02  0.55073369813E+02 -0.75819589952E+01  0.64756337017E+02  0.41800000000E+01 0.  1.
         -5    1    3    3    0  502 -0.74253166416E+02 -0.95016838292E+01 -0.29612591532E+01  0.75033700256E+02  0.41800000000E+01 0.  1.
        -11    1    1    2    0    0  0.32567464119E+02 -0.95408291038E+01  0.78325572723E+02  0.85361364103E+02  0.00000000000E+00 0.  1.
         11    1    1    2    0    0  0.87410727022E+01 -0.36030856880E+02 -0.13853099035E+02  0.39579506722E+02  0.00000000000E+00 0. -1.
</event>
<event>
 7    1  0.2670433E-009  0.2566045E+03  0.7561462E-02  0.1109201E+00
         -2   -1    0    0    0  501 -0.00000000000E+00  0.00000000000E+00  0.10357080148E+03  0.10357080148E+03  0.00000000000E+00 0.  1.
          2   -1    0    0  501    0  0.00000000000E+00 -0.00000000000E+00 -0.72181465799E+03  0.72181465799E+03  0.00000000000E+00 0. -1.
         25    2    1    2    0    0 -0.16634574033E+03 -0.18713184692E+03 -0.31367284490E+03  0.42038798703E+03  0.12508466156E+03 0.  0.
          5    1    3    3  502    0 -0.36129512700E+02 -0.35588641775E+02 -0.29829172578E+01  0.50973162613E+02  0.41800000000E+01 0.  1.
         -5    1    3    3    0  502 -0.13021622763E+03 -0.15154320515E+03 -0.31068992764E+03  0.36941482442E+03  0.41800000000E+01 0.  1.
        -11    1    1    2    0    0  0.15886114840E+03  0.13117058019E+03 -0.26673952911E+03  0.33703495660E+03  0.00000000000E+00 0.  1.
         11    1    1    2    0    0  0.74845919323E+01  0.55961266731E+02 -0.37831482496E+02  0.67962515834E+02  0.00000000000E+00 0. -1.
</event>
<event>
 7    1  0.2670433E-009  0.1041659E+03  0.7561462E-02  0.1271772E+00
          2   -1    0    0  501    0  0.00000000000E+00  0.00000000000E+00  0.26116348336E+02  0.26116348336E+02  0.00000000000E+00 0. -1.
         -2   -1    0    0    0  501 -0.00000000000E+00 -0.00000000000E+00 -0.66836216318E+03  0.66836216318E+03  0.00000000000E+00 0.  1.
         25    2    1    2    0    0 -0.65569022142E+01 -0.18284398365E+02 -0.16169355154E+03  0.20535423269E+03  0.12509294179E+03 0.  0.
          5    1    3    3  502    0 -0.51579899647E+02  0.22539433301E+02 -0.11665821744E+03  0.12959600378E+03  0.41800000000E+01 0. -1.
         -5    1    3    3    0  502  0.45022997433E+02 -0.40823831666E+02 -0.45035334100E+02  0.75758228908E+02  0.41800000000E+01 0. -1.
        -11    1    1    2    0    0 -0.23109058072E+02 -0.27806414454E+02 -0.20715560276E+03  0.21028711089E+03  0.00000000000E+00 0. -1.
         11    1    1    2    0    0  0.29665960286E+02  0.46090812819E+02 -0.27339666054E+03  0.27883716794E+03  0.00000000000E+00 0.  1.
</event>
<event>
 7    1  0.2670433E-009  0.9602909E+02  0.7561462E-02  0.1288875E+00
          1   -1    0    0  501    0  0.00000000000E+00  0.00000000000E+00  0.39925744802E+03  0.39925744802E+03  0.00000000000E+00 0. -1.
         -1   -1    0    0    0  501 -0.00000000000E+00 -0.00000000000E+00 -0.37056855303E+02  0.37056855303E+02  0.00000000000E+00 0.  1.
         25    2    1    2    0    0 -0.45614130561E+02 -0.22327768487E+02  0.24548804787E+03  0.28016288574E+03  0.12509069809E+03 0.  0.
          5    1    3    3  502    0 -0.15660468602E+02  0.39098625395E+02  0.24706755694E+02  0.49008662107E+02  0.41800000000E+01 0.  1.
         -5    1    3    3    0  502 -0.29953661958E+02 -0.61426393882E+02  0.22078129218E+03  0.23115422364E+03  0.41800000000E+01 0.  1.
        -11    1    1    2    0    0  0.44696188685E+02 -0.12510775818E+02  0.15226017078E+02  0.48847726566E+02  0.00000000000E+00 0.  1.
         11    1    1    2    0    0  0.91794187529E+00  0.34838544304E+02  0.10148652777E+03  0.10730369102E+03  0.00000000000E+00 0. -1.
</event>
<event>
 7    1  0.2670433E-009  0.1491327E+03  0.7561462E-02  0.1201543E+00
         -1   -1    0    0    0  501 -0.00000000000E+00  0.00000000000E+00  0.14602068628E+02  0.14602068628E+02  0.00000000000E+00 0.  1.
          1   -1    0    0  501    0  0.00000000000E+00 -0.00000000000E+00 -0.18137032263E+04  0.18137032263E+04  0.00000000000E+00 0. -1.
         25    2    1    2    0    0  0.78213653659E+02 -0.82985016953E+02 -0.11981054120E+04  0.12100033652E+04  0.12509067410E+03 0.  0.
          5    1    3    3  502    0  0.69447138160E+02 -0.10706672163E+03 -0.11287047348E+04  0.11359040622E+04  0.41800000000E+01 0.  1.
         -5    1    3    3    0  502  0.87665154993E+01  0.24081704679E+02 -0.69400677255E+02  0.74099302950E+02  0.41800000000E+01 0.  1.
        -11    1    1    2    0    0 -0.51950323146E+02  0.10043909179E+03 -0.49260624678E+03  0.50541840251E+03  0.00000000000E+00 0.  1.
         11    1    1    2    0    0 -0.26263330513E+02 -0.17454074834E+02 -0.10838949891E+03  0.11288352728E+03  0.00000000000E+00 0. -1.
</event>
<event>
 7    1  0.2670433E-009  0.1216286E+03  0.7561462E-02  0.1240434E+00
         -2   -1    0    0    0  501 -0.00000000000E+00  0.00000000000E+00  0.15210355327E+02  0.15210355327E+02  0.00000000000E+00 0. -1.
          2   -1    0    0  501    0  0.00000000000E+00 -0.00000000000E+00 -0.10659907628E+04  0.10659907628E+04  0.00000000000E+00 0.  1.
         25    2    1    2    0    0 -0.44058687100E+02  0.37440174951E+02 -0.45253337676E+03  0.47304906981E+03  0.12508409475E+03 0.  0.
          5    1    3    3  502    0  0.39616579527E+02 -0.49747847338E+01 -0.19085927537E+03  0.19503578454E+03  0.41800000000E+01 0. -1.
         -5    1    3    3    0  502 -0.83675266626E+02  0.42414959685E+02 -0.26167410139E+03  0.27801328527E+03  0.41800000000E+01 0. -1.
        -11    1    1    2    0    0  0.55959464220E+02  0.12943295786E+02 -0.32802221587E+03  0.33301285958E+03  0.00000000000E+00 0.  1.
         11    1    1    2    0    0 -0.11900777121E+02 -0.50383470737E+02 -0.27022481484E+03  0.27513918873E+03  0.00000000000E+00 0. -1.
</event>
<event>
 7    1  0.2670433E-009  0.6924141E+02  0.7561462E-02  0.1362692E+00
          1   -1    0    0  501    0  0.00000000000E+00  0.00000000000E+00  0.18223899741E+03  0.18223899741E+03  0.00000000000E+00 0. -1.
         -1   -1    0    0    0  501 -0.00000000000E+00 -0.00000000000E+00 -0.89166769588E+02  0.89166769588E+02  0.00000000000E+00 0.  1.
         25    2    1    2    0    0 -0.38781839099E+02  0.29724749752E+02  0.90156365988E+02  0.16175155939E+03  0.12509118612E+03 0.  0.
          5    1    3    3  502    0 -0.23790211247E+01  0.18939608970E+02 -0.29925943100E+02  0.35740775032E+02  0.41800000000E+01 0. -1.
         -5    1    3    3    0  502 -0.36402817974E+02  0.10785140782E+02  0.12008230909E+03  0.12601078436E+03  0.41800000000E+01 0. -1.
        -11    1    1    2    0    0  0.38214082607E+01  0.19777296523E+02 -0.33399685502E+02  0.39003635862E+02  0.00000000000E+00 0.  1.
         11    1    1    2    0    0  0.34960430838E+02 -0.49502046274E+02  0.36315547331E+02  0.70650571743E+02  0.00000000000E+00 0. -1.
</event>
<event>
 7    1  0.2670433E-009  0.1903698E+03  0.7561462E-02  0.1158128E+00
          2   -1    0    0  501    0  0.00000000000E+00  0.00000000000E+00  0.25390471979E+03  0.25390471979E+03  0.00000000000E+00 0.  1.
         -2   -1    0    0    0  501 -0.00000000000E+00 -0.00000000000E+00 -0.16260800241E+03  0.16260800241E+03  0.00000000000E+00 0. -1.
         25    2    1    2    0    0 -0.12598025667E+03  0.11685004345E+03  0.11041054497E+02  0.21282502124E+03  0.12509047549E+03 0.  0.
          5    1    3    3  502    0 -0.23769169172E+02  0.91920165516E+02  0.40779692199E+02  0.10341540469E+03  0.41800000000E+01 0. -1.
         -5    1    3    3    0  502 -0.10221108750E+03  0.24929877931E+02 -0.29738637702E+02  0.10940961655E+03  0.41800000000E+01 0. -1.
        -11    1    1    2    0    0  0.56003334109E+02 -0.88882884947E+02  0.73110660293E+02  0.12799105170E+03  0.00000000000E+00 0.  1.
         11    1    1    2    0    0  0.69976922565E+02 -0.27967158501E+02  0.71450025903E+01  0.75696649254E+02  0.00000000000E+00 0. -1.
</event>
<event>
 7    1  0.2670433E-009  0.1096757E+03  0.7561462E-02  0.1261172E+00
          2   -1    0    0  501    0  0.00000000000E+00  0.00000000000E+00  0.10259306032E+03  0.10259306032E+03  0.00000000000E+00 0. -1.
         -2   -1    0    0    0  501 -0.00000000000E+00 -0.00000000000E+00 -0.15834127620E+03  0.15834127620E+03  0.00000000000E+00 0.  1.
         25    2    1    2    0    0  0.17314800267E+02 -0.58611250918E+02  0.19725451156E+01  0.13923832324E+03  0.12509331989E+03 0.  0.
          5    1    3    3  502    0  0.67192940657E+02 -0.32482171972E+02 -0.21967035072E+02  0.77910241945E+02  0.41800000000E+01 0. -1.
         -5    1    3    3    0  502 -0.49878140390E+02 -0.26129078946E+02  0.23939580187E+02  0.61328081291E+02  0.41800000000E+01 0. -1.
        -11    1    1    2    0    0 -0.41521723336E+02  0.39335557876E+02 -0.68215581176E+02  0.89020812945E+02  0.00000000000E+00 0.  1.
         11    1    1    2    0    0  0.24206923070E+02  0.19275693042E+02  0.10494820174E+02  0.32675200339E+02  0.00000000000E+00 0. -1.
</event>
<event>
 7    1  0.2670433E-009  0.1647773E+03  0.7561462E-02  0.1183406E+00
          2   -1    0    0  501    0  0.00000000000E+00  0.00000000000E+00  0.12096940323E+04  0.12096940323E+04  0.00000000000E+00 0. -1.
         -2   -1    0    0    0  501 -0.00000000000E+00 -0.00000000000E+00 -0.33099675106E+02  0.33099675106E+02  0.00000000000E+00 0.  1.
         25    2    1    2    0    0  0.62425969371E+01  0.13009933648E+03  0.82103735880E+03  0.84066283556E+03  0.12508737418E+03 0.  0.
          5    1    3    3  502    0 -0.17253341821E+02  0.10675272579E+02  0.44318965855E+03  0.44367351183E+03  0.41800000000E+01 0.  1.
         -5    1    3    3    0  502  0.23495938758E+02  0.11942406390E+03  0.37784770025E+03  0.39698932374E+03  0.41800000000E+01 0.  1.
        -11    1    1    2    0    0 -0.54857036147E+02 -0.12699997316E+03  0.27850898184E+03  0.31097514460E+03  0.00000000000E+00 0. -1.
         11    1    1    2    0    0  0.48614439210E+02 -0.30993633215E+01  0.77048016509E+02  0.91155727196E+02  0.00000000000E+00 0.  1.
</event>
<event>
 7    1  0.2670433E-009  0.1881289E+03  0.7561462E-02  0.1160160E+00
         -2   -1    0    0    0  501 -0.00000000000E+00  0.00000000000E+00  0.93917097900E+02  0.93917097900E+02  0.00000000000E+00 0. -1.
          2   -1    0    0  501    0  0.00000000000E+00 -0.00000000000E+00 -0.47850637718E+03  0.47850637718E+03  0.00000000000E+00 0.  1.
         25    2    1    2    0    0  0.58650930175E+02 -0.16740363503E+03 -0.25710758088E+03  0.33647305467E+03  0.12508357104E+03 0.  0.
          5    1    3    3  502    0  0.24150362064E+02 -0.39314415003E+02  0.89285504117E+00  0.46337164403E+02  0.41800000000E+01 0.  1.
         -5    1    3    3    0  502  0.34500568112E+02 -0.12808922003E+03 -0.25800043592E+03  0.29013589027E+03  0.41800000000E+01 0.  1.
        -11    1    1    2    0    0  0.64478543586E+01  0.11067045025E+03 -0.85124497693E+02  0.13977018099E+03  0.00000000000E+00 0. -1.
         11    1    1    2    0    0 -0.65098784534E+02  0.56733184779E+02 -0.42357200706E+02  0.96180239419E+02  0.00000000000E+00 0.  1.
</event>
<event>
 7    1  0.2670433E-009  0.1114432E+03  0.7561462E-02  0.1257920E+00
          2   -1    0    0  501    0  0.00000000000E+00  0.00000000000E+00  0.45085768005E+03  0.45085768005E+03  0.00000000000E+00 0. -1.
         -2   -1    0    0    0  501 -0.00000000000E+00 -0.00000000000E+00 -0.35811479488E+02  0.35811479488E+02  0.00000000000E+00 0.  1.
         25    2    1    2    0    0  0.56543523840E+02  0.15263045904E+01  0.28542024104E+03  0.31672002614E+03  0.12508941311E+03 0.  0.
          5    1    3    3  502    0  0.65024577804E+02  0.39593758703E+02  0.92598579488E+02  0.11994928416E+03  0.41800000000E+01 0.  1.
         -5    1    3    3    0  502 -0.84810539637E+01 -0.38067454113E+02  0.19282166155E+03  0.19677074198E+03  0.41800000000E+01 0.  1.
        -11    1    1    2    0    0 -0.67716845723E+02  0.29929282077E+02  0.71530628100E+02  0.10294641265E+03  0.00000000000E+00 0.  1.
         11    1    1    2    0    0  0.11173321883E+02 -0.31455586667E+02  0.58095331430E+02  0.67002720754E+02  0.00000000000E+00 0. -1.
</event>
<event>
 7    1  0.2670433E-009  0.8547822E+02  0.7561462E-02  0.1314187E+00
          4   -1    0    0  501    0  0.00000000000E+00  0.00000000000E+00  0.55719003443E+02  0.55719003443E+02  0.00000000000E+00 0. -1.
         -4   -1    0    0    0  501 -0.00000000000E+00 -0.00000000000E+00 -0.36256238329E+03  0.36256238329E+03  0.00000000000E+00 0.  1.
         25    2    1    2    0    0 -0.58001638825E+02  0.16779811946E+02 -0.26839047927E+03  0.30220303678E+03  0.12508986323E+03 0.  0.
          5    1    3    3  502    0 -0.30188093663E+02  0.51429224992E+02 -0.46139320407E+02  0.75515531316E+02  0.41800000000E+01 0.  1.
         -5    1    3    3    0  502 -0.27813545162E+02 -0.34649413046E+02 -0.22225115886E+03  0.22668750546E+03  0.41800000000E+01 0.  1.
        -11    1    1    2    0    0  0.47451417709E+02 -0.87218031672E+00 -0.66776067223E+02  0.81923384298E+02  0.00000000000E+00 0.  1.
         11    1    1    2    0    0  0.10550221115E+02 -0.15907631629E+02  0.28323166648E+02  0.34154965650E+02  0.00000000000E+00 0. -1.
</event>
<event>
 7    1  0.2670433E-009  0.8088453E+02  0.7561462E-02  0.1326560E+00
         -2   -1    0    0    0  501 -0.00000000000E+00  0.00000000000E+00  0.14311680401E+03  0.14311680401E+03  0.00000000000E+00 0.  1.
          2   -1    0    0  501    0  0.00000000000E+00 -0.00000000000E+00 -0.98663080236E+02  0.98663080236E+02  0.00000000000E+00 0. -1.
         25    2    1    2    0    0  0.24007735942E+02 -0.23516569886E+02  0.60015384284E+02  0.14275375143E+03  0.12508951496E+03 0.  0.
          5    1    3    3  502    0  0.14357372115E+02 -0.64403783244E+02 -0.38125689181E+01  0.66226803576E+02  0.41800000000E+01 0.  1.
         -5    1    3    3    0  502  0.96503638277E+01  0.40887213358E+02  0.63827953202E+02  0.76526947856E+02  0.41800000000E+01 0.  1.
        -11    1    1    2    0    0  0.11199733603E+02  0.11943588890E+02  0.33648959122E+02  0.37421060893E+02  0.00000000000E+00 0.  1.
         11    1    1    2    0    0 -0.35207469545E+02  0.11572980996E+02 -0.49210619636E+02  0.61605071917E+02  0.00000000000E+00 0. -1.
</event>
<event>
 7    1  0.2787555E-009  0.2518149E+03  0.7561462E-02  0.1112163E+00
          2   -1    0    0  501    0  0.00000000000E+00  0.00000000000E+00  0.11140993361E+04  0.11140993361E+04  0.00000000000E+00 0. -1.
         -2   -1    0    0    0  501 -0.00000000000E+00 -0.00000000000E+00 -0.58670350138E+02  0.58670350138E+02  0.00000000000E+00 0.  1.
         25    2    1    2    0    0  0.30038032019E+02  0.22883956177E+03  0.51585899131E+03  0.57881561868E+03  0.12508874096E+03 0.  0.
          5    1    3    3  502    0  0.77360602681E+02  0.16538056877E+03  0.34094251546E+03  0.38677469750E+03  0.41800000000E+01 0. -1.
         -5    1    3    3    0  502 -0.47322570662E+02  0.63458992998E+02  0.17491647584E+03  0.19204092118E+03  0.41800000000E+01 0. -1.
        -11    1    1    2    0    0  0.19931369345E+02 -0.12400264307E+03  0.34752829880E+03  0.36952649896E+03  0.00000000000E+00 0.  1.
         11    1    1    2    0    0 -0.49969401364E+02 -0.10483691870E+03  0.19204169584E+03  0.22442756858E+03  0.00000000000E+00 0. -1.
</event>
<event>
 7    1  0.2670433E-009  0.1236190E+03  0.7561462E-02  0.1237244E+00
          2   -1    0    0  501    0  0.00000000000E+00  0.00000000000E+00  0.82102009767E+03  0.82102009767E+03  0.00000000000E+00 0. -1.
         -2   -1    0    0    0  501 -0.00000000000E+00 -0.00000000000E+00 -0.19780366209E+02  0.19780366209E+02  0.00000000000E+00 0.  1.
         25    2    1    2    0    0  0.47607734922E+02  0.39424407993E+02  0.36560574250E+03  0.39132908749E+03  0.12510042125E+03 0.  0.
          5    1    3    3  502    0  0.69305107677E+02 -0.20809549932E+02  0.15389018588E+03  0.17010554673E+03  0.41800000000E+01 0. -1.
         -5    1    3    3    0  502 -0.21697372754E+02  0.60233957925E+02  0.21171555662E+03  0.22122354076E+03  0.41800000000E+01 0. -1.
        -11    1    1    2    0    0 -0.69321444563E+02 -0.44937604967E+01  0.26570866540E+03  0.27463931151E+03  0.00000000000E+00 0.  1.
         11    1    1    2    0    0  0.21713709641E+02 -0.34930647496E+02  0.16992532356E+03  0.17483206488E+03  0.00000000000E+00 0. -1.
</event>
<event>
 7    1  0.2670433E-009  0.1032013E+03  0.7561462E-02  0.1273704E+00
         -4   -1    0    0    0  501 -0.00000000000E+00  0.00000000000E+00  0.95562426914E+02  0.95562426914E+02  0.00000000000E+00 0.  1.
          4   -1    0    0  501    0  0.00000000000E+00 -0.00000000000E+00 -0.16767011861E+03  0.16767011861E+03  0.00000000000E+00 0. -1.
         25    2    1    2    0    0  0.37994420744E+02  0.53514926886E+01 -0.91605690153E+02  0.15972860360E+03  0.12509760133E+03 0.  0.
          5    1    3    3  502    0  0.45155623404E+02  0.50009563905E+02 -0.12714124730E+02  0.68695765333E+02  0.41800000000E+01 0.  1.
         -5    1    3    3    0  502 -0.71612026600E+01 -0.44658071217E+02 -0.78891565423E+02  0.91032838269E+02  0.41800000000E+01 0.  1.
        -11    1    1    2    0    0  0.23910524777E+02 -0.18444613597E+02 -0.12399121108E+02  0.32644374249E+02  0.00000000000E+00 0. -1.
         11    1    1    2    0    0 -0.61904945521E+02  0.13093120909E+02  0.31897119562E+02  0.70859567677E+02  0.00000000000E+00 0.  1.
</event>
<event>
 7    1  0.2670433E-009  0.1537255E+03  0.7561462E-02  0.1195968E+00
          2   -1    0    0  501    0  0.00000000000E+00  0.00000000000E+00  0.40652716720E+03  0.40652716720E+03  0.00000000000E+00 0. -1.
         -2   -1    0    0    0  501 -0.00000000000E+00 -0.00000000000E+00 -0.76743495244E+02  0.76743495244E+02  0.00000000000E+00 0.  1.
         25    2    1    2    0    0 -0.11234078373E+03  0.70962600185E+02  0.12130070372E+03  0.21912969014E+03  0.12509123896E+03 0.  0.
          5    1    3    3  502    0 -0.10105905523E+03  0.15529531405E+02  0.21846969288E+02  0.10463680737E+03  0.41800000000E+01 0. -1.
         -5    1    3    3    0  502 -0.11281728500E+02  0.55433068780E+02  0.99453734435E+02  0.11449288277E+03  0.41800000000E+01 0. -1.
        -11    1    1    2    0    0  0.63338972073E+02 -0.76232664121E+02  0.82824669046E+02  0.12916334722E+03  0.00000000000E+00 0.  1.
         11    1    1    2    0    0  0.49001811653E+02  0.52700639358E+01  0.12565829919E+03  0.13497762509E+03  0.00000000000E+00 0. -1.
</event>
<event>
 7    1  0.2670433E-009  0.6089839E+02  0.7561462E-02  0.1394100E+00
         -2   -1    0    0    0  501 -0.00000000000E+00  0.00000000000E+00  0.13688340072E+03  0.13688340072E+03  0.00000000000E+00 0.  1.
          2   -1    0    0  501    0  0.00000000000E+00 -0.00000000000E+00 -0.88128144885E+02  0.88128144885E+02  0.00000000000E+00 0. -1.
         25    2    1    2    0    0 -0.25387945721E+02  0.92802803350E-01  0.35493969316E+02  0.13248305213E+03  0.12508949134E+03 0.  0.
          5    1    3    3  502    0  0.95695989025E+01 -0.20839346190E+01  0.77159782751E+02  0.77891106558E+02  0.41800000000E+01 0. -1.
         -5    1    3    3    0  502 -0.34957544623E+02  0.21767374224E+01 -0.41665813435E+02  0.54591945570E+02  0.41800000000E+01 0. -1.
        -11    1    1    2    0    0 -0.14191665626E+02  0.25187311301E+02  0.30942114323E+02  0.42346410268E+02  0.00000000000E+00 0.  1.
         11    1    1    2    0    0  0.39579611347E+02 -0.25280114104E+02 -0.17680827803E+02  0.50182083210E+02  0.00000000000E+00 0. -1.
</event>
<event>
 7    1  0.2670433E-009  0.1050429E+03  0.7561462E-02  0.1270035E+00
          1   -1    0    0  501    0  0.00000000000E+00  0.00000000000E+00  0.26161594181E+03  0.26161594181E+03  0.00000000000E+00 0. -1.
         -1   -1    0    0    0  501 -0.00000000000E+00 -0.00000000000E+00 -0.10914116038E+03  0.10914116038E+03  0.00000000000E+00 0.  1.
         25    2    1    2    0    0  0.39850254852E+02 -0.45894266828E+00 -0.52146916214E+02  0.14126068748E+03  0.12508807903E+03 0.  0.
          5    1    3    3  502    0  0.21039477595E+02 -0.52564123394E+02 -0.62839125379E+02  0.84686922037E+02  0.41800000000E+01 0.  1.
         -5    1    3    3    0  502  0.18810777257E+02  0.52105180725E+02  0.10692209165E+02  0.56573765442E+02  0.41800000000E+01 0.  1.
        -11    1    1    2    0    0 -0.43373753887E+02  0.39436928601E+02  0.15857962526E+03  0.16906818569E+03  0.00000000000E+00 0. -1.
         11    1    1    2    0    0  0.35234990344E+01 -0.38977985932E+02  0.46042072386E+02  0.60428229019E+02  0.00000000000E+00 0.  1.
</event>
<event>
 7    1  0.2670433E-009  0.7191661E+02  0.7561462E-02  0.1353694E+00
         -1   -1    0    0    0  501 -0.00000000000E+00  0.00000000000E+00  0.61342385627E+03  0.61342385627E+03  0.00000000000E+00 0.  1.
          1   -1    0    0  501    0  0.00000000000E+00 -0.00000000000E+00 -0.23609861130E+02  0.23609861130E+02  0.00000000000E+00 0. -1.
         25    2    1    2    0    0  0.76527828558E+01 -0.33280664812E+02  0.44644864999E+03  0.46489816457E+03  0.12509092137E+03 0.  0.
          5    1    3    3  502    0 -0.90990735390E+01  0.87274477965E+01  0.39898165396E+03  0.39920269799E+03  0.41800000000E+01 0.  1.
         -5    1    3    3    0  502  0.16751856395E+02 -0.42008112608E+02  0.47466996033E+02  0.65695466586E+02  0.41800000000E+01 0.  1.
        -11    1    1    2    0    0  0.24267915665E+02 -0.14051643591E+02  0.88953656433E+02  0.93269145012E+02  0.00000000000E+00 0.  1.
         11    1    1    2    0    0 -0.31920698521E+02  0.47332308403E+02  0.54411688716E+02  0.78866407816E+02  0.00000000000E+00 0. -1.
</event>
<event>
 7    1  0.2670433E-009  0.1016738E+03  0.7561462E-02  0.1276815E+00
          1   -1    0    0  501    0  0.00000000000E+00  0.00000000000E+00  0.67388318802E+03  0.67388318802E+03  0.00000000000E+00 0. -1.
         -1   -1    0    0    0  501 -0.00000000000E+00 -0.00000000000E+00 -0.20403169192E+02  0.20403169192E+02  0.00000000000E+00 0.  1.
         25    2    1    2    0    0 -0.29152626130E+02 -0.11377359213E+02  0.45897789157E+03  0.47674686280E+03  0.12509015281E+03 0.  0.
          5    1    3    3  502    0  0.18322570985E+02  0.48730256158E+02  0.18340429913E+03  0.19069599841E+03  0.41800000000E+01 0. -1.
         -5    1    3    3    0  502 -0.47475197115E+02 -0.60107615371E+02  0.27557359244E+03  0.28605086438E+03  0.41800000000E+01 0. -1.
        -11    1    1    2    0    0  0.42066334443E+02 -0.15307267140E+02  0.39414287149E+02  0.59643733554E+02  0.00000000000E+00 0. -1.
         11    1    1    2    0    0 -0.12913708313E+02  0.26684626353E+02  0.15508784012E+03  0.15789576086E+03  0.00000000000E+00 0.  1.
</event>
<event>
 7    1  0.2670433E-009  0.1060550E+03  0.7561462E-02  0.1268055E+00
          1   -1    0    0  501    0  0.00000000000E+00  0.00000000000E+00  0.41968495149E+03  0.41968495149E+03  0.00000000000E+00 0. -1.
         -1   -1    0    0    0  501 -0.00000000000E+00 -0.00000000000E+00 -0.33084171177E+02  0.33084171177E+02  0.00000000000E+00 0.  1.
         25    2    1    2    0    0  0.40259069578E+02  0.20956315003E+02  0.22038730151E+03  0.25744254462E+03  0.12508453658E+03 0.  0.
          5    1    3    3  502    0  0.72139157742E+02  0.26675255684E+02  0.20918698770E+03  0.22291768787E+03  0.41800000000E+01 0.  1.
         -5    1    3    3    0  502 -0.31880088164E+02 -0.57189406812E+01  0.11200313814E+02  0.34524856747E+02  0.41800000000E+01 0.  1.
        -11    1    1    2    0    0  0.15600905129E+02 -0.40376982995E+02  0.75810588076E+02  0.87297962525E+02  0.00000000000E+00 0. -1.
         11    1    1    2    0    0 -0.55859974707E+02  0.19420667992E+02  0.90402890724E+02  0.10802861552E+03  0.00000000000E+00 0.  1.
</event>
<event>
 7    1  0.2670433E-009  0.1104955E+03  0.7561462E-02  0.1259655E+00
          2   -1    0    0  501    0  0.00000000000E+00  0.00000000000E+00  0.47646569339E+03  0.47646569339E+03  0.00000000000E+00 0. -1.
         -2   -1    0    0    0  501 -0.00000000000E+00 -0.00000000000E+00 -0.28907842876E+02  0.28907842876E+02  0.00000000000E+00 0.  1.
         25    2    1    2    0    0  0.30298027536E+02  0.21147032052E+02  0.19839755801E+03  0.23743334732E+03  0.12509131048E+03 0.  0.
          5    1    3    3  502    0 -0.11185668219E+02  0.67005224409E+02  0.11302559800E+03  0.13193588395E+03  0.41800000000E+01 0. -1.
         -5    1    3    3    0  502  0.41483695756E+02 -0.45858192358E+02  0.85371960011E+02  0.10549746336E+03  0.41800000000E+01 0. -1.
        -11    1    1    2    0    0  0.20501791286E+02 -0.32941562042E+02  0.16009691651E+03  0.16473157752E+03  0.00000000000E+00 0. -1.
         11    1    1    2    0    0 -0.50799818823E+02  0.11794529990E+02  0.89063375992E+02  0.10320861143E+03  0.00000000000E+00 0.  1.
</event>
<event>
 7    1  0.2670433E-009  0.8155856E+02  0.7561462E-02  0.1324686E+00
          1   -1    0    0  501    0  0.00000000000E+00  0.00000000000E+00  0.19915880822E+02  0.19915880822E+02  0.00000000000E+00 0. -1.
         -1   -1    0    0    0  501 -0.00000000000E+00 -0.00000000000E+00 -0.62757844909E+03  0.62757844909E+03  0.00000000000E+00 0.  1.
         25    2    1    2    0    0 -0.38786077634E+01  0.36557849482E+02 -0.37792674126E+03  0.39978407100E+03  0.12508861544E+03 0.  0.
          5    1    3    3  502    0 -0.34425986301E+01  0.54593109692E+02 -0.59930119239E+02  0.81248696624E+02  0.41800000000E+01 0. -1.
         -5    1    3    3    0  502 -0.43600913328E+00 -0.18035260210E+02 -0.31799662202E+03  0.31853537438E+03  0.41800000000E+01 0. -1.
        -11    1    1    2    0    0  0.20253291299E+02  0.21427571181E+02 -0.48906274039E+02  0.57106569285E+02  0.00000000000E+00 0. -1.
         11    1    1    2    0    0 -0.16374683535E+02 -0.57985420663E+02 -0.18082955297E+03  0.19060368962E+03  0.00000000000E+00 0.  1.
</event>
<event>
 7    1  0.2670433E-009  0.1101885E+03  0.7561462E-02  0.1260221E+00
         -1   -1    0    0    0  501 -0.00000000000E+00  0.00000000000E+00  0.32537744351E+02  0.32537744351E+02  0.00000000000E+00 0.  1.
          1   -1    0    0  501    0  0.00000000000E+00 -0.00000000000E+00 -0.49329415499E+03  0.49329415499E+03  0.00000000000E+00 0. -1.
         25    2    1    2    0    0 -0.25907569427E+02 -0.54496103256E+02 -0.30931499437E+03  0.33906575740E+03  0.12509514248E+03 0.  0.
          5    1    3    3  502    0 -0.64257703387E+02 -0.51129577517E+02 -0.11769319676E+03  0.14357035594E+03  0.41800000000E+01 0. -1.
         -5    1    3    3    0  502  0.38350133960E+02 -0.33665257390E+01 -0.19162179762E+03  0.19549540146E+03  0.41800000000E+01 0. -1.
        -11    1    1    2    0    0  0.18575195695E+02 -0.18411569566E+02 -0.81021281241E+02  0.85137957474E+02  0.00000000000E+00 0. -1.
         11    1    1    2    0    0  0.73323737314E+01  0.72907672822E+02 -0.70420135022E+02  0.10162818446E+03  0.00000000000E+00 0.  1.
</event>
<event>
 7    1  0.2670433E-009  0.6590595E+02  0.7561462E-02  0.1374596E+00
          2   -1    0    0  501    0  0.00000000000E+00  0.00000000000E+00  0.42970090194E+03  0.42970090194E+03  0.00000000000E+00 0. -1.
         -2   -1    0    0    0  501 -0.00000000000E+00 -0.00000000000E+00 -0.32697760496E+02  0.32697760496E+02  0.00000000000E+00 0.  1.
         25    2    1    2    0    0  0.14531948804E+02  0.29833111522E+02  0.28736510003E+03  0.31516340305E+03  0.12509227724E+03 0.  0.
          5    1    3    3  502    0 -0.22981789234E+01  0.19417646254E+02  0.29337894151E+03  0.29405952176E+03  0.41800000000E+01 0.  1.
         -5    1    3    3    0  502  0.16830127728E+02  0.10415465268E+02 -0.60138414823E+01  0.21103881289E+02  0.41800000000E+01 0.  1.
        -11    1    1    2    0    0 -0.46324697363E+02 -0.36653888816E+02  0.94320853992E+02  0.11129199724E+03  0.00000000000E+00 0.  1.
         11    1    1    2    0    0  0.31792748558E+02  0.68207772940E+01  0.15317187420E+02  0.35943262153E+02  0.00000000000E+00 0. -1.
</event>
<event>
 7    1  0.2670433E-009  0.1120362E+03  0.7561462E-02  0.1256845E+00
          1   -1    0    0  501    0  0.00000000000E+00  0.00000000000E+00  0.12196577746E+04  0.12196577746E+04  0.00000000000E+00 0. -1.
         -1   -1    0    0    0  501 -0.00000000000E+00 -0.00000000000E+00 -0.14955230662E+02  0.14955230662E+02  0.00000000000E+00 0.  1.
         25    2    1    2    0    0  0.76053631967E+02 -0.20156917979E+02  0.72998893500E+03  0.74479646077E+03  0.12508983361E+03 0.  0.
          5    1    3    3  502    0  0.87843701711E+02 -0.12790756907E+02  0.26351412561E+03  0.27809582196E+03  0.41800000000E+01 0.  1.
         -5    1    3    3    0  502 -0.11790069744E+02 -0.73661610720E+01  0.46647480939E+03  0.46670063881E+03  0.41800000000E+01 0.  1.
        -11    1    1    2    0    0  0.83545722728E+00 -0.29269834912E+02  0.11756711253E+03  0.12115876845E+03  0.00000000000E+00 0.  1.
         11    1    1    2    0    0 -0.76889089194E+02  0.49426752891E+02  0.35714649639E+03  0.36865777602E+03  0.00000000000E+00 0. -1.
</event>
<event>
 7    1  0.2670433E-009  0.1053705E+03  0.7561462E-02  0.1269391E+00
         -2   -1    0    0    0  501 -0.00000000000E+00  0.00000000000E+00  0.11891881895E+02  0.11891881895E+02  0.00000000000E+00 0.  1.
          2   -1    0    0  501    0  0.00000000000E+00 -0.00000000000E+00 -0.13131590606E+04  0.13131590606E+04  0.00000000000E+00 0. -1.
         25    2    1    2    0    0  0.41139409187E+02  0.17034328872E+01 -0.91271894610E+03  0.92217044372E+03  0.12508836887E+03 0.  0.
          5    1    3    3  502    0 -0.26174937369E+02  0.21309990533E+02 -0.86114118620E+02  0.92587023219E+02  0.41800000000E+01 0.  1.
         -5    1    3    3    0  502  0.67314346556E+02 -0.19606557646E+02 -0.82660482748E+03  0.82958342050E+03  0.41800000000E+01 0.  1.
        -11    1    1    2    0    0 -0.73172371512E+02  0.64018856827E+01 -0.27039895442E+03  0.28019774204E+03  0.00000000000E+00 0. -1.
         11    1    1    2    0    0  0.32032962325E+02 -0.81053185699E+01 -0.11814927816E+03  0.12268275671E+03  0.00000000000E+00 0.  1.
</event>
<event>
 7    1  0.2670433E-009  0.6952959E+02  0.7561462E-02  0.1361700E+00
          2   -1    0    0  501    0  0.00000000000E+00  0.00000000000E+00  0.41942468505E+03  0.41942468505E+03  0.00000000000E+00 0. -1.
         -2   -1    0    0    0  501 -0.00000000000E+00 -0.00000000000E+00 -0.36863304641E+02  0.36863304641E+02  0.00000000000E+00 0.  1.
         25    2    1    2    0    0  0.17377455790E+02  0.50743134112E+02  0.28727196273E+03  0.31788571529E+03  0.12509718537E+03 0.  0.
          5    1    3    3  502    0  0.20788347875E+02  0.23010800534E+02  0.28793051494E+03  0.28962580373E+03  0.41800000000E+01 0.  1.
         -5    1    3    3    0  502 -0.34108920856E+01  0.27732333578E+02 -0.65855221610E+00  0.28259911563E+02  0.41800000000E+01 0.  1.
        -11    1    1    2    0    0 -0.39228767494E+02 -0.35135597466E+02  0.16538456927E+02  0.55198976131E+02  0.00000000000E+00 0.  1.
         11    1    1    2    0    0  0.21851311705E+02 -0.15607536646E+02  0.78750960754E+02  0.83203298270E+02  0.00000000000E+00 0. -1.
</event>
<event>
 7    1  0.2670433E-009  0.9358008E+02  0.7561462E-02  0.1294407E+00
         -2   -1    0    0    0  501 -0.00000000000E+00  0.00000000000E+00  0.33631083471E+02  0.33631083471E+02  0.00000000000E+00 0.  1.
          2   -1    0    0  501    0  0.00000000000E+00 -0.00000000000E+00 -0.46887078035E+03  0.46887078035E+03  0.00000000000E+00 0. -1.
         25    2    1    2    0    0 -0.58960027943E+02 -0.55107079220E+02 -0.22439283966E+03  0.26928060813E+03  0.12508726693E+03 0.  0.
          5    1    3    3  502    0 -0.60490986113E+02 -0.41709321629E+02 -0.38885640232E+02  0.83236964913E+02  0.41800000000E+01 0. -1.
         -5    1    3    3    0  502  0.15309581698E+01 -0.13397757591E+02 -0.18550719943E+03  0.18604364322E+03  0.41800000000E+01 0. -1.
        -11    1    1    2    0    0  0.49114745494E+02  0.61369138486E+01 -0.97001258363E+02  0.10889978907E+03  0.00000000000E+00 0.  1.
         11    1    1    2    0    0  0.98452824493E+01  0.48970165372E+02 -0.11384559886E+03  0.12432146662E+03  0.00000000000E+00 0. -1.
</event>
<event>
 7    1  0.2670433E-009  0.9512103E+02  0.7561462E-02  0.1290904E+00
          1   -1    0    0  501    0  0.00000000000E+00  0.00000000000E+00  0.65502191742E+02  0.65502191742E+02  0.00000000000E+00 0.  1.
         -1   -1    0    0    0  501 -0.00000000000E+00 -0.00000000000E+00 -0.20498449315E+03  0.20498449315E+03  0.00000000000E+00 0. -1.
         25    2    1    2    0    0 -0.29353355856E+02 -0.31237282905E+02 -0.69894035324E+02  0.14956518329E+03  0.12508869068E+03 0.  0.
          5    1    3    3  502    0  0.23441705495E+02  0.14586556022E+02 -0.74319712841E+02  0.79392526663E+02  0.41800000000E+01 0.  1.
         -5    1    3    3    0  502 -0.52795061351E+02 -0.45823838927E+02  0.44256775170E+01  0.70172656631E+02  0.41800000000E+01 0.  1.
        -11    1    1    2    0    0  0.21932777196E+02  0.59316647551E+02 -0.25635811854E+02  0.68240063318E+02  0.00000000000E+00 0.  1.
         11    1    1    2    0    0  0.74205786603E+01 -0.28079364646E+02 -0.43952454230E+02  0.52681438282E+02  0.00000000000E+00 0. -1.
</event>
<event>
 7    1  0.2670433E-009  0.1119448E+03  0.7561462E-02  0.1257010E+00
         -1   -1    0    0    0  501 -0.00000000000E+00  0.00000000000E+00  0.32557281961E+02  0.32557281961E+02  0.00000000000E+00 0. -1.
          1   -1    0    0  501    0  0.00000000000E+00 -0.00000000000E+00 -0.44283794988E+03  0.44283794988E+03  0.00000000000E+00 0.  1.
         25    2    1    2    0    0 -0.31725267727E+02 -0.25490306415E+01 -0.15101006637E+03  0.19865453629E+03  0.12508634807E+03 0.  0.
          5    1    3    3  502    0  0.56658556424E+01 -0.59159692390E+02 -0.85826743557E+02  0.10447810026E+03  0.41800000000E+01 0.  1.
         -5    1    3    3    0  502 -0.37391123369E+02  0.56610661749E+02 -0.65183322811E+02  0.94176436029E+02  0.41800000000E+01 0.  1.
        -11    1    1    2    0    0 -0.30515427293E+02 -0.11363867789E+02 -0.75683158578E+02  0.82390953910E+02  0.00000000000E+00 0.  1.
         11    1    1    2    0    0  0.62240695020E+02  0.13912898430E+02 -0.18358744297E+03  0.19434974164E+03  0.00000000000E+00 0. -1.
</event>
<event>
 7    1  0.2670433E-009  0.2494520E+03  0.7561462E-02  0.1113652E+00
          2   -1    0    0  501    0  0.00000000000E+00  0.00000000000E+00  0.71715008187E+03  0.71715008187E+03  0.00000000000E+00 0. -1.
         -2   -1    0    0    0  501 -0.00000000000E+00 -0.00000000000E+00 -0.93678297724E+02  0.93678297724E+02  0.00000000000E+00 0.  1.
         25    2    1    2    0    0 -0.21204605672E+03  0.10195448357E+03  0.31309350890E+03  0.41113541425E+03  0.12508611691E+03 0.  0.
          5    1    3    3  502    0 -0.19923872302E+03  0.44208072607E+02  0.21465848067E+03  0.29621978016E+03  0.41800000000E+01 0. -1.
         -5    1    3    3    0  502 -0.12807333703E+02  0.57746410966E+02  0.98435028228E+02  0.11491563409E+03  0.41800000000E+01 0. -1.
        -11    1    1    2    0    0  0.29786779868E+02 -0.10685633492E+02  0.10766464738E+03  0.11221903276E+03  0.00000000000E+00 0. -1.
         11    1    1    2    0    0  0.18225927685E+03 -0.91268850080E+02  0.20271362786E+03  0.28747393258E+03  0.00000000000E+00 0.  1.
</event>
<event>
 7    1  0.2670433E-009  0.1519562E+03  0.7561462E-02  0.1198090E+00
          1   -1    0    0  501    0  0.00000000000E+00  0.00000000000E+00  0.12407671862E+04  0.12407671862E+04  0.00000000000E+00 0. -1.
         -1   -1    0    0    0  501 -0.00000000000E+00 -0.00000000000E+00 -0.20810232981E+02  0.20810232981E+02  0.00000000000E+00 0.  1.
         25    2    1    2    0    0  0.44578691573E+02 -0.10643471232E+03  0.73899359539E+03  0.75833570192E+03  0.12508355230E+03 0.  0.
          5    1    3    3  502    0 -0.41457601367E+02 -0.14305675970E+02  0.19231972837E+03  0.19730112873E+03  0.41800000000E+01 0.  1.
         -5    1    3    3    0  502  0.86036292940E+02 -0.92129036349E+02  0.54667386701E+03  0.56103457319E+03  0.41800000000E+01 0.  1.
        -11    1    1    2    0    0 -0.58367115503E+02  0.54001445839E+02  0.17114406258E+03  0.18871451052E+03  0.00000000000E+00 0.  1.
         11    1    1    2    0    0  0.13788423930E+02  0.52433266480E+02  0.30981929523E+03  0.31452720671E+03  0.00000000000E+00 0. -1.
</event>
<event>
 7    1  0.2670433E-009  0.1292890E+03  0.7561462E-02  0.1228515E+00
         -2   -1    0    0    0  501 -0.00000000000E+00  0.00000000000E+00  0.26057655903E+02  0.26057655903E+02  0.00000000000E+00 0.  1.
          2   -1    0    0  501    0  0.00000000000E+00 -0.00000000000E+00 -0.13033583204E+04  0.13033583204E+04  0.00000000000E+00 0. -1.
         25    2    1    2    0    0 -0.12145453589E+03  0.52230980742E+01 -0.99110845394E+03  0.10063410022E+04  0.12509100758E+03 0.  0.
          5    1    3    3  502    0 -0.16000290096E+02  0.15060997465E+01 -0.96265173059E+01  0.19194266202E+02  0.41800000000E+01 0.  1.
         -5    1    3    3    0  502 -0.10545424579E+03  0.37169983277E+01 -0.98148193664E+03  0.98714673599E+03  0.41800000000E+01 0.  1.
        -11    1    1    2    0    0  0.12360971192E+03 -0.16663780425E+02 -0.28533084868E+03  0.31140124544E+03  0.00000000000E+00 0. -1.
         11    1    1    2    0    0 -0.21551760319E+01  0.11440682350E+02 -0.86136186331E+00  0.11673728652E+02  0.00000000000E+00 0.  1.
</event>
<event>
 7    1  0.2670433E-009  0.1901117E+03  0.7561462E-02  0.1158361E+00
          2   -1    0    0  501    0  0.00000000000E+00  0.00000000000E+00  0.18767354829E+03  0.18767354829E+03  0.00000000000E+00 0.  1.
         -2   -1    0    0    0  501 -0.00000000000E+00 -0.00000000000E+00 -0.23809816176E+03  0.23809816176E+03  0.00000000000E+00 0. -1.
         25    2    1    2    0    0 -0.67794128834E+02  0.16285304448E+03 -0.65901307709E+02  0.22606925081E+03  0.12508863180E+03 0.  0.
          5    1    3    3  502    0 -0.82397248857E+02  0.11136791667E+03  0.31170269228E+01  0.13863371790E+03  0.41800000000E+01 0.  1.
         -5    1    3    3    0  502  0.14603120024E+02  0.51485127810E+02 -0.69018334632E+02  0.87435532910E+02  0.41800000000E+01 0.  1.
        -11    1    1    2    0    0  0.80351803867E+02 -0.13065620641E+03  0.38540005961E+02  0.15815431931E+03  0.00000000000E+00 0.  1.
         11    1    1    2    0    0 -0.12557675033E+02 -0.32196838070E+02 -0.23063311723E+02  0.41548139929E+02  0.00000000000E+00 0. -1.
</event>
<event>
 7    1  0.2670433E-009  0.9683326E+02  0.7561462E-02  0.1287100E+00
          1   -1    0    0  501    0  0.00000000000E+00  0.00000000000E+00  0.37087766475E+03  0.37087766475E+03  0.00000000000E+00 0. -1.
         -1   -1    0    0    0  501 -0.00000000000E+00 -0.00000000000E+00 -0.43231492132E+02  0.43231492132E+02  0.00000000000E+00 0.  1.
         25    2    1    2    0    0 -0.21673769529E+02  0.10133062903E+02  0.87553922438E+02  0.15454773076E+03  0.12508749138E+03 0.  0.
          5    1    3    3  502    0  0.44359983185E+02  0.15259197864E+02  0.31834372652E+01  0.47204426703E+02  0.41800000000E+01 0.  1.
         -5    1    3    3    0  502 -0.66033752713E+02 -0.51261349606E+01  0.84370485173E+02  0.10734330405E+03  0.41800000000E+01 0.  1.
        -11    1    1    2    0    0 -0.26811964810E+02  0.87034374698E+01  0.23168921434E+02  0.36488768151E+02  0.00000000000E+00 0. -1.
         11    1    1    2    0    0  0.48485734339E+02 -0.18836500373E+02  0.21692332874E+03  0.22307265797E+03  0.00000000000E+00 0.  1.
</event>
<event>
 7    1  0.2670433E-009  0.1242169E+03  0.7561462E-02  0.1236298E+00
         -2   -1    0    0    0  501 -0.00000000000E+00  0.00000000000E+00  0.17976344635E+02  0.17976344635E+02  0.00000000000E+00 0.  1.
          2   -1    0    0  501    0  0.00000000000E+00 -0.00000000000E+00 -0.14914303148E+04  0.14914303148E+04  0.00000000000E+00 0. -1.
         25    2    1    2    0    0  0.62447894985E+02 -0.69670851490E+02 -0.11537036555E+04  0.11642306723E+04  0.12508863498E+03 0.  0.
          5    1    3    3  502    0  0.19896363087E+02  0.20142832506E+02 -0.65923606338E+03  0.65985699862E+03  0.41800000000E+01 0. -1.
         -5    1    3    3    0  502  0.42551531898E+02 -0.89813683996E+02 -0.49446759211E+03  0.50437367372E+03  0.41800000000E+01 0. -1.
        -11    1    1    2    0    0 -0.73342471830E+02  0.30064584141E+02 -0.26580131014E+03  0.27736858846E+03  0.00000000000E+00 0.  1.
         11    1    1    2    0    0  0.10894576845E+02  0.39606267348E+02 -0.53949004517E+02  0.67807398610E+02  0.00000000000E+00 0. -1.
</event>
<event>
 7    1  0.2670433E-009  0.1809513E+03  0.7561462E-02  0.1166886E+00
         -1   -1    0    0    0  501 -0.00000000000E+00  0.00000000000E+00  0.12759377775E+03  0.12759377775E+03  0.00000000000E+00 0.  1.
          1   -1    0    0  501    0  0.00000000000E+00 -0.00000000000E+00 -0.30381575528E+03  0.30381575528E+03  0.00000000000E+00 0. -1.
         25    2    1    2    0    0  0.12928182196E+03  0.69808169670E+02 -0.16898458661E+03  0.25649401946E+03  0.12508565651E+03 0.  0.
          5    1    3    3  502    0  0.15669728336E+02 -0.31811555312E+02 -0.12067297192E+02  0.37690947176E+02  0.41800000000E+01 0. -1.
         -5    1    3    3    0  502  0.11361209362E+03  0.10161972498E+03 -0.15691728941E+03  0.21880307228E+03  0.41800000000E+01 0. -1.
        -11    1    1    2    0    0 -0.14231391304E+03 -0.51728826524E+02  0.18986186310E+00  0.15142376757E+03  0.00000000000E+00 0.  1.
         11    1    1    2    0    0  0.13032091080E+02 -0.18079343146E+02 -0.74272527858E+01  0.23491746007E+02  0.00000000000E+00 0. -1.
</event>
<event>
 7    1  0.2670433E-009  0.9687115E+02  0.7561462E-02  0.1287017E+00
          3   -1    0    0  501    0  0.00000000000E+00  0.00000000000E+00  0.63181266318E+02  0.63181266318E+02  0.00000000000E+00 0. -1.
         -3   -1    0    0    0  501 -0.00000000000E+00 -0.00000000000E+00 -0.21375936869E+03  0.21375936869E+03  0.00000000000E+00 0.  1.
         25    2    1    2    0    0  0.15882144877E+02 -0.72509177216E+01 -0.46245301255E+02  0.13449861000E+03  0.12508569011E+03 0.  0.
          5    1    3    3  502    0 -0.42578100600E+02  0.22803239373E+02 -0.48524977466E+02  0.68593208226E+02  0.41800000000E+01 0. -1.
         -5    1    3    3    0  502  0.58460245477E+02 -0.30054157095E+02  0.22796762105E+01  0.65905401778E+02  0.41800000000E+01 0. -1.
        -11    1    1    2    0    0  0.30626476607E+02  0.11452798518E+02 -0.86467311085E+02  0.92443190931E+02  0.00000000000E+00 0.  1.
         11    1    1    2    0    0 -0.46508621484E+02 -0.42018807967E+01 -0.17865490032E+02  0.49998834073E+02  0.00000000000E+00 0. -1.
</event>
<event>
 7    1  0.2670433E-009  0.1357389E+03  0.7561462E-02  0.1219180E+00
         -1   -1    0    0    0  501 -0.00000000000E+00  0.00000000000E+00  0.12893783772E+02  0.12893783772E+02  0.00000000000E+00 0.  1.
          1   -1    0    0  501    0  0.00000000000E+00 -0.00000000000E+00 -0.16330797115E+04  0.16330797115E+04  0.00000000000E+00 0. -1.
         25    2    1    2    0    0  0.86400248773E+02  0.33534154519E+02 -0.10223466611E+04  0.10341333562E+04  0.12509820284E+03 0.  0.
          5    1    3    3  502    0  0.69538024054E+02  0.71950524624E+02 -0.87981216336E+03  0.88549383396E+03  0.41800000000E+01 0. -1.
         -5    1    3    3    0  502  0.16862224719E+02 -0.38416370105E+02 -0.14253449778E+03  0.14863952224E+03  0.41800000000E+01 0. -1.
        -11    1    1    2    0    0 -0.65434345373E+02 -0.64428707147E+02 -0.38922439137E+03  0.39991041334E+03  0.00000000000E+00 0. -1.
         11    1    1    2    0    0 -0.20965903400E+02  0.30894552628E+02 -0.20861487524E+03  0.21192972575E+03  0.00000000000E+00 0.  1.
</event>
<event>
 7    1  0.2670433E-009  0.2260421E+03  0.7561462E-02  0.1129457E+00
          1   -1    0    0  501    0  0.00000000000E+00  0.00000000000E+00  0.32778874590E+03  0.32778874590E+03  0.00000000000E+00 0.  1.
         -1   -1    0    0    0  501 -0.00000000000E+00 -0.00000000000E+00 -0.36515696464E+03  0.36515696464E+03  0.00000000000E+00 0. -1.
         25    2    1    2    0    0 -0.60333807290E+02  0.21237913023E+03  0.22428351729E+03  0.33866363342E+03  0.12507956352E+03 0.  0.
          5    1    3    3  502    0 -0.47841576395E+02  0.55400417687E+02  0.11966006168E+02  0.74287821448E+02  0.41800000000E+01 0.  1.
         -5    1    3    3    0  502 -0.12492230894E+02  0.15697871254E+03  0.21231751112E+03  0.26437581197E+03  0.41800000000E+01 0.  1.
        -11    1    1    2    0    0  0.24957299226E+02 -0.11370948547E+03 -0.20341107877E+03  0.23436889904E+03  0.00000000000E+00 0. -1.
         11    1    1    2    0    0  0.35376508063E+02 -0.98669644760E+02 -0.58240657257E+02  0.11991317808E+03  0.00000000000E+00 0.  1.
</event>
<event>
 7    1  0.2670433E-009  0.1495015E+03  0.7561462E-02  0.1201087E+00
          2   -1    0    0  501    0  0.00000000000E+00  0.00000000000E+00  0.36286041464E+03  0.36286041464E+03  0.00000000000E+00 0. -1.
         -2   -1    0    0    0  501 -0.00000000000E+00 -0.00000000000E+00 -0.72638985034E+02  0.72638985034E+02  0.00000000000E+00 0.  1.
         25    2    1    2    0    0  0.98047121053E+02 -0.15785507705E+02  0.94436636198E+02  0.18554462750E+03  0.12508441284E+03 0.  0.
          5    1    3    3  502    0  0.87425184743E+02 -0.56454625473E+02  0.98186902705E+02  0.14313779350E+03  0.41800000000E+01 0. -1.
         -5    1    3    3    0  502  0.10621936310E+02  0.40669117768E+02 -0.37502665060E+01  0.42406834000E+02  0.41800000000E+01 0. -1.
        -11    1    1    2    0    0 -0.11955923552E+03 -0.88710381439E+01  0.13234318925E+03  0.17857162668E+03  0.00000000000E+00 0.  1.
         11    1    1    2    0    0  0.21512114468E+02  0.24656545849E+02  0.63441604166E+02  0.71383145498E+02  0.00000000000E+00 0. -1.
</event>
<event>
 7    1  0.2670433E-009  0.1677879E+03  0.7561462E-02  0.1180174E+00
         -2   -1    0    0    0  501 -0.00000000000E+00  0.00000000000E+00  0.57900353092E+03  0.57900353092E+03  0.00000000000E+00 0.  1.
          2   -1    0    0  501    0  0.00000000000E+00 -0.00000000000E+00 -0.69210929989E+02  0.69210929989E+02  0.00000000000E+00 0. -1.
         25    2    1    2    0    0  0.98066652468E+02  0.98495151282E+02  0.11113147602E+03  0.21752593174E+03  0.12509581474E+03 0.  0.
          5    1    3    3  502    0 -0.46146790898E+01 -0.18480935231E+02 -0.83962195834E+01  0.21232266328E+02  0.41800000000E+01 0. -1.
         -5    1    3    3    0  502  0.10268133156E+03  0.11697608651E+03  0.11952769560E+03  0.19629366542E+03  0.41800000000E+01 0. -1.
        -11    1    1    2    0    0  0.29722221309E+01 -0.46760381575E+02  0.84082347307E+02  0.96255953157E+02  0.00000000000E+00 0.  1.
         11    1    1    2    0    0 -0.10103887460E+03 -0.51734769707E+02  0.31457877761E+03  0.33443257601E+03  0.00000000000E+00 0. -1.
</event>
<event>
 7    1  0.2670433E-009  0.8814109E+02  0.7561462E-02  0.1307417E+00
          1   -1    0    0  501    0  0.00000000000E+00  0.00000000000E+00  0.23784721557E+03  0.23784721557E+03  0.00000000000E+00 0. -1.
         -1   -1    0    0    0  501 -0.00000000000E+00 -0.00000000000E+00 -0.56193505347E+02  0.56193505347E+02  0.00000000000E+00 0.  1.
         25    2    1    2    0    0  0.33639715476E+02 -0.22754739480E+01  0.12702989731E+03  0.18143995216E+03  0.12508818166E+03 0.  0.
          5    1    3    3  502    0  0.21668673032E+02 -0.46864275026E+02  0.63810199542E+01  0.52191775984E+02  0.41800000000E+01 0. -1.
         -5    1    3    3    0  502  0.11971042445E+02  0.44588801078E+02  0.12064887735E+03  0.12924817618E+03  0.41800000000E+01 0. -1.
        -11    1    1    2    0    0 -0.49363930923E+02 -0.17932625359E+02  0.66197594553E+02  0.84501468940E+02  0.00000000000E+00 0. -1.
         11    1    1    2    0    0  0.15724215446E+02  0.20208099307E+02 -0.11573781634E+02  0.28099299819E+02  0.00000000000E+00 0.  1.
</event>
<event>
 7    1  0.2670433E-009  0.1024494E+03  0.7561462E-02  0.1275228E+00
          1   -1    0    0  501    0  0.00000000000E+00  0.00000000000E+00  0.41635581867E+03  0.41635581867E+03  0.00000000000E+00 0. -1.
         -1   -1    0    0    0  501 -0.00000000000E+00 -0.00000000000E+00 -0.28082608714E+02  0.28082608714E+02  0.00000000000E+00 0.  1.
         25    2    1    2    0    0 -0.32856822562E+01  0.25713866842E+01  0.20276710332E+03  0.23828532170E+03  0.12509192065E+03 0.  0.
          5    1    3    3  502    0  0.39238959911E+02  0.43520344325E+02  0.14096191006E+03  0.15271361705E+03  0.41800000000E+01 0.  1.
         -5    1    3    3    0  502 -0.42524642167E+02 -0.40948957641E+02  0.61805193265E+02  0.85571704657E+02  0.41800000000E+01 0.  1.
        -11    1    1    2    0    0 -0.27834640757E+02  0.30680934018E+02  0.62459771223E+02  0.74948715530E+02  0.00000000000E+00 0.  1.
         11    1    1    2    0    0  0.31120323013E+02 -0.33252320702E+02  0.12304633541E+03  0.13120439015E+03  0.00000000000E+00 0. -1.
</event>
<event>
 7    1  0.2670433E-009  0.9086313E+02  0.7561462E-02  0.1300775E+00
         -1   -1    0    0    0  501 -0.00000000000E+00  0.00000000000E+00  0.36785927756E+02  0.36785927756E+02  0.00000000000E+00 0.  1.
          1   -1    0    0  501    0  0.00000000000E+00 -0.00000000000E+00 -0.41328564210E+03  0.41328564210E+03  0.00000000000E+00 0. -1.
         25    2    1    2    0    0 -0.68956926144E+01  0.36026458803E+01 -0.31909016663E+03  0.34282017103E+03  0.12508639251E+03 0.  0.
          5    1    3    3  502    0 -0.28281937923E+02 -0.42186663296E+02 -0.59579314560E+02  0.78401209788E+02  0.41800000000E+01 0. -1.
         -5    1    3    3    0  502  0.21386245308E+02  0.45789309176E+02 -0.25951085207E+03  0.26441896124E+03  0.41800000000E+01 0. -1.
        -11    1    1    2    0    0 -0.21478332172E+02 -0.32886874608E+02 -0.53383965565E+02  0.66277545623E+02  0.00000000000E+00 0. -1.
         11    1    1    2    0    0  0.28374024786E+02  0.29284228728E+02 -0.40255821532E+01  0.40973853205E+02  0.00000000000E+00 0.  1.
</event>
<event>
 7    1  0.3357554E-009  0.1089700E+03  0.7561462E-02  0.1262489E+00
         -2   -1    0    0    0  501 -0.00000000000E+00  0.00000000000E+00  0.10740829142E+02  0.10740829142E+02  0.00000000000E+00 0.  1.
          2   -1    0    0  501    0  0.00000000000E+00 -0.00000000000E+00 -0.14108332744E+04  0.14108332744E+04  0.00000000000E+00 0. -1.
         25    2    1    2    0    0 -0.16059093609E+01 -0.46679742269E+02 -0.98653838352E+03  0.99553301819E+03  0.12508569405E+03 0.  0.
          5    1    3    3  502    0  0.60757875261E+02 -0.27373245228E+02 -0.42804385416E+03  0.43322029898E+03  0.41800000000E+01 0. -1.
         -5    1    3    3    0  502 -0.62363784622E+02 -0.19306497041E+02 -0.55849452936E+03  0.56231271921E+03  0.41800000000E+01 0. -1.
        -11    1    1    2    0    0 -0.13718802490E+02 -0.16086643085E+02 -0.27864970295E+02  0.34977738592E+02  0.00000000000E+00 0.  1.
         11    1    1    2    0    0  0.15324711851E+02  0.62766385353E+02 -0.38568909142E+03  0.39106334674E+03  0.00000000000E+00 0. -1.
</event>
<event>
 7    1  0.2670433E-009  0.8047927E+02  0.7561462E-02  0.1327697E+00
          2   -1    0    0  501    0  0.00000000000E+00  0.00000000000E+00  0.57826642611E+03  0.57826642611E+03  0.00000000000E+00 0. -1.
         -2   -1    0    0    0  501 -0.00000000000E+00 -0.00000000000E+00 -0.25145602746E+02  0.25145602746E+02  0.00000000000E+00 0.  1.
         25    2    1    2    0    0  0.27501588313E+02  0.17469604954E+02  0.41214846469E+03  0.43194397847E+03  0.12509084352E+03 0.  0.
          5    1    3    3  502    0  0.49586298129E+02  0.39886324958E+02  0.38478331823E+03  0.39003255539E+03  0.41800000000E+01 0. -1.
         -5    1    3    3    0  502 -0.22084709816E+02 -0.22416720004E+02  0.27365146462E+02  0.41911423076E+02  0.41800000000E+01 0. -1.
        -11    1    1    2    0    0  0.11390136161E+01 -0.32891154014E+02  0.13428506802E+03  0.13825919448E+03  0.00000000000E+00 0. -1.
         11    1    1    2    0    0 -0.28640601929E+02  0.15421549060E+02  0.66872906507E+01  0.33208855905E+02  0.00000000000E+00 0.  1.
</event>
<event>
 7    1  0.2670433E-009  0.1996919E+03  0.7561462E-02  0.1149999E+00
          1   -1    0    0  501    0  0.00000000000E+00  0.00000000000E+00  0.90014538977E+03  0.90014538977E+03  0.00000000000E+00 0. -1.
         -1   -1    0    0    0  501 -0.00000000000E+00 -0.00000000000E+00 -0.53033770505E+02  0.53033770505E+02  0.00000000000E+00 0.  1.
         25    2    1    2    0    0 -0.17667830989E+03  0.41491641792E+02  0.55885025004E+03  0.60074650155E+03  0.12508387438E+03 0.  0.
          5    1    3    3  502    0 -0.17029296442E+03  0.16162002299E+02  0.54428474932E+03  0.57054733791E+03  0.41800000000E+01 0.  1.
         -5    1    3    3    0  502 -0.63853454741E+01  0.25329639492E+02  0.14565500722E+02  0.30199163646E+02  0.41800000000E+01 0.  1.
        -11    1    1    2    0    0  0.11397884471E+03 -0.69124227543E+02  0.20607705593E+03  0.24543245274E+03  0.00000000000E+00 0.  1.
         11    1    1    2    0    0  0.62699465186E+02  0.27632585751E+02  0.82184313284E+02  0.10700020598E+03  0.00000000000E+00 0. -1.
</event>
<event>
 7    1  0.2670433E-009  0.1209249E+03  0.7561462E-02  0.1241579E+00
          1   -1    0    0  501    0  0.00000000000E+00  0.00000000000E+00  0.18462982925E+03  0.18462982925E+03  0.00000000000E+00 0. -1.
         -1   -1    0    0    0  501 -0.00000000000E+00 -0.00000000000E+00 -0.91584232122E+02  0.91584232122E+02  0.00000000000E+00 0.  1.
         25    2    1    2    0    0  0.71401789456E+02  0.12143124702E+02  0.55743704393E+02  0.15492223838E+03  0.12509143996E+03 0.  0.
          5    1    3    3  502    0 -0.26942088659E+02  0.72279026729E+01  0.48494254745E+02  0.56100658299E+02  0.41800000000E+01 0.  1.
         -5    1    3    3    0  502  0.98343878115E+02  0.49152220294E+01  0.72494496479E+01  0.98821580085E+02  0.41800000000E+01 0.  1.
        -11    1    1    2    0    0 -0.92467302999E+02 -0.41599729982E+01  0.33552662636E+02  0.98454500502E+02  0.00000000000E+00 0.  1.
         11    1    1    2    0    0  0.21065513543E+02 -0.79831517041E+01  0.37492300997E+01  0.22837322485E+02  0.00000000000E+00 0. -1.
</event>
<event>
 7    1  0.2670433E-009  0.1857945E+03  0.7561462E-02  0.1162310E+00
          2   -1    0    0  501    0  0.00000000000E+00  0.00000000000E+00  0.11334934863E+04  0.11334934863E+04  0.00000000000E+00 0. -1.
         -2   -1    0    0    0  501 -0.00000000000E+00 -0.00000000000E+00 -0.40004073577E+02  0.40004073577E+02  0.00000000000E+00 0.  1.
         25    2    1    2    0    0  0.12992349926E+03 -0.12536121818E+03  0.48388532239E+03  0.53140483727E+03  0.12510213895E+03 0.  0.
          5    1    3    3  502    0  0.42841472449E+02 -0.42545052580E+02  0.33305005287E+03  0.33850448059E+03  0.41800000000E+01 0.  1.
         -5    1    3    3    0  502  0.87082026810E+02 -0.82816165604E+02  0.15083526952E+03  0.19290035668E+03  0.41800000000E+01 0.  1.
        -11    1    1    2    0    0 -0.25384660486E+02 -0.26774859084E+01  0.30050950775E+02  0.39428537397E+02  0.00000000000E+00 0.  1.
         11    1    1    2    0    0 -0.10453883877E+03  0.12803870409E+03  0.57955313952E+03  0.60266418517E+03  0.00000000000E+00 0. -1.
</event>
<event>
 7    1  0.2670433E-009  0.1535556E+03  0.7561462E-02  0.1196171E+00
         -2   -1    0    0    0  501 -0.00000000000E+00  0.00000000000E+00  0.37269426335E+03  0.37269426335E+03  0.00000000000E+00 0.  1.
          2   -1    0    0  501    0  0.00000000000E+00 -0.00000000000E+00 -0.95300129666E+02  0.95300129666E+02  0.00000000000E+00 0. -1.
         25    2    1    2    0    0  0.13247592627E+03 -0.39287234636E+02  0.64505099922E+02  0.19723243596E+03  0.12508544293E+03 0.  0.
          5    1    3    3  502    0  0.46476664046E+02 -0.63364312904E+02 -0.11950491134E+02  0.79595245392E+02  0.41800000000E+01 0.  1.
         -5    1    3    3    0  502  0.85999262220E+02  0.24077078269E+02  0.76455591056E+02  0.11763719057E+03  0.41800000000E+01 0.  1.
        -11    1    1    2    0    0 -0.77367448905E+02  0.30723297512E+02  0.46665736605E+02  0.95432353702E+02  0.00000000000E+00 0. -1.
         11    1    1    2    0    0 -0.55108477361E+02  0.85639371240E+01  0.16622329715E+03  0.17532960335E+03  0.00000000000E+00 0.  1.
</event>
<event>
 7    1  0.2670433E-009  0.1453653E+03  0.7561462E-02  0.1206287E+00
         -2   -1    0    0    0  501 -0.00000000000E+00  0.00000000000E+00  0.51188092960E+02  0.51188092960E+02  0.00000000000E+00 0.  1.
          2   -1    0    0  501    0  0.00000000000E+00 -0.00000000000E+00 -0.52406728897E+03  0.52406728897E+03  0.00000000000E+00 0. -1.
         25    2    1    2    0    0  0.11293778810E+03 -0.34146917617E+02 -0.24785931147E+03  0.30166646497E+03  0.12508981509E+03 0.  0.
          5    1    3    3  502    0  0.99376475225E+02 -0.77591985582E+02 -0.17729837806E+03  0.21759684584E+03  0.41800000000E+01 0. -1.
         -5    1    3    3    0  502  0.13561312876E+02  0.43445067965E+02 -0.70560933405E+02  0.84069619128E+02  0.41800000000E+01 0. -1.
        -11    1    1    2    0    0 -0.99644021765E+02  0.24974613604E+02 -0.23368000400E+03  0.25526262293E+03  0.00000000000E+00 0. -1.
         11    1    1    2    0    0 -0.13293766335E+02  0.91723040131E+01  0.86601194499E+01  0.18326294038E+02  0.00000000000E+00 0.  1.
</event>
<event>
 7    1  0.2670433E-009  0.2523982E+03  0.7561462E-02  0.1111799E+00
          1   -1    0    0  501    0  0.00000000000E+00  0.00000000000E+00  0.95799881625E+03  0.95799881625E+03  0.00000000000E+00 0. -1.
         -1   -1    0    0    0  501 -0.00000000000E+00 -0.00000000000E+00 -0.11342152766E+03  0.11342152766E+03  0.00000000000E+00 0.  1.
         25    2    1    2    0    0  0.21031531646E+03  0.10152034105E+03  0.76289690488E+03  0.80758785105E+03  0.12509011838E+03 0.  0.
          5    1    3    3  502    0  0.22366268758E+03  0.97067892097E+02  0.65921308062E+03  0.70287020960E+03  0.41800000000E+01 0. -1.
         -5    1    3    3    0  502 -0.13347371125E+02  0.44524489509E+01  0.10368382426E+03  0.10471764145E+03  0.41800000000E+01 0. -1.
        -11    1    1    2    0    0 -0.67897320525E+02  0.54970419385E+01  0.45870420771E+02  0.82124047065E+02  0.00000000000E+00 0. -1.
         11    1    1    2    0    0 -0.14241799593E+03 -0.10701738299E+03  0.35809962942E+02  0.18170844579E+03  0.00000000000E+00 0.  1.
</event>
<event>
 7    1  0.2670433E-009  0.1478735E+03  0.7561462E-02  0.1203111E+00
          1   -1    0    0  501    0  0.00000000000E+00  0.00000000000E+00  0.31567388816E+03  0.31567388816E+03  0.00000000000E+00 0. -1.
         -1   -1    0    0    0  501 -0.00000000000E+00 -0.00000000000E+00 -0.98101408163E+02  0.98101408163E+02  0.00000000000E+00 0.  1.
         25    2    1    2    0    0  0.25908511054E+02 -0.12841753888E+03  0.16842358544E+03  0.24733869327E+03  0.12509040657E+03 0.  0.
          5    1    3    3  502    0  0.70407380356E+01 -0.14106809537E+03  0.94756322955E+02  0.17013527754E+03  0.41800000000E+01 0. -1.
         -5    1    3    3    0  502  0.18867773019E+02  0.12650556486E+02  0.73667262487E+02  0.77203415730E+02  0.41800000000E+01 0. -1.
        -11    1    1    2    0    0 -0.21362843181E+02  0.11880830268E+03  0.72477322841E+02  0.14080037706E+03  0.00000000000E+00 0. -1.
         11    1    1    2    0    0 -0.45456678730E+01  0.96092362000E+01 -0.23328428288E+02  0.25636225992E+02  0.00000000000E+00 0.  1.
</event>
<event>
 7    1  0.2670433E-009  0.1191490E+03  0.7561462E-02  0.1244508E+00
          3   -1    0    0  501    0  0.00000000000E+00  0.00000000000E+00  0.83231241348E+02  0.83231241348E+02  0.00000000000E+00 0. -1.
         -3   -1    0    0    0  501 -0.00000000000E+00 -0.00000000000E+00 -0.32756114046E+03  0.32756114046E+03  0.00000000000E+00 0.  1.
         25    2    1    2    0    0  0.73302812718E+02 -0.89728108743E+01 -0.25415897126E+03  0.29274329443E+03  0.12509212634E+03 0.  0.
          5    1    3    3  502    0 -0.20726396146E+02  0.25185102306E+02 -0.21061827446E+02  0.39050555063E+02  0.41800000000E+01 0.  1.
         -5    1    3    3    0  502  0.94029208863E+02 -0.34157913180E+02 -0.23309714381E+03  0.25369273936E+03  0.41800000000E+01 0.  1.
        -11    1    1    2    0    0 -0.45107167293E+02  0.42156994733E+02  0.31608380291E+02  0.69361073022E+02  0.00000000000E+00 0. -1.
         11    1    1    2    0    0 -0.28195645424E+02 -0.33184183859E+02 -0.21779308151E+02  0.48688014365E+02  0.00000000000E+00 0.  1.
</event>
<event>
 7    1  0.2670433E-009  0.9964828E+02  0.7561462E-02  0.1281037E+00
         -2   -1    0    0    0  501 -0.00000000000E+00  0.00000000000E+00  0.13536133429E+03  0.13536133429E+03  0.00000000000E+00 0.  1.
          2   -1    0    0  501    0  0.00000000000E+00 -0.00000000000E+00 -0.13854884302E+03  0.13854884302E+03  0.00000000000E+00 0. -1.
         25    2    1    2    0    0 -0.71351809650E+02  0.85712405670E+01 -0.42759279497E+02  0.15046945932E+03  0.12509258691E+03 0.  0.
          5    1    3    3  502    0  0.19435333796E+02 -0.14613425390E+02  0.24718322040E+02  0.34924951623E+02  0.41800000000E+01 0.  1.
         -5    1    3    3    0  502 -0.90787143446E+02  0.23184665957E+02 -0.67477601537E+02  0.11554450770E+03  0.41800000000E+01 0.  1.
        -11    1    1    2    0    0  0.39951293135E+02  0.13808113750E+02  0.64795317945E+02  0.77364094101E+02  0.00000000000E+00 0.  1.
         11    1    1    2    0    0  0.31400516515E+02 -0.22379354317E+02 -0.25223547170E+02  0.46076623888E+02  0.00000000000E+00 0. -1.
</event>
<event>
 7    1  0.2670433E-009  0.1155592E+03  0.7561462E-02  0.1250608E+00
          2   -1    0    0  501    0  0.00000000000E+00  0.00000000000E+00  0.33021900332E+03  0.33021900332E+03  0.00000000000E+00 0. -1.
         -2   -1    0    0    0  501 -0.00000000000E+00 -0.00000000000E+00 -0.68839528590E+02  0.68839528590E+02  0.00000000000E+00 0.  1.
         25    2    1    2    0    0 -0.45862770459E+02 -0.61867471191E+02  0.45700665586E+02  0.15383851046E+03  0.12508700476E+03 0.  0.
          5    1    3    3  502    0 -0.19887559476E+02  0.38139357231E+02  0.17742554880E+02  0.46716124043E+02  0.41800000000E+01 0. -1.
         -5    1    3    3    0  502 -0.25975210983E+02 -0.10000682842E+03  0.27958110707E+02  0.10712238641E+03  0.41800000000E+01 0. -1.
        -11    1    1    2    0    0  0.15712774850E+02  0.49449405047E+02  0.37340625493E+02  0.63925403911E+02  0.00000000000E+00 0. -1.
         11    1    1    2    0    0  0.30149995609E+02  0.12418066144E+02  0.17833818366E+03  0.18129461755E+03  0.00000000000E+00 0.  1.
</event>
<event>
 7    1  0.2670433E-009  0.3771450E+02  0.7561462E-02  0.1525737E+00
          2   -1    0    0  501    0  0.00000000000E+00  0.00000000000E+00  0.23883995782E+02  0.23883995782E+02  0.00000000000E+00 0.  1.
         -2   -1    0    0    0  501 -0.00000000000E+00 -0.00000000000E+00 -0.65137001488E+03  0.65137001488E+03  0.00000000000E+00 0. -1.
         25    2    1    2    0    0 -0.16369113172E+02 -0.12154563211E+02 -0.54090404758E+03  0.55555359011E+03  0.12508765536E+03 0.  0.
          5    1    3    3  502    0 -0.13293461161E+01 -0.16262787556E+00 -0.53497877631E+03  0.53499678233E+03  0.41800000000E+01 0.  1.
         -5    1    3    3    0  502 -0.15039767056E+02 -0.11991935336E+02 -0.59252712688E+01  0.20556807773E+02  0.41800000000E+01 0.  1.
        -11    1    1    2    0    0 -0.16399405874E+02 -0.16792088927E-01 -0.82950843556E+02  0.84556390898E+02  0.00000000000E+00 0. -1.
         11    1    1    2    0    0  0.32768519046E+02  0.12171355300E+02 -0.36311279683E+01  0.35144029659E+02  0.00000000000E+00 0.  1.
</event>
<event>
 7    1  0.2670433E-009  0.1100313E+03  0.7561462E-02  0.1260512E+00
         -1   -1    0    0    0  501 -0.00000000000E+00  0.00000000000E+00  0.11654812078E+03  0.11654812078E+03  0.00000000000E+00 0.  1.
          1   -1    0    0  501    0  0.00000000000E+00 -0.00000000000E+00 -0.15611601356E+03  0.15611601356E+03  0.00000000000E+00 0. -1.
         25    2    1    2    0    0  0.47701094553E+02 -0.20887604418E+02  0.40066934948E+02  0.14129272595E+03  0.12508632495E+03 0.  0.
          5    1    3    3  502    0  0.38534321458E+02  0.39387110569E+02  0.55440788017E+02  0.78277658276E+02  0.41800000000E+01 0.  1.
         -5    1    3    3    0  502  0.91667730946E+01 -0.60274714986E+02 -0.15373853069E+02  0.63015067673E+02  0.41800000000E+01 0.  1.
        -11    1    1    2    0    0 -0.19056311698E+00  0.48659105191E+02 -0.45463995750E+02  0.66593691457E+02  0.00000000000E+00 0. -1.
         11    1    1    2    0    0 -0.47510531436E+02 -0.27771500773E+02 -0.34170831983E+02  0.64777716932E+02  0.00000000000E+00 0.  1.
</event>
<event>
 7    1  0.2670433E-009  0.1352030E+03  0.7561462E-02  0.1219933E+00
          1   -1    0    0  501    0  0.00000000000E+00  0.00000000000E+00  0.26390397316E+02  0.26390397316E+02  0.00000000000E+00 0. -1.
         -1   -1    0    0    0  501 -0.00000000000E+00 -0.00000000000E+00 -0.76389896799E+03  0.76389896799E+03  0.00000000000E+00 0.  1.
         25    2    1    2    0    0  0.75876560792E+02  0.42646175684E+02 -0.32177878929E+03  0.35604734662E+03  0.12510865286E+03 0.  0.
          5    1    3    3  502    0  0.58079626268E+02 -0.37071834089E+02 -0.17312943779E+03  0.18638357895E+03  0.41800000000E+01 0.  1.
         -5    1    3    3    0  502  0.17796934524E+02  0.79718009773E+02 -0.14864935149E+03  0.16966376767E+03  0.41800000000E+01 0.  1.
        -11    1    1    2    0    0 -0.37070709620E+02 -0.64983642586E+02 -0.31894202720E+03  0.32759903545E+03  0.00000000000E+00 0.  1.
         11    1    1    2    0    0 -0.38805851172E+02  0.22337466902E+02 -0.96787754187E+02  0.10664298323E+03  0.00000000000E+00 0. -1.
</event>
<event>
 7    1  0.2670433E-009  0.9405533E+02  0.7561462E-02  0.1293318E+00
         -1   -1    0    0    0  501 -0.00000000000E+00  0.00000000000E+00  0.17020624091E+04  0.17020624091E+04  0.00000000000E+00 0.  1.
          1   -1    0    0  501    0  0.00000000000E+00 -0.00000000000E+00 -0.18332838301E+02  0.18332838301E+02  0.00000000000E+00 0. -1.
         25    2    1    2    0    0  0.92001631223E+01 -0.41449846912E+02  0.15363503341E+04  0.15420192313E+04  0.12509287672E+03 0.  0.
          5    1    3    3  502    0 -0.37220775466E+02 -0.31860738503E+02  0.25005407657E+03  0.25484310152E+03  0.41800000000E+01 0.  1.
         -5    1    3    3    0  502  0.46420938589E+02 -0.95891084085E+01  0.12862962575E+04  0.12871761297E+04  0.41800000000E+01 0.  1.
        -11    1    1    2    0    0  0.11403437228E+02 -0.21924860321E+02  0.11975020604E+02  0.27461591345E+02  0.00000000000E+00 0.  1.
         11    1    1    2    0    0 -0.20603600350E+02  0.63374707233E+02  0.13540421616E+03  0.15091442482E+03  0.00000000000E+00 0. -1.
</event>
<event>
 7    1  0.2969783E-009  0.1344565E+03  0.7561462E-02  0.1220989E+00
          1   -1    0    0  501    0  0.00000000000E+00  0.00000000000E+00  0.33585182814E+03  0.33585182814E+03  0.00000000000E+00 0. -1.
         -1   -1    0    0    0  501 -0.00000000000E+00 -0.00000000000E+00 -0.78750894191E+02  0.78750894191E+02  0.00000000000E+00 0.  1.
         25    2    1    2    0    0 -0.44672316030E+02 -0.11167912922E+03  0.12290275409E+03  0.21265169948E+03  0.12509122514E+03 0.  0.
          5    1    3    3  502    0 -0.21713211345E+02 -0.92880359420E+02  0.10184145544E+02  0.96017779256E+02  0.41800000000E+01 0. -1.
         -5    1    3    3    0  502 -0.22959104686E+02 -0.18798769803E+02  0.11271860855E+03  0.11663392023E+03  0.41800000000E+01 0. -1.
        -11    1    1    2    0    0  0.30911424381E+02 -0.35567354450E-01  0.62463895831E+01  0.31536245894E+02  0.00000000000E+00 0.  1.
         11    1    1    2    0    0  0.13760891650E+02  0.11171469658E+03  0.12795179027E+03  0.17041477696E+03  0.00000000000E+00 0. -1.
</event>
<event>
 7    1  0.2670433E-009  0.1331442E+03  0.7561462E-02  0.1222864E+00
          4   -1    0    0  501    0  0.00000000000E+00  0.00000000000E+00  0.28678211702E+03  0.28678211702E+03  0.00000000000E+00 0. -1.
         -4   -1    0    0    0  501 -0.00000000000E+00 -0.00000000000E+00 -0.10352360923E+03  0.10352360923E+03  0.00000000000E+00 0.  1.
         25    2    1    2    0    0 -0.75548800317E+02  0.80183990320E+02  0.18233380141E+03  0.24704345976E+03  0.12509101622E+03 0.  0.
          5    1    3    3  502    0 -0.77646931015E+02  0.10388478595E+03  0.18118280193E+03  0.22285819429E+03  0.41800000000E+01 0. -1.
         -5    1    3    3    0  502  0.20981306983E+01 -0.23700795631E+02  0.11509994888E+01  0.24185265469E+02  0.41800000000E+01 0. -1.
        -11    1    1    2    0    0  0.96242692509E+01 -0.23607170452E+02 -0.39841224016E+02  0.47299557994E+02  0.00000000000E+00 0.  1.
         11    1    1    2    0    0  0.65924531066E+02 -0.56576819869E+02  0.40765930394E+02  0.95962708505E+02  0.00000000000E+00 0. -1.
</event>
<event>
 7    1  0.2670433E-009  0.9532848E+02  0.7561462E-02  0.1290438E+00
         -2   -1    0    0    0  501 -0.00000000000E+00  0.00000000000E+00  0.61302842642E+02  0.61302842642E+02  0.00000000000E+00 0.  1.
          2   -1    0    0  501    0  0.00000000000E+00 -0.00000000000E+00 -0.24967366182E+03  0.24967366182E+03  0.00000000000E+00 0. -1.
         25    2    1    2    0    0  0.96734158836E+01  0.58121090879E+02 -0.96992311796E+02  0.16889804825E+03  0.12508959180E+03 0.  0.
          5    1    3    3  502    0  0.29806844760E+02  0.58912777479E+02  0.35695108530E+01  0.66252374694E+02  0.41800000000E+01 0.  1.
         -5    1    3    3    0  502 -0.20133428876E+02 -0.79168660002E+00 -0.10056182265E+03  0.10264567356E+03  0.41800000000E+01 0.  1.
        -11    1    1    2    0    0  0.38089087276E+02 -0.21512121665E+02 -0.18317607214E+02  0.47424515624E+02  0.00000000000E+00 0. -1.
         11    1    1    2    0    0 -0.47762503160E+02 -0.36608969214E+02 -0.73060900169E+02  0.94653940586E+02  0.00000000000E+00 0.  1.
</event>
<event>
 7    1  0.2670433E-009  0.1343428E+03  0.7561462E-02  0.1221150E+00
          1   -1    0    0  501    0  0.00000000000E+00  0.00000000000E+00  0.13804459394E+03  0.13804459394E+03  0.00000000000E+00 0. -1.
         -1   -1    0    0    0  501 -0.00000000000E+00 -0.00000000000E+00 -0.20369337132E+03  0.20369337132E+03  0.00000000000E+00 0.  1.
         25    2    1    2    0    0  0.63587152106E+02 -0.86193966196E+02  0.51529962160E+02  0.17255659842E+03  0.12509083474E+03 0.  0.
          5    1    3    3  502    0 -0.25948667052E+01  0.20483526966E+02 -0.19113777403E+02  0.28444983684E+02  0.41800000000E+01 0. -1.
         -5    1    3    3    0  502  0.66182018811E+02 -0.10667749316E+03  0.70643739563E+02  0.14411161473E+03  0.41800000000E+01 0. -1.
        -11    1    1    2    0    0 -0.63483615476E+02  0.38353392097E+02 -0.69725375999E+02  0.10179774151E+03  0.00000000000E+00 0. -1.
         11    1    1    2    0    0 -0.10353662981E+00  0.47840574100E+02 -0.47453363543E+02  0.67383625322E+02  0.00000000000E+00 0.  1.
</event>
<event>
 7    1  0.2670433E-009  0.1026491E+03  0.7561462E-02  0.1274822E+00
         -2   -1    0    0    0  501 -0.00000000000E+00  0.00000000000E+00  0.13014835188E+03  0.13014835188E+03  0.00000000000E+00 0.  1.
          2   -1    0    0  501    0  0.00000000000E+00 -0.00000000000E+00 -0.10796021740E+03  0.10796021740E+03  0.00000000000E+00 0. -1.
         25    2    1    2    0    0 -0.41574902965E+01 -0.35764751540E+02  0.40128975916E+02  0.13621865754E+03  0.12509510693E+03 0.  0.
          5    1    3    3  502    0 -0.63373900010E+02 -0.12224939012E+02  0.30951567622E+02  0.71701968415E+02  0.41800000000E+01 0. -1.
         -5    1    3    3    0  502  0.59216409713E+02 -0.23539812528E+02  0.91774082947E+01  0.64516689129E+02  0.41800000000E+01 0. -1.
        -11    1    1    2    0    0  0.33850383386E+02  0.32434299806E+02 -0.42450284974E+02  0.63244438124E+02  0.00000000000E+00 0. -1.
         11    1    1    2    0    0 -0.29692893089E+02  0.33304517339E+01  0.24509443532E+02  0.38645473616E+02  0.00000000000E+00 0.  1.
</event>
<event>
 7    1  0.2670433E-009  0.1023519E+03  0.7561462E-02  0.1275427E+00
          3   -1    0    0  501    0  0.00000000000E+00  0.00000000000E+00  0.13063962211E+03  0.13063962211E+03  0.00000000000E+00 0. -1.
         -3   -1    0    0    0  501 -0.00000000000E+00 -0.00000000000E+00 -0.12240375960E+03  0.12240375960E+03  0.00000000000E+00 0.  1.
         25    2    1    2    0    0 -0.64780910826E+02  0.95338571401E+01 -0.32088863965E+01  0.14122934469E+03  0.12509184630E+03 0.  0.
          5    1    3    3  502    0 -0.61736972375E+02  0.37573964081E+02 -0.48907504889E+02  0.87365170229E+02  0.41800000000E+01 0.  1.
         -5    1    3    3    0  502 -0.30439384515E+01 -0.28040106941E+02  0.45698618492E+02  0.53864174464E+02  0.41800000000E+01 0.  1.
        -11    1    1    2    0    0  0.75003235622E+02 -0.30110829056E+02 -0.86590180602E+01  0.81284229553E+02  0.00000000000E+00 0.  1.
         11    1    1    2    0    0 -0.10222324795E+02  0.20576971916E+02  0.20103766970E+02  0.30529807465E+02  0.00000000000E+00 0. -1.
</event>
<event>
 7    1  0.2670433E-009  0.1217492E+03  0.7561462E-02  0.1240239E+00
          1   -1    0    0  501    0  0.00000000000E+00  0.00000000000E+00  0.27180378189E+02  0.27180378189E+02  0.00000000000E+00 0. -1.
         -1   -1    0    0    0  501 -0.00000000000E+00 -0.00000000000E+00 -0.87271507379E+03  0.87271507379E+03  0.00000000000E+00 0.  1.
         25    2    1    2    0    0 -0.52541499392E+02  0.28937629238E+02 -0.71944063354E+03  0.73269059995E+03  0.12507075803E+03 0.  0.
          5    1    3    3  502    0 -0.15901651997E+02 -0.46931796894E+02 -0.18206939819E+03  0.18873842813E+03  0.41800000000E+01 0. -1.
         -5    1    3    3    0  502 -0.36639847395E+02  0.75869426132E+02 -0.53737123535E+03  0.54395217181E+03  0.41800000000E+01 0. -1.
        -11    1    1    2    0    0  0.74759142188E+02 -0.39787305647E+02 -0.10328682301E+03  0.13356693767E+03  0.00000000000E+00 0.  1.
         11    1    1    2    0    0 -0.22217642796E+02  0.10849676409E+02 -0.22807239047E+02  0.33637914361E+02  0.00000000000E+00 0. -1.
</event>
<event>
 7    1  0.2670433E-009  0.1582531E+03  0.7561462E-02  0.1190683E+00
         -1   -1    0    0    0  501 -0.00000000000E+00  0.00000000000E+00  0.20339444796E+03  0.20339444796E+03  0.00000000000E+00 0.  1.
          1   -1    0    0  501    0  0.00000000000E+00 -0.00000000000E+00 -0.17414515171E+03  0.17414515171E+03  0.00000000000E+00 0. -1.
         25    2    1    2    0    0 -0.83315470682E+02 -0.11240235338E+03  0.79296084369E+02  0.20373983081E+03  0.12508514284E+03 0.  0.
          5    1    3    3  502    0  0.22344124125E+02 -0.33837302500E+02  0.57086275782E+02  0.70146548070E+02  0.41800000000E+01 0.  1.
         -5    1    3    3    0  502 -0.10565959481E+03 -0.78565050882E+02  0.22209808587E+02  0.13359328274E+03  0.41800000000E+01 0.  1.
        -11    1    1    2    0    0  0.64220004757E+01  0.32453672702E+02  0.23612660400E+02  0.40645303457E+02  0.00000000000E+00 0.  1.
         11    1    1    2    0    0  0.76893470206E+02  0.79948680680E+02 -0.73659448518E+02  0.13315446541E+03  0.00000000000E+00 0. -1.
</event>
<event>
 7    1  0.2670433E-009  0.8685897E+02  0.7561462E-02  0.1310641E+00
          2   -1    0    0  501    0  0.00000000000E+00  0.00000000000E+00  0.16545869439E+03  0.16545869439E+03  0.00000000000E+00 0. -1.
         -2   -1    0    0    0  501 -0.00000000000E+00 -0.00000000000E+00 -0.10043805865E+03  0.10043805865E+03  0.00000000000E+00 0.  1.
         25    2    1    2    0    0  0.23944164706E+02 -0.43725454924E+02  0.64701749724E+02  0.14939452903E+03  0.12508865039E+03 0.  0.
          5    1    3    3  502    0  0.39835488426E+02 -0.45169357039E+02 -0.19616705286E+02  0.63477747910E+02  0.41800000000E+01 0. -1.
         -5    1    3    3    0  502 -0.15891323720E+02  0.14439021152E+01  0.84318455010E+02  0.85916781121E+02  0.41800000000E+01 0. -1.
        -11    1    1    2    0    0 -0.43522036043E+02 -0.55077107250E+01  0.32424076798E+02  0.54551106817E+02  0.00000000000E+00 0. -1.
         11    1    1    2    0    0  0.19577871336E+02  0.49233165649E+02 -0.32105190788E+02  0.61951117192E+02  0.00000000000E+00 0.  1.
</event>
<event>
 7    1  0.2670433E-009  0.1493948E+03  0.7561462E-02  0.1201219E+00
          1   -1    0    0  501    0  0.00000000000E+00  0.00000000000E+00  0.54975558689E+02  0.54975558689E+02  0.00000000000E+00 0. -1.
         -1   -1    0    0    0  501 -0.00000000000E+00 -0.00000000000E+00 -0.52786914198E+03  0.52786914198E+03  0.00000000000E+00 0.  1.
         25    2    1    2    0    0 -0.13089868026E+03  0.66784635691E+01 -0.26295374089E+03  0.31932978943E+03  0.12509107960E+03 0.  0.
          5    1    3    3  502    0 -0.13835293551E+03  0.17754799848E+02 -0.14758043665E+03  0.20311136197E+03  0.41800000000E+01 0.  1.
         -5    1    3    3    0  502  0.74542552478E+01 -0.11076336279E+02 -0.11537330425E+03  0.11621842745E+03  0.41800000000E+01 0.  1.
        -11    1    1    2    0    0  0.67731477437E+02  0.27881706248E+02 -0.15976157870E+03  0.17575182676E+03  0.00000000000E+00 0.  1.
         11    1    1    2    0    0  0.63167202826E+02 -0.34560169817E+02 -0.50178263691E+02  0.87763084481E+02  0.00000000000E+00 0. -1.
</event>
<event>
 7    1  0.2670433E-009  0.9558473E+02  0.7561462E-02  0.1289865E+00
          2   -1    0    0  501    0  0.00000000000E+00  0.00000000000E+00  0.61134512751E+02  0.61134512751E+02  0.00000000000E+00 0. -1.
         -2   -1    0    0    0  501 -0.00000000000E+00 -0.00000000000E+00 -0.27581847153E+03  0.27581847153E+03  0.00000000000E+00 0.  1.
         25    2    1    2    0    0 -0.50569003347E+02 -0.35830482923E+02 -0.71975713279E+02  0.15706332972E+03  0.12508932263E+03 0.  0.
          5    1    3    3  502    0 -0.56262671189E+02 -0.56962585111E+02 -0.95480268036E+02  0.12467629388E+03  0.41800000000E+01 0. -1.
         -5    1    3    3    0  502  0.56936678421E+01  0.21132102188E+02  0.23504554757E+02  0.32387035843E+02  0.41800000000E+01 0. -1.
        -11    1    1    2    0    0  0.54816761458E+02  0.22455217250E+01 -0.13420449822E+03  0.14498540288E+03  0.00000000000E+00 0.  1.
         11    1    1    2    0    0 -0.42477581116E+01  0.33584961198E+02 -0.85037472832E+01  0.34904251683E+02  0.00000000000E+00 0. -1.
</event>
<event>
 7    1  0.2670433E-009  0.1153899E+03  0.7561462E-02  0.1250902E+00
          2   -1    0    0  501    0  0.00000000000E+00  0.00000000000E+00  0.52551161635E+03  0.52551161635E+03  0.00000000000E+00 0. -1.
         -2   -1    0    0    0  501 -0.00000000000E+00 -0.00000000000E+00 -0.37193745855E+02  0.37193745855E+02  0.00000000000E+00 0.  1.
         25    2    1    2    0    0  0.85660093559E+02 -0.12947993164E+02  0.30887055598E+03  0.34431497756E+03  0.12508589553E+03 0.  0.
          5    1    3    3  502    0  0.50161153820E+02  0.24557134449E+02  0.27888571311E+03  0.28445370024E+03  0.41800000000E+01 0. -1.
         -5    1    3    3    0  502  0.35498939739E+02 -0.37505127613E+02  0.29984842878E+02  0.59861277319E+02  0.41800000000E+01 0. -1.
        -11    1    1    2    0    0  0.14618668316E+01 -0.27056639404E+02  0.54871523141E+02  0.61197081975E+02  0.00000000000E+00 0.  1.
         11    1    1    2    0    0 -0.87121960391E+02  0.40004632568E+02  0.12457579137E+03  0.15719330267E+03  0.00000000000E+00 0. -1.
</event>
<event>
 7    1  0.2670433E-009  0.1489927E+03  0.7561462E-02  0.1201716E+00
          3   -1    0    0  501    0  0.00000000000E+00  0.00000000000E+00  0.27418779162E+02  0.27418779162E+02  0.00000000000E+00 0. -1.
         -3   -1    0    0    0  501 -0.00000000000E+00 -0.00000000000E+00 -0.95339608899E+03  0.95339608899E+03  0.00000000000E+00 0.  1.
         25    2    1    2    0    0  0.93560183833E+02 -0.68915376871E+02 -0.57399986596E+03  0.59885441616E+03  0.12509168025E+03 0.  0.
          5    1    3    3  502    0  0.10233108634E+03 -0.25956108249E+02 -0.24351507837E+03  0.26544761551E+03  0.41800000000E+01 0.  1.
         -5    1    3    3    0  502 -0.87709025105E+01 -0.42959268622E+02 -0.33048478759E+03  0.33340680065E+03  0.41800000000E+01 0.  1.
        -11    1    1    2    0    0 -0.37833055196E+02 -0.20422360438E+02 -0.10687996524E+03  0.11520303746E+03  0.00000000000E+00 0. -1.
         11    1    1    2    0    0 -0.55727128637E+02  0.89337737309E+02 -0.24509747863E+03  0.26675741452E+03  0.00000000000E+00 0.  1.
</event>
<event>
 7    1  0.2670433E-009  0.5238762E+02  0.7561462E-02  0.1432873E+00
          2   -1    0    0  501    0  0.00000000000E+00  0.00000000000E+00  0.18146315961E+04  0.18146315961E+04  0.00000000000E+00 0. -1.
         -2   -1    0    0    0  501 -0.00000000000E+00 -0.00000000000E+00 -0.15133850145E+02  0.15133850145E+02  0.00000000000E+00 0.  1.
         25    2    1    2    0    0  0.36495202870E+02  0.22212262774E+02  0.16022272745E+04  0.16076705788E+04  0.12508863414E+03 0.  0.
          5    1    3    3  502    0  0.14446515313E+02  0.44451705697E+00  0.15138763958E+04  0.15139511596E+04  0.41800000000E+01 0. -1.
         -5    1    3    3    0  502  0.22048687557E+02  0.21767745717E+02  0.88350878652E+02  0.93719419200E+02  0.41800000000E+01 0. -1.
        -11    1    1    2    0    0  0.47604647134E+01 -0.16063449710E+02 -0.34336449491E+01  0.17102232559E+02  0.00000000000E+00 0.  1.
         11    1    1    2    0    0 -0.41255667584E+02 -0.61488130640E+01  0.20070411650E+03  0.20499263496E+03  0.00000000000E+00 0. -1.
</event>
<event>
 7    1  0.2670433E-009  0.1158276E+03  0.7561462E-02  0.1250143E+00
         -2   -1    0    0    0  501 -0.00000000000E+00  0.00000000000E+00  0.91423627152E+02  0.91423627152E+02  0.00000000000E+00 0.  1.
          2   -1    0    0  501    0  0.00000000000E+00 -0.00000000000E+00 -0.18573752571E+03  0.18573752571E+03  0.00000000000E+00 0. -1.
         25    2    1    2    0    0 -0.23354201882E+02 -0.72907451223E+02 -0.37137935620E+02  0.15128827730E+03  0.12509197176E+03 0.  0.
          5    1    3    3  502    0 -0.55243345679E+02 -0.84304517628E+02 -0.52666407559E+02  0.11379939288E+03  0.41800000000E+01 0. -1.
         -5    1    3    3    0  502  0.31889143797E+02  0.11397066405E+02  0.15528471939E+02  0.37488884426E+02  0.41800000000E+01 0. -1.
        -11    1    1    2    0    0 -0.19206641346E+02  0.33690503827E+02  0.70522863341E+01  0.39416745965E+02  0.00000000000E+00 0.  1.
         11    1    1    2    0    0  0.42560843228E+02  0.39216947396E+02 -0.64228249269E+02  0.86456129589E+02  0.00000000000E+00 0. -1.
</event>
<event>
 7    1  0.2720681E-009  0.1936531E+03  0.7561462E-02  0.1155207E+00
         -2   -1    0    0    0  501 -0.00000000000E+00  0.00000000000E+00  0.54251236082E+02  0.54251236082E+02  0.00000000000E+00 0.  1.
          2   -1    0    0  501    0  0.00000000000E+00 -0.00000000000E+00 -0.90617322563E+03  0.90617322563E+03  0.00000000000E+00 0. -1.
         25    2    1    2    0    0 -0.18433400444E+03  0.54976042238E+02 -0.40050096138E+03  0.46157362018E+03  0.12509115223E+03 0.  0.
          5    1    3    3  502    0 -0.98145270502E+02  0.26032322048E+02 -0.82778958618E+02  0.13107251544E+03  0.41800000000E+01 0. -1.
         -5    1    3    3    0  502 -0.86188733942E+02  0.28943720190E+02 -0.31772200277E+03  0.33050110475E+03  0.41800000000E+01 0. -1.
        -11    1    1    2    0    0  0.94355408648E+02 -0.12547992841E+02 -0.32103116203E+03  0.33484534080E+03  0.00000000000E+00 0. -1.
         11    1    1    2    0    0  0.89978595796E+02 -0.42428049397E+02 -0.13038986614E+03  0.16400550073E+03  0.00000000000E+00 0.  1.
</event>
<event>
 7    1  0.2670433E-009  0.9505546E+02  0.7561462E-02  0.1291051E+00
         -3   -1    0    0    0  501 -0.00000000000E+00  0.00000000000E+00  0.52916686611E+02  0.52916686611E+02  0.00000000000E+00 0.  1.
          3   -1    0    0  501    0  0.00000000000E+00 -0.00000000000E+00 -0.32663763365E+03  0.32663763365E+03  0.00000000000E+00 0. -1.
         25    2    1    2    0    0 -0.23427917400E+02  0.36859403191E+02 -0.23478405155E+03  0.26958651656E+03  0.12508339670E+03 0.  0.
          5    1    3    3  502    0  0.26482945154E+02  0.44770269521E+02 -0.20332282481E+03  0.20991276023E+03  0.41800000000E+01 0. -1.
         -5    1    3    3    0  502 -0.49910862554E+02 -0.79108663293E+01 -0.31461226742E+02  0.59673756335E+02  0.41800000000E+01 0. -1.
        -11    1    1    2    0    0 -0.72073332188E+01 -0.52382869772E+02  0.62131800330E+01  0.53240156872E+02  0.00000000000E+00 0.  1.
         11    1    1    2    0    0  0.30635250619E+02  0.15523466580E+02 -0.45150075517E+02  0.56727646825E+02  0.00000000000E+00 0. -1.
</event>
<event>
 7    1  0.2670433E-009  0.1054309E+03  0.7561462E-02  0.1269273E+00
          2   -1    0    0  501    0  0.00000000000E+00  0.00000000000E+00  0.10294465591E+03  0.10294465591E+03  0.00000000000E+00 0.  1.
         -2   -1    0    0    0  501 -0.00000000000E+00 -0.00000000000E+00 -0.15346236906E+03  0.15346236906E+03  0.00000000000E+00 0. -1.
         25    2    1    2    0    0 -0.75250068140E+01 -0.36150686699E+02 -0.82505989029E+02  0.15433158247E+03  0.12508997260E+03 0.  0.
          5    1    3    3  502    0  0.47870800820E+02 -0.33303267289E+02 -0.46560846294E+01  0.58650428023E+02  0.41800000000E+01 0.  1.
         -5    1    3    3    0  502 -0.55395807634E+02 -0.28474194108E+01 -0.77849904399E+02  0.95681154444E+02  0.41800000000E+01 0.  1.
        -11    1    1    2    0    0 -0.29658607932E+02  0.49128568573E+02  0.16047720376E+02  0.59588409978E+02  0.00000000000E+00 0. -1.
         11    1    1    2    0    0  0.37183614746E+02 -0.12977881874E+02  0.15940555503E+02  0.42487032530E+02  0.00000000000E+00 0.  1.
</event>
<event>
 7    1  0.2670433E-009  0.9513690E+02  0.7561462E-02  0.1290868E+00
         -1   -1    0    0    0  501 -0.00000000000E+00  0.00000000000E+00  0.10507190852E+03  0.10507190852E+03  0.00000000000E+00 0.  1.
          1   -1    0    0  501    0  0.00000000000E+00 -0.00000000000E+00 -0.16626258806E+03  0.16626258806E+03  0.00000000000E+00 0. -1.
         25    2    1    2    0    0  0.41830564496E+02  0.59950070086E+02 -0.12899178125E+02  0.14545792925E+03  0.12509122014E+03 0.  0.
          5    1    3    3  502    0  0.45106057791E+02  0.47588485500E+02 -0.64536973873E+02  0.92096220326E+02  0.41800000000E+01 0.  1.
         -5    1    3    3    0  502 -0.32754932952E+01  0.12361584586E+02  0.51637795748E+02  0.53361708926E+02  0.41800000000E+01 0.  1.
        -11    1    1    2    0    0  0.21892203250E+01  0.19856302563E+02 -0.24631494946E+02  0.31713971375E+02  0.00000000000E+00 0. -1.
         11    1    1    2    0    0 -0.44019784821E+02 -0.79806372649E+02 -0.23660006460E+02  0.94162595954E+02  0.00000000000E+00 0.  1.
</event>
<event>
 7    1  0.2670433E-009  0.1287034E+03  0.7561462E-02  0.1229392E+00
          2   -1    0    0  501    0  0.00000000000E+00  0.00000000000E+00  0.28391931448E+03  0.28391931448E+03  0.00000000000E+00 0. -1.
         -2   -1    0    0    0  501 -0.00000000000E+00 -0.00000000000E+00 -0.74805941279E+02  0.74805941279E+02  0.00000000000E+00 0.  1.
         25    2    1    2    0    0 -0.45911435728E+02 -0.82692942590E+02  0.87701909562E+02  0.17968180550E+03  0.12509174074E+03 0.  0.
          5    1    3    3  502    0  0.21508262275E+02 -0.42825687689E+01  0.71528213003E+02  0.74931324536E+02  0.41800000000E+01 0. -1.
         -5    1    3    3    0  502 -0.67419698002E+02 -0.78410373821E+02  0.16173696559E+02  0.10475048096E+03  0.41800000000E+01 0. -1.
        -11    1    1    2    0    0 -0.26540599575E+02  0.38364361600E+02  0.42530982436E+02  0.63127744564E+02  0.00000000000E+00 0.  1.
         11    1    1    2    0    0  0.72452035302E+02  0.44328580991E+02  0.78880481203E+02  0.11591570570E+03  0.00000000000E+00 0. -1.
</event>
<event>
 7    1  0.2670433E-009  0.1116651E+03  0.7561462E-02  0.1257517E+00
          2   -1    0    0  501    0  0.00000000000E+00  0.00000000000E+00  0.33064014467E+03  0.33064014467E+03  0.00000000000E+00 0.  1.
         -2   -1    0    0    0  501 -0.00000000000E+00 -0.00000000000E+00 -0.84340894544E+02  0.84340894544E+02  0.00000000000E+00 0. -1.
         25    2    1    2    0    0 -0.28510767734E+02  0.51084140011E+02 -0.73509337306E+01  0.13828920195E+03  0.12508962352E+03 0.  0.
          5    1    3    3  502    0 -0.60425549146E+02 -0.99764052212E+01  0.19223383049E+02  0.64325628691E+02  0.41800000000E+01 0. -1.
         -5    1    3    3    0  502  0.31914781412E+02  0.61060545232E+02 -0.26574316780E+02  0.73963573256E+02  0.41800000000E+01 0. -1.
        -11    1    1    2    0    0  0.35014407628E+02 -0.67070765753E+02  0.24677637868E+03  0.25811446576E+03  0.00000000000E+00 0.  1.
         11    1    1    2    0    0 -0.65036398943E+01  0.15986625743E+02  0.68738051785E+01  0.18577371508E+02  0.00000000000E+00 0. -1.
</event>
<event>
 7    1  0.2670433E-009  0.2524285E+03  0.7561462E-02  0.1111780E+00
          1   -1    0    0  501    0  0.00000000000E+00  0.00000000000E+00  0.88964366704E+03  0.88964366704E+03  0.00000000000E+00 0. -1.
         -1   -1    0    0    0  501 -0.00000000000E+00 -0.00000000000E+00 -0.84839602692E+02  0.84839602692E+02  0.00000000000E+00 0.  1.
         25    2    1    2    0    0 -0.51291868915E+02 -0.24207429250E+03  0.49983668464E+03  0.57158970534E+03  0.12508901241E+03 0.  0.
          5    1    3    3  502    0 -0.83378895349E+01 -0.87195737947E+02  0.31322533898E+03  0.32526943062E+03  0.41800000000E+01 0. -1.
         -5    1    3    3    0  502 -0.42953979380E+02 -0.15487855456E+03  0.18661134566E+03  0.24632027472E+03  0.41800000000E+01 0. -1.
        -11    1    1    2    0    0 -0.16118244401E+02  0.33267667153E+02  0.16555350666E+02  0.40504507354E+02  0.00000000000E+00 0.  1.
         11    1    1    2    0    0  0.67410113316E+02  0.20880662535E+03  0.28841202904E+03  0.36238905704E+03  0.00000000000E+00 0. -1.
</event>
<event>
 7    1  0.2670433E-009  0.2418674E+03  0.7561462E-02  0.1118555E+00
          2   -1    0    0  501    0  0.00000000000E+00  0.00000000000E+00  0.72211497849E+03  0.72211497849E+03  0.00000000000E+00 0. -1.
         -2   -1    0    0    0  501 -0.00000000000E+00 -0.00000000000E+00 -0.10600522182E+03  0.10600522182E+03  0.00000000000E+00 0.  1.
         25    2    1    2    0    0 -0.17909825894E+03 -0.14896446639E+03  0.16257034902E+03  0.31039318894E+03  0.12509282456E+03 0.  0.
          5    1    3    3  502    0 -0.10214483610E+03 -0.13904842112E+03  0.62178799252E+02  0.18344401444E+03  0.41800000000E+01 0. -1.
         -5    1    3    3    0  502 -0.76953422836E+02 -0.99160452681E+01  0.10039154977E+03  0.12694917450E+03  0.41800000000E+01 0. -1.
        -11    1    1    2    0    0  0.82295526982E+02  0.78335631923E+02  0.31329615100E+03  0.33326191385E+03  0.00000000000E+00 0. -1.
         11    1    1    2    0    0  0.96802731954E+02  0.70628834464E+02  0.14024325665E+03  0.18446509753E+03  0.00000000000E+00 0.  1.
</event>
<event>
 7    1  0.2670433E-009  0.2077657E+03  0.7561462E-02  0.1143348E+00
         -2   -1    0    0    0  501 -0.00000000000E+00  0.00000000000E+00  0.85923182222E+02  0.85923182222E+02  0.00000000000E+00 0. -1.
          2   -1    0    0  501    0  0.00000000000E+00 -0.00000000000E+00 -0.61980945695E+03  0.61980945695E+03  0.00000000000E+00 0.  1.
         25    2    1    2    0    0 -0.11382258229E+03 -0.15190677927E+03 -0.16417593308E+03  0.28041397391E+03  0.12508800876E+03 0.  0.
          5    1    3    3  502    0 -0.12851019748E+03 -0.12405847751E+03 -0.17167473579E+03  0.24778027364E+03  0.41800000000E+01 0.  1.
         -5    1    3    3    0  502  0.14687615190E+02 -0.27848301766E+02  0.74988027117E+01  0.32633700270E+02  0.41800000000E+01 0.  1.
        -11    1    1    2    0    0 -0.54240961377E+01  0.43833228207E+02 -0.12366157578E+03  0.13131244434E+03  0.00000000000E+00 0.  1.
         11    1    1    2    0    0  0.11924667842E+03  0.10807355107E+03 -0.24604876587E+03  0.29400622092E+03  0.00000000000E+00 0. -1.
</event>
<event>
 7    1  0.2670433E-009  0.1136213E+03  0.7561462E-02  0.1254007E+00
          1   -1    0    0  501    0  0.00000000000E+00  0.00000000000E+00  0.67126885613E+02  0.67126885613E+02  0.00000000000E+00 0. -1.
         -1   -1    0    0    0  501 -0.00000000000E+00 -0.00000000000E+00 -0.24929778007E+03  0.24929778007E+03  0.00000000000E+00 0.  1.
         25    2    1    2    0    0  0.51959871176E+02  0.21598403316E+02 -0.15547349577E+03  0.20732876401E+03  0.12508752640E+03 0.  0.
          5    1    3    3  502    0  0.57530418551E+02 -0.42526235759E+02 -0.69315181906E+02  0.99701036249E+02  0.41800000000E+01 0. -1.
         -5    1    3    3    0  502 -0.55705473753E+01  0.64124639075E+02 -0.86158313867E+02  0.10762772776E+03  0.41800000000E+01 0. -1.
        -11    1    1    2    0    0 -0.21120626604E+02 -0.46738529321E+02 -0.42175930680E+02  0.66403163478E+02  0.00000000000E+00 0.  1.
         11    1    1    2    0    0 -0.30839244572E+02  0.25140126005E+02  0.15478532000E+02  0.42692738190E+02  0.00000000000E+00 0. -1.
</event>
<event>
 7    1  0.2670433E-009  0.1057806E+03  0.7561462E-02  0.1268589E+00
          2   -1    0    0  501    0  0.00000000000E+00  0.00000000000E+00  0.54175659830E+02  0.54175659830E+02  0.00000000000E+00 0. -1.
         -2   -1    0    0    0  501 -0.00000000000E+00 -0.00000000000E+00 -0.28399671674E+03  0.28399671674E+03  0.00000000000E+00 0.  1.
         25    2    1    2    0    0  0.45232200374E+02  0.37759126331E+02 -0.15073747713E+03  0.20455083444E+03  0.12509018063E+03 0.  0.
          5    1    3    3  502    0 -0.33476765531E+02 -0.11453669838E+02 -0.80622504842E+02  0.88143865755E+02  0.41800000000E+01 0. -1.
         -5    1    3    3    0  502  0.78708965906E+02  0.49212796169E+02 -0.70114972284E+02  0.11640696869E+03  0.41800000000E+01 0. -1.
        -11    1    1    2    0    0  0.43315847569E+01 -0.32929189402E+02 -0.76910702180E+02  0.83775594603E+02  0.00000000000E+00 0.  1.
         11    1    1    2    0    0 -0.49563785131E+02 -0.48299369288E+01 -0.21728776008E+01  0.49845947522E+02  0.00000000000E+00 0. -1.
</event>
<event>
 7    1  0.2670433E-009  0.1010330E+03  0.7561462E-02  0.1278139E+00
         -2   -1    0    0    0  501 -0.00000000000E+00  0.00000000000E+00  0.35893807410E+02  0.35893807410E+02  0.00000000000E+00 0.  1.
          2   -1    0    0  501    0  0.00000000000E+00 -0.00000000000E+00 -0.50200510052E+03  0.50200510052E+03  0.00000000000E+00 0. -1.
         25    2    1    2    0    0 -0.64254820018E+02  0.18448910100E+02 -0.35028453675E+03  0.37791052650E+03  0.12509222667E+03 0.  0.
          5    1    3    3  502    0  0.22855078727E+02 -0.24777265801E+02 -0.16663240120E+03  0.17005909871E+03  0.41800000000E+01 0.  1.
         -5    1    3    3    0  502 -0.87109898745E+02  0.43226175901E+02 -0.18365213556E+03  0.20785142780E+03  0.41800000000E+01 0.  1.
        -11    1    1    2    0    0  0.28687983631E+02 -0.20308592725E+02 -0.11914239358E+03  0.12421895706E+03  0.00000000000E+00 0.  1.
         11    1    1    2    0    0  0.35566836387E+02  0.18596826252E+01  0.33156372213E+01  0.35769424376E+02  0.00000000000E+00 0. -1.
</event>
<event>
 7    1  0.2670433E-009  0.8573323E+02  0.7561462E-02  0.1313526E+00
          2   -1    0    0  501    0  0.00000000000E+00  0.00000000000E+00  0.28078019966E+03  0.28078019966E+03  0.00000000000E+00 0. -1.
         -2   -1    0    0    0  501 -0.00000000000E+00 -0.00000000000E+00 -0.58426682127E+02  0.58426682127E+02  0.00000000000E+00 0.  1.
         25    2    1    2    0    0 -0.55864621406E+02 -0.38703114151E+02  0.14657255110E+03  0.20432935034E+03  0.12509270045E+03 0.  0.
          5    1    3    3  502    0 -0.39883451318E+02 -0.22041586048E+02  0.16703982238E+03  0.17319438752E+03  0.41800000000E+01 0. -1.
         -5    1    3    3    0  502 -0.15981170087E+02 -0.16661528103E+02 -0.20467271288E+02  0.31134962824E+02  0.41800000000E+01 0. -1.
        -11    1    1    2    0    0  0.67352250768E+02  0.51693312726E+02  0.80401722150E+02  0.11693143798E+03  0.00000000000E+00 0. -1.
         11    1    1    2    0    0 -0.11487629362E+02 -0.12990198575E+02 -0.46207557100E+01  0.17946093467E+02  0.00000000000E+00 0.  1.
</event>
<event>
 7    1  0.2670433E-009  0.9869808E+02  0.7561462E-02  0.1283058E+00
         -1   -1    0    0    0  501 -0.00000000000E+00  0.00000000000E+00  0.32273067690E+02  0.32273067690E+02  0.00000000000E+00 0.  1.
          1   -1    0    0  501    0  0.00000000000E+00 -0.00000000000E+00 -0.48042489014E+03  0.48042489014E+03  0.00000000000E+00 0. -1.
         25    2    1    2    0    0  0.24024450769E+02 -0.47550284051E+02 -0.31096376810E+03  0.33938826600E+03  0.12509087208E+03 0.  0.
          5    1    3    3  502    0  0.54101011021E+02 -0.41581548909E+02 -0.29816124938E+03  0.30589793663E+03  0.41800000000E+01 0. -1.
         -5    1    3    3    0  502 -0.30076560252E+02 -0.59687351419E+01 -0.12802518727E+02  0.33490329373E+02  0.41800000000E+01 0. -1.
        -11    1    1    2    0    0  0.15611127959E+02  0.55507196140E+02 -0.46693894961E+02  0.74196199134E+02  0.00000000000E+00 0.  1.
         11    1    1    2    0    0 -0.39635578728E+02 -0.79569120889E+01 -0.90494159391E+02  0.99113492699E+02  0.00000000000E+00 0. -1.
</event>
<event>
 7    1  0.2670433E-009  0.1640990E+03  0.7561462E-02  0.1184145E+00
         -2   -1    0    0    0  501 -0.00000000000E+00  0.00000000000E+00  0.63110277099E+02  0.63110277099E+02  0.00000000000E+00 0.  1.
          2   -1    0    0  501    0  0.00000000000E+00 -0.00000000000E+00 -0.47420108690E+03  0.47420108690E+03  0.00000000000E+00 0. -1.
         25    2    1    2    0    0 -0.13022843063E+03 -0.10487029080E+02 -0.17033043659E+03  0.24845481576E+03  0.12509163012E+03 0.  0.
          5    1    3    3  502    0 -0.12671767556E+03  0.32683017929E+02 -0.96111714257E+02  0.16242069751E+03  0.41800000000E+01 0. -1.
         -5    1    3    3    0  502 -0.35107550642E+01 -0.43170047009E+02 -0.74218722330E+02  0.86034118257E+02  0.41800000000E+01 0. -1.
        -11    1    1    2    0    0  0.11031485000E+03 -0.24952508308E+02 -0.13850611503E+03  0.17881816939E+03  0.00000000000E+00 0.  1.
         11    1    1    2    0    0  0.19913580626E+02  0.35439537388E+02 -0.10225425818E+03  0.11003837885E+03  0.00000000000E+00 0. -1.
</event>
<event>
 7    1  0.2670433E-009  0.7541904E+02  0.7561462E-02  0.1342578E+00
         -2   -1    0    0    0  501 -0.00000000000E+00  0.00000000000E+00  0.15786805502E+03  0.15786805502E+03  0.00000000000E+00 0.  1.
          2   -1    0    0  501    0  0.00000000000E+00 -0.00000000000E+00 -0.95095546873E+02  0.95095546873E+02  0.00000000000E+00 0. -1.
         25    2    1    2    0    0 -0.22096513771E+02 -0.17381405292E+02 -0.14424131625E+02  0.12903240095E+03  0.12510369999E+03 0.  0.
          5    1    3    3  502    0 -0.17814335264E+02  0.49879813069E+02 -0.28146639910E+02  0.60125302751E+02  0.41800000000E+01 0. -1.
         -5    1    3    3    0  502 -0.42821785071E+01 -0.67261218361E+02  0.13722508285E+02  0.68907098196E+02  0.41800000000E+01 0. -1.
        -11    1    1    2    0    0  0.11458389867E+02  0.15660140150E+02  0.98320629006E+02  0.10021716807E+03  0.00000000000E+00 0.  1.
         11    1    1    2    0    0  0.10638123904E+02  0.17212651423E+01 -0.21123989236E+02  0.23714032874E+02  0.00000000000E+00 0. -1.
</event>
<event>
 7    1  0.2670433E-009  0.2307576E+03  0.7561462E-02  0.1126108E+00
          2   -1    0    0  501    0  0.00000000000E+00  0.00000000000E+00  0.18223168666E+03  0.18223168666E+03  0.00000000000E+00 0. -1.
         -2   -1    0    0    0  501 -0.00000000000E+00 -0.00000000000E+00 -0.33948734975E+03  0.33948734975E+03  0.00000000000E+00 0.  1.
         25    2    1    2    0    0  0.21535779024E+03 -0.50943075836E+02 -0.46403312764E+02  0.25840749497E+03  0.12508793400E+03 0.  0.
          5    1    3    3  502    0  0.42721383885E+01 -0.99005233939E+01 -0.41702984028E+02  0.43276816042E+02  0.41800000000E+01 0.  1.
         -5    1    3    3    0  502  0.21108565185E+03 -0.41042552442E+02 -0.47003287355E+01  0.21513067893E+03  0.41800000000E+01 0.  1.
        -11    1    1    2    0    0 -0.81144713401E+02  0.59138016141E+02 -0.23996076330E+02  0.10323556144E+03  0.00000000000E+00 0. -1.
         11    1    1    2    0    0 -0.13421307684E+03 -0.81949403045E+01 -0.86856273992E+02  0.16007598000E+03  0.00000000000E+00 0.  1.
</event>
<event>
 7    1  0.2670433E-009  0.1542645E+03  0.7561462E-02  0.1195329E+00
          1   -1    0    0  501    0  0.00000000000E+00  0.00000000000E+00  0.60074157088E+03  0.60074157088E+03  0.00000000000E+00 0. -1.
         -1   -1    0    0    0  501 -0.00000000000E+00 -0.00000000000E+00 -0.40150825482E+02  0.40150825482E+02  0.00000000000E+00 0.  1.
         25    2    1    2    0    0  0.80854056351E+02 -0.73713309481E+02  0.33761663279E+03  0.37630230675E+03  0.12508958752E+03 0.  0.
          5    1    3    3  502    0  0.45210571844E+02  0.31288869114E+02  0.10656883695E+03  0.11998907678E+03  0.41800000000E+01 0.  1.
         -5    1    3    3    0  502  0.35643484507E+02 -0.10500217859E+03  0.23104779584E+03  0.25631322997E+03  0.41800000000E+01 0.  1.
        -11    1    1    2    0    0 -0.60461094487E+01  0.67046488420E+02  0.10309338043E+03  0.12312608228E+03  0.00000000000E+00 0.  1.
         11    1    1    2    0    0 -0.74807946902E+02  0.66668210611E+01  0.11988073218E+03  0.14146400733E+03  0.00000000000E+00 0. -1.
</event>
<event>
 7    1  0.4032469E-009  0.1570656E+03  0.7561462E-02  0.1192050E+00
          2   -1    0    0  501    0  0.00000000000E+00  0.00000000000E+00  0.67058286147E+03  0.67058286147E+03  0.00000000000E+00 0. -1.
         -2   -1    0    0    0  501 -0.00000000000E+00 -0.00000000000E+00 -0.54855094496E+02  0.54855094496E+02  0.00000000000E+00 0.  1.
         25    2    1    2    0    0  0.79003231543E+02  0.11931643458E+03  0.44971500841E+03  0.48823293133E+03  0.12509949759E+03 0.  0.
          5    1    3    3  502    0  0.11779800896E+02  0.36274245120E+02  0.30966519607E+03  0.31203299605E+03  0.41800000000E+01 0. -1.
         -5    1    3    3    0  502  0.67223430647E+02  0.83042189455E+02  0.14004981234E+03  0.17619993528E+03  0.41800000000E+01 0. -1.
        -11    1    1    2    0    0 -0.16893277124E+02 -0.10333663403E+03  0.11239636287E+03  0.15361245109E+03  0.00000000000E+00 0.  1.
         11    1    1    2    0    0 -0.62109954419E+02 -0.15979800542E+02  0.53616395702E+02  0.83592573542E+02  0.00000000000E+00 0. -1.
</event>
<event>
 7    1  0.2670433E-009  0.8059271E+02  0.7561462E-02  0.1327378E+00
          2   -1    0    0  501    0  0.00000000000E+00  0.00000000000E+00  0.11049226880E+04  0.11049226880E+04  0.00000000000E+00 0. -1.
         -2   -1    0    0    0  501 -0.00000000000E+00 -0.00000000000E+00 -0.16434087504E+02  0.16434087504E+02  0.00000000000E+00 0.  1.
         25    2    1    2    0    0  0.45989842017E+02  0.25568614358E+02  0.85463895961E+03  0.86534603910E+03  0.12508875450E+03 0.  0.
          5    1    3    3  502    0 -0.36030035149E+01  0.24100994019E+02  0.28591123048E+02  0.37798998190E+02  0.41800000000E+01 0. -1.
         -5    1    3    3    0  502  0.49592845532E+02  0.14676203389E+01  0.82604783656E+03  0.82754704091E+03  0.41800000000E+01 0. -1.
        -11    1    1    2    0    0  0.17872724295E+02 -0.11572254825E+02  0.11398319513E+02  0.24151046420E+02  0.00000000000E+00 0.  1.
         11    1    1    2    0    0 -0.63862566312E+02 -0.13996359533E+02  0.22245132136E+03  0.23185968997E+03  0.00000000000E+00 0. -1.
</event>
<event>
 7    1  0.2670433E-009  0.1028108E+03  0.7561462E-02  0.1274494E+00
          2   -1    0    0  501    0  0.00000000000E+00  0.00000000000E+00  0.77750925197E+03  0.77750925197E+03  0.00000000000E+00 0.  1.
         -2   -1    0    0    0  501 -0.00000000000E+00 -0.00000000000E+00 -0.20099293546E+02  0.20099293546E+02  0.00000000000E+00 0. -1.
         25    2    1    2    0    0  0.51104888256E+02  0.20162794181E+02  0.50046370658E+03  0.51877555548E+03  0.12508360203E+03 0.  0.
          5    1    3    3  502    0  0.32831071646E+02  0.53534852011E+02  0.11234478872E+03  0.12877376906E+03  0.41800000000E+01 0. -1.
         -5    1    3    3    0  502  0.18273816610E+02 -0.33372057830E+02  0.38811891785E+03  0.39000178642E+03  0.41800000000E+01 0. -1.
        -11    1    1    2    0    0 -0.18737616056E+02  0.35428420254E+02  0.64676058166E+02  0.76087211258E+02  0.00000000000E+00 0. -1.
         11    1    1    2    0    0 -0.32367272201E+02 -0.55591214435E+02  0.19227019369E+03  0.20274577878E+03  0.00000000000E+00 0.  1.
</event>
<event>
 7    1  0.2670433E-009  0.1142840E+03  0.7561462E-02  0.1252836E+00
          1   -1    0    0  501    0  0.00000000000E+00  0.00000000000E+00  0.24890077194E+03  0.24890077194E+03  0.00000000000E+00 0. -1.
         -1   -1    0    0    0  501 -0.00000000000E+00 -0.00000000000E+00 -0.61434717024E+02  0.61434717024E+02  0.00000000000E+00 0.  1.
         25    2    1    2    0    0  0.11710420664E+02  0.50851207362E+02  0.72709003464E+02  0.15380538426E+03  0.12508604158E+03 0.  0.
          5    1    3    3  502    0 -0.40792450264E+02  0.68545074410E+02  0.39994073605E+02  0.89327764709E+02  0.41800000000E+01 0.  1.
         -5    1    3    3    0  502  0.52502870928E+02 -0.17693867048E+02  0.32714929859E+02  0.64477619547E+02  0.41800000000E+01 0.  1.
        -11    1    1    2    0    0 -0.13158718131E+02 -0.71364549085E+02  0.11497953513E+03  0.13596449620E+03  0.00000000000E+00 0. -1.
         11    1    1    2    0    0  0.14482974673E+01  0.20513341722E+02 -0.22248367844E+00  0.20565608505E+02  0.00000000000E+00 0.  1.
</event>
<event>
 7    1  0.2670433E-009  0.1258332E+03  0.7561462E-02  0.1233773E+00
         -1   -1    0    0    0  501 -0.00000000000E+00  0.00000000000E+00  0.18648616618E+03  0.18648616618E+03  0.00000000000E+00 0.  1.
          1   -1    0    0  501    0  0.00000000000E+00 -0.00000000000E+00 -0.12201463159E+03  0.12201463159E+03  0.00000000000E+00 0. -1.
         25    2    1    2    0    0  0.10443558979E+03  0.85129203169E+01  0.29733099124E+02  0.16586372779E+03  0.12508979489E+03 0.  0.
          5    1    3    3  502    0  0.66844855391E+02  0.55169212027E+02  0.52745068799E+02  0.10154502120E+03  0.41800000000E+01 0. -1.
         -5    1    3    3    0  502  0.37590734402E+02 -0.46656291710E+02 -0.23011969676E+02  0.64318706590E+02  0.41800000000E+01 0. -1.
        -11    1    1    2    0    0 -0.88395060383E+02 -0.60133723680E+01  0.63915594133E+02  0.10924765682E+03  0.00000000000E+00 0.  1.
         11    1    1    2    0    0 -0.16040529410E+02 -0.24995479489E+01 -0.29177158663E+02  0.33389413163E+02  0.00000000000E+00 0. -1.
</event>
<event>
 7    1  0.2670433E-009  0.9985634E+02  0.7561462E-02  0.1280598E+00
          2   -1    0    0  501    0  0.00000000000E+00  0.00000000000E+00  0.23913370649E+03  0.23913370649E+03  0.00000000000E+00 0. -1.
         -2   -1    0    0    0  501 -0.00000000000E+00 -0.00000000000E+00 -0.87451763021E+02  0.87451763021E+02  0.00000000000E+00 0.  1.
         25    2    1    2    0    0  0.11390440064E+02 -0.90277024398E+02  0.95232816961E+02  0.18164638574E+03  0.12508571768E+03 0.  0.
          5    1    3    3  502    0 -0.15684070620E+02 -0.62535009974E+02  0.11941160377E+03  0.13576899889E+03  0.41800000000E+01 0. -1.
         -5    1    3    3    0  502  0.27074510684E+02 -0.27742014424E+02 -0.24178786811E+02  0.45877386856E+02  0.41800000000E+01 0. -1.
        -11    1    1    2    0    0  0.45552831977E+01  0.70793499442E+02 -0.12053217869E+02  0.71956585726E+02  0.00000000000E+00 0.  1.
         11    1    1    2    0    0 -0.15945723262E+02  0.19483524956E+02  0.68502344377E+02  0.72982498040E+02  0.00000000000E+00 0. -1.
</event>
<event>
 7    1  0.2670433E-009  0.1256004E+03  0.7561462E-02  0.1234134E+00
          2   -1    0    0  501    0  0.00000000000E+00  0.00000000000E+00  0.61830815737E+03  0.61830815737E+03  0.00000000000E+00 0. -1.
         -2   -1    0    0    0  501 -0.00000000000E+00 -0.00000000000E+00 -0.39572208332E+02  0.39572208332E+02  0.00000000000E+00 0.  1.
         25    2    1    2    0    0 -0.51557619973E+02  0.10063226760E+03  0.33127924288E+03  0.37172307324E+03  0.12508822869E+03 0.  0.
          5    1    3    3  502    0 -0.26463598157E+01  0.28809183067E+02  0.20197946404E-01  0.29230892173E+02  0.41800000000E+01 0.  1.
         -5    1    3    3    0  502 -0.48911260157E+02  0.71823084533E+02  0.33125904494E+03  0.34249218107E+03  0.41800000000E+01 0.  1.
        -11    1    1    2    0    0 -0.11188273532E+02  0.48863097650E+01  0.29481145954E+01  0.12559652361E+02  0.00000000000E+00 0.  1.
         11    1    1    2    0    0  0.62745893505E+02 -0.10551857737E+03  0.24450859156E+03  0.27359764010E+03  0.00000000000E+00 0. -1.
</event>
<event>
 7    1  0.2670433E-009  0.1617944E+03  0.7561462E-02  0.1186686E+00
         -1   -1    0    0    0  501 -0.00000000000E+00  0.00000000000E+00  0.13042387694E+03  0.13042387694E+03  0.00000000000E+00 0.  1.
          1   -1    0    0  501    0  0.00000000000E+00 -0.00000000000E+00 -0.31666480738E+03  0.31666480738E+03  0.00000000000E+00 0. -1.
         25    2    1    2    0    0 -0.11242724477E+03  0.55371543632E+02  0.29928969880E+02  0.17958113380E+03  0.12509095558E+03 0.  0.
          5    1    3    3  502    0 -0.37485863606E+02  0.87548716136E+02  0.13474565784E+02  0.96275666658E+02  0.41800000000E+01 0. -1.
         -5    1    3    3    0  502 -0.74941381166E+02 -0.32177172505E+02  0.16454404096E+02  0.83305467141E+02  0.41800000000E+01 0. -1.
        -11    1    1    2    0    0  0.12147122486E+03 -0.38452915010E+02 -0.21280284564E+03  0.24803011159E+03  0.00000000000E+00 0. -1.
         11    1    1    2    0    0 -0.90439800860E+01 -0.16918628622E+02 -0.33670546755E+01  0.19477438934E+02  0.00000000000E+00 0.  1.
</event>
<event>
 7    1  0.2670433E-009  0.1077743E+03  0.7561462E-02  0.1264748E+00
         -2   -1    0    0    0  501 -0.00000000000E+00  0.00000000000E+00  0.63781725750E+03  0.63781725750E+03  0.00000000000E+00 0.  1.
          2   -1    0    0  501    0  0.00000000000E+00 -0.00000000000E+00 -0.30705954996E+02  0.30705954996E+02  0.00000000000E+00 0. -1.
         25    2    1    2    0    0  0.62827620633E+02  0.40199683009E+02  0.21132426497E+03  0.25664722180E+03  0.12508607862E+03 0.  0.
          5    1    3    3  502    0  0.37307189329E+02 -0.16025688595E+02  0.18490464615E+03  0.18935640902E+03  0.41800000000E+01 0. -1.
         -5    1    3    3    0  502  0.25520431304E+02  0.56225371604E+02  0.26419618824E+02  0.67290812781E+02  0.41800000000E+01 0. -1.
        -11    1    1    2    0    0 -0.76447086850E+02 -0.67709568495E+01  0.29501226541E+03  0.30483149392E+03  0.00000000000E+00 0.  1.
         11    1    1    2    0    0  0.13619466217E+02 -0.33428726160E+02  0.10077477212E+03  0.10704449677E+03  0.00000000000E+00 0. -1.
</event>
<event>
 7    1  0.2670433E-009  0.1015996E+03  0.7561462E-02  0.1276968E+00
         -2   -1    0    0    0  501 -0.00000000000E+00  0.00000000000E+00  0.32498793659E+02  0.32498793659E+02  0.00000000000E+00 0.  1.
          2   -1    0    0  501    0  0.00000000000E+00 -0.00000000000E+00 -0.39652305577E+03  0.39652305577E+03  0.00000000000E+00 0. -1.
         25    2    1    2    0    0  0.29741810068E+02 -0.14850893916E+02 -0.19014793892E+03  0.23002525297E+03  0.12510097525E+03 0.  0.
          5    1    3    3  502    0 -0.43108114534E+02 -0.25003799601E+02 -0.11182309951E+03  0.12249643879E+03  0.41800000000E+01 0. -1.
         -5    1    3    3    0  502  0.72849924602E+02  0.10152905685E+02 -0.78324839416E+02  0.10752881418E+03  0.41800000000E+01 0. -1.
        -11    1    1    2    0    0  0.14496272368E+02 -0.18939042392E+02 -0.98896929635E+01  0.25819280900E+02  0.00000000000E+00 0.  1.
         11    1    1    2    0    0 -0.44238082436E+02  0.33789936308E+02 -0.16398663023E+03  0.17317731557E+03  0.00000000000E+00 0. -1.
</event>
<event>
 7    1  0.2670433E-009  0.1093699E+03  0.7561462E-02  0.1261741E+00
          2   -1    0    0  501    0  0.00000000000E+00  0.00000000000E+00  0.97850392396E+03  0.97850392396E+03  0.00000000000E+00 0. -1.
         -2   -1    0    0    0  501 -0.00000000000E+00 -0.00000000000E+00 -0.19244401490E+02  0.19244401490E+02  0.00000000000E+00 0.  1.
         25    2    1    2    0    0  0.64557352503E+01  0.88304093396E+02  0.61886625114E+03  0.63755937564E+03  0.12508889337E+03 0.  0.
          5    1    3    3  502    0  0.43768774915E+02  0.64833015183E+02  0.17799789289E+03  0.19447300016E+03  0.41800000000E+01 0. -1.
         -5    1    3    3    0  502 -0.37313039665E+02  0.23471078213E+02  0.44086835824E+03  0.44308637549E+03  0.41800000000E+01 0. -1.
        -11    1    1    2    0    0  0.43309588057E+01 -0.84613626730E+02  0.33810792741E+03  0.34856160662E+03  0.00000000000E+00 0. -1.
         11    1    1    2    0    0 -0.10786694056E+02 -0.36904666657E+01  0.22853439316E+01  0.11627343194E+02  0.00000000000E+00 0.  1.
</event>
<event>
 7    1  0.2670433E-009  0.1245977E+03  0.7561462E-02  0.1235699E+00
         -2   -1    0    0    0  501 -0.00000000000E+00  0.00000000000E+00  0.10744324111E+03  0.10744324111E+03  0.00000000000E+00 0.  1.
          2   -1    0    0  501    0  0.00000000000E+00 -0.00000000000E+00 -0.16601069326E+03  0.16601069326E+03  0.00000000000E+00 0. -1.
         25    2    1    2    0    0 -0.21470134772E+02 -0.52390407424E+02  0.37158382455E+01  0.13735469373E+03  0.12508710149E+03 0.  0.
          5    1    3    3  502    0  0.33751969152E+02  0.23822322836E+02 -0.84170244964E+01  0.42367643176E+02  0.41800000000E+01 0.  1.
         -5    1    3    3    0  502 -0.55222103923E+02 -0.76212730260E+02  0.12132862742E+02  0.94987050558E+02  0.41800000000E+01 0.  1.
        -11    1    1    2    0    0  0.29113989796E+02 -0.23360684880E+02 -0.44185489384E+02  0.57842056257E+02  0.00000000000E+00 0.  1.
         11    1    1    2    0    0 -0.76438550238E+01  0.75751092304E+02 -0.18097801009E+02  0.78257184374E+02  0.00000000000E+00 0. -1.
</event>
<event>
 7    1  0.2670433E-009  0.6772068E+02  0.7561462E-02  0.1368020E+00
          1   -1    0    0  501    0  0.00000000000E+00  0.00000000000E+00  0.45849345913E+03  0.45849345913E+03  0.00000000000E+00 0. -1.
         -1   -1    0    0    0  501 -0.00000000000E+00 -0.00000000000E+00 -0.32742499185E+02  0.32742499185E+02  0.00000000000E+00 0.  1.
         25    2    1    2    0    0  0.38093975917E+02 -0.37634769612E+02  0.32371250089E+03  0.35114367853E+03  0.12507826692E+03 0.  0.
          5    1    3    3  502    0  0.45008216699E+02 -0.21820697172E+02  0.33403862767E+02  0.60292394572E+02  0.41800000000E+01 0. -1.
         -5    1    3    3    0  502 -0.69142407818E+01 -0.15814072440E+02  0.29030863812E+03  0.29085128396E+03  0.41800000000E+01 0. -1.
        -11    1    1    2    0    0 -0.28351270667E+02  0.46405469887E+02  0.11141295483E+03  0.12397624243E+03  0.00000000000E+00 0. -1.
         11    1    1    2    0    0 -0.97427052499E+01 -0.87707002747E+01 -0.93744957731E+01  0.16116037351E+02  0.00000000000E+00 0.  1.
</event>
<event>
 7    1  0.2670433E-009  0.1371746E+03  0.7561462E-02  0.1217182E+00
          1   -1    0    0  501    0  0.00000000000E+00  0.00000000000E+00  0.25696619776E+02  0.25696619776E+02  0.00000000000E+00 0. -1.
         -1   -1    0    0    0  501 -0.00000000000E+00 -0.00000000000E+00 -0.92362691944E+03  0.92362691944E+03  0.00000000000E+00 0.  1.
         25    2    1    2    0    0 -0.50954459898E+02  0.77585400509E+02 -0.63697196705E+03  0.65574280155E+03  0.12509789616E+03 0.  0.
          5    1    3    3  502    0 -0.64165368370E+02 -0.11739796625E+02 -0.27188621674E+03  0.27963298192E+03  0.41800000000E+01 0. -1.
         -5    1    3    3    0  502  0.13210908472E+02  0.89325197134E+02 -0.36508575031E+03  0.37610981964E+03  0.41800000000E+01 0. -1.
        -11    1    1    2    0    0  0.57784851183E+02 -0.20827149240E+02 -0.64901418444E+02  0.89359125375E+02  0.00000000000E+00 0. -1.
         11    1    1    2    0    0 -0.68303912846E+01 -0.56758251269E+02 -0.19605691416E+03  0.20422161228E+03  0.00000000000E+00 0.  1.
</event>
<event>
 7    1  0.2670433E-009  0.1336180E+03  0.7561462E-02  0.1222184E+00
          1   -1    0    0  501    0  0.00000000000E+00  0.00000000000E+00  0.10955499947E+04  0.10955499947E+04  0.00000000000E+00 0.  1.
         -1   -1    0    0    0  501 -0.00000000000E+00 -0.00000000000E+00 -0.16488927969E+02  0.16488927969E+02  0.00000000000E+00 0. -1.
         25    2    1    2    0    0  0.75156173705E+02 -0.26132077097E+02  0.57792571767E+03  0.59663876009E+03  0.12509332116E+03 0.  0.
          5    1    3    3  502    0 -0.26249676623E+02  0.22721130895E+02  0.16200298809E+03  0.16573393093E+03  0.41800000000E+01 0. -1.
         -5    1    3    3    0  502  0.10140585033E+03 -0.48853207992E+02  0.41592272958E+03  0.43090482916E+03  0.41800000000E+01 0. -1.
        -11    1    1    2    0    0 -0.86380359006E+02 -0.50116718858E+01  0.33461055874E+03  0.34561670865E+03  0.00000000000E+00 0.  1.
         11    1    1    2    0    0  0.11224185300E+02  0.31143748982E+02  0.16652479033E+03  0.16978345393E+03  0.00000000000E+00 0. -1.
</event>
<event>
 7    1  0.2670433E-009  0.1498568E+03  0.7561462E-02  0.1200649E+00
         -2   -1    0    0    0  501 -0.00000000000E+00  0.00000000000E+00  0.32628312542E+03  0.32628312542E+03  0.00000000000E+00 0. -1.
          2   -1    0    0  501    0  0.00000000000E+00 -0.00000000000E+00 -0.11590248463E+03  0.11590248463E+03  0.00000000000E+00 0.  1.
         25    2    1    2    0    0 -0.10112318010E+03  0.40980797601E+02 -0.23441527298E+02  0.16764197936E+03  0.12509598202E+03 0.  0.
          5    1    3    3  502    0 -0.96562934512E+02  0.78193765235E+02 -0.33194566072E+02  0.12867795794E+03  0.41800000000E+01 0. -1.
         -5    1    3    3    0  502 -0.45602455897E+01 -0.37212967634E+02  0.97530387742E+01  0.38964021421E+02  0.41800000000E+01 0. -1.
        -11    1    1    2    0    0  0.77623926815E+02 -0.67048044314E+02  0.20461335112E+03  0.22888324036E+03  0.00000000000E+00 0.  1.
         11    1    1    2    0    0  0.23499253287E+02  0.26067246713E+02  0.29208816971E+02  0.45660390330E+02  0.00000000000E+00 0. -1.
</event>
<event>
 7    1  0.2670433E-009  0.9233450E+02  0.7561462E-02  0.1297295E+00
         -2   -1    0    0    0  501 -0.00000000000E+00  0.00000000000E+00  0.46636291343E+02  0.46636291343E+02  0.00000000000E+00 0.  1.
          2   -1    0    0  501    0  0.00000000000E+00 -0.00000000000E+00 -0.40850919753E+03  0.40850919753E+03  0.00000000000E+00 0. -1.
         25    2    1    2    0    0  0.66405625635E+02 -0.23789413965E+02 -0.12762609187E+03  0.19212501744E+03  0.12509180496E+03 0.  0.
          5    1    3    3  502    0  0.56383447059E+02 -0.28727551826E+02 -0.15215880206E+03  0.16484580304E+03  0.41800000000E+01 0.  1.
         -5    1    3    3    0  502  0.10022178575E+02  0.49381378612E+01  0.24532710191E+02  0.27279214399E+02  0.41800000000E+01 0.  1.
        -11    1    1    2    0    0  0.21996208011E+01 -0.25025766497E+02 -0.17845119701E+02  0.30815184854E+02  0.00000000000E+00 0.  1.
         11    1    1    2    0    0 -0.68605246436E+02  0.48815180461E+02 -0.21640169462E+03  0.23220528658E+03  0.00000000000E+00 0. -1.
</event>
<event>
 7    1  0.2670433E-009  0.1794663E+03  0.7561462E-02  0.1168321E+00
          1   -1    0    0  501    0  0.00000000000E+00  0.00000000000E+00  0.13742239863E+04  0.13742239863E+04  0.00000000000E+00 0. -1.
         -1   -1    0    0    0  501 -0.00000000000E+00 -0.00000000000E+00 -0.29981521963E+02  0.29981521963E+02  0.00000000000E+00 0.  1.
         25    2    1    2    0    0 -0.47996505612E+02  0.14561473598E+03  0.96879824796E+03  0.98880087961E+03  0.12509923413E+03 0.  0.
          5    1    3    3  502    0 -0.26747073239E+02 -0.17634313396E+02  0.12694143678E+03  0.13098845639E+03  0.41800000000E+01 0.  1.
         -5    1    3    3    0  502 -0.21249432373E+02  0.16324904937E+03  0.84185681119E+03  0.85781242322E+03  0.41800000000E+01 0.  1.
        -11    1    1    2    0    0  0.56329291190E+02 -0.93415929044E+02  0.16053581297E+03  0.19409088616E+03  0.00000000000E+00 0.  1.
         11    1    1    2    0    0 -0.83327855776E+01 -0.52198806935E+02  0.21490840339E+03  0.22131374247E+03  0.00000000000E+00 0. -1.
</event>
<event>
 7    1  0.2670433E-009  0.1278695E+03  0.7561462E-02  0.1230652E+00
          1   -1    0    0  501    0  0.00000000000E+00  0.00000000000E+00  0.22639094418E+03  0.22639094418E+03  0.00000000000E+00 0. -1.
         -1   -1    0    0    0  501 -0.00000000000E+00 -0.00000000000E+00 -0.10151465878E+03  0.10151465878E+03  0.00000000000E+00 0.  1.
         25    2    1    2    0    0 -0.45403537625E+02  0.81426932832E+02  0.15275451982E+02  0.15675938985E+03  0.12509332618E+03 0.  0.
          5    1    3    3  502    0 -0.66830947874E+02  0.10006642823E+03 -0.67258979262E+01  0.12059177317E+03  0.41800000000E+01 0. -1.
         -5    1    3    3    0  502  0.21427410249E+02 -0.18639495400E+02  0.22001349908E+02  0.36167616683E+02  0.41800000000E+01 0. -1.
        -11    1    1    2    0    0 -0.60009196480E+01 -0.40444135621E+02  0.95534530952E+02  0.10391624390E+03  0.00000000000E+00 0. -1.
         11    1    1    2    0    0  0.51404457273E+02 -0.40982797211E+02  0.14066302461E+02  0.67229969208E+02  0.00000000000E+00 0.  1.
</event>
<event>
 7    1  0.2670433E-009  0.3026143E+03  0.7561462E-02  0.1083941E+00
          1   -1    0    0  501    0  0.00000000000E+00  0.00000000000E+00  0.57680168676E+03  0.57680168676E+03  0.00000000000E+00 0. -1.
         -1   -1    0    0    0  501 -0.00000000000E+00 -0.00000000000E+00 -0.28079524564E+03  0.28079524564E+03  0.00000000000E+00 0.  1.
         25    2    1    2    0    0 -0.29158678765E+03 -0.11669850942E+02  0.42161249384E+03  0.52779074226E+03  0.12508769923E+03 0.  0.
          5    1    3    3  502    0 -0.27848085460E+03 -0.35976067898E+02  0.33690705641E+03  0.43859970462E+03  0.41800000000E+01 0.  1.
         -5    1    3    3    0  502 -0.13105933052E+02  0.24306216956E+02  0.84705437430E+02  0.89191037633E+02  0.41800000000E+01 0.  1.
        -11    1    1    2    0    0  0.54446048521E+02  0.22902075592E+02 -0.58417539913E+02  0.83075184234E+02  0.00000000000E+00 0.  1.
         11    1    1    2    0    0  0.23714073913E+03 -0.11232224650E+02 -0.67188512796E+02  0.24673100591E+03  0.00000000000E+00 0. -1.
</event>
<event>
 7    1  0.2670433E-009  0.1303935E+03  0.7561462E-02  0.1226873E+00
          2   -1    0    0  501    0  0.00000000000E+00  0.00000000000E+00  0.36714951975E+02  0.36714951975E+02  0.00000000000E+00 0. -1.
         -2   -1    0    0    0  501 -0.00000000000E+00 -0.00000000000E+00 -0.68338610572E+03  0.68338610572E+03  0.00000000000E+00 0.  1.
         25    2    1    2    0    0 -0.28160759624E+02 -0.87915332006E+02 -0.50719669807E+03  0.53048809368E+03  0.12508794115E+03 0.  0.
          5    1    3    3  502    0 -0.64015444168E+02 -0.25785425567E+02 -0.36130720238E+03  0.36786306169E+03  0.41800000000E+01 0.  1.
         -5    1    3    3    0  502  0.35854684543E+02 -0.62129906439E+02 -0.14588949569E+03  0.16262503199E+03  0.41800000000E+01 0.  1.
        -11    1    1    2    0    0  0.27086108075E+02 -0.44251229781E+01 -0.73452861426E+01  0.28411127970E+02  0.00000000000E+00 0. -1.
         11    1    1    2    0    0  0.10746515495E+01  0.92340454984E+02 -0.13212916953E+03  0.16120183605E+03  0.00000000000E+00 0.  1.
</event>
<event>
 7    1  0.2670433E-009  0.1832789E+03  0.7561462E-02  0.1164667E+00
         -2   -1    0    0    0  501 -0.00000000000E+00  0.00000000000E+00  0.33158726218E+02  0.33158726218E+02  0.00000000000E+00 0.  1.
          2   -1    0    0  501    0  0.00000000000E+00 -0.00000000000E+00 -0.12510681860E+04  0.12510681860E+04  0.00000000000E+00 0. -1.
         25    2    1    2    0    0  0.16549683600E+03 -0.57677819594E+02 -0.72013740840E+03  0.75163915711E+03  0.12509037506E+03 0.  0.
          5    1    3    3  502    0  0.32338799230E+02  0.91874106303E+01 -0.28953391535E+02  0.44564310060E+02  0.41800000000E+01 0. -1.
         -5    1    3    3    0  502  0.13315803677E+03 -0.66865230225E+02 -0.69118401686E+03  0.70707484705E+03  0.41800000000E+01 0. -1.
        -11    1    1    2    0    0 -0.12961875428E+03  0.19241712500E+02 -0.40827246442E+03  0.42878627562E+03  0.00000000000E+00 0. -1.
         11    1    1    2    0    0 -0.35878081718E+02  0.38436107095E+02 -0.89499587001E+02  0.10380147952E+03  0.00000000000E+00 0.  1.
</event>
<event>
 7    1  0.2670433E-009  0.8845170E+02  0.7561462E-02  0.1306645E+00
          1   -1    0    0  501    0  0.00000000000E+00  0.00000000000E+00  0.95361627088E+02  0.95361627088E+02  0.00000000000E+00 0. -1.
         -1   -1    0    0    0  501 -0.00000000000E+00 -0.00000000000E+00 -0.12759250177E+03  0.12759250177E+03  0.00000000000E+00 0.  1.
         25    2    1    2    0    0 -0.11058570052E+02  0.19338677341E+02 -0.11450569189E+02  0.12757636441E+03  0.12509331240E+03 0.  0.
          5    1    3    3  502    0 -0.49150055933E+02  0.22372851365E+02 -0.49582460440E+02  0.73431364278E+02  0.41800000000E+01 0.  1.
         -5    1    3    3    0  502  0.38091485881E+02 -0.30341740241E+01  0.38131891251E+02  0.54145000130E+02  0.41800000000E+01 0.  1.
        -11    1    1    2    0    0  0.81355689378E+01 -0.51432827195E+02 -0.32157425862E+02  0.61201496985E+02  0.00000000000E+00 0.  1.
         11    1    1    2    0    0  0.29230011140E+01  0.32094149854E+02  0.11377120364E+02  0.34176267469E+02  0.00000000000E+00 0. -1.
</event>
<event>
 7    1  0.2670433E-009  0.3493175E+03  0.7561462E-02  0.1062896E+00
          1   -1    0    0  501    0  0.00000000000E+00  0.00000000000E+00  0.39587504500E+03  0.39587504500E+03  0.00000000000E+00 0. -1.
         -1   -1    0    0    0  501 -0.00000000000E+00 -0.00000000000E+00 -0.35398474419E+03  0.35398474419E+03  0.00000000000E+00 0.  1.
         25    2    1    2    0    0 -0.18418684751E+03  0.29525694700E+03 -0.61916412242E+02  0.37494323650E+03  0.12508928389E+03 0.  0.
          5    1    3    3  502    0 -0.14436542424E+03  0.21557461831E+03 -0.99853543564E+02  0.27803236203E+03  0.41800000000E+01 0. -1.
         -5    1    3    3    0  502 -0.39821423272E+02  0.79682328695E+02  0.37937131323E+02  0.96910874471E+02  0.41800000000E+01 0. -1.
        -11    1    1    2    0    0  0.83962411843E+02 -0.10062079001E+03 -0.35218154826E+01  0.13109780002E+03  0.00000000000E+00 0.  1.
         11    1    1    2    0    0  0.10022443567E+03 -0.19463615699E+03  0.10732852854E+03  0.24381875267E+03  0.00000000000E+00 0. -1.
</event>
<event>
 7    1  0.2670433E-009  0.9023217E+02  0.7561462E-02  0.1302290E+00
          2   -1    0    0  501    0  0.00000000000E+00  0.00000000000E+00  0.11205218349E+03  0.11205218349E+03  0.00000000000E+00 0. -1.
         -2   -1    0    0    0  501 -0.00000000000E+00 -0.00000000000E+00 -0.13535501840E+03  0.13535501840E+03  0.00000000000E+00 0.  1.
         25    2    1    2    0    0  0.54585064060E+01 -0.34480502960E+02 -0.60413392027E+02  0.14323781885E+03  0.12509434214E+03 0.  0.
          5    1    3    3  502    0  0.24427079794E+02  0.24149173841E+02  0.21432625283E+02  0.40702514062E+02  0.41800000000E+01 0.  1.
         -5    1    3    3    0  502 -0.18968573388E+02 -0.58629676801E+02 -0.81846017310E+02  0.10253530479E+03  0.41800000000E+01 0.  1.
        -11    1    1    2    0    0 -0.40774152117E+02  0.13156497631E+02  0.45036875510E+02  0.62160639206E+02  0.00000000000E+00 0. -1.
         11    1    1    2    0    0  0.35315645711E+02  0.21324005329E+02 -0.79263183955E+01  0.42008743834E+02  0.00000000000E+00 0.  1.
</event>
<event>
 7    1  0.2670433E-009  0.9765620E+02  0.7561462E-02  0.1285303E+00
         -2   -1    0    0    0  501 -0.00000000000E+00  0.00000000000E+00  0.64255648880E+02  0.64255648880E+02  0.00000000000E+00 0.  1.
          2   -1    0    0  501    0  0.00000000000E+00 -0.00000000000E+00 -0.24335605192E+03  0.24335605192E+03  0.00000000000E+00 0. -1.
         25    2    1    2    0    0  0.50596609490E+02 -0.23321015086E+01 -0.52302564521E+02  0.14473455007E+03  0.12508827339E+03 0.  0.
          5    1    3    3  502    0  0.56583584955E+02  0.49528723553E+02 -0.72716450816E+01  0.75664692990E+02  0.41800000000E+01 0.  1.
         -5    1    3    3    0  502 -0.59869754649E+01 -0.51860825062E+02 -0.45030919440E+02  0.69069857079E+02  0.41800000000E+01 0.  1.
        -11    1    1    2    0    0 -0.93079430569E+01 -0.18995849128E+02  0.61595000384E+01  0.22032238396E+02  0.00000000000E+00 0.  1.
         11    1    1    2    0    0 -0.41288666433E+02  0.21327950636E+02 -0.13295733856E+03  0.14084491233E+03  0.00000000000E+00 0. -1.
</event>
<event>
 7    1  0.2670433E-009  0.1329427E+03  0.7561462E-02  0.1223154E+00
         -2   -1    0    0    0  501 -0.00000000000E+00  0.00000000000E+00  0.50268201222E+03  0.50268201222E+03  0.00000000000E+00 0.  1.
          2   -1    0    0  501    0  0.00000000000E+00 -0.00000000000E+00 -0.40914677284E+02  0.40914677284E+02  0.00000000000E+00 0. -1.
         25    2    1    2    0    0 -0.12483404746E+02 -0.93733795377E+02  0.23348460873E+03  0.28125519899E+03  0.12509022605E+03 0.  0.
          5    1    3    3  502    0  0.43892308706E+02 -0.16881197514E+02  0.13974586356E+03  0.14750555371E+03  0.41800000000E+01 0. -1.
         -5    1    3    3    0  502 -0.56375713452E+02 -0.76852597863E+02  0.93738745168E+02  0.13374964527E+03  0.41800000000E+01 0. -1.
        -11    1    1    2    0    0  0.44320708732E+02  0.72587374450E+02  0.19038321604E+03  0.20851623702E+03  0.00000000000E+00 0.  1.
         11    1    1    2    0    0 -0.31837303986E+02  0.21146420926E+02  0.37899510169E+02  0.53825253499E+02  0.00000000000E+00 0. -1.
</event>
<event>
 7    1  0.2670433E-009  0.1152952E+03  0.7561462E-02  0.1251067E+00
          1   -1    0    0  501    0  0.00000000000E+00  0.00000000000E+00  0.27275995305E+03  0.27275995305E+03  0.00000000000E+00 0. -1.
         -1   -1    0    0    0  501 -0.00000000000E+00 -0.00000000000E+00 -0.81155903868E+02  0.81155903868E+02  0.00000000000E+00 0.  1.
         25    2    1    2    0    0  0.80714704718E+02  0.63715044846E+02  0.15358518020E+03  0.22318310635E+03  0.12509125023E+03 0.  0.
          5    1    3    3  502    0  0.43480781346E+02  0.48567250893E+02  0.99164853845E+00  0.65328492808E+02  0.41800000000E+01 0.  1.
         -5    1    3    3    0  502  0.37233923372E+02  0.15147793953E+02  0.15259353166E+03  0.15785461354E+03  0.41800000000E+01 0.  1.
        -11    1    1    2    0    0 -0.75857826663E+01  0.15370899920E+02  0.79844753908E+01  0.18909270485E+02  0.00000000000E+00 0. -1.
         11    1    1    2    0    0 -0.73128922052E+02 -0.79085944766E+02  0.30034393593E+02  0.11182348009E+03  0.00000000000E+00 0.  1.
</event>
<event>
 7    1  0.2670433E-009  0.8402962E+02  0.7561462E-02  0.1317990E+00
          1   -1    0    0  501    0  0.00000000000E+00  0.00000000000E+00  0.29526952261E+03  0.29526952261E+03  0.00000000000E+00 0. -1.
         -1   -1    0    0    0  501 -0.00000000000E+00 -0.00000000000E+00 -0.51045828570E+02  0.51045828570E+02  0.00000000000E+00 0.  1.
         25    2    1    2    0    0 -0.13148705423E+02 -0.34422794074E+02  0.75720245609E+02  0.15079713303E+03  0.12509357509E+03 0.  0.
          5    1    3    3  502    0 -0.41110970568E+02 -0.35110530993E+02  0.99848079356E+02  0.11362206053E+03  0.41800000000E+01 0. -1.
         -5    1    3    3    0  502  0.27962265144E+02  0.68773691879E+00 -0.24127833747E+02  0.37175072500E+02  0.41800000000E+01 0. -1.
        -11    1    1    2    0    0 -0.14974525902E+02  0.50832615382E+02  0.14760143510E+03  0.15682593808E+03  0.00000000000E+00 0. -1.
         11    1    1    2    0    0  0.28123231325E+02 -0.16409821308E+02  0.20902013333E+02  0.38692280068E+02  0.00000000000E+00 0.  1.
</event>
<event>
 7    1  0.2670433E-009  0.9992586E+02  0.7561462E-02  0.1280452E+00
         -1   -1    0    0    0  501 -0.00000000000E+00  0.00000000000E+00  0.24231980945E+02  0.24231980945E+02  0.00000000000E+00 0.  1.
          1   -1    0    0  501    0  0.00000000000E+00 -0.00000000000E+00 -0.63953209674E+03  0.63953209674E+03  0.00000000000E+00 0. -1.
         25    2    1    2    0    0 -0.55503463484E+02 -0.75368880836E+01 -0.42706104512E+03  0.44851668901E+03  0.12509454394E+03 0.  0.
          5    1    3    3  502    0 -0.55125003950E+02 -0.42943111761E+02 -0.11648710432E+03  0.13590288732E+03  0.41800000000E+01 0. -1.
         -5    1    3    3    0  502 -0.37845953441E+00  0.35406223677E+02 -0.31057394080E+03  0.31261380169E+03  0.41800000000E+01 0. -1.
        -11    1    1    2    0    0  0.28858463893E+02  0.41798005512E+02 -0.14640617972E+03  0.15496662112E+03  0.00000000000E+00 0. -1.
         11    1    1    2    0    0  0.26644999592E+02 -0.34261117428E+02 -0.41832890962E+02  0.60280767554E+02  0.00000000000E+00 0.  1.
</event>
<event>
 7    1  0.2670433E-009  0.1551592E+03  0.7561462E-02  0.1194273E+00
          1   -1    0    0  501    0  0.00000000000E+00  0.00000000000E+00  0.29800819928E+03  0.29800819928E+03  0.00000000000E+00 0.  1.
         -1   -1    0    0    0  501 -0.00000000000E+00 -0.00000000000E+00 -0.88833031679E+02  0.88833031679E+02  0.00000000000E+00 0. -1.
         25    2    1    2    0    0  0.56355236047E+01 -0.11836569326E+03  0.94505803341E+02  0.19652282258E+03  0.12509067296E+03 0.  0.
          5    1    3    3  502    0 -0.17087921645E+02  0.22905266509E+02  0.20147254928E+02  0.35214096341E+02  0.41800000000E+01 0. -1.
         -5    1    3    3    0  502  0.22723445249E+02 -0.14127095977E+03  0.74358548413E+02  0.16130872624E+03  0.41800000000E+01 0. -1.
        -11    1    1    2    0    0 -0.21840713608E+02  0.12002820683E+03  0.12192947234E+03  0.17248357438E+03  0.00000000000E+00 0.  1.
         11    1    1    2    0    0  0.16205190004E+02 -0.16625135664E+01 -0.72601080797E+01  0.17834833998E+02  0.00000000000E+00 0. -1.
</event>
<event>
 7    1  0.2670433E-009  0.2224348E+03  0.7561462E-02  0.1132081E+00
          2   -1    0    0  501    0  0.00000000000E+00  0.00000000000E+00  0.14961673824E+03  0.14961673824E+03  0.00000000000E+00 0. -1.
         -2   -1    0    0    0  501 -0.00000000000E+00 -0.00000000000E+00 -0.37915683048E+03  0.37915683048E+03  0.00000000000E+00 0.  1.
         25    2    1    2    0    0 -0.19078012565E+03  0.91615132432E+02 -0.11203708305E+03  0.27016614013E+03  0.12508815477E+03 0.  0.
          5    1    3    3  502    0 -0.14331804298E+03  0.89205991668E+02 -0.13596152470E+03  0.21679663049E+03  0.41800000000E+01 0. -1.
         -5    1    3    3    0  502 -0.47462082672E+02  0.24091407640E+01  0.23924441659E+02  0.53369509642E+02  0.41800000000E+01 0. -1.
        -11    1    1    2    0    0  0.10111014079E+03 -0.14288158893E+01 -0.69360998752E+02  0.12262238879E+03  0.00000000000E+00 0.  1.
         11    1    1    2    0    0  0.89669984865E+02 -0.90186316543E+02 -0.48142010445E+02  0.13598503979E+03  0.00000000000E+00 0. -1.
</event>
<event>
 7    1  0.2670433E-009  0.1062353E+03  0.7561462E-02  0.1267705E+00
         -1   -1    0    0    0  501 -0.00000000000E+00  0.00000000000E+00  0.60092107624E+02  0.60092107624E+02  0.00000000000E+00 0.  1.
          1   -1    0    0  501    0  0.00000000000E+00 -0.00000000000E+00 -0.30577580684E+03  0.30577580684E+03  0.00000000000E+00 0. -1.
         25    2    1    2    0    0 -0.60112589708E+02  0.48361322786E+02 -0.17056316791E+03  0.22514724163E+03  0.12508854937E+03 0.  0.
          5    1    3    3  502    0 -0.90446522776E+02  0.44806309079E+02 -0.78133227258E+02  0.12771238161E+03  0.41800000000E+01 0. -1.
         -5    1    3    3    0  502  0.30333933069E+02  0.35550137068E+01 -0.92429940648E+02  0.97434860015E+02  0.41800000000E+01 0. -1.
        -11    1    1    2    0    0  0.49154626613E+02 -0.25741577904E+02  0.59860126511E+01  0.55808946396E+02  0.00000000000E+00 0.  1.
         11    1    1    2    0    0  0.10957963095E+02 -0.22619744882E+02 -0.81106543960E+02  0.84911726439E+02  0.00000000000E+00 0. -1.
</event>
<event>
 7    1  0.2670433E-009  0.1373724E+03  0.7561462E-02  0.1216909E+00
          1   -1    0    0  501    0  0.00000000000E+00  0.00000000000E+00  0.63624803558E+03  0.63624803558E+03  0.00000000000E+00 0. -1.
         -1   -1    0    0    0  501 -0.00000000000E+00 -0.00000000000E+00 -0.53171890012E+02  0.53171890012E+02  0.00000000000E+00 0.  1.
         25    2    1    2    0    0 -0.79608421840E+02  0.88076945493E+02  0.45449134597E+03  0.48611205600E+03  0.12508996073E+03 0.  0.
          5    1    3    3  502    0 -0.75895439844E+02  0.44590083265E+02  0.12066410410E+03  0.14941784275E+03  0.41800000000E+01 0. -1.
         -5    1    3    3    0  502 -0.37129819954E+01  0.43486862228E+02  0.33382724187E+03  0.33669421325E+03  0.41800000000E+01 0. -1.
        -11    1    1    2    0    0  0.67739591148E+02 -0.10326507167E+03  0.70716194303E+02  0.14231341248E+03  0.00000000000E+00 0.  1.
         11    1    1    2    0    0  0.11868830692E+02  0.15188126177E+02  0.57868605293E+02  0.60994457104E+02  0.00000000000E+00 0. -1.
</event>
<event>
 7    1  0.2670433E-009  0.1029483E+03  0.7561462E-02  0.1274215E+00
          1   -1    0    0  501    0  0.00000000000E+00  0.00000000000E+00  0.25511664106E+03  0.25511664106E+03  0.00000000000E+00 0. -1.
         -1   -1    0    0    0  501 -0.00000000000E+00 -0.00000000000E+00 -0.77018328689E+02  0.77018328689E+02  0.00000000000E+00 0.  1.
         25    2    1    2    0    0  0.31433092307E+02  0.20999544046E+02  0.18976241785E+03  0.23040362255E+03  0.12508810461E+03 0.  0.
          5    1    3    3  502    0  0.26656310345E+02 -0.43580057487E+02  0.13858508352E+03  0.14776020461E+03  0.41800000000E+01 0.  1.
         -5    1    3    3    0  502  0.47767819618E+01  0.64579601533E+02  0.51177334327E+02  0.82643417940E+02  0.41800000000E+01 0.  1.
        -11    1    1    2    0    0  0.16701195786E+02  0.20326845130E+02 -0.25676328389E+02  0.36761180791E+02  0.00000000000E+00 0.  1.
         11    1    1    2    0    0 -0.48134288093E+02 -0.41326389176E+02  0.14012222917E+02  0.64970166412E+02  0.00000000000E+00 0. -1.
</event>
<event>
 7    1  0.2670433E-009  0.8669399E+02  0.7561462E-02  0.1311061E+00
          3   -1    0    0  501    0  0.00000000000E+00  0.00000000000E+00  0.55536894869E+02  0.55536894869E+02  0.00000000000E+00 0. -1.
         -3   -1    0    0    0  501 -0.00000000000E+00 -0.00000000000E+00 -0.22900288002E+03  0.22900288002E+03  0.00000000000E+00 0.  1.
         25    2    1    2    0    0 -0.57215017195E+01  0.20764767002E+02 -0.84225671350E+02  0.15233540621E+03  0.12509277013E+03 0.  0.
          5    1    3    3  502    0  0.52087721350E+02 -0.19865785142E+02 -0.32472970314E+02  0.64650957733E+02  0.41800000000E+01 0.  1.
         -5    1    3    3    0  502 -0.57809223070E+02  0.40630552144E+02 -0.51752701036E+02  0.87684448473E+02  0.41800000000E+01 0.  1.
        -11    1    1    2    0    0 -0.18053623421E+02 -0.91933484423E+01 -0.10118268300E+03  0.10319101857E+03  0.00000000000E+00 0.  1.
         11    1    1    2    0    0  0.23775125140E+02 -0.11571418559E+02  0.11942369197E+02  0.29013350116E+02  0.00000000000E+00 0. -1.
</event>
<event>
 7    1  0.2670433E-009  0.1139507E+03  0.7561462E-02  0.1253424E+00
          2   -1    0    0  501    0  0.00000000000E+00  0.00000000000E+00  0.85669299936E+03  0.85669299936E+03  0.00000000000E+00 0. -1.
         -2   -1    0    0    0  501 -0.00000000000E+00 -0.00000000000E+00 -0.17563017073E+02  0.17563017073E+02  0.00000000000E+00 0.  1.
         25    2    1    2    0    0  0.54700269810E+02 -0.53463480617E+00  0.52169035948E+03  0.53925684617E+03  0.12507881363E+03 0.  0.
          5    1    3    3  502    0 -0.32412700334E+02  0.25085887816E+02  0.10557303532E+03  0.11332706251E+03  0.41800000000E+01 0. -1.
         -5    1    3    3    0  502  0.87112970143E+02 -0.25620522622E+02  0.41611732416E+03  0.42592978366E+03  0.41800000000E+01 0. -1.
        -11    1    1    2    0    0 -0.48530125442E+02  0.35607824951E+02  0.26404106524E+03  0.27081501880E+03  0.00000000000E+00 0. -1.
         11    1    1    2    0    0 -0.61701443673E+01 -0.35073190145E+02  0.53398557567E+02  0.64184151461E+02  0.00000000000E+00 0.  1.
</event>
<event>
 7    1  0.2670433E-009  0.1069103E+03  0.7561462E-02  0.1266401E+00
          2   -1    0    0  501    0  0.00000000000E+00  0.00000000000E+00  0.25803910667E+03  0.25803910667E+03  0.00000000000E+00 0. -1.
         -2   -1    0    0    0  501 -0.00000000000E+00 -0.00000000000E+00 -0.49934913200E+02  0.49934913200E+02  0.00000000000E+00 0.  1.
         25    2    1    2    0    0  0.33367456809E+02  0.88602723368E+01  0.13909137572E+03  0.19022268311E+03  0.12508543788E+03 0.  0.
          5    1    3    3  502    0  0.59379318986E+02 -0.36201589253E+02  0.11070967470E+03  0.13080735094E+03  0.41800000000E+01 0.  1.
         -5    1    3    3    0  502 -0.26011862177E+02  0.45061861589E+02  0.28381701020E+02  0.59415332168E+02  0.41800000000E+01 0.  1.
        -11    1    1    2    0    0  0.20556338494E+02 -0.27997180706E+02  0.41927691697E+02  0.54445720776E+02  0.00000000000E+00 0.  1.
         11    1    1    2    0    0 -0.53923795304E+02  0.19136908369E+02  0.27085126046E+02  0.63305615981E+02  0.00000000000E+00 0. -1.
</event>
<event>
 7    1  0.2670433E-009  0.7272179E+02  0.7561462E-02  0.1351075E+00
         -2   -1    0    0    0  501 -0.00000000000E+00  0.00000000000E+00  0.84043136926E+02  0.84043136926E+02  0.00000000000E+00 0.  1.
          2   -1    0    0  501    0  0.00000000000E+00 -0.00000000000E+00 -0.16525638152E+03  0.16525638152E+03  0.00000000000E+00 0. -1.
         25    2    1    2    0    0 -0.23221030102E+02  0.15966134405E+02 -0.10025739697E+02  0.12861416346E+03  0.12508778477E+03 0.  0.
          5    1    3    3  502    0 -0.14643205422E+01 -0.28379173238E+02  0.45733884741E+02  0.54005391599E+02  0.41800000000E+01 0. -1.
         -5    1    3    3    0  502 -0.21756709560E+02  0.44345307643E+02 -0.55759624438E+02  0.74608771859E+02  0.41800000000E+01 0. -1.
        -11    1    1    2    0    0 -0.20982302958E+02 -0.62133104945E+01 -0.72163433778E+02  0.75408377780E+02  0.00000000000E+00 0. -1.
         11    1    1    2    0    0  0.44203333060E+02 -0.97528239102E+01  0.97592888263E+00  0.45276977207E+02  0.00000000000E+00 0.  1.
</event>
<event>
 7    1  0.2670433E-009  0.1399830E+03  0.7561462E-02  0.1213352E+00
         -2   -1    0    0    0  501 -0.00000000000E+00  0.00000000000E+00  0.38078017693E+03  0.38078017693E+03  0.00000000000E+00 0. -1.
          2   -1    0    0  501    0  0.00000000000E+00 -0.00000000000E+00 -0.84517800270E+02  0.84517800270E+02  0.00000000000E+00 0.  1.
         25    2    1    2    0    0  0.10555809455E+03  0.60347529430E+02  0.60576447686E+02  0.18467026933E+03  0.12509702924E+03 0.  0.
          5    1    3    3  502    0  0.41349460425E+02 -0.29942260517E+01  0.81904957449E+02  0.91894709977E+02  0.41800000000E+01 0. -1.
         -5    1    3    3    0  502  0.64208634125E+02  0.63341755482E+02 -0.21328509763E+02  0.92775559349E+02  0.41800000000E+01 0. -1.
        -11    1    1    2    0    0  0.62734201504E+01  0.12885188621E+02  0.48757536270E+02  0.50820086868E+02  0.00000000000E+00 0. -1.
         11    1    1    2    0    0 -0.11183151470E+03 -0.73232718051E+02  0.18692839270E+03  0.22980762100E+03  0.00000000000E+00 0.  1.
</event>
<event>
 7    1  0.2670433E-009  0.5937031E+02  0.7561462E-02  0.1400493E+00
          1   -1    0    0  501    0  0.00000000000E+00  0.00000000000E+00  0.37844562812E+03  0.37844562812E+03  0.00000000000E+00 0. -1.
         -1   -1    0    0    0  501 -0.00000000000E+00 -0.00000000000E+00 -0.39142878824E+02  0.39142878824E+02  0.00000000000E+00 0.  1.
         25    2    1    2    0    0 -0.12870515625E+02 -0.16217703791E+02  0.12872589488E+03  0.18068447561E+03  0.12509140508E+03 0.  0.
          5    1    3    3  502    0  0.41430150720E+01  0.49952752933E+01 -0.24149458771E+02  0.25353226779E+02  0.41800000000E+01 0.  1.
         -5    1    3    3    0  502 -0.17013530697E+02 -0.21212979084E+02  0.15287535365E+03  0.15533124883E+03  0.41800000000E+01 0.  1.
        -11    1    1    2    0    0  0.47322736244E+02  0.11825356906E+02  0.40742945796E+02  0.63555236320E+02  0.00000000000E+00 0.  1.
         11    1    1    2    0    0 -0.34452220619E+02  0.43923468849E+01  0.16983390862E+03  0.17334879502E+03  0.00000000000E+00 0. -1.
</event>
<event>
 7    1  0.2670433E-009  0.1133575E+03  0.7561462E-02  0.1254476E+00
          1   -1    0    0  501    0  0.00000000000E+00  0.00000000000E+00  0.51194241052E+03  0.51194241052E+03  0.00000000000E+00 0. -1.
         -1   -1    0    0    0  501 -0.00000000000E+00 -0.00000000000E+00 -0.37738302822E+02  0.37738302822E+02  0.00000000000E+00 0.  1.
         25    2    1    2    0    0 -0.21642053058E+02  0.83875121705E+02  0.24525061367E+03  0.28861575417E+03  0.12509106902E+03 0.  0.
          5    1    3    3  502    0 -0.97164298981E+01  0.93523594772E+02  0.25371047354E+03  0.27060589161E+03  0.41800000000E+01 0. -1.
         -5    1    3    3    0  502 -0.11925623160E+02 -0.96484730675E+01 -0.84598598737E+01  0.18009862558E+02  0.41800000000E+01 0. -1.
        -11    1    1    2    0    0  0.37352450777E+02 -0.67131509866E+01  0.12512198801E+03  0.13075084649E+03  0.00000000000E+00 0. -1.
         11    1    1    2    0    0 -0.15710397718E+02 -0.77161970718E+02  0.10383150602E+03  0.13031411268E+03  0.00000000000E+00 0.  1.
</event>
<event>
 7    1  0.2670433E-009  0.9398479E+02  0.7561462E-02  0.1293479E+00
         -1   -1    0    0    0  501 -0.00000000000E+00  0.00000000000E+00  0.32951785799E+03  0.32951785799E+03  0.00000000000E+00 0.  1.
          1   -1    0    0  501    0  0.00000000000E+00 -0.00000000000E+00 -0.42721160468E+02  0.42721160468E+02  0.00000000000E+00 0. -1.
         25    2    1    2    0    0 -0.23665927929E+02 -0.39151162147E+02  0.17805901661E+03  0.22236049047E+03  0.12508510976E+03 0.  0.
          5    1    3    3  502    0  0.39349845824E+02 -0.53234472871E+02  0.70194278417E+02  0.96576542652E+02  0.41800000000E+01 0. -1.
         -5    1    3    3    0  502 -0.63015773753E+02  0.14083310724E+02  0.10786473820E+03  0.12578394782E+03  0.41800000000E+01 0. -1.
        -11    1    1    2    0    0  0.15304919135E+02 -0.15489845435E+01 -0.13689761286E+02  0.20592461410E+02  0.00000000000E+00 0. -1.
         11    1    1    2    0    0  0.83610087945E+01  0.40700146690E+02  0.12242744219E+03  0.12928606658E+03  0.00000000000E+00 0.  1.
</event>
<event>
 7    1  0.2670433E-009  0.1441012E+03  0.7561462E-02  0.1207915E+00
         -1   -1    0    0    0  501 -0.00000000000E+00  0.00000000000E+00  0.12441049501E+03  0.12441049501E+03  0.00000000000E+00 0.  1.
          1   -1    0    0  501    0  0.00000000000E+00 -0.00000000000E+00 -0.23245200100E+03  0.23245200100E+03  0.00000000000E+00 0. -1.
         25    2    1    2    0    0 -0.89484844795E+02  0.53103830313E+02  0.25815361358E+02  0.16474683407E+03  0.12509009638E+03 0.  0.
          5    1    3    3  502    0 -0.15949282598E+02 -0.33133864339E+02  0.35035152999E+02  0.50962406998E+02  0.41800000000E+01 0.  1.
         -5    1    3    3    0  502 -0.73535562198E+02  0.86237694652E+02 -0.92197916406E+01  0.11378442707E+03  0.41800000000E+01 0.  1.
        -11    1    1    2    0    0  0.60492945167E+02 -0.78593819616E+02 -0.94717869595E+02  0.13714175045E+03  0.00000000000E+00 0. -1.
         11    1    1    2    0    0  0.28991899628E+02  0.25489989303E+02 -0.39138997749E+02  0.54973911481E+02  0.00000000000E+00 0.  1.
</event>
<event>
 7    1  0.2670433E-009  0.1230003E+03  0.7561462E-02  0.1238228E+00
         -1   -1    0    0    0  501 -0.00000000000E+00  0.00000000000E+00  0.47378328893E+02  0.47378328893E+02  0.00000000000E+00 0.  1.
          1   -1    0    0  501    0  0.00000000000E+00 -0.00000000000E+00 -0.46658323279E+03  0.46658323279E+03  0.00000000000E+00 0. -1.
         25    2    1    2    0    0 -0.92443411102E+02 -0.28974756986E+02 -0.28309359800E+03  0.32430703986E+03  0.12509096719E+03 0.  0.
          5    1    3    3  502    0 -0.46779744597E+02  0.41562177406E+02 -0.63956492315E+02  0.89574909459E+02  0.41800000000E+01 0.  1.
         -5    1    3    3    0  502 -0.45663666505E+02 -0.70536934393E+02 -0.21913710569E+03  0.23473213040E+03  0.41800000000E+01 0.  1.
        -11    1    1    2    0    0  0.72555939191E+02  0.31514763186E+02 -0.34873552707E+02  0.86450617632E+02  0.00000000000E+00 0.  1.
         11    1    1    2    0    0  0.19887471912E+02 -0.25400062001E+01 -0.10123775318E+03  0.10320390419E+03  0.00000000000E+00 0. -1.
</event>
<event>
 7    1  0.2670433E-009  0.1740923E+03  0.7561462E-02  0.1173646E+00
          3   -1    0    0  501    0  0.00000000000E+00  0.00000000000E+00  0.10621013076E+04  0.10621013076E+04  0.00000000000E+00 0. -1.
         -3   -1    0    0    0  501 -0.00000000000E+00 -0.00000000000E+00 -0.36682740007E+02  0.36682740007E+02  0.00000000000E+00 0.  1.
         25    2    1    2    0    0 -0.46384838750E+02 -0.15615865297E+03  0.57688893160E+03  0.61236071966E+03  0.12509090061E+03 0.  0.
          5    1    3    3  502    0  0.73823352735E+01 -0.10973070420E+03  0.19514684537E+03  0.22404260750E+03  0.41800000000E+01 0.  1.
         -5    1    3    3    0  502 -0.53767174023E+02 -0.46427948769E+02  0.38174208624E+03  0.38831811216E+03  0.41800000000E+01 0.  1.
        -11    1    1    2    0    0  0.19880705571E+02  0.12260467864E+03  0.41157404112E+03  0.42990736328E+03  0.00000000000E+00 0. -1.
         11    1    1    2    0    0  0.26504133179E+02  0.33553974324E+02  0.36955594840E+02  0.56515964634E+02  0.00000000000E+00 0.  1.
</event>
<event>
 7    1  0.2670433E-009  0.1472855E+03  0.7561462E-02  0.1203849E+00
          1   -1    0    0  501    0  0.00000000000E+00  0.00000000000E+00  0.10683668383E+03  0.10683668383E+03  0.00000000000E+00 0. -1.
         -1   -1    0    0    0  501 -0.00000000000E+00 -0.00000000000E+00 -0.28576788879E+03  0.28576788879E+03  0.00000000000E+00 0.  1.
         25    2    1    2    0    0  0.10787678854E+03 -0.81432711698E+02 -0.91738891325E+02  0.20574945147E+03  0.12509246404E+03 0.  0.
          5    1    3    3  502    0  0.90085885177E+02 -0.59785311931E+02 -0.12282790822E+03  0.16368847751E+03  0.41800000000E+01 0.  1.
         -5    1    3    3    0  502  0.17790903359E+02 -0.21647399767E+02  0.31089016897E+02  0.42060973962E+02  0.41800000000E+01 0.  1.
        -11    1    1    2    0    0 -0.36081218529E+02 -0.13926858749E+02 -0.47083050133E+02  0.60931316537E+02  0.00000000000E+00 0.  1.
         11    1    1    2    0    0 -0.71795570007E+02  0.95359570447E+02 -0.40109263510E+02  0.12592380461E+03  0.00000000000E+00 0. -1.
</event>
<event>
 7    1  0.2670433E-009  0.6619192E+02  0.7561462E-02  0.1373543E+00
         -1   -1    0    0    0  501 -0.00000000000E+00  0.00000000000E+00  0.10092702665E+03  0.10092702665E+03  0.00000000000E+00 0.  1.
          1   -1    0    0  501    0  0.00000000000E+00 -0.00000000000E+00 -0.11757376516E+03  0.11757376516E+03  0.00000000000E+00 0. -1.
         25    2    1    2    0    0  0.10521014498E+02 -0.23537569497E+02 -0.14336345972E+02  0.12851982534E+03  0.12508839181E+03 0.  0.
          5    1    3    3  502    0 -0.29562896051E+02 -0.27316233394E+01  0.44853324826E+02  0.53951086522E+02  0.41800000000E+01 0.  1.
         -5    1    3    3    0  502  0.40083910548E+02 -0.20805946157E+02 -0.59189670798E+02  0.74568738822E+02  0.41800000000E+01 0.  1.
        -11    1    1    2    0    0 -0.63891030636E+01 -0.16034197368E+02 -0.34648502274E+02  0.38709621969E+02  0.00000000000E+00 0. -1.
         11    1    1    2    0    0 -0.41319114342E+01  0.39571766865E+02  0.32338109735E+02  0.51271344493E+02  0.00000000000E+00 0.  1.
</event>
<event>
 7    1  0.2670433E-009  0.1446836E+03  0.7561462E-02  0.1207162E+00
          1   -1    0    0  501    0  0.00000000000E+00  0.00000000000E+00  0.12443927175E+04  0.12443927175E+04  0.00000000000E+00 0. -1.
         -1   -1    0    0    0  501 -0.00000000000E+00 -0.00000000000E+00 -0.22445014523E+02  0.22445014523E+02  0.00000000000E+00 0.  1.
         25    2    1    2    0    0  0.94025183345E+02 -0.77399414065E+02  0.79098840345E+03  0.81002571335E+03  0.12509035731E+03 0.  0.
          5    1    3    3  502    0  0.79345051754E+01 -0.51733621300E+02  0.97574381501E+02  0.11080413472E+03  0.41800000000E+01 0. -1.
         -5    1    3    3    0  502  0.86090678170E+02 -0.25665792765E+02  0.69341402195E+03  0.69922157863E+03  0.41800000000E+01 0. -1.
        -11    1    1    2    0    0  0.79704354178E+00 -0.14712157716E+02  0.18293863851E+02  0.23489323482E+02  0.00000000000E+00 0.  1.
         11    1    1    2    0    0 -0.94822226887E+02  0.92111571780E+02  0.41266543568E+03  0.43332269519E+03  0.00000000000E+00 0. -1.
</event>
<event>
 7    1  0.2670433E-009  0.1188719E+03  0.7561462E-02  0.1244970E+00
          2   -1    0    0  501    0  0.00000000000E+00  0.00000000000E+00  0.24989543469E+03  0.24989543469E+03  0.00000000000E+00 0. -1.
         -2   -1    0    0    0  501 -0.00000000000E+00 -0.00000000000E+00 -0.76867616678E+02  0.76867616678E+02  0.00000000000E+00 0.  1.
         25    2    1    2    0    0  0.77609072219E+02  0.37783484705E+02  0.96123319538E+02  0.17982290993E+03  0.12508327854E+03 0.  0.
          5    1    3    3  502    0 -0.67004720615E+01  0.55455387651E+02  0.81104781443E+01  0.56599015902E+02  0.41800000000E+01 0.  1.
         -5    1    3    3    0  502  0.84309544280E+02 -0.17671902945E+02  0.88012841394E+02  0.12322389403E+03  0.41800000000E+01 0.  1.
        -11    1    1    2    0    0 -0.82579926493E+01 -0.23189408178E+02 -0.16543123617E+02  0.29658355201E+02  0.00000000000E+00 0.  1.
         11    1    1    2    0    0 -0.69351079569E+02 -0.14594076527E+02  0.93447622089E+02  0.11728178623E+03  0.00000000000E+00 0. -1.
</event>
<event>
 7    1  0.2670433E-009  0.1809623E+03  0.7561462E-02  0.1166875E+00
          2   -1    0    0  501    0  0.00000000000E+00  0.00000000000E+00  0.63436177123E+03  0.63436177123E+03  0.00000000000E+00 0. -1.
         -2   -1    0    0    0  501 -0.00000000000E+00 -0.00000000000E+00 -0.14075024275E+03  0.14075024275E+03  0.00000000000E+00 0.  1.
         25    2    1    2    0    0  0.51038412771E+01  0.16430183576E+03  0.54359396493E+03  0.58151883557E+03  0.12509442426E+03 0.  0.
          5    1    3    3  502    0  0.36471164343E+02  0.87415057219E+02  0.13761529633E+03  0.16711367461E+03  0.41800000000E+01 0. -1.
         -5    1    3    3    0  502 -0.31367323065E+02  0.76886778539E+02  0.40597866860E+03  0.41440516096E+03  0.41800000000E+01 0. -1.
        -11    1    1    2    0    0 -0.32032010010E+02 -0.15019078524E+03 -0.28057937758E+02  0.15611076039E+03  0.00000000000E+00 0. -1.
         11    1    1    2    0    0  0.26928168733E+02 -0.14111050513E+02 -0.21924498700E+02  0.37482418027E+02  0.00000000000E+00 0.  1.
</event>
<event>
 7    1  0.2670433E-009  0.8966318E+02  0.7561462E-02  0.1303669E+00
         -1   -1    0    0    0  501 -0.00000000000E+00  0.00000000000E+00  0.66845239798E+03  0.66845239798E+03  0.00000000000E+00 0.  1.
          1   -1    0    0  501    0  0.00000000000E+00 -0.00000000000E+00 -0.20588451522E+02  0.20588451522E+02  0.00000000000E+00 0. -1.
         25    2    1    2    0    0 -0.55502286036E+01 -0.31472251924E+02  0.46093339598E+03  0.47867198796E+03  0.12508384729E+03 0.  0.
          5    1    3    3  502    0 -0.44899256612E+02  0.11404830988E+02  0.74281289441E+02  0.87642431363E+02  0.41800000000E+01 0. -1.
         -5    1    3    3    0  502  0.39349028008E+02 -0.42877082912E+02  0.38665210654E+03  0.39102955660E+03  0.41800000000E+01 0. -1.
        -11    1    1    2    0    0 -0.34584921437E+01 -0.20971684167E+02  0.64570231033E+01  0.22214091295E+02  0.00000000000E+00 0. -1.
         11    1    1    2    0    0  0.90087207472E+01  0.52443936091E+02  0.18047352738E+03  0.18815477025E+03  0.00000000000E+00 0.  1.
</event>
<event>
 7    1  0.2670433E-009  0.8415564E+02  0.7561462E-02  0.1317655E+00
         -3   -1    0    0    0  501 -0.00000000000E+00  0.00000000000E+00  0.33797904168E+02  0.33797904168E+02  0.00000000000E+00 0.  1.
          3   -1    0    0  501    0  0.00000000000E+00 -0.00000000000E+00 -0.36101074911E+03  0.36101074911E+03  0.00000000000E+00 0. -1.
         25    2    1    2    0    0 -0.85221858360E+01 -0.35161374491E+01 -0.16915669754E+03  0.21057738029E+03  0.12507539284E+03 0.  0.
          5    1    3    3  502    0  0.50548934963E+02  0.25597501885E+02 -0.99838238554E+02  0.11487198617E+03  0.41800000000E+01 0. -1.
         -5    1    3    3    0  502 -0.59071120799E+02 -0.29113639335E+02 -0.69318458981E+02  0.95705394118E+02  0.41800000000E+01 0. -1.
        -11    1    1    2    0    0  0.24429275927E+02  0.12285011501E+02 -0.16310297896E+03  0.16537923925E+03  0.00000000000E+00 0. -1.
         11    1    1    2    0    0 -0.15907090091E+02 -0.87688740519E+01  0.50468315560E+01  0.18852033738E+02  0.00000000000E+00 0.  1.
</event>
<event>
 7    1  0.2670433E-009  0.1098922E+03  0.7561462E-02  0.1260770E+00
         -1   -1    0    0    0  501 -0.00000000000E+00  0.00000000000E+00  0.64242195938E+02  0.64242195938E+02  0.00000000000E+00 0.  1.
          1   -1    0    0  501    0  0.00000000000E+00 -0.00000000000E+00 -0.34757702011E+03  0.34757702011E+03  0.00000000000E+00 0. -1.
         25    2    1    2    0    0  0.33592631288E+02  0.94660933218E+02 -0.13333968700E+03  0.20860549744E+03  0.12509046438E+03 0.  0.
          5    1    3    3  502    0  0.27272179428E+02  0.52527401269E+02 -0.15104394187E+03  0.16227952560E+03  0.41800000000E+01 0.  1.
         -5    1    3    3    0  502  0.63204518605E+01  0.42133531949E+02  0.17704254869E+02  0.46325971838E+02  0.41800000000E+01 0.  1.
        -11    1    1    2    0    0 -0.36545402885E+02 -0.17667237446E+02 -0.10818718283E+03  0.11555156546E+03  0.00000000000E+00 0. -1.
         11    1    1    2    0    0  0.29527715971E+01 -0.76993695772E+02 -0.41807954345E+02  0.87662153152E+02  0.00000000000E+00 0.  1.
</event>
<event>
 7    1  0.2670433E-009  0.1293575E+03  0.7561462E-02  0.1228412E+00
         -2   -1    0    0    0  501 -0.00000000000E+00  0.00000000000E+00  0.24016182529E+02  0.24016182529E+02  0.00000000000E+00 0.  1.
          2   -1    0    0  501    0  0.00000000000E+00 -0.00000000000E+00 -0.87571819148E+03  0.87571819148E+03  0.00000000000E+00 0. -1.
         25    2    1    2    0    0 -0.20816462471E+02 -0.89261394111E+02 -0.38428447708E+03  0.41439316591E+03  0.12508483140E+03 0.  0.
          5    1    3    3  502    0 -0.47772173300E+02  0.12594567659E+02 -0.11828475196E+03  0.12825583270E+03  0.41800000000E+01 0.  1.
         -5    1    3    3    0  502  0.26955710829E+02 -0.10185596177E+03 -0.26599972512E+03  0.28613733321E+03  0.41800000000E+01 0.  1.
        -11    1    1    2    0    0  0.34641258700E+02  0.79632614035E+02 -0.45775492537E+03  0.46591945840E+03  0.00000000000E+00 0. -1.
         11    1    1    2    0    0 -0.13824796229E+02  0.96287800763E+01 -0.96626065099E+01  0.19421749692E+02  0.00000000000E+00 0.  1.
</event>
<event>
 7    1  0.2670433E-009  0.1452006E+03  0.7561462E-02  0.1206498E+00
         -2   -1    0    0    0  501 -0.00000000000E+00  0.00000000000E+00  0.62283617257E+03  0.62283617257E+03  0.00000000000E+00 0.  1.
          2   -1    0    0  501    0  0.00000000000E+00 -0.00000000000E+00 -0.48142497585E+02  0.48142497585E+02  0.00000000000E+00 0. -1.
         25    2    1    2    0    0 -0.10951683598E+03  0.51422006447E+02  0.41402427046E+03  0.44911217265E+03  0.12508991560E+03 0.  0.
          5    1    3    3  502    0 -0.13148339578E+03  0.25540731209E+02  0.27459192322E+03  0.30554608329E+03  0.41800000000E+01 0.  1.
         -5    1    3    3    0  502  0.21966559802E+02  0.25881275238E+02  0.13943234724E+03  0.14356608936E+03  0.41800000000E+01 0.  1.
        -11    1    1    2    0    0  0.70913697531E+02 -0.42136491710E+02  0.34174553463E+02  0.89286821735E+02  0.00000000000E+00 0. -1.
         11    1    1    2    0    0  0.38603138446E+02 -0.92855147369E+01  0.12649485106E+03  0.13257967577E+03  0.00000000000E+00 0.  1.
</event>
<event>
 7    1  0.2670433E-009  0.9881444E+02  0.7561462E-02  0.1282809E+00
         -2   -1    0    0    0  501 -0.00000000000E+00  0.00000000000E+00  0.22929961580E+03  0.22929961580E+03  0.00000000000E+00 0.  1.
          2   -1    0    0  501    0  0.00000000000E+00 -0.00000000000E+00 -0.69135136124E+02  0.69135136124E+02  0.00000000000E+00 0. -1.
         25    2    1    2    0    0 -0.36952528269E+02  0.35982580357E+02  0.13068612774E+03  0.18810449447E+03  0.12507678211E+03 0.  0.
          5    1    3    3  502    0 -0.60263777781E+02  0.52399984682E+02  0.33440207457E+02  0.86678723929E+02  0.41800000000E+01 0.  1.
         -5    1    3    3    0  502  0.23311249512E+02 -0.16417404325E+02  0.97245920283E+02  0.10142577054E+03  0.41800000000E+01 0.  1.
        -11    1    1    2    0    0  0.41698705662E+02 -0.55125910040E+02 -0.63711208362E+01  0.69413537529E+02  0.00000000000E+00 0. -1.
         11    1    1    2    0    0 -0.47461773927E+01  0.19143329683E+02  0.35849472771E+02  0.40916719922E+02  0.00000000000E+00 0.  1.
</event>
<event>
 7    1  0.2670433E-009  0.9956780E+02  0.7561462E-02  0.1281207E+00
         -2   -1    0    0    0  501 -0.00000000000E+00  0.00000000000E+00  0.12941985898E+03  0.12941985898E+03  0.00000000000E+00 0. -1.
          2   -1    0    0  501    0  0.00000000000E+00 -0.00000000000E+00 -0.10959316541E+03  0.10959316541E+03  0.00000000000E+00 0.  1.
         25    2    1    2    0    0 -0.43541106000E+02  0.25336143578E+02  0.70392066572E+01  0.13503660994E+03  0.12509031741E+03 0.  0.
          5    1    3    3  502    0 -0.43964932106E+02  0.59792973773E+02 -0.33613002630E+02  0.81580765586E+02  0.41800000000E+01 0. -1.
         -5    1    3    3    0  502  0.42382610627E+00 -0.34456830195E+02  0.40652209287E+02  0.53455844354E+02  0.41800000000E+01 0. -1.
        -11    1    1    2    0    0  0.64993670213E+02 -0.18553268470E+02  0.31634126814E+02  0.74626529585E+02  0.00000000000E+00 0. -1.
         11    1    1    2    0    0 -0.21452564212E+02 -0.67828751083E+01 -0.18846639897E+02  0.29349884862E+02  0.00000000000E+00 0.  1.
</event>
<event>
 7    1  0.2670433E-009  0.9560504E+02  0.7561462E-02  0.1289819E+00
         -1   -1    0    0    0  501 -0.00000000000E+00  0.00000000000E+00  0.24024438771E+02  0.24024438771E+02  0.00000000000E+00 0.  1.
          1   -1    0    0  501    0  0.00000000000E+00 -0.00000000000E+00 -0.54191017457E+03  0.54191017457E+03  0.00000000000E+00 0. -1.
         25    2    1    2    0    0  0.34176055718E+02  0.36777355964E+01 -0.25881897810E+03  0.28950664458E+03  0.12508119485E+03 0.  0.
          5    1    3    3  502    0 -0.33293670374E+02  0.18372531891E+02 -0.18264509969E+03  0.18660847584E+03  0.41800000000E+01 0. -1.
         -5    1    3    3    0  502  0.67469726092E+02 -0.14694796294E+02 -0.76173878409E+02  0.10289816873E+03  0.41800000000E+01 0. -1.
        -11    1    1    2    0    0 -0.26712121474E+02 -0.39223625697E+02 -0.21049377369E+03  0.21577687320E+03  0.00000000000E+00 0. -1.
         11    1    1    2    0    0 -0.74639342437E+01  0.35545890100E+02 -0.48572984014E+02  0.60651095567E+02  0.00000000000E+00 0.  1.
</event>
<event>
 7    1  0.2670433E-009  0.1362715E+03  0.7561462E-02  0.1218436E+00
         -1   -1    0    0    0  501 -0.00000000000E+00  0.00000000000E+00  0.31436464209E+02  0.31436464209E+02  0.00000000000E+00 0.  1.
          1   -1    0    0  501    0  0.00000000000E+00 -0.00000000000E+00 -0.68152803687E+03  0.68152803687E+03  0.00000000000E+00 0. -1.
         25    2    1    2    0    0  0.87110623083E+02 -0.29948470714E+01 -0.24594320723E+03  0.28936614213E+03  0.12508986075E+03 0.  0.
          5    1    3    3  502    0  0.90023778690E+02 -0.49534873730E+02 -0.14162066922E+03  0.17501962974E+03  0.41800000000E+01 0. -1.
         -5    1    3    3    0  502 -0.29131556072E+01  0.46540026659E+02 -0.10432253801E+03  0.11434651238E+03  0.41800000000E+01 0. -1.
        -11    1    1    2    0    0  0.16711210531E+02 -0.79217401641E+01 -0.30764483199E+02  0.35895291490E+02  0.00000000000E+00 0. -1.
         11    1    1    2    0    0 -0.10382183361E+03  0.10916587235E+02 -0.37338388223E+03  0.38770306746E+03  0.00000000000E+00 0.  1.
</event>
<event>
 7    1  0.2670433E-009  0.9682080E+02  0.7561462E-02  0.1287127E+00
         -1   -1    0    0    0  501 -0.00000000000E+00  0.00000000000E+00  0.50488312471E+02  0.50488312471E+02  0.00000000000E+00 0.  1.
          1   -1    0    0  501    0  0.00000000000E+00 -0.00000000000E+00 -0.26047366120E+03  0.26047366120E+03  0.00000000000E+00 0. -1.
         25    2    1    2    0    0 -0.14958402386E+02  0.17455495252E+02 -0.16230084126E+03  0.20619777247E+03  0.12509000832E+03 0.  0.
          5    1    3    3  502    0 -0.67079332031E+02 -0.10152004250E+02 -0.90524020692E+02  0.11320234405E+03  0.41800000000E+01 0. -1.
         -5    1    3    3    0  502  0.52120929645E+02  0.27607499502E+02 -0.71776820565E+02  0.92995428416E+02  0.41800000000E+01 0. -1.
        -11    1    1    2    0    0  0.23227280088E+02 -0.37920275692E+02  0.77120255904E+01  0.45132351895E+02  0.00000000000E+00 0.  1.
         11    1    1    2    0    0 -0.82688777027E+01  0.20464780441E+02 -0.55396533061E+02  0.59631849310E+02  0.00000000000E+00 0. -1.
</event>
<event>
 7    1  0.2670433E-009  0.1058297E+03  0.7561462E-02  0.1268494E+00
          1   -1    0    0  501    0  0.00000000000E+00  0.00000000000E+00  0.40019060961E+03  0.40019060961E+03  0.00000000000E+00 0. -1.
         -1   -1    0    0    0  501 -0.00000000000E+00 -0.00000000000E+00 -0.52457551322E+02  0.52457551322E+02  0.00000000000E+00 0.  1.
         25    2    1    2    0    0  0.11314122629E+02  0.44945911178E+02  0.58429292743E+02  0.14563351325E+03  0.12508794358E+03 0.  0.
          5    1    3    3  502    0  0.44331400739E+02  0.65440833090E+02  0.48348116210E+01  0.79300841927E+02  0.41800000000E+01 0.  1.
         -5    1    3    3    0  502 -0.33017278110E+02 -0.20494921912E+02  0.53594481122E+02  0.66332671322E+02  0.41800000000E+01 0.  1.
        -11    1    1    2    0    0  0.34068071450E+02 -0.30687441758E+02  0.78495777568E+02  0.90906213593E+02  0.00000000000E+00 0.  1.
         11    1    1    2    0    0 -0.45382194078E+02 -0.14258469420E+02  0.21080798797E+03  0.21610843409E+03  0.00000000000E+00 0. -1.
</event>
<event>
 7    1  0.2670433E-009  0.1047398E+03  0.7561462E-02  0.1270633E+00
         -1   -1    0    0    0  501 -0.00000000000E+00  0.00000000000E+00  0.90953942470E+02  0.90953942470E+02  0.00000000000E+00 0.  1.
          1   -1    0    0  501    0  0.00000000000E+00 -0.00000000000E+00 -0.16529015238E+03  0.16529015238E+03  0.00000000000E+00 0. -1.
         25    2    1    2    0    0 -0.44933546242E+02  0.29250364275E+02 -0.64154218898E+02  0.15045898005E+03  0.12509010147E+03 0.  0.
          5    1    3    3  502    0 -0.75116774691E+02  0.49103511069E+02 -0.17876524477E+02  0.91600912477E+02  0.41800000000E+01 0.  1.
         -5    1    3    3    0  502  0.30183228449E+02 -0.19853146794E+02 -0.46277694421E+02  0.58858067571E+02  0.41800000000E+01 0.  1.
        -11    1    1    2    0    0 -0.69608605120E+01 -0.30578053401E+02  0.27443047880E+02  0.41672434604E+02  0.00000000000E+00 0.  1.
         11    1    1    2    0    0  0.51894406754E+02  0.13276891257E+01 -0.37625038898E+02  0.64112680203E+02  0.00000000000E+00 0. -1.
</event>
<event>
 7    1  0.2670433E-009  0.1407488E+03  0.7561462E-02  0.1212325E+00
         -2   -1    0    0    0  501 -0.00000000000E+00  0.00000000000E+00  0.35409518967E+03  0.35409518967E+03  0.00000000000E+00 0. -1.
          2   -1    0    0  501    0  0.00000000000E+00 -0.00000000000E+00 -0.94529589758E+02  0.94529589758E+02  0.00000000000E+00 0.  1.
         25    2    1    2    0    0 -0.81284878933E+02 -0.80331443187E+02  0.20422665768E+02  0.17066136654E+03  0.12509134441E+03 0.  0.
          5    1    3    3  502    0 -0.10857395022E+03 -0.41822959414E+02  0.34149967480E+02  0.12133076806E+03  0.41800000000E+01 0. -1.
         -5    1    3    3    0  502  0.27289071285E+02 -0.38508483774E+02 -0.13727301711E+02  0.49330598480E+02  0.41800000000E+01 0. -1.
        -11    1    1    2    0    0  0.69678135282E+02  0.51604887674E+02  0.87487035808E+02  0.12317503157E+03  0.00000000000E+00 0.  1.
         11    1    1    2    0    0  0.11606743651E+02  0.28726555514E+02  0.15165589833E+03  0.15478838131E+03  0.00000000000E+00 0. -1.
</event>
<event>
 7    1  0.2670433E-009  0.1479081E+03  0.7561462E-02  0.1203067E+00
          1   -1    0    0  501    0  0.00000000000E+00  0.00000000000E+00  0.15238790531E+03  0.15238790531E+03  0.00000000000E+00 0. -1.
         -1   -1    0    0    0  501 -0.00000000000E+00 -0.00000000000E+00 -0.29348409485E+03  0.29348409485E+03  0.00000000000E+00 0.  1.
         25    2    1    2    0    0  0.10278262598E+03 -0.64406402891E+02  0.68235542784E+02  0.18712523768E+03  0.12508921752E+03 0.  0.
          5    1    3    3  502    0 -0.24087754942E+02 -0.97677252734E+01 -0.10183213309E+02  0.28227621729E+02  0.41800000000E+01 0.  1.
         -5    1    3    3    0  502  0.12687038092E+03 -0.54638677618E+02  0.78418756093E+02  0.15889761595E+03  0.41800000000E+01 0.  1.
        -11    1    1    2    0    0 -0.12682907697E+02  0.33853542109E+02 -0.94316581401E+01  0.37361405705E+02  0.00000000000E+00 0. -1.
         11    1    1    2    0    0 -0.90099718284E+02  0.30552860782E+02 -0.19990007418E+03  0.22138535678E+03  0.00000000000E+00 0.  1.
</event>
<event>
 7    1  0.2670433E-009  0.1115385E+03  0.7561462E-02  0.1257747E+00
          2   -1    0    0  501    0  0.00000000000E+00  0.00000000000E+00  0.40534369492E+03  0.40534369492E+03  0.00000000000E+00 0. -1.
         -2   -1    0    0    0  501 -0.00000000000E+00 -0.00000000000E+00 -0.60157375455E+02  0.60157375455E+02  0.00000000000E+00 0.  1.
         25    2    1    2    0    0  0.87861818525E+02 -0.37385492775E+02  0.27210900997E+03  0.31433769803E+03  0.12508997111E+03 0.  0.
          5    1    3    3  502    0  0.89623176994E+02 -0.11225136620E+02  0.27319024046E+03  0.28776500383E+03  0.41800000000E+01 0. -1.
         -5    1    3    3    0  502 -0.17613584689E+01 -0.26160356155E+02 -0.10812304878E+01  0.26572694203E+02  0.41800000000E+01 0. -1.
        -11    1    1    2    0    0 -0.35774614116E+02 -0.84101123871E+01  0.73087774358E+02  0.81806942041E+02  0.00000000000E+00 0. -1.
         11    1    1    2    0    0 -0.52087204408E+02  0.45795605162E+02 -0.10464859705E-01  0.69356430306E+02  0.00000000000E+00 0.  1.
</event>
<event>
 7    1  0.2670433E-009  0.1821973E+03  0.7561462E-02  0.1165693E+00
          1   -1    0    0  501    0  0.00000000000E+00  0.00000000000E+00  0.26537979266E+03  0.26537979266E+03  0.00000000000E+00 0. -1.
         -1   -1    0    0    0  501 -0.00000000000E+00 -0.00000000000E+00 -0.17773038644E+03  0.17773038644E+03  0.00000000000E+00 0.  1.
         25    2    1    2    0    0  0.11576570123E+03 -0.10995696244E+03 -0.55908267185E+02  0.21039283361E+03  0.12508868425E+03 0.  0.
          5    1    3    3  502    0  0.10356426924E+02  0.16342145440E+02 -0.40543049029E+02  0.45116876231E+02  0.41800000000E+01 0. -1.
         -5    1    3    3    0  502  0.10540927430E+03 -0.12629910788E+03 -0.15365218155E+02  0.16527595738E+03  0.41800000000E+01 0. -1.
        -11    1    1    2    0    0 -0.77779707545E+01  0.60965033529E+02  0.70100232800E+02  0.93227006714E+02  0.00000000000E+00 0.  1.
         11    1    1    2    0    0 -0.10798773047E+03  0.48991928909E+02  0.73457440608E+02  0.13949033877E+03  0.00000000000E+00 0. -1.
</event>
<event>
 7    1  0.2670433E-009  0.1915690E+03  0.7561462E-02  0.1157054E+00
          1   -1    0    0  501    0  0.00000000000E+00  0.00000000000E+00  0.69991640800E+03  0.69991640800E+03  0.00000000000E+00 0. -1.
         -1   -1    0    0    0  501 -0.00000000000E+00 -0.00000000000E+00 -0.67666673703E+02  0.67666673703E+02  0.00000000000E+00 0.  1.
         25    2    1    2    0    0 -0.39968954341E+02 -0.15949104625E+03  0.16626042720E+03  0.26518895362E+03  0.12509092822E+03 0.  0.
          5    1    3    3  502    0  0.29963938387E+02 -0.12294490751E+03  0.89715754835E+02  0.15517627703E+03  0.41800000000E+01 0. -1.
         -5    1    3    3    0  502 -0.69932892728E+02 -0.36546138733E+02  0.76544672369E+02  0.11001267659E+03  0.41800000000E+01 0. -1.
        -11    1    1    2    0    0  0.42318672178E+02  0.40766276544E+02  0.24019704182E+03  0.24727995919E+03  0.00000000000E+00 0.  1.
         11    1    1    2    0    0 -0.23497178374E+01  0.11872476970E+03  0.22579226527E+03  0.25511416890E+03  0.00000000000E+00 0. -1.
</event>
<event>
 7    1  0.2670433E-009  0.1035183E+03  0.7561462E-02  0.1273067E+00
          1   -1    0    0  501    0  0.00000000000E+00  0.00000000000E+00  0.19775659999E+03  0.19775659999E+03  0.00000000000E+00 0. -1.
         -1   -1    0    0    0  501 -0.00000000000E+00 -0.00000000000E+00 -0.68882735630E+02  0.68882735630E+02  0.00000000000E+00 0.  1.
         25    2    1    2    0    0  0.15434102939E+02  0.36789876690E+02  0.52873765027E+02  0.14154367047E+03  0.12508904453E+03 0.  0.
          5    1    3    3  502    0 -0.58640836185E+00  0.81133334177E+02  0.46969276987E+02  0.93843205242E+02  0.41800000000E+01 0. -1.
         -5    1    3    3    0  502  0.16020511301E+02 -0.44343457487E+02  0.59044880404E+01  0.47700465231E+02  0.41800000000E+01 0. -1.
        -11    1    1    2    0    0 -0.39063470239E+02 -0.38398348295E+02  0.83840170698E+02  0.10014770133E+03  0.00000000000E+00 0.  1.
         11    1    1    2    0    0  0.23629367300E+02  0.16084716042E+01 -0.78400713613E+01  0.24947963822E+02  0.00000000000E+00 0. -1.
</event>
<event>
 7    1  0.2670433E-009  0.9785471E+02  0.7561462E-02  0.1284873E+00
          2   -1    0    0  501    0  0.00000000000E+00  0.00000000000E+00  0.37898324074E+03  0.37898324074E+03  0.00000000000E+00 0. -1.
         -2   -1    0    0    0  501 -0.00000000000E+00 -0.00000000000E+00 -0.50523244432E+02  0.50523244432E+02  0.00000000000E+00 0.  1.
         25    2    1    2    0    0 -0.42065452569E+02 -0.67452698028E+00  0.29559962367E+03  0.32372210953E+03  0.12508760689E+03 0.  0.
          5    1    3    3  502    0 -0.71937525052E+02  0.61014745006E+01  0.88319239252E+02  0.11414900755E+03  0.41800000000E+01 0.  1.
         -5    1    3    3    0  502  0.29872072483E+02 -0.67760014809E+01  0.20728038442E+03  0.20957310198E+03  0.41800000000E+01 0.  1.
        -11    1    1    2    0    0 -0.79921903842E+01  0.32295218520E+02 -0.75305469638E+01  0.34111074213E+02  0.00000000000E+00 0.  1.
         11    1    1    2    0    0  0.50057642953E+02 -0.31620691540E+02  0.40390919599E+02  0.71673301427E+02  0.00000000000E+00 0. -1.
</event>
<event>
 7    1  0.2670433E-009  0.1189136E+03  0.7561462E-02  0.1244900E+00
         -1   -1    0    0    0  501 -0.00000000000E+00  0.00000000000E+00  0.14669524428E+03  0.14669524428E+03  0.00000000000E+00 0.  1.
          1   -1    0    0  501    0  0.00000000000E+00 -0.00000000000E+00 -0.10498621284E+03  0.10498621284E+03  0.00000000000E+00 0. -1.
         25    2    1    2    0    0 -0.52627046413E+01 -0.50710448748E+02  0.55462198649E+02  0.14602540288E+03  0.12509243437E+03 0.  0.
          5    1    3    3  502    0  0.45282847743E+02  0.17164877422E+02  0.31681198231E+02  0.58020169235E+02  0.41800000000E+01 0.  1.
         -5    1    3    3    0  502 -0.50545552385E+02 -0.67875326170E+02  0.23781000418E+02  0.88005233648E+02  0.41800000000E+01 0.  1.
        -11    1    1    2    0    0 -0.26391217202E+02  0.64704522356E+02 -0.56293439581E+01  0.70106070152E+02  0.00000000000E+00 0.  1.
         11    1    1    2    0    0  0.31653921843E+02 -0.13994073608E+02 -0.81238232592E+01  0.35549984087E+02  0.00000000000E+00 0. -1.
</event>
<event>
 7    1  0.2670433E-009  0.1585039E+03  0.7561462E-02  0.1190396E+00
         -3   -1    0    0    0  501 -0.00000000000E+00  0.00000000000E+00  0.39870796232E+02  0.39870796232E+02  0.00000000000E+00 0.  1.
          3   -1    0    0  501    0  0.00000000000E+00 -0.00000000000E+00 -0.10140445147E+04  0.10140445147E+04  0.00000000000E+00 0. -1.
         25    2    1    2    0    0  0.22059398211E+02  0.14357382222E+03 -0.73789959550E+03  0.76239316742E+03  0.12508984456E+03 0.  0.
          5    1    3    3  502    0  0.50887821765E+02  0.84025229106E+02 -0.61448302250E+03  0.62229949934E+03  0.41800000000E+01 0. -1.
         -5    1    3    3    0  502 -0.28828423554E+02  0.59548593111E+02 -0.12341657300E+03  0.14009366808E+03  0.41800000000E+01 0. -1.
        -11    1    1    2    0    0 -0.26890013505E+02 -0.37151614450E+02 -0.19205338810E+02  0.49720823820E+02  0.00000000000E+00 0.  1.
         11    1    1    2    0    0  0.48306152938E+01 -0.10642220777E+03 -0.21706878416E+03  0.24180131969E+03  0.00000000000E+00 0. -1.
</event>
<event>
 7    1  0.2670433E-009  0.1570486E+03  0.7561462E-02  0.1192070E+00
          1   -1    0    0  501    0  0.00000000000E+00  0.00000000000E+00  0.11135238135E+03  0.11135238135E+03  0.00000000000E+00 0.  1.
         -1   -1    0    0    0  501 -0.00000000000E+00 -0.00000000000E+00 -0.29290787783E+03  0.29290787783E+03  0.00000000000E+00 0. -1.
         25    2    1    2    0    0 -0.12657121011E+03  0.24545210702E+00 -0.17146911059E+03  0.24712222129E+03  0.12508958748E+03 0.  0.
          5    1    3    3  502    0  0.81546982926E+01  0.28903212660E+02 -0.69088614396E+02  0.75449346223E+02  0.41800000000E+01 0.  1.
         -5    1    3    3    0  502 -0.13472590840E+03 -0.28657760553E+02 -0.10238049619E+03  0.17167287507E+03  0.41800000000E+01 0.  1.
        -11    1    1    2    0    0  0.11274893935E+02 -0.25554361687E+02  0.21148042977E+02  0.35034102760E+02  0.00000000000E+00 0.  1.
         11    1    1    2    0    0  0.11529631617E+03  0.25308909580E+02 -0.31234428863E+02  0.12210393513E+03  0.00000000000E+00 0. -1.
</event>
<event>
 7    1  0.2670433E-009  0.1441100E+03  0.7561462E-02  0.1207903E+00
          2   -1    0    0  501    0  0.00000000000E+00  0.00000000000E+00  0.41710669127E+03  0.41710669127E+03  0.00000000000E+00 0. -1.
         -2   -1    0    0    0  501 -0.00000000000E+00 -0.00000000000E+00 -0.69117090928E+02  0.69117090928E+02  0.00000000000E+00 0.  1.
         25    2    1    2    0    0  0.65422310740E+02  0.93088865485E+02  0.90905331796E+02  0.19198367024E+03  0.12509330386E+03 0.  0.
          5    1    3    3  502    0 -0.36207137720E+02  0.26720028573E+02  0.10715213002E+02  0.46445720347E+02  0.41800000000E+01 0.  1.
         -5    1    3    3    0  502  0.10162944846E+03  0.66368836912E+02  0.80190118794E+02  0.14553794989E+03  0.41800000000E+01 0.  1.
        -11    1    1    2    0    0  0.36970349692E+01 -0.22420631887E+02  0.13621044076E+03  0.13809285635E+03  0.00000000000E+00 0. -1.
         11    1    1    2    0    0 -0.69119345709E+02 -0.70668233599E+02  0.12087382778E+03  0.15614725561E+03  0.00000000000E+00 0.  1.
</event>
<event>
 7    1  0.2670433E-009  0.7063671E+02  0.7561462E-02  0.1357941E+00
          1   -1    0    0  501    0  0.00000000000E+00  0.00000000000E+00  0.26642845699E+03  0.26642845699E+03  0.00000000000E+00 0. -1.
         -1   -1    0    0    0  501 -0.00000000000E+00 -0.00000000000E+00 -0.42973071028E+02  0.42973071028E+02  0.00000000000E+00 0.  1.
         25    2    1    2    0    0  0.11363005164E+01 -0.53441984609E+01  0.13206733051E+03  0.18198580388E+03  0.12508877404E+03 0.  0.
          5    1    3    3  502    0  0.41113289705E+02  0.10498654208E+02  0.13206913362E+03  0.13878131281E+03  0.41800000000E+01 0.  1.
         -5    1    3    3    0  502 -0.39976989188E+02 -0.15842852669E+02 -0.18031135817E-02  0.43204491069E+02  0.41800000000E+01 0.  1.
        -11    1    1    2    0    0  0.10553152550E+02 -0.22708139195E+02  0.93651266940E+02  0.96941159545E+02  0.00000000000E+00 0. -1.
         11    1    1    2    0    0 -0.11689453067E+02  0.28052337655E+02 -0.22632114841E+01  0.30474564593E+02  0.00000000000E+00 0.  1.
</event>
<event>
 7    1  0.2670433E-009  0.1558497E+03  0.7561462E-02  0.1193464E+00
          2   -1    0    0  501    0  0.00000000000E+00  0.00000000000E+00  0.19551546090E+03  0.19551546090E+03  0.00000000000E+00 0.  1.
         -2   -1    0    0    0  501 -0.00000000000E+00 -0.00000000000E+00 -0.13871647191E+03  0.13871647191E+03  0.00000000000E+00 0. -1.
         25    2    1    2    0    0 -0.10846565794E+03 -0.59305756331E+02  0.30928236383E+02  0.17856506662E+03  0.12508779128E+03 0.  0.
          5    1    3    3  502    0 -0.35052974459E+02  0.34578850958E+02  0.32777613649E+02  0.59297995822E+02  0.41800000000E+01 0. -1.
         -5    1    3    3    0  502 -0.73412683481E+02 -0.93884607289E+02 -0.18493772662E+01  0.11926707080E+03  0.41800000000E+01 0. -1.
        -11    1    1    2    0    0  0.52414977331E+02 -0.10552243757E+02  0.37562535412E+02  0.65342358111E+02  0.00000000000E+00 0. -1.
         11    1    1    2    0    0  0.56050680608E+02  0.69858000088E+02 -0.11691782811E+02  0.90324508070E+02  0.00000000000E+00 0.  1.
</event>
<event>
 7    1  0.2670433E-009  0.8446109E+02  0.7561462E-02  0.1316848E+00
         -1   -1    0    0    0  501 -0.00000000000E+00  0.00000000000E+00  0.80096039012E+02  0.80096039012E+02  0.00000000000E+00 0. -1.
          1   -1    0    0  501    0  0.00000000000E+00 -0.00000000000E+00 -0.41285216149E+03  0.41285216149E+03  0.00000000000E+00 0.  1.
         25    2    1    2    0    0 -0.10163185573E+02 -0.40664651637E+02 -0.36248684161E+03  0.38574715179E+03  0.12508897049E+03 0.  0.
          5    1    3    3  502    0 -0.31340842196E+02 -0.21362604198E+02 -0.22030614047E+02  0.44061656834E+02  0.41800000000E+01 0. -1.
         -5    1    3    3    0  502  0.21177656623E+02 -0.19302047440E+02 -0.34045622757E+03  0.34168549496E+03  0.41800000000E+01 0. -1.
        -11    1    1    2    0    0 -0.78850571687E+01  0.68324905275E+02  0.27584189868E+02  0.74103672905E+02  0.00000000000E+00 0. -1.
         11    1    1    2    0    0  0.18048242742E+02 -0.27660253638E+02  0.21465292665E+01  0.33097375806E+02  0.00000000000E+00 0.  1.
</event>
<event>
 7    1  0.4042275E-009  0.1635485E+03  0.7561462E-02  0.1184748E+00
         -2   -1    0    0    0  501 -0.00000000000E+00  0.00000000000E+00  0.22053837717E+02  0.22053837717E+02  0.00000000000E+00 0. -1.
          2   -1    0    0  501    0  0.00000000000E+00 -0.00000000000E+00 -0.17500037734E+04  0.17500037734E+04  0.00000000000E+00 0.  1.
         25    2    1    2    0    0 -0.13238729629E+03 -0.72115085899E+02 -0.11919932035E+04  0.12079819453E+04  0.12508237773E+03 0.  0.
          5    1    3    3  502    0 -0.74189390582E+02 -0.45318846412E+02 -0.26839330329E+03  0.28215297476E+03  0.41800000000E+01 0.  1.
         -5    1    3    3    0  502 -0.58197905711E+02 -0.26796239487E+02 -0.92359990017E+03  0.92582897054E+03  0.41800000000E+01 0.  1.
        -11    1    1    2    0    0  0.28371144803E+02  0.65788609204E+02 -0.22259410712E+03  0.23384011521E+03  0.00000000000E+00 0. -1.
         11    1    1    2    0    0  0.10401615149E+03  0.63264766949E+01 -0.31336262513E+03  0.33023555064E+03  0.00000000000E+00 0.  1.
</event>
<event>
 7    1  0.2670433E-009  0.2681497E+03  0.7561462E-02  0.1102343E+00
         -2   -1    0    0    0  501 -0.00000000000E+00  0.00000000000E+00  0.31456786110E+03  0.31456786110E+03  0.00000000000E+00 0. -1.
          2   -1    0    0  501    0  0.00000000000E+00 -0.00000000000E+00 -0.30817207972E+03  0.30817207972E+03  0.00000000000E+00 0.  1.
         25    2    1    2    0    0  0.23102595812E+03  0.12652081681E+03 -0.12047169005E+03  0.31549970734E+03  0.12508447871E+03 0.  0.
          5    1    3    3  502    0  0.22111413784E+03  0.11724704934E+03 -0.14343798987E+03  0.28849655434E+03  0.41800000000E+01 0. -1.
         -5    1    3    3    0  502  0.99118202849E+01  0.92737674729E+01  0.22966299815E+02  0.27003152995E+02  0.41800000000E+01 0. -1.
        -11    1    1    2    0    0 -0.89591987081E+02 -0.87117735971E+02  0.95066511893E+02  0.15701549526E+03  0.00000000000E+00 0. -1.
         11    1    1    2    0    0 -0.14143397104E+03 -0.39403080841E+02  0.31800959544E+02  0.15022473822E+03  0.00000000000E+00 0.  1.
</event>
<event>
 7    1  0.2670433E-009  0.1129089E+03  0.7561462E-02  0.1255276E+00
          2   -1    0    0  501    0  0.00000000000E+00  0.00000000000E+00  0.10334251357E+04  0.10334251357E+04  0.00000000000E+00 0. -1.
         -2   -1    0    0    0  501 -0.00000000000E+00 -0.00000000000E+00 -0.16320137784E+02  0.16320137784E+02  0.00000000000E+00 0.  1.
         25    2    1    2    0    0 -0.39804635361E+02 -0.71482858959E+00  0.80129887114E+03  0.81198028065E+03  0.12508866972E+03 0.  0.
          5    1    3    3  502    0  0.43708852245E+02  0.40147270031E+01  0.19489731310E+03  0.19982246333E+03  0.41800000000E+01 0.  1.
         -5    1    3    3    0  502 -0.83513487605E+02 -0.47295555926E+01  0.60640155805E+03  0.61215781732E+03  0.41800000000E+01 0.  1.
        -11    1    1    2    0    0  0.22922431768E+02 -0.44310436091E+02  0.13244172202E+03  0.14152618965E+03  0.00000000000E+00 0.  1.
         11    1    1    2    0    0  0.16882203592E+02  0.45025264681E+02  0.83364404700E+02  0.96238803134E+02  0.00000000000E+00 0. -1.
</event>
<event>
 7    1  0.2670433E-009  0.7731154E+02  0.7561462E-02  0.1336859E+00
          2   -1    0    0  501    0  0.00000000000E+00  0.00000000000E+00  0.21145056873E+03  0.21145056873E+03  0.00000000000E+00 0. -1.
         -2   -1    0    0    0  501 -0.00000000000E+00 -0.00000000000E+00 -0.68789197364E+02  0.68789197364E+02  0.00000000000E+00 0.  1.
         25    2    1    2    0    0 -0.36960840427E+02  0.37106667368E+02  0.85495016318E+02  0.16031286782E+03  0.12509120387E+03 0.  0.
          5    1    3    3  502    0 -0.44689417862E+02  0.38058876763E+02  0.11517864417E+03  0.12934146529E+03  0.41800000000E+01 0. -1.
         -5    1    3    3    0  502  0.77285774344E+01 -0.95220939549E+00 -0.29683627857E+02  0.30971402530E+02  0.41800000000E+01 0. -1.
        -11    1    1    2    0    0  0.33396999481E+02  0.13632967679E+02  0.58859884329E+02  0.69034073944E+02  0.00000000000E+00 0.  1.
         11    1    1    2    0    0  0.35638409463E+01 -0.50739635047E+02 -0.16935292801E+01  0.50892824331E+02  0.00000000000E+00 0. -1.
</event>
<event>
 7    1  0.2670433E-009  0.9274693E+02  0.7561462E-02  0.1296333E+00
         -2   -1    0    0    0  501 -0.00000000000E+00  0.00000000000E+00  0.98822291541E+02  0.98822291541E+02  0.00000000000E+00 0.  1.
          2   -1    0    0  501    0  0.00000000000E+00 -0.00000000000E+00 -0.21807760303E+03  0.21807760303E+03  0.00000000000E+00 0. -1.
         25    2    1    2    0    0  0.15732935235E+02  0.76324377929E+02 -0.14747323015E+03  0.20849117251E+03  0.12508908620E+03 0.  0.
          5    1    3    3  502    0 -0.95940389357E+01 -0.43132998175E+01 -0.11850676770E+03  0.11904611093E+03  0.41800000000E+01 0. -1.
         -5    1    3    3    0  502  0.25326974171E+02  0.80637677747E+02 -0.28966462452E+02  0.89445061575E+02  0.41800000000E+01 0. -1.
        -11    1    1    2    0    0 -0.30677026096E+02 -0.60197867254E+02 -0.58993295997E+01  0.67820831916E+02  0.00000000000E+00 0. -1.
         11    1    1    2    0    0  0.14944090860E+02 -0.16126510675E+02  0.34117248257E+02  0.40587890150E+02  0.00000000000E+00 0.  1.
</event>
<event>
 7    1  0.2670433E-009  0.1590276E+03  0.7561462E-02  0.1189799E+00
          1   -1    0    0  501    0  0.00000000000E+00  0.00000000000E+00  0.78336608485E+03  0.78336608485E+03  0.00000000000E+00 0. -1.
         -1   -1    0    0    0  501 -0.00000000000E+00 -0.00000000000E+00 -0.59885877875E+02  0.59885877875E+02  0.00000000000E+00 0.  1.
         25    2    1    2    0    0  0.10625977700E+03  0.10394076208E+03  0.59782242498E+03  0.62859528622E+03  0.12508221226E+03 0.  0.
          5    1    3    3  502    0  0.63291432749E+02  0.56425827481E+02  0.12300169629E+03  0.14945423766E+03  0.41800000000E+01 0. -1.
         -5    1    3    3    0  502  0.42968344248E+02  0.47514934604E+02  0.47482072869E+03  0.47914104855E+03  0.41800000000E+01 0. -1.
        -11    1    1    2    0    0 -0.61710467346E+02 -0.67887893724E+01  0.22273320250E+02  0.65957336485E+02  0.00000000000E+00 0.  1.
         11    1    1    2    0    0 -0.44549309651E+02 -0.97151972712E+02  0.10338446175E+03  0.14869934003E+03  0.00000000000E+00 0. -1.
</event>
<event>
 7    1  0.2670433E-009  0.8945340E+02  0.7561462E-02  0.1304181E+00
         -1   -1    0    0    0  501 -0.00000000000E+00  0.00000000000E+00  0.19338570784E+02  0.19338570784E+02  0.00000000000E+00 0.  1.
          1   -1    0    0  501    0  0.00000000000E+00 -0.00000000000E+00 -0.66276931062E+03  0.66276931062E+03  0.00000000000E+00 0. -1.
         25    2    1    2    0    0 -0.12963313487E+02 -0.28574179431E+02 -0.34754600940E+03  0.37070222068E+03  0.12508947413E+03 0.  0.
          5    1    3    3  502    0  0.23063502239E+02 -0.46018757989E+02 -0.55173434096E+02  0.75572689858E+02  0.41800000000E+01 0. -1.
         -5    1    3    3    0  502 -0.36026815725E+02  0.17444578558E+02 -0.29237257530E+03  0.29512953082E+03  0.41800000000E+01 0. -1.
        -11    1    1    2    0    0 -0.28162049651E+02  0.35498434401E+02 -0.83867872602E+02  0.95326071672E+02  0.00000000000E+00 0.  1.
         11    1    1    2    0    0  0.41125363138E+02 -0.69242549700E+01 -0.21201685783E+03  0.21607958905E+03  0.00000000000E+00 0. -1.
</event>
<event>
 7    1  0.2670433E-009  0.1194134E+03  0.7561462E-02  0.1244068E+00
          1   -1    0    0  501    0  0.00000000000E+00  0.00000000000E+00  0.10594909301E+03  0.10594909301E+03  0.00000000000E+00 0. -1.
         -1   -1    0    0    0  501 -0.00000000000E+00 -0.00000000000E+00 -0.29479573042E+03  0.29479573042E+03  0.00000000000E+00 0.  1.
         25    2    1    2    0    0 -0.89268807279E+02  0.39283038280E+02 -0.21661799740E+02  0.16008083809E+03  0.12507823194E+03 0.  0.
          5    1    3    3  502    0 -0.45796811208E+02  0.30785763197E+02 -0.73347864763E+02  0.91883038683E+02  0.41800000000E+01 0.  1.
         -5    1    3    3    0  502 -0.43471996071E+02  0.84972750838E+01  0.51686065023E+02  0.68197799406E+02  0.41800000000E+01 0.  1.
        -11    1    1    2    0    0  0.80822187894E+02  0.16572758829E+02 -0.16459339070E+03  0.18411373293E+03  0.00000000000E+00 0.  1.
         11    1    1    2    0    0  0.84466193853E+01 -0.55855797110E+02 -0.25914469733E+01  0.56550252406E+02  0.00000000000E+00 0. -1.
</event>
<event>
 7    1  0.2670433E-009  0.1065370E+03  0.7561462E-02  0.1267121E+00
         -2   -1    0    0    0  501 -0.00000000000E+00  0.00000000000E+00  0.69018156844E+02  0.69018156844E+02  0.00000000000E+00 0.  1.
          2   -1    0    0  501    0  0.00000000000E+00 -0.00000000000E+00 -0.21882663185E+03  0.21882663185E+03  0.00000000000E+00 0. -1.
         25    2    1    2    0    0 -0.38494420451E+02 -0.38312124250E+02 -0.64360739708E+02  0.15079238442E+03  0.12508556717E+03 0.  0.
          5    1    3    3  502    0 -0.12871271077E+02  0.43186955881E+02 -0.43450692927E+02  0.62739285087E+02  0.41800000000E+01 0. -1.
         -5    1    3    3    0  502 -0.25623149374E+02 -0.81499080131E+02 -0.20910046781E+02  0.88053099334E+02  0.41800000000E+01 0. -1.
        -11    1    1    2    0    0  0.54229671994E+02  0.19205415059E+02 -0.94552275901E+02  0.11067898703E+03  0.00000000000E+00 0. -1.
         11    1    1    2    0    0 -0.15735251543E+02  0.19106709191E+02  0.91045406048E+01  0.26373417239E+02  0.00000000000E+00 0.  1.
</event>
<event>
 7    1  0.2670433E-009  0.1085657E+03  0.7561462E-02  0.1263249E+00
         -1   -1    0    0    0  501 -0.00000000000E+00  0.00000000000E+00  0.35885062470E+02  0.35885062470E+02  0.00000000000E+00 0.  1.
          1   -1    0    0  501    0  0.00000000000E+00 -0.00000000000E+00 -0.46344347048E+03  0.46344347048E+03  0.00000000000E+00 0. -1.
         25    2    1    2    0    0 -0.13766225190E+02 -0.31230896667E+02 -0.11886608366E+03  0.17590118408E+03  0.12508877988E+03 0.  0.
          5    1    3    3  502    0  0.16150390742E+02  0.43842824346E+02 -0.58266430273E+02  0.74802925508E+02  0.41800000000E+01 0.  1.
         -5    1    3    3    0  502 -0.29916615931E+02 -0.75073721012E+02 -0.60599653384E+02  0.10109825857E+03  0.41800000000E+01 0.  1.
        -11    1    1    2    0    0  0.43774032465E+02  0.38641656360E+02 -0.25380854941E+03  0.26043832913E+03  0.00000000000E+00 0. -1.
         11    1    1    2    0    0 -0.30007807276E+02 -0.74107596936E+01 -0.54883774939E+02  0.62989019744E+02  0.00000000000E+00 0.  1.
</event>
<event>
 7    1  0.2670433E-009  0.1241006E+03  0.7561462E-02  0.1236482E+00
          1   -1    0    0  501    0  0.00000000000E+00  0.00000000000E+00  0.82605794733E+02  0.82605794733E+02  0.00000000000E+00 0. -1.
         -1   -1    0    0    0  501 -0.00000000000E+00 -0.00000000000E+00 -0.24678058292E+03  0.24678058292E+03  0.00000000000E+00 0.  1.
         25    2    1    2    0    0 -0.69998232847E+02  0.51883010717E+02 -0.12163102067E+03  0.19501780492E+03  0.12508492972E+03 0.  0.
          5    1    3    3  502    0 -0.84209103055E+02  0.71153534254E+02 -0.53363763633E+02  0.12255269129E+03  0.41800000000E+01 0.  1.
         -5    1    3    3    0  502  0.14210870208E+02 -0.19270523537E+02 -0.68267257041E+02  0.72465113629E+02  0.41800000000E+01 0.  1.
        -11    1    1    2    0    0  0.13596394307E+02 -0.55414974249E+02 -0.51846536432E+02  0.77095685023E+02  0.00000000000E+00 0.  1.
         11    1    1    2    0    0  0.56401838539E+02  0.35319635319E+01  0.93027689172E+01  0.57272887709E+02  0.00000000000E+00 0. -1.
</event>
<event>
 7    1  0.2670433E-009  0.1131540E+03  0.7561462E-02  0.1254838E+00
         -1   -1    0    0    0  501 -0.00000000000E+00  0.00000000000E+00  0.38422612885E+02  0.38422612885E+02  0.00000000000E+00 0.  1.
          1   -1    0    0  501    0  0.00000000000E+00 -0.00000000000E+00 -0.34691806124E+03  0.34691806124E+03  0.00000000000E+00 0. -1.
         25    2    1    2    0    0  0.33770975156E+02 -0.22742342463E+02 -0.16911167450E+03  0.21425230510E+03  0.12509036287E+03 0.  0.
          5    1    3    3  502    0 -0.44624178677E+02 -0.18465682398E+02 -0.92732010384E+02  0.10463745457E+03  0.41800000000E+01 0.  1.
         -5    1    3    3    0  502  0.78395153833E+02 -0.42766600649E+01 -0.76379664116E+02  0.10961485053E+03  0.41800000000E+01 0.  1.
        -11    1    1    2    0    0 -0.48489440207E+02 -0.21161014888E+02 -0.75027595229E+02  0.91804980303E+02  0.00000000000E+00 0.  1.
         11    1    1    2    0    0  0.14718465051E+02  0.43903357352E+02 -0.64356178625E+02  0.79283388723E+02  0.00000000000E+00 0. -1.
</event>
<event>
 7    1  0.2670433E-009  0.7423162E+02  0.7561462E-02  0.1346267E+00
         -1   -1    0    0    0  501 -0.00000000000E+00  0.00000000000E+00  0.10360282655E+03  0.10360282655E+03  0.00000000000E+00 0.  1.
          1   -1    0    0  501    0  0.00000000000E+00 -0.00000000000E+00 -0.12627127846E+03  0.12627127846E+03  0.00000000000E+00 0. -1.
         25    2    1    2    0    0 -0.28972038945E+02  0.96915959660E+01  0.41397833874E+01  0.12883487665E+03  0.12509189247E+03 0.  0.
          5    1    3    3  502    0 -0.54550075798E+02 -0.22741862741E+02  0.42017962555E+02  0.72635285280E+02  0.41800000000E+01 0.  1.
         -5    1    3    3    0  502  0.25578036853E+02  0.32433458707E+02 -0.37878179168E+02  0.56199591369E+02  0.41800000000E+01 0.  1.
        -11    1    1    2    0    0  0.31262753738E+02 -0.20016792802E+02  0.27190357404E+02  0.46014642247E+02  0.00000000000E+00 0.  1.
         11    1    1    2    0    0 -0.22907147928E+01  0.10325196836E+02 -0.53998592699E+02  0.55024586118E+02  0.00000000000E+00 0. -1.
</event>
<event>
 7    1  0.2670433E-009  0.8396692E+02  0.7561462E-02  0.1318156E+00
          2   -1    0    0  501    0  0.00000000000E+00  0.00000000000E+00  0.45266469704E+03  0.45266469704E+03  0.00000000000E+00 0. -1.
         -2   -1    0    0    0  501 -0.00000000000E+00 -0.00000000000E+00 -0.42028551540E+02  0.42028551540E+02  0.00000000000E+00 0.  1.
         25    2    1    2    0    0 -0.43132995547E+02 -0.65601036578E+02  0.16216889452E+03  0.21934196024E+03  0.12509274106E+03 0.  0.
          5    1    3    3  502    0 -0.25375375765E+02 -0.65376911676E+02  0.16017341807E+02  0.72056074790E+02  0.41800000000E+01 0.  1.
         -5    1    3    3    0  502 -0.17757619783E+02 -0.22412490104E+00  0.14615155271E+03  0.14728588545E+03  0.41800000000E+01 0.  1.
        -11    1    1    2    0    0  0.21160540330E+02  0.42945856272E+02  0.23697655756E+03  0.24176435608E+03  0.00000000000E+00 0. -1.
         11    1    1    2    0    0  0.21972455217E+02  0.22655180305E+02  0.11490693412E+02  0.33586932251E+02  0.00000000000E+00 0.  1.
</event>
<event>
 7    1  0.2670433E-009  0.1379018E+03  0.7561462E-02  0.1216180E+00
         -2   -1    0    0    0  501 -0.00000000000E+00  0.00000000000E+00  0.17455243108E+03  0.17455243108E+03  0.00000000000E+00 0.  1.
          2   -1    0    0  501    0  0.00000000000E+00 -0.00000000000E+00 -0.16199807364E+03  0.16199807364E+03  0.00000000000E+00 0. -1.
         25    2    1    2    0    0 -0.79927931869E+02 -0.57638732213E+02  0.88271486645E+02  0.18206340789E+03  0.12507810118E+03 0.  0.
          5    1    3    3  502    0  0.24852993833E+02  0.53366586613E+00 -0.99033315804E+01  0.27083287801E+02  0.41800000000E+01 0.  1.
         -5    1    3    3    0  502 -0.10478092570E+03 -0.58172398079E+02  0.98174818226E+02  0.15498012009E+03  0.41800000000E+01 0.  1.
        -11    1    1    2    0    0  0.54871325641E+02  0.80056183483E+02 -0.38717293683E+02  0.10449346258E+03  0.00000000000E+00 0.  1.
         11    1    1    2    0    0  0.25056606228E+02 -0.22417451269E+02 -0.36999835527E+02  0.49993634256E+02  0.00000000000E+00 0. -1.
</event>
<event>
 7    1  0.2670433E-009  0.1305176E+03  0.7561462E-02  0.1226690E+00
         -1   -1    0    0    0  501 -0.00000000000E+00  0.00000000000E+00  0.37654068584E+02  0.37654068584E+02  0.00000000000E+00 0.  1.
          1   -1    0    0  501    0  0.00000000000E+00 -0.00000000000E+00 -0.48409290943E+03  0.48409290943E+03  0.00000000000E+00 0. -1.
         25    2    1    2    0    0  0.52800563106E+02  0.54387317706E+02 -0.29948543433E+03  0.33329244408E+03  0.12508576304E+03 0.  0.
          5    1    3    3  502    0 -0.39632402623E+02  0.38202127399E+01 -0.98534289893E+02  0.10635694640E+03  0.41800000000E+01 0.  1.
         -5    1    3    3    0  502  0.92432965729E+02  0.50567104966E+02 -0.20095114444E+03  0.22693549768E+03  0.41800000000E+01 0.  1.
        -11    1    1    2    0    0 -0.43565231657E+01 -0.65671447449E+02 -0.64450873880E+02  0.92117498055E+02  0.00000000000E+00 0.  1.
         11    1    1    2    0    0 -0.48444039940E+02  0.11284129743E+02 -0.82502532634E+02  0.96337035873E+02  0.00000000000E+00 0. -1.
</event>
<event>
 7    1  0.2670433E-009  0.1369274E+03  0.7561462E-02  0.1217524E+00
          2   -1    0    0  501    0  0.00000000000E+00  0.00000000000E+00  0.38771368242E+03  0.38771368242E+03  0.00000000000E+00 0. -1.
         -2   -1    0    0    0  501 -0.00000000000E+00 -0.00000000000E+00 -0.59844469507E+02  0.59844469507E+02  0.00000000000E+00 0.  1.
         25    2    1    2    0    0 -0.18434688544E+02 -0.91626284121E+02  0.98874769018E+02  0.18481615909E+03  0.12508228904E+03 0.  0.
          5    1    3    3  502    0  0.11510199146E+02 -0.11626089561E+03  0.78494841457E+02  0.14081190669E+03  0.41800000000E+01 0.  1.
         -5    1    3    3    0  502 -0.29944887690E+02  0.24634611486E+02  0.20379927562E+02  0.44004252399E+02  0.41800000000E+01 0.  1.
        -11    1    1    2    0    0  0.39435878965E+02  0.21855048236E+02  0.40315920107E+02  0.60483097616E+02  0.00000000000E+00 0.  1.
         11    1    1    2    0    0 -0.21001190421E+02  0.69771235885E+02  0.18867852379E+03  0.20225889522E+03  0.00000000000E+00 0. -1.
</event>
<event>
 7    1  0.2670433E-009  0.8576149E+02  0.7561462E-02  0.1313453E+00
         -2   -1    0    0    0  501 -0.00000000000E+00  0.00000000000E+00  0.95822923342E+02  0.95822923342E+02  0.00000000000E+00 0.  1.
          2   -1    0    0  501    0  0.00000000000E+00 -0.00000000000E+00 -0.21396392214E+03  0.21396392214E+03  0.00000000000E+00 0. -1.
         25    2    1    2    0    0  0.44042015509E+02  0.43495773400E+02  0.70539171278E+01  0.13974452083E+03  0.12508873619E+03 0.  0.
          5    1    3    3  502    0  0.58121662659E+02  0.22504533493E+02 -0.48160252069E+02  0.78876257373E+02  0.41800000000E+01 0. -1.
         -5    1    3    3    0  502 -0.14079647149E+02  0.20991239907E+02  0.55214169196E+02  0.60868263461E+02  0.41800000000E+01 0. -1.
        -11    1    1    2    0    0  0.13427857907E+02 -0.11387695762E+02  0.95836168677E+01  0.20045765014E+02  0.00000000000E+00 0.  1.
         11    1    1    2    0    0 -0.57469873416E+02 -0.32108077638E+02 -0.13477853280E+03  0.14999655964E+03  0.00000000000E+00 0. -1.
</event>
<event>
 7    1  0.2670433E-009  0.1453399E+03  0.7561462E-02  0.1206319E+00
          3   -1    0    0  501    0  0.00000000000E+00  0.00000000000E+00  0.97056306785E+02  0.97056306785E+02  0.00000000000E+00 0. -1.
         -3   -1    0    0    0  501 -0.00000000000E+00 -0.00000000000E+00 -0.25635628447E+03  0.25635628447E+03  0.00000000000E+00 0.  1.
         25    2    1    2    0    0  0.10182364291E+03  0.50333626519E+02 -0.10187757010E+03  0.19729924416E+03  0.12508566760E+03 0.  0.
          5    1    3    3  502    0  0.12390375474E+03  0.38739246332E+02 -0.49246172185E+02  0.13890834215E+03  0.41800000000E+01 0.  1.
         -5    1    3    3    0  502 -0.22080111825E+02  0.11594380187E+02 -0.52631397917E+02  0.58390902004E+02  0.41800000000E+01 0.  1.
        -11    1    1    2    0    0 -0.27425017136E+02 -0.54479248297E+02  0.16644768469E+01  0.61015494287E+02  0.00000000000E+00 0. -1.
         11    1    1    2    0    0 -0.74398625778E+02  0.41456217777E+01 -0.59086884428E+02  0.95097852810E+02  0.00000000000E+00 0.  1.
</event>
<event>
 7    1  0.2670433E-009  0.8630447E+02  0.7561462E-02  0.1312056E+00
         -1   -1    0    0    0  501 -0.00000000000E+00  0.00000000000E+00  0.91159108547E+02  0.91159108547E+02  0.00000000000E+00 0.  1.
          1   -1    0    0  501    0  0.00000000000E+00 -0.00000000000E+00 -0.13311159160E+03  0.13311159160E+03  0.00000000000E+00 0. -1.
         25    2    1    2    0    0  0.10404603510E+02 -0.20283777551E+02 -0.14930632920E+02  0.12803923672E+03  0.12510569505E+03 0.  0.
          5    1    3    3  502    0 -0.82547875416E+00  0.32688329729E+02  0.39295994159E+02  0.51291869459E+02  0.41800000000E+01 0. -1.
         -5    1    3    3    0  502  0.11230082264E+02 -0.52972107280E+02 -0.54226627078E+02  0.76747367262E+02  0.41800000000E+01 0. -1.
        -11    1    1    2    0    0 -0.39733368385E+02  0.34609527749E+02 -0.34189700775E+02  0.62813180252E+02  0.00000000000E+00 0. -1.
         11    1    1    2    0    0  0.29328764875E+02 -0.14325750198E+02  0.71678506378E+01  0.33418283179E+02  0.00000000000E+00 0.  1.
</event>
<event>
 7    1  0.2670433E-009  0.1017864E+03  0.7561462E-02  0.1276584E+00
          2   -1    0    0  501    0  0.00000000000E+00  0.00000000000E+00  0.55117051212E+02  0.55117051212E+02  0.00000000000E+00 0. -1.
         -2   -1    0    0    0  501 -0.00000000000E+00 -0.00000000000E+00 -0.35452650003E+03  0.35452650003E+03  0.00000000000E+00 0.  1.
         25    2    1    2    0    0 -0.12285111512E+02  0.27860181931E+02 -0.28401336829E+03  0.31183054471E+03  0.12509029357E+03 0.  0.
          5    1    3    3  502    0  0.33188749596E+02 -0.25999366520E+02 -0.41730560427E+02  0.59467404793E+02  0.41800000000E+01 0. -1.
         -5    1    3    3    0  502 -0.45473861108E+02  0.53859548452E+02 -0.24228280786E+03  0.25236313991E+03  0.41800000000E+01 0. -1.
        -11    1    1    2    0    0 -0.66571555144E+01 -0.56152205344E+02 -0.25881708135E+02  0.62187222968E+02  0.00000000000E+00 0.  1.
         11    1    1    2    0    0  0.18942267026E+02  0.28292023413E+02  0.10485627599E+02  0.35625783571E+02  0.00000000000E+00 0. -1.
</event>
<event>
 7    1  0.2670433E-009  0.1916403E+03  0.7561462E-02  0.1156990E+00
          1   -1    0    0  501    0  0.00000000000E+00  0.00000000000E+00  0.20631823001E+03  0.20631823001E+03  0.00000000000E+00 0. -1.
         -1   -1    0    0    0  501 -0.00000000000E+00 -0.00000000000E+00 -0.22628816770E+03  0.22628816770E+03  0.00000000000E+00 0.  1.
         25    2    1    2    0    0  0.12107082888E+03 -0.11916160451E+03  0.66776177785E+02  0.22127815492E+03  0.12508928944E+03 0.  0.
          5    1    3    3  502    0 -0.25173329653E+02 -0.30966662705E+02  0.12100307054E+02  0.41910864411E+02  0.41800000000E+01 0.  1.
         -5    1    3    3    0  502  0.14624415853E+03 -0.88194941800E+02  0.54675870732E+02  0.17936729051E+03  0.41800000000E+01 0.  1.
        -11    1    1    2    0    0 -0.42100766132E+02  0.61553210849E+02  0.82420570171E+01  0.75028019957E+02  0.00000000000E+00 0.  1.
         11    1    1    2    0    0 -0.78970062747E+02  0.57608393657E+02 -0.94988172496E+02  0.13630022283E+03  0.00000000000E+00 0. -1.
</event>
<event>
 7    1  0.2670433E-009  0.1417446E+03  0.7561462E-02  0.1211001E+00
         -2   -1    0    0    0  501 -0.00000000000E+00  0.00000000000E+00  0.27693427738E+02  0.27693427738E+02  0.00000000000E+00 0.  1.
          2   -1    0    0  501    0  0.00000000000E+00 -0.00000000000E+00 -0.87005696867E+03  0.87005696867E+03  0.00000000000E+00 0. -1.
         25    2    1    2    0    0 -0.43832508592E+02  0.96538196632E+02 -0.54074963983E+03  0.56506651718E+03  0.12509629749E+03 0.  0.
          5    1    3    3  502    0  0.28842361967E+02  0.11893591751E+02 -0.34706007467E+02  0.46854228442E+02  0.41800000000E+01 0. -1.
         -5    1    3    3    0  502 -0.72674870559E+02  0.84644604881E+02 -0.50604363236E+03  0.51821228874E+03  0.41800000000E+01 0. -1.
        -11    1    1    2    0    0  0.18192531656E+02 -0.10994295402E+03 -0.24127830679E+03  0.26576990551E+03  0.00000000000E+00 0.  1.
         11    1    1    2    0    0  0.25639976936E+02  0.13404757387E+02 -0.60335594316E+02  0.66913973722E+02  0.00000000000E+00 0. -1.
</event>
<event>
 7    1  0.2670433E-009  0.1124104E+03  0.7561462E-02  0.1256170E+00
          2   -1    0    0  501    0  0.00000000000E+00  0.00000000000E+00  0.11357312729E+03  0.11357312729E+03  0.00000000000E+00 0. -1.
         -2   -1    0    0    0  501 -0.00000000000E+00 -0.00000000000E+00 -0.14475123750E+03  0.14475123750E+03  0.00000000000E+00 0.  1.
         25    2    1    2    0    0  0.31891373028E+02  0.56763245266E+02 -0.94355477676E+00  0.14103806383E+03  0.12510683222E+03 0.  0.
          5    1    3    3  502    0  0.63625768441E+02 -0.12059615364E+02 -0.45301031359E+01  0.65051264145E+02  0.41800000000E+01 0.  1.
         -5    1    3    3    0  502 -0.31734395413E+02  0.68822860630E+02  0.35865483592E+01  0.75986799687E+02  0.41800000000E+01 0.  1.
        -11    1    1    2    0    0  0.14159561703E+02 -0.22665698331E+02 -0.49982268969E+02  0.56678516915E+02  0.00000000000E+00 0.  1.
         11    1    1    2    0    0 -0.46050934730E+02 -0.34097546935E+02  0.19747713541E+02  0.60607784043E+02  0.00000000000E+00 0. -1.
</event>
<event>
 7    1  0.2670433E-009  0.7406199E+02  0.7561462E-02  0.1346801E+00
          2   -1    0    0  501    0  0.00000000000E+00  0.00000000000E+00  0.54147753400E+03  0.54147753400E+03  0.00000000000E+00 0. -1.
         -2   -1    0    0    0  501 -0.00000000000E+00 -0.00000000000E+00 -0.27133449180E+02  0.27133449180E+02  0.00000000000E+00 0.  1.
         25    2    1    2    0    0 -0.39617158822E+02  0.13041210330E+02  0.36054841584E+03  0.38390185011E+03  0.12508348378E+03 0.  0.
          5    1    3    3  502    0 -0.57450718729E+02  0.28033961799E+02  0.80615662985E+02  0.10297012001E+03  0.41800000000E+01 0.  1.
         -5    1    3    3    0  502  0.17833559907E+02 -0.14992751469E+02  0.27993275285E+03  0.28093173010E+03  0.41800000000E+01 0.  1.
        -11    1    1    2    0    0  0.31299119188E+02 -0.28824836792E+02  0.16019900800E+03  0.16575351653E+03  0.00000000000E+00 0. -1.
         11    1    1    2    0    0  0.83180396340E+01  0.15783626462E+02 -0.64033390226E+01  0.18955616537E+02  0.00000000000E+00 0.  1.
</event>
<event>
 7    1  0.2670433E-009  0.1105864E+03  0.7561462E-02  0.1259488E+00
         -1   -1    0    0    0  501 -0.00000000000E+00  0.00000000000E+00  0.48238314771E+02  0.48238314771E+02  0.00000000000E+00 0.  1.
          1   -1    0    0  501    0  0.00000000000E+00 -0.00000000000E+00 -0.43721224804E+03  0.43721224804E+03  0.00000000000E+00 0. -1.
         25    2    1    2    0    0  0.20350904730E+01 -0.34320777479E+02 -0.36061461032E+03  0.38324222516E+03  0.12509855557E+03 0.  0.
          5    1    3    3  502    0 -0.38680490733E+02 -0.66498404735E+02 -0.19634830448E+03  0.21092260966E+03  0.41800000000E+01 0.  1.
         -5    1    3    3    0  502  0.40715581206E+02  0.32177627256E+02 -0.16426630584E+03  0.17231961549E+03  0.41800000000E+01 0.  1.
        -11    1    1    2    0    0 -0.77910553619E+01 -0.28212226194E+02 -0.26344832633E+02  0.39378680233E+02  0.00000000000E+00 0. -1.
         11    1    1    2    0    0  0.57559648889E+01  0.62533003673E+02 -0.20144903154E+01  0.62829657420E+02  0.00000000000E+00 0.  1.
</event>
<event>
 7    1  0.2670433E-009  0.1949525E+03  0.7561462E-02  0.1154069E+00
          1   -1    0    0  501    0  0.00000000000E+00  0.00000000000E+00  0.33252090989E+03  0.33252090989E+03  0.00000000000E+00 0. -1.
         -1   -1    0    0    0  501 -0.00000000000E+00 -0.00000000000E+00 -0.12758338579E+03  0.12758338579E+03  0.00000000000E+00 0.  1.
         25    2    1    2    0    0  0.14769403525E+03 -0.91842075342E+02  0.12289014241E+03  0.24697800216E+03  0.12509057358E+03 0.  0.
          5    1    3    3  502    0  0.16634890782E+03 -0.63719443790E+02  0.89814530789E+02  0.19954009369E+03  0.41800000000E+01 0.  1.
         -5    1    3    3    0  502 -0.18654872570E+02 -0.28122631552E+02  0.33075611619E+02  0.47437908470E+02  0.41800000000E+01 0.  1.
        -11    1    1    2    0    0 -0.35030887837E+02  0.48271577675E+01 -0.17464246912E+02  0.39439377213E+02  0.00000000000E+00 0.  1.
         11    1    1    2    0    0 -0.11266314741E+03  0.87014917574E+02  0.99511628611E+02  0.17368691630E+03  0.00000000000E+00 0. -1.
</event>
<event>
 7    1  0.2670433E-009  0.7318075E+02  0.7561462E-02  0.1349599E+00
         -4   -1    0    0    0  501 -0.00000000000E+00  0.00000000000E+00  0.71749217478E+02  0.71749217478E+02  0.00000000000E+00 0.  1.
          4   -1    0    0  501    0  0.00000000000E+00 -0.00000000000E+00 -0.26667722273E+03  0.26667722273E+03  0.00000000000E+00 0. -1.
         25    2    1    2    0    0 -0.41591796797E+02  0.28067464278E+02 -0.23089843219E+02  0.13673857517E+03  0.12508651794E+03 0.  0.
          5    1    3    3  502    0 -0.53786870058E+02  0.26333622272E+02 -0.67575435909E+02  0.90390259381E+02  0.41800000000E+01 0. -1.
         -5    1    3    3    0  502  0.12195073262E+02  0.17338420067E+01  0.44485592690E+02  0.46348315794E+02  0.41800000000E+01 0. -1.
        -11    1    1    2    0    0 -0.12819627769E+02 -0.90075013494E+01  0.43880354404E+01  0.16270611289E+02  0.00000000000E+00 0.  1.
         11    1    1    2    0    0  0.54411424566E+02 -0.19059962929E+02 -0.17622619747E+03  0.18541725374E+03  0.00000000000E+00 0. -1.
</event>
<event>
 7    1  0.2670433E-009  0.1021009E+03  0.7561462E-02  0.1275939E+00
          2   -1    0    0  501    0  0.00000000000E+00  0.00000000000E+00  0.77635904085E+03  0.77635904085E+03  0.00000000000E+00 0. -1.
         -2   -1    0    0    0  501 -0.00000000000E+00 -0.00000000000E+00 -0.19220768231E+02  0.19220768231E+02  0.00000000000E+00 0.  1.
         25    2    1    2    0    0  0.21732849350E+02  0.11124822824E+02  0.50938481831E+03  0.52508651328E+03  0.12508746892E+03 0.  0.
          5    1    3    3  502    0  0.49311621085E+02 -0.28244745956E+02  0.41686351309E+03  0.42073989898E+03  0.41800000000E+01 0.  1.
         -5    1    3    3    0  502 -0.27578771735E+02  0.39369568780E+02  0.92521305216E+02  0.10434661430E+03  0.41800000000E+01 0.  1.
        -11    1    1    2    0    0 -0.59837142557E+02 -0.24262338421E+01  0.90976156545E+02  0.10891754358E+03  0.00000000000E+00 0.  1.
         11    1    1    2    0    0  0.38104293206E+02 -0.86985889820E+01  0.15677729777E+03  0.16157575222E+03  0.00000000000E+00 0. -1.
</event>
<event>
 7    1  0.2670433E-009  0.1452453E+03  0.7561462E-02  0.1206440E+00
          2   -1    0    0  501    0  0.00000000000E+00  0.00000000000E+00  0.20229428616E+03  0.20229428616E+03  0.00000000000E+00 0. -1.
         -2   -1    0    0    0  501 -0.00000000000E+00 -0.00000000000E+00 -0.19323918534E+03  0.19323918534E+03  0.00000000000E+00 0.  1.
         25    2    1    2    0    0  0.30605448998E+02  0.12393132540E+03 -0.10106432846E+03  0.20532352932E+03  0.12509231104E+03 0.  0.
          5    1    3    3  502    0  0.45496763375E+02  0.66329529037E+02 -0.11841380463E+03  0.14320915971E+03  0.41800000000E+01 0. -1.
         -5    1    3    3    0  502 -0.14891314376E+02  0.57601796364E+02  0.17349476165E+02  0.62114369604E+02  0.41800000000E+01 0. -1.
        -11    1    1    2    0    0  0.31243154154E+00 -0.11899665216E+03  0.65892763443E+02  0.13602263456E+03  0.00000000000E+00 0.  1.
         11    1    1    2    0    0 -0.30917880540E+02 -0.49346732410E+01  0.44226665834E+02  0.54187307627E+02  0.00000000000E+00 0. -1.
</event>
<event>
 7    1  0.2670433E-009  0.1104984E+03  0.7561462E-02  0.1259650E+00
         -2   -1    0    0    0  501 -0.00000000000E+00  0.00000000000E+00  0.66439766334E+02  0.66439766334E+02  0.00000000000E+00 0.  1.
          2   -1    0    0  501    0  0.00000000000E+00 -0.00000000000E+00 -0.20527624119E+03  0.20527624119E+03  0.00000000000E+00 0. -1.
         25    2    1    2    0    0  0.27537257374E+02 -0.27413688680E+02 -0.64607396112E+02  0.14603955833E+03  0.12507448219E+03 0.  0.
          5    1    3    3  502    0  0.66575007162E+02  0.75201670802E+01 -0.61151101232E+01  0.67406612905E+02  0.41800000000E+01 0.  1.
         -5    1    3    3    0  502 -0.39037749788E+02 -0.34933855761E+02 -0.58492285989E+02  0.78632945430E+02  0.41800000000E+01 0.  1.
        -11    1    1    2    0    0 -0.37292845333E+02 -0.26995679045E+02 -0.30989511962E+02  0.55496602164E+02  0.00000000000E+00 0.  1.
         11    1    1    2    0    0  0.97555879596E+01  0.54409367725E+02 -0.43239566777E+02  0.70179847020E+02  0.00000000000E+00 0. -1.
</event>
<event>
 7    1  0.2670433E-009  0.1106035E+03  0.7561462E-02  0.1259456E+00
         -4   -1    0    0    0  501 -0.00000000000E+00  0.00000000000E+00  0.67884554469E+02  0.67884554469E+02  0.00000000000E+00 0.  1.
          4   -1    0    0  501    0  0.00000000000E+00 -0.00000000000E+00 -0.26691689691E+03  0.26691689691E+03  0.00000000000E+00 0. -1.
         25    2    1    2    0    0  0.57871440584E+02 -0.74728492616E+01 -0.17223341628E+03  0.22071367602E+03  0.12508089378E+03 0.  0.
          5    1    3    3  502    0  0.12325360978E+02 -0.57086758582E+02 -0.36132863028E+02  0.68803115622E+02  0.41800000000E+01 0.  1.
         -5    1    3    3    0  502  0.45546079606E+02  0.49613909321E+02 -0.13610055325E+03  0.15191056040E+03  0.41800000000E+01 0.  1.
        -11    1    1    2    0    0  0.16291081203E+02  0.12950839336E+02 -0.33482618667E+02  0.39423461531E+02  0.00000000000E+00 0. -1.
         11    1    1    2    0    0 -0.74162521788E+02 -0.54779900744E+01  0.66836925086E+01  0.74664313823E+02  0.00000000000E+00 0.  1.
</event>
<event>
 7    1  0.2670433E-009  0.1323624E+03  0.7561462E-02  0.1223992E+00
          1   -1    0    0  501    0  0.00000000000E+00  0.00000000000E+00  0.56087973784E+02  0.56087973784E+02  0.00000000000E+00 0. -1.
         -1   -1    0    0    0  501 -0.00000000000E+00 -0.00000000000E+00 -0.40737823490E+03  0.40737823490E+03  0.00000000000E+00 0.  1.
         25    2    1    2    0    0 -0.10612291115E+03 -0.72647742394E+01 -0.19383344642E+03  0.25403361991E+03  0.12508727303E+03 0.  0.
          5    1    3    3  502    0  0.22114288716E+02 -0.19076097652E+02 -0.13615560790E+02  0.32493001749E+02  0.41800000000E+01 0.  1.
         -5    1    3    3    0  502 -0.12823719987E+03  0.11811323413E+02 -0.18021788564E+03  0.22154061816E+03  0.41800000000E+01 0.  1.
        -11    1    1    2    0    0  0.85699441792E+02  0.55571573833E+01 -0.16625776571E+03  0.18712808710E+03  0.00000000000E+00 0.  1.
         11    1    1    2    0    0  0.20423469363E+02  0.17076168561E+01  0.88009510213E+01  0.22304501676E+02  0.00000000000E+00 0. -1.
</event>
<event>
 7    1  0.2670433E-009  0.7945441E+02  0.7561462E-02  0.1330607E+00
          4   -1    0    0  501    0  0.00000000000E+00  0.00000000000E+00  0.17181105987E+03  0.17181105987E+03  0.00000000000E+00 0. -1.
         -4   -1    0    0    0  501 -0.00000000000E+00 -0.00000000000E+00 -0.87446459343E+02  0.87446459343E+02  0.00000000000E+00 0.  1.
         25    2    1    2    0    0 -0.56307485556E+02 -0.11388296319E+02  0.60148788915E+02  0.15021781956E+03  0.12508912935E+03 0.  0.
          5    1    3    3  502    0 -0.17108351028E+01 -0.36129830466E+02 -0.26315708623E+02  0.44925277145E+02  0.41800000000E+01 0. -1.
         -5    1    3    3    0  502 -0.54596650453E+02  0.24741534147E+02  0.86464497538E+02  0.10529254241E+03  0.41800000000E+01 0. -1.
        -11    1    1    2    0    0  0.15868273385E+02  0.14967891741E+02  0.54295213279E+02  0.58513332399E+02  0.00000000000E+00 0. -1.
         11    1    1    2    0    0  0.40439212171E+02 -0.35795954223E+01 -0.30079401663E+02  0.50526367263E+02  0.00000000000E+00 0.  1.
</event>
<event>
 7    1  0.2670433E-009  0.9749459E+02  0.7561462E-02  0.1285654E+00
          2   -1    0    0  501    0  0.00000000000E+00  0.00000000000E+00  0.19132866714E+03  0.19132866714E+03  0.00000000000E+00 0. -1.
         -2   -1    0    0    0  501 -0.00000000000E+00 -0.00000000000E+00 -0.62771214920E+02  0.62771214920E+02  0.00000000000E+00 0.  1.
         25    2    1    2    0    0  0.12732596917E+02  0.11183413272E+02  0.80698063843E+02  0.14982266345E+03  0.12508982859E+03 0.  0.
          5    1    3    3  502    0 -0.43443182467E+02 -0.44876178198E+01 -0.69910692856E+01  0.44427426961E+02  0.41800000000E+01 0.  1.
         -5    1    3    3    0  502  0.56175779384E+02  0.15671031091E+02  0.87689133129E+02  0.10539523649E+03  0.41800000000E+01 0.  1.
        -11    1    1    2    0    0  0.10825371697E+01 -0.50736802964E+02  0.26412287460E+02  0.57210173838E+02  0.00000000000E+00 0.  1.
         11    1    1    2    0    0 -0.13815134087E+02  0.39553389692E+02  0.21447100912E+02  0.47067044771E+02  0.00000000000E+00 0. -1.
</event>
<event>
 7    1  0.2670433E-009  0.8607291E+02  0.7561462E-02  0.1312650E+00
          3   -1    0    0  501    0  0.00000000000E+00  0.00000000000E+00  0.92688052322E+02  0.92688052322E+02  0.00000000000E+00 0. -1.
         -3   -1    0    0    0  501 -0.00000000000E+00 -0.00000000000E+00 -0.17690265191E+03  0.17690265191E+03  0.00000000000E+00 0.  1.
         25    2    1    2    0    0  0.26006953986E+02  0.45238579062E+02 -0.14150530958E+00  0.13553902343E+03  0.12509163105E+03 0.  0.
          5    1    3    3  502    0  0.11657297284E+02  0.53855249668E+02  0.54876669275E+02  0.77879405027E+02  0.41800000000E+01 0.  1.
         -5    1    3    3    0  502  0.14349656703E+02 -0.86166706056E+01 -0.55018174584E+02  0.57659618403E+02  0.41800000000E+01 0.  1.
        -11    1    1    2    0    0  0.31370556374E+02 -0.17066482442E+02 -0.11901738205E+02  0.37643432395E+02  0.00000000000E+00 0.  1.
         11    1    1    2    0    0 -0.57377510361E+02 -0.28172096620E+02 -0.72171356069E+02  0.96408248402E+02  0.00000000000E+00 0. -1.
</event>
<event>
 7    1  0.2670433E-009  0.6633537E+02  0.7561462E-02  0.1373018E+00
          2   -1    0    0  501    0  0.00000000000E+00  0.00000000000E+00  0.32595908933E+02  0.32595908933E+02  0.00000000000E+00 0. -1.
         -2   -1    0    0    0  501 -0.00000000000E+00 -0.00000000000E+00 -0.39435132410E+03  0.39435132410E+03  0.00000000000E+00 0.  1.
         25    2    1    2    0    0 -0.69334255825E+01 -0.17037820235E+02 -0.25713477846E+03  0.28653797214E+03  0.12508938994E+03 0.  0.
          5    1    3    3  502    0 -0.10379658464E+02 -0.38048596956E+02 -0.26142814140E+03  0.26441932334E+03  0.41800000000E+01 0. -1.
         -5    1    3    3    0  502  0.34462328813E+01  0.21010776721E+02  0.42933629362E+01  0.22118648801E+02  0.41800000000E+01 0. -1.
        -11    1    1    2    0    0  0.18983604424E+02  0.40616266457E+02 -0.10473745050E+03  0.11392976729E+03  0.00000000000E+00 0.  1.
         11    1    1    2    0    0 -0.12050178841E+02 -0.23578446222E+02  0.11681378620E+00  0.26479493610E+02  0.00000000000E+00 0. -1.
</event>
<event>
 7    1  0.2670433E-009  0.1218860E+03  0.7561462E-02  0.1240018E+00
         -1   -1    0    0    0  501 -0.00000000000E+00  0.00000000000E+00  0.93424848653E+02  0.93424848653E+02  0.00000000000E+00 0.  1.
          1   -1    0    0  501    0  0.00000000000E+00 -0.00000000000E+00 -0.17660187471E+03  0.17660187471E+03  0.00000000000E+00 0. -1.
         25    2    1    2    0    0  0.11332679893E+02 -0.64509591915E+02 -0.68149131476E+02  0.15678528258E+03  0.12508958242E+03 0.  0.
          5    1    3    3  502    0 -0.43461015422E+02 -0.64808212564E+02 -0.13532120428E+02  0.79306714473E+02  0.41800000000E+01 0. -1.
         -5    1    3    3    0  502  0.54793695315E+02  0.29862064851E+00 -0.54617011048E+02  0.77478568110E+02  0.41800000000E+01 0. -1.
        -11    1    1    2    0    0  0.37546135503E+02  0.13172217242E+02 -0.14515604468E+02  0.42354720768E+02  0.00000000000E+00 0. -1.
         11    1    1    2    0    0 -0.48878815396E+02  0.51337374673E+02 -0.51229011302E+00  0.70886720011E+02  0.00000000000E+00 0.  1.
</event>
<event>
 7    1  0.2670433E-009  0.1806990E+03  0.7561462E-02  0.1167128E+00
         -2   -1    0    0    0  501 -0.00000000000E+00  0.00000000000E+00  0.47724143555E+02  0.47724143555E+02  0.00000000000E+00 0.  1.
          2   -1    0    0  501    0  0.00000000000E+00 -0.00000000000E+00 -0.81618183550E+03  0.81618183550E+03  0.00000000000E+00 0. -1.
         25    2    1    2    0    0  0.14306822741E+03 -0.58211567685E+02 -0.53021370281E+03  0.56624384871E+03  0.12509364988E+03 0.  0.
          5    1    3    3  502    0  0.12104848874E+02 -0.55428072365E+02 -0.86105160119E+02  0.10320062777E+03  0.41800000000E+01 0. -1.
         -5    1    3    3    0  502  0.13096337854E+03 -0.27834953200E+01 -0.44410854269E+03  0.46304322094E+03  0.41800000000E+01 0. -1.
        -11    1    1    2    0    0 -0.50674228116E+02 -0.17900912551E+02 -0.43830206092E+02  0.69349888474E+02  0.00000000000E+00 0.  1.
         11    1    1    2    0    0 -0.92393999296E+02  0.76112480236E+02 -0.19441378304E+03  0.22831224188E+03  0.00000000000E+00 0. -1.
</event>
<event>
 7    1  0.2670433E-009  0.1434549E+03  0.7561462E-02  0.1208754E+00
         -1   -1    0    0    0  501 -0.00000000000E+00  0.00000000000E+00  0.15576001940E+03  0.15576001940E+03  0.00000000000E+00 0.  1.
          1   -1    0    0  501    0  0.00000000000E+00 -0.00000000000E+00 -0.17617265377E+03  0.17617265377E+03  0.00000000000E+00 0. -1.
         25    2    1    2    0    0 -0.60656292834E+02 -0.99542711510E+02 -0.56203431012E+02  0.17998123500E+03  0.12508589856E+03 0.  0.
          5    1    3    3  502    0  0.38415753561E+02 -0.26926260862E+02 -0.71060203967E+01  0.47631518677E+02  0.41800000000E+01 0. -1.
         -5    1    3    3    0  502 -0.99072046394E+02 -0.72616450648E+02 -0.49097410616E+02  0.13234971632E+03  0.41800000000E+01 0. -1.
        -11    1    1    2    0    0  0.11924854162E+02  0.13430597055E+02  0.48944882591E+02  0.52136212136E+02  0.00000000000E+00 0.  1.
         11    1    1    2    0    0  0.48731438672E+02  0.86112114455E+02 -0.13154085941E+02  0.99815226032E+02  0.00000000000E+00 0. -1.
</event>
<event>
 7    1  0.2670433E-009  0.1555401E+03  0.7561462E-02  0.1193826E+00
         -2   -1    0    0    0  501 -0.00000000000E+00  0.00000000000E+00  0.44058445523E+02  0.44058445523E+02  0.00000000000E+00 0.  1.
          2   -1    0    0  501    0  0.00000000000E+00 -0.00000000000E+00 -0.56447906548E+03  0.56447906548E+03  0.00000000000E+00 0. -1.
         25    2    1    2    0    0  0.15095649914E+02 -0.11935242895E+03 -0.25697228064E+03  0.31008830237E+03  0.12508845394E+03 0.  0.
          5    1    3    3  502    0 -0.52576993008E+02 -0.76115655628E+02 -0.12536762497E+03  0.15586034459E+03  0.41800000000E+01 0. -1.
         -5    1    3    3    0  502  0.67672642923E+02 -0.43236773322E+02 -0.13160465567E+03  0.15422795778E+03  0.41800000000E+01 0. -1.
        -11    1    1    2    0    0 -0.28118998445E+02  0.13110547943E+02 -0.83442670768E+02  0.89023838638E+02  0.00000000000E+00 0.  1.
         11    1    1    2    0    0  0.13023348530E+02  0.10624188101E+03 -0.18000566855E+03  0.20942536999E+03  0.00000000000E+00 0. -1.
</event>
<event>
 7    1  0.2670433E-009  0.1549988E+03  0.7561462E-02  0.1194462E+00
         -1   -1    0    0    0  501 -0.00000000000E+00  0.00000000000E+00  0.93022498500E+02  0.93022498500E+02  0.00000000000E+00 0.  1.
          1   -1    0    0  501    0  0.00000000000E+00 -0.00000000000E+00 -0.44502132885E+03  0.44502132885E+03  0.00000000000E+00 0. -1.
         25    2    1    2    0    0  0.35308820249E+02 -0.12990777226E+03 -0.32570353113E+03  0.37396909693E+03  0.12508938080E+03 0.  0.
          5    1    3    3  502    0  0.64774882096E+02 -0.11925664027E+03 -0.31050910374E+03  0.33889719312E+03  0.41800000000E+01 0. -1.
         -5    1    3    3    0  502 -0.29466061847E+02 -0.10651131992E+02 -0.15194427389E+02  0.35071903814E+02  0.41800000000E+01 0. -1.
        -11    1    1    2    0    0  0.40840343012E+00  0.86042386180E+02  0.22975511669E+02  0.89058032481E+02  0.00000000000E+00 0.  1.
         11    1    1    2    0    0 -0.35717223679E+02  0.43865386084E+02 -0.49270810897E+02  0.75016697941E+02  0.00000000000E+00 0. -1.
</event>
<event>
 7    1  0.2670433E-009  0.9719723E+02  0.7561462E-02  0.1286303E+00
         -2   -1    0    0    0  501 -0.00000000000E+00  0.00000000000E+00  0.13389406242E+02  0.13389406242E+02  0.00000000000E+00 0. -1.
          2   -1    0    0  501    0  0.00000000000E+00 -0.00000000000E+00 -0.12555247802E+04  0.12555247802E+04  0.00000000000E+00 0.  1.
         25    2    1    2    0    0  0.15416416890E+02 -0.23328611901E+02 -0.10087379795E+04  0.10168488227E+04  0.12508927600E+03 0.  0.
          5    1    3    3  502    0  0.36342022452E+02  0.36805810158E+02 -0.67988877355E+03  0.68186628239E+03  0.41800000000E+01 0.  1.
         -5    1    3    3    0  502 -0.20925605562E+02 -0.60134422058E+02 -0.32884920594E+03  0.33498254034E+03  0.41800000000E+01 0.  1.
        -11    1    1    2    0    0  0.27182297661E+02 -0.48586094010E+01 -0.16165498542E+03  0.16399639539E+03  0.00000000000E+00 0.  1.
         11    1    1    2    0    0 -0.42598714551E+02  0.28187221302E+02 -0.71742409074E+02  0.88068968348E+02  0.00000000000E+00 0. -1.
</event>
<event>
 7    1  0.2670433E-009  0.1007010E+03  0.7561462E-02  0.1278829E+00
         -2   -1    0    0    0  501 -0.00000000000E+00  0.00000000000E+00  0.94655824652E+02  0.94655824652E+02  0.00000000000E+00 0.  1.
          2   -1    0    0  501    0  0.00000000000E+00 -0.00000000000E+00 -0.20473065951E+03  0.20473065951E+03  0.00000000000E+00 0. -1.
         25    2    1    2    0    0 -0.31703510810E+02 -0.55885288867E+02 -0.12428764538E+03  0.18767736008E+03  0.12508834712E+03 0.  0.
          5    1    3    3  502    0  0.19517297906E+02 -0.97757810825E+01  0.18600794853E+02  0.28981938901E+02  0.41800000000E+01 0. -1.
         -5    1    3    3    0  502 -0.51220808716E+02 -0.46109507784E+02 -0.14288844023E+03  0.15869542118E+03  0.41800000000E+01 0. -1.
        -11    1    1    2    0    0 -0.31135662108E+02  0.11469709014E+02 -0.13135552093E+01  0.33207064114E+02  0.00000000000E+00 0.  1.
         11    1    1    2    0    0  0.62839172918E+02  0.44415579853E+02  0.15526365722E+02  0.78502059968E+02  0.00000000000E+00 0. -1.
</event>
<event>
 7    1  0.2670433E-009  0.1846582E+03  0.7561462E-02  0.1163369E+00
         -2   -1    0    0    0  501 -0.00000000000E+00  0.00000000000E+00  0.22128439642E+03  0.22128439642E+03  0.00000000000E+00 0.  1.
          2   -1    0    0  501    0  0.00000000000E+00 -0.00000000000E+00 -0.20235828507E+03  0.20235828507E+03  0.00000000000E+00 0. -1.
         25    2    1    2    0    0 -0.14147336295E+03 -0.10246674613E+03  0.53947541445E+02  0.22152161833E+03  0.12508934277E+03 0.  0.
          5    1    3    3  502    0  0.47320809850E+01 -0.15361263709E+02 -0.28024709447E+02  0.32576337314E+02  0.41800000000E+01 0.  1.
         -5    1    3    3    0  502 -0.14620544393E+03 -0.87105482421E+02  0.81972250892E+02  0.18894528102E+03  0.41800000000E+01 0.  1.
        -11    1    1    2    0    0  0.65107704732E+02  0.79433292510E+02  0.20764839827E+02  0.10478473051E+03  0.00000000000E+00 0.  1.
         11    1    1    2    0    0  0.76365658216E+02  0.23033453620E+02 -0.55786269921E+02  0.97336332642E+02  0.00000000000E+00 0. -1.
</event>
<event>
 7    1  0.2670433E-009  0.1306482E+03  0.7561462E-02  0.1226497E+00
          2   -1    0    0  501    0  0.00000000000E+00  0.00000000000E+00  0.58200502749E+03  0.58200502749E+03  0.00000000000E+00 0.  1.
         -2   -1    0    0    0  501 -0.00000000000E+00 -0.00000000000E+00 -0.43583296598E+02  0.43583296598E+02  0.00000000000E+00 0. -1.
         25    2    1    2    0    0  0.11254073633E+03 -0.29246134838E+02  0.27356617997E+03  0.32250088517E+03  0.12509041680E+03 0.  0.
          5    1    3    3  502    0  0.72216716549E+02 -0.25616503110E+02  0.42190946714E+02  0.87572871172E+02  0.41800000000E+01 0. -1.
         -5    1    3    3    0  502  0.40324019783E+02 -0.36296317281E+01  0.23137523326E+03  0.23492801400E+03  0.41800000000E+01 0. -1.
        -11    1    1    2    0    0 -0.12174312626E+03  0.41418119628E+02  0.25284748100E+03  0.28367005142E+03  0.00000000000E+00 0.  1.
         11    1    1    2    0    0  0.92023899238E+01 -0.12171984790E+02  0.12008069925E+02  0.19417387501E+02  0.00000000000E+00 0. -1.
</event>
<event>
 7    1  0.2670433E-009  0.8940310E+02  0.7561462E-02  0.1304304E+00
         -2   -1    0    0    0  501 -0.00000000000E+00  0.00000000000E+00  0.21626046485E+03  0.21626046485E+03  0.00000000000E+00 0.  1.
          2   -1    0    0  501    0  0.00000000000E+00 -0.00000000000E+00 -0.69901527245E+02  0.69901527245E+02  0.00000000000E+00 0. -1.
         25    2    1    2    0    0 -0.25830671009E+01  0.53055453970E+02  0.60791047619E+02  0.14886209052E+03  0.12507124806E+03 0.  0.
          5    1    3    3  502    0 -0.28311170594E+02  0.72716366333E+02  0.79298368840E+02  0.11133236732E+03  0.41800000000E+01 0.  1.
         -5    1    3    3    0  502  0.25728103493E+02 -0.19660912363E+02 -0.18507321221E+02  0.37529723194E+02  0.41800000000E+01 0.  1.
        -11    1    1    2    0    0 -0.18456234442E+02 -0.37667026855E+02 -0.57469476157E+01  0.42337511839E+02  0.00000000000E+00 0. -1.
         11    1    1    2    0    0  0.21039301543E+02 -0.15388427115E+02  0.91314837597E+02  0.94962389734E+02  0.00000000000E+00 0.  1.
</event>
<event>
 7    1  0.2670433E-009  0.1086086E+03  0.7561462E-02  0.1263168E+00
         -1   -1    0    0    0  501 -0.00000000000E+00  0.00000000000E+00  0.69660969138E+02  0.69660969138E+02  0.00000000000E+00 0.  1.
          1   -1    0    0  501    0  0.00000000000E+00 -0.00000000000E+00 -0.31339555949E+03  0.31339555949E+03  0.00000000000E+00 0. -1.
         25    2    1    2    0    0  0.18824870230E+02  0.88439969480E+02 -0.18773282612E+03  0.24303739149E+03  0.12509019034E+03 0.  0.
          5    1    3    3  502    0 -0.26185700152E+01  0.40820588034E+02  0.67086131637E+01  0.41661195457E+02  0.41800000000E+01 0.  1.
         -5    1    3    3    0  502  0.21443440245E+02  0.47619381446E+02 -0.19444143929E+03  0.20137619604E+03  0.41800000000E+01 0.  1.
        -11    1    1    2    0    0 -0.37859335838E+02 -0.96024260365E+02 -0.31163083256E+02  0.10781987594E+03  0.00000000000E+00 0.  1.
         11    1    1    2    0    0  0.19034465608E+02  0.75842908850E+01 -0.24838680979E+02  0.32199261202E+02  0.00000000000E+00 0. -1.
</event>
<event>
 7    1  0.2670433E-009  0.1002748E+03  0.7561462E-02  0.1279719E+00
         -1   -1    0    0    0  501 -0.00000000000E+00  0.00000000000E+00  0.27956401549E+02  0.27956401549E+02  0.00000000000E+00 0.  1.
          1   -1    0    0  501    0  0.00000000000E+00 -0.00000000000E+00 -0.51488732547E+03  0.51488732547E+03  0.00000000000E+00 0. -1.
         25    2    1    2    0    0 -0.13095963390E+02  0.31111212398E+02 -0.36904185652E+03  0.39112486921E+03  0.12508940666E+03 0.  0.
          5    1    3    3  502    0  0.20871161663E+02 -0.29019776507E+02 -0.35750659799E+02  0.50728048393E+02  0.41800000000E+01 0.  1.
         -5    1    3    3    0  502 -0.33967125053E+02  0.60130988905E+02 -0.33329119672E+03  0.34039682082E+03  0.41800000000E+01 0.  1.
        -11    1    1    2    0    0  0.38513405913E+02 -0.50424338350E+02 -0.82116995355E+02  0.10377426106E+03  0.00000000000E+00 0.  1.
         11    1    1    2    0    0 -0.25417442523E+02  0.19313125952E+02 -0.35772072037E+02  0.47944596737E+02  0.00000000000E+00 0. -1.
</event>
<event>
 7    1  0.2670433E-009  0.8719525E+02  0.7561462E-02  0.1309790E+00
         -2   -1    0    0    0  501 -0.00000000000E+00  0.00000000000E+00  0.32137164838E+03  0.32137164838E+03  0.00000000000E+00 0. -1.
          2   -1    0    0  501    0  0.00000000000E+00 -0.00000000000E+00 -0.46271424531E+02  0.46271424531E+02  0.00000000000E+00 0.  1.
         25    2    1    2    0    0 -0.89755792629E+01 -0.19132881114E+01  0.70449635560E+02  0.14387344819E+03  0.12510873770E+03 0.  0.
          5    1    3    3  502    0  0.26060045822E+02 -0.29176288668E+02  0.87655055860E+02  0.96079462043E+02  0.41800000000E+01 0. -1.
         -5    1    3    3    0  502 -0.35035625084E+02  0.27263000557E+02 -0.17205420299E+02  0.47793986150E+02  0.41800000000E+01 0. -1.
        -11    1    1    2    0    0 -0.35824293827E+02  0.21261652131E+02  0.97811068607E+02  0.10631294851E+03  0.00000000000E+00 0. -1.
         11    1    1    2    0    0  0.44799873090E+02 -0.19348364020E+02  0.10683951968E+03  0.11745667620E+03  0.00000000000E+00 0.  1.
</event>
<event>
 7    1  0.2670433E-009  0.1228878E+03  0.7561462E-02  0.1238408E+00
          2   -1    0    0  501    0  0.00000000000E+00  0.00000000000E+00  0.33370623215E+03  0.33370623215E+03  0.00000000000E+00 0. -1.
         -2   -1    0    0    0  501 -0.00000000000E+00 -0.00000000000E+00 -0.82077755677E+02  0.82077755677E+02  0.00000000000E+00 0.  1.
         25    2    1    2    0    0  0.36151967912E+02 -0.74283875197E+02  0.13971717925E+03  0.20492419434E+03  0.12509187164E+03 0.  0.
          5    1    3    3  502    0 -0.30113123598E+02 -0.75432664157E+02  0.94014104668E+02  0.12431014163E+03  0.41800000000E+01 0.  1.
         -5    1    3    3    0  502  0.66265091510E+02  0.11487889599E+01  0.45703074582E+02  0.80614052716E+02  0.41800000000E+01 0.  1.
        -11    1    1    2    0    0  0.98633089534E+01  0.38515315396E+02  0.14044767086E+03  0.14596664904E+03  0.00000000000E+00 0. -1.
         11    1    1    2    0    0 -0.46015276866E+02  0.35768559801E+02 -0.28536373635E+02  0.64893144441E+02  0.00000000000E+00 0.  1.
</event>
<event>
 7    1  0.2670433E-009  0.9180321E+02  0.7561462E-02  0.1298543E+00
         -1   -1    0    0    0  501 -0.00000000000E+00  0.00000000000E+00  0.74304587918E+02  0.74304587918E+02  0.00000000000E+00 0.  1.
          1   -1    0    0  501    0  0.00000000000E+00 -0.00000000000E+00 -0.17935847473E+03  0.17935847473E+03  0.00000000000E+00 0. -1.
         25    2    1    2    0    0  0.32752775179E+02 -0.18394958061E+02 -0.45430381745E+02  0.13827781820E+03  0.12508283918E+03 0.  0.
          5    1    3    3  502    0  0.60397809581E+02  0.16421832435E+02 -0.64273313013E+02  0.89811486729E+02  0.41800000000E+01 0.  1.
         -5    1    3    3    0  502 -0.27645034402E+02 -0.34816790496E+02  0.18842931268E+02  0.48466331472E+02  0.41800000000E+01 0.  1.
        -11    1    1    2    0    0  0.16949005631E+02  0.20348825943E+02  0.11271383681E+02  0.28781723354E+02  0.00000000000E+00 0.  1.
         11    1    1    2    0    0 -0.49701780810E+02 -0.19538678817E+01 -0.70894888750E+02  0.86603521096E+02  0.00000000000E+00 0. -1.
</event>
<event>
 7    1  0.2670433E-009  0.9844817E+02  0.7561462E-02  0.1283593E+00
         -4   -1    0    0    0  501 -0.00000000000E+00  0.00000000000E+00  0.17307953353E+03  0.17307953353E+03  0.00000000000E+00 0.  1.
          4   -1    0    0  501    0  0.00000000000E+00 -0.00000000000E+00 -0.94890435529E+02  0.94890435529E+02  0.00000000000E+00 0. -1.
         25    2    1    2    0    0  0.92480393535E+00  0.46936610297E+02  0.10967671841E+03  0.17286882127E+03  0.12510294225E+03 0.  0.
          5    1    3    3  502    0 -0.36047245253E+02  0.75259246160E+02  0.87941073549E+02  0.12130318561E+03  0.41800000000E+01 0. -1.
         -5    1    3    3    0  502  0.36972049188E+02 -0.28322635863E+02  0.21735644859E+02  0.51565635659E+02  0.41800000000E+01 0. -1.
        -11    1    1    2    0    0 -0.11120625302E+02  0.60264812216E+01 -0.38673150110E+02  0.40689056544E+02  0.00000000000E+00 0. -1.
         11    1    1    2    0    0  0.10195821367E+02 -0.52963091519E+02  0.71855297049E+01  0.54412091246E+02  0.00000000000E+00 0.  1.
</event>
<event>
 7    1  0.2670433E-009  0.1407865E+03  0.7561462E-02  0.1212275E+00
          1   -1    0    0  501    0  0.00000000000E+00  0.00000000000E+00  0.11379237233E+04  0.11379237233E+04  0.00000000000E+00 0. -1.
         -1   -1    0    0    0  501 -0.00000000000E+00 -0.00000000000E+00 -0.19621900151E+02  0.19621900151E+02  0.00000000000E+00 0.  1.
         25    2    1    2    0    0 -0.60828433856E+02 -0.76442937979E+02  0.72925884482E+03  0.74632956337E+03  0.12508290559E+03 0.  0.
          5    1    3    3  502    0 -0.99238471279E+02 -0.63819130532E+02  0.54440336840E+03  0.55705803605E+03  0.41800000000E+01 0.  1.
         -5    1    3    3    0  502  0.38410037422E+02 -0.12623807447E+02  0.18485547642E+03  0.18927152731E+03  0.41800000000E+01 0.  1.
        -11    1    1    2    0    0 -0.13878675300E+02  0.34503147132E+02  0.55229901603E+02  0.66583983218E+02  0.00000000000E+00 0.  1.
         11    1    1    2    0    0  0.74707109156E+02  0.41939790846E+02  0.33381307677E+03  0.34463207691E+03  0.00000000000E+00 0. -1.
</event>
<event>
 7    1  0.2670433E-009  0.1214155E+03  0.7561462E-02  0.1240780E+00
         -2   -1    0    0    0  501 -0.00000000000E+00  0.00000000000E+00  0.10893367067E+03  0.10893367067E+03  0.00000000000E+00 0.  1.
          2   -1    0    0  501    0  0.00000000000E+00 -0.00000000000E+00 -0.17111821241E+03  0.17111821241E+03  0.00000000000E+00 0. -1.
         25    2    1    2    0    0  0.99231243272E+00 -0.83814487837E+02 -0.93061330735E+01  0.15086262514E+03  0.12508826681E+03 0.  0.
          5    1    3    3  502    0 -0.12108686574E+02  0.18944030903E+02  0.31941547877E+02  0.39283985009E+02  0.41800000000E+01 0.  1.
         -5    1    3    3    0  502  0.13100999007E+02 -0.10275851874E+03 -0.41247680951E+02  0.11157864013E+03  0.41800000000E+01 0.  1.
        -11    1    1    2    0    0 -0.15269660118E+02 -0.11996826504E+02 -0.13447919455E+01  0.19465221079E+02  0.00000000000E+00 0.  1.
         11    1    1    2    0    0  0.14277347685E+02  0.95811314341E+02 -0.51533616728E+02  0.10972403686E+03  0.00000000000E+00 0. -1.
</event>
<event>
 7    1  0.2670433E-009  0.1433411E+03  0.7561462E-02  0.1208903E+00
         -2   -1    0    0    0  501 -0.00000000000E+00  0.00000000000E+00  0.22053990369E+02  0.22053990369E+02  0.00000000000E+00 0.  1.
          2   -1    0    0  501    0  0.00000000000E+00 -0.00000000000E+00 -0.98344158498E+03  0.98344158498E+03  0.00000000000E+00 0. -1.
         25    2    1    2    0    0 -0.97733519276E+02 -0.16336962626E+02 -0.53148447404E+03  0.55492497163E+03  0.12508893180E+03 0.  0.
          5    1    3    3  502    0  0.96984946805E+01  0.37608762926E+02 -0.11788645207E+03  0.12419004722E+03  0.41800000000E+01 0. -1.
         -5    1    3    3    0  502 -0.10743201396E+03 -0.53945725552E+02 -0.41359802197E+03  0.43073492441E+03  0.41800000000E+01 0. -1.
        -11    1    1    2    0    0  0.87238806419E+02 -0.20005401938E+02 -0.22396078946E+03  0.24118304391E+03  0.00000000000E+00 0.  1.
         11    1    1    2    0    0  0.10494712857E+02  0.36342364564E+02 -0.20594233110E+03  0.20938755980E+03  0.00000000000E+00 0. -1.
</event>
<event>
 7    1  0.2670433E-009  0.8250572E+02  0.7561462E-02  0.1322087E+00
          1   -1    0    0  501    0  0.00000000000E+00  0.00000000000E+00  0.15524310566E+03  0.15524310566E+03  0.00000000000E+00 0. -1.
         -1   -1    0    0    0  501 -0.00000000000E+00 -0.00000000000E+00 -0.93755403501E+02  0.93755403501E+02  0.00000000000E+00 0.  1.
         25    2    1    2    0    0  0.29215054765E+02 -0.24876920719E+02 -0.29684823502E+01  0.13086619092E+03  0.12507904472E+03 0.  0.
          5    1    3    3  502    0  0.57102239191E+02 -0.43835972498E+02 -0.38465457647E+02  0.81727119351E+02  0.41800000000E+01 0. -1.
         -5    1    3    3    0  502 -0.27887184425E+02  0.18959051778E+02  0.35496975297E+02  0.49139071570E+02  0.41800000000E+01 0. -1.
        -11    1    1    2    0    0 -0.94485983269E+01 -0.13075048043E+02  0.72773948512E+02  0.74540461990E+02  0.00000000000E+00 0. -1.
         11    1    1    2    0    0 -0.19766456438E+02  0.37951968762E+02 -0.83177640058E+01  0.43591856247E+02  0.00000000000E+00 0.  1.
</event>
<event>
 7    1  0.2670433E-009  0.1170203E+03  0.7561462E-02  0.1248095E+00
         -2   -1    0    0    0  501 -0.00000000000E+00  0.00000000000E+00  0.26125004882E+02  0.26125004882E+02  0.00000000000E+00 0.  1.
          2   -1    0    0  501    0  0.00000000000E+00 -0.00000000000E+00 -0.59628191166E+03  0.59628191166E+03  0.00000000000E+00 0. -1.
         25    2    1    2    0    0  0.46835998870E+02  0.25973098444E+02 -0.39444204130E+03  0.41725178878E+03  0.12508524558E+03 0.  0.
          5    1    3    3  502    0  0.85976277904E+02  0.16097185046E+02 -0.32716818962E+03  0.33868501063E+03  0.41800000000E+01 0. -1.
         -5    1    3    3    0  502 -0.39140279034E+02  0.98759133982E+01 -0.67273851687E+02  0.78566778151E+02  0.41800000000E+01 0. -1.
        -11    1    1    2    0    0 -0.53890860459E+02  0.21405710245E+02 -0.95405678779E+02  0.11164529912E+03  0.00000000000E+00 0.  1.
         11    1    1    2    0    0  0.70548615889E+01 -0.47378808689E+02 -0.80309186699E+02  0.93509828644E+02  0.00000000000E+00 0. -1.
</event>
<event>
 7    1  0.2670433E-009  0.1750115E+03  0.7561462E-02  0.1172720E+00
         -1   -1    0    0    0  501 -0.00000000000E+00  0.00000000000E+00  0.55762654468E+02  0.55762654468E+02  0.00000000000E+00 0.  1.
          1   -1    0    0  501    0  0.00000000000E+00 -0.00000000000E+00 -0.61201730140E+03  0.61201730140E+03  0.00000000000E+00 0. -1.
         25    2    1    2    0    0 -0.12781237353E+03 -0.69703588047E+02 -0.23641209109E+03  0.30452121033E+03  0.12509155734E+03 0.  0.
          5    1    3    3  502    0 -0.14727183279E+03 -0.69157794393E+02 -0.17068508608E+03  0.23584457651E+03  0.41800000000E+01 0. -1.
         -5    1    3    3    0  502  0.19459459267E+02 -0.54579365381E+00 -0.65727005010E+02  0.68676633823E+02  0.41800000000E+01 0. -1.
        -11    1    1    2    0    0 -0.25922315005E+01  0.31311135698E+02 -0.31557851395E+02  0.44530942809E+02  0.00000000000E+00 0.  1.
         11    1    1    2    0    0  0.13040460503E+03  0.38392452349E+02 -0.28828470445E+03  0.31872780272E+03  0.00000000000E+00 0. -1.
</event>
<event>
 7    1  0.2670433E-009  0.1464596E+03  0.7561462E-02  0.1204892E+00
         -1   -1    0    0    0  501 -0.00000000000E+00  0.00000000000E+00  0.82369466213E+02  0.82369466213E+02  0.00000000000E+00 0. -1.
          1   -1    0    0  501    0  0.00000000000E+00 -0.00000000000E+00 -0.30549907376E+03  0.30549907376E+03  0.00000000000E+00 0.  1.
         25    2    1    2    0    0  0.55914617456E+02 -0.84705092546E+02 -0.52706415304E+02  0.16948799118E+03  0.12508723272E+03 0.  0.
          5    1    3    3  502    0 -0.33547703228E+02  0.46775094897E+01 -0.62441536280E+01  0.34695667474E+02  0.41800000000E+01 0. -1.
         -5    1    3    3    0  502  0.89462320684E+02 -0.89382602036E+02 -0.46462261676E+02  0.13479232370E+03  0.41800000000E+01 0. -1.
        -11    1    1    2    0    0 -0.63146441974E+02  0.98314549283E+02 -0.12833816933E+03  0.17356240792E+03  0.00000000000E+00 0. -1.
         11    1    1    2    0    0  0.72318245181E+01 -0.13609456737E+02 -0.42085022905E+02  0.44818140875E+02  0.00000000000E+00 0.  1.
</event>
<event>
 7    1  0.2670433E-009  0.1086028E+03  0.7561462E-02  0.1263179E+00
         -1   -1    0    0    0  501 -0.00000000000E+00  0.00000000000E+00  0.14217170934E+02  0.14217170934E+02  0.00000000000E+00 0.  1.
          1   -1    0    0  501    0  0.00000000000E+00 -0.00000000000E+00 -0.82974517840E+03  0.82974517840E+03  0.00000000000E+00 0. -1.
         25    2    1    2    0    0 -0.12776670189E+02  0.99773859630E+00 -0.47430920495E+03  0.49069406182E+03  0.12508877496E+03 0.  0.
          5    1    3    3  502    0  0.22922770761E+02 -0.54698351317E+02 -0.22564611733E+03  0.23334739279E+03  0.41800000000E+01 0.  1.
         -5    1    3    3    0  502 -0.35699440950E+02  0.55696089914E+02 -0.24866308762E+03  0.25734666903E+03  0.41800000000E+01 0.  1.
        -11    1    1    2    0    0 -0.33449473841E+02  0.21795462885E+02 -0.15201192715E+03  0.15716722145E+03  0.00000000000E+00 0. -1.
         11    1    1    2    0    0  0.46226144030E+02 -0.22793201481E+02 -0.18920687537E+03  0.19610106606E+03  0.00000000000E+00 0.  1.
</event>
<event>
 7    1  0.2670433E-009  0.1047169E+03  0.7561462E-02  0.1270678E+00
          2   -1    0    0  501    0  0.00000000000E+00  0.00000000000E+00  0.14947394038E+03  0.14947394038E+03  0.00000000000E+00 0. -1.
         -2   -1    0    0    0  501 -0.00000000000E+00 -0.00000000000E+00 -0.90741552924E+02  0.90741552924E+02  0.00000000000E+00 0.  1.
         25    2    1    2    0    0  0.18985700775E+02  0.29442657906E+02  0.60288894852E+02  0.14321379304E+03  0.12509241678E+03 0.  0.
          5    1    3    3  502    0  0.56051657193E+02 -0.26891543496E+02  0.27326797534E+02  0.68038001508E+02  0.41800000000E+01 0. -1.
         -5    1    3    3    0  502 -0.37065956419E+02  0.56334201402E+02  0.32962097318E+02  0.75175791532E+02  0.41800000000E+01 0. -1.
        -11    1    1    2    0    0 -0.16170741266E+02  0.22408123145E+02  0.26236308531E+02  0.38104602627E+02  0.00000000000E+00 0. -1.
         11    1    1    2    0    0 -0.28149595084E+01 -0.51850781052E+02 -0.27792815928E+02  0.58897097636E+02  0.00000000000E+00 0.  1.
</event>
<event>
 7    1  0.2670433E-009  0.1383400E+03  0.7561462E-02  0.1215580E+00
         -2   -1    0    0    0  501 -0.00000000000E+00  0.00000000000E+00  0.68867721763E+02  0.68867721763E+02  0.00000000000E+00 0.  1.
          2   -1    0    0  501    0  0.00000000000E+00 -0.00000000000E+00 -0.35191909859E+03  0.35191909859E+03  0.00000000000E+00 0. -1.
         25    2    1    2    0    0  0.51684771184E+02  0.99497151273E+02 -0.15918680001E+03  0.23142753657E+03  0.12508904309E+03 0.  0.
          5    1    3    3  502    0  0.27585346460E+02  0.12506378157E+03 -0.10028609379E+03  0.16271654436E+03  0.41800000000E+01 0.  1.
         -5    1    3    3    0  502  0.24099424724E+02 -0.25566630301E+02 -0.58900706221E+02  0.68710992209E+02  0.41800000000E+01 0.  1.
        -11    1    1    2    0    0 -0.43804729092E+02 -0.69567591132E+02 -0.25247413272E+02  0.85999627346E+02  0.00000000000E+00 0.  1.
         11    1    1    2    0    0 -0.78800420924E+01 -0.29929560141E+02 -0.98617163543E+02  0.10335965644E+03  0.00000000000E+00 0. -1.
</event>
<event>
 7    1  0.2670433E-009  0.1058418E+03  0.7561462E-02  0.1268470E+00
         -2   -1    0    0    0  501 -0.00000000000E+00  0.00000000000E+00  0.40275582084E+02  0.40275582084E+02  0.00000000000E+00 0.  1.
          2   -1    0    0  501    0  0.00000000000E+00 -0.00000000000E+00 -0.32426547962E+03  0.32426547962E+03  0.00000000000E+00 0. -1.
         25    2    1    2    0    0 -0.18570120366E+02  0.34424157957E+02 -0.16659256416E+03  0.21196909205E+03  0.12509173246E+03 0.  0.
          5    1    3    3  502    0 -0.54166316159E+02  0.60578261952E+02 -0.77171246437E+02  0.11214539359E+03  0.41800000000E+01 0. -1.
         -5    1    3    3    0  502  0.35596195794E+02 -0.26154103996E+02 -0.89421317722E+02  0.99823698458E+02  0.41800000000E+01 0. -1.
        -11    1    1    2    0    0  0.48513062283E+02 -0.17659145176E+02 -0.32509646361E+02  0.61010160850E+02  0.00000000000E+00 0.  1.
         11    1    1    2    0    0 -0.29942941917E+02 -0.16765012780E+02 -0.84887687011E+02  0.91561808798E+02  0.00000000000E+00 0. -1.
</event>
<event>
 7    1  0.2670433E-009  0.1515759E+03  0.7561462E-02  0.1198550E+00
         -3   -1    0    0    0  501 -0.00000000000E+00  0.00000000000E+00  0.92714837184E+03  0.92714837184E+03  0.00000000000E+00 0.  1.
          3   -1    0    0  501    0  0.00000000000E+00 -0.00000000000E+00 -0.30622355263E+02  0.30622355263E+02  0.00000000000E+00 0. -1.
         25    2    1    2    0    0  0.84138743158E+02 -0.94388355784E+02  0.54771394924E+03  0.57587042357E+03  0.12509070605E+03 0.  0.
          5    1    3    3  502    0  0.86393152394E+02 -0.11694276460E+02  0.19634764868E+03  0.21487299603E+03  0.41800000000E+01 0. -1.
         -5    1    3    3    0  502 -0.22544092357E+01 -0.82694079324E+02  0.35136630057E+03  0.36099742754E+03  0.41800000000E+01 0. -1.
        -11    1    1    2    0    0 -0.56213267086E+01  0.32723461682E+02  0.21152746668E+02  0.39368298795E+02  0.00000000000E+00 0. -1.
         11    1    1    2    0    0 -0.78517416449E+02  0.61664894102E+02  0.32765932066E+03  0.34253200473E+03  0.00000000000E+00 0.  1.
</event>
<event>
 7    1  0.2670433E-009  0.6975571E+02  0.7561462E-02  0.1360926E+00
         -2   -1    0    0    0  501 -0.00000000000E+00  0.00000000000E+00  0.23644793592E+02  0.23644793592E+02  0.00000000000E+00 0.  1.
          2   -1    0    0  501    0  0.00000000000E+00 -0.00000000000E+00 -0.55985998518E+03  0.55985998518E+03  0.00000000000E+00 0. -1.
         25    2    1    2    0    0 -0.80520727774E+01 -0.34681984514E+02 -0.26724088045E+03  0.29720828437E+03  0.12508956866E+03 0.  0.
          5    1    3    3  502    0  0.14169753143E+02 -0.16156958668E+02  0.57671443677E+01  0.22639822696E+02  0.41800000000E+01 0.  1.
         -5    1    3    3    0  502 -0.22221825921E+02 -0.18525025846E+02 -0.27300802482E+03  0.27456846167E+03  0.41800000000E+01 0.  1.
        -11    1    1    2    0    0  0.44616399913E+02  0.16687470349E+02 -0.20487169743E+03  0.21033665210E+03  0.00000000000E+00 0.  1.
         11    1    1    2    0    0 -0.36564327136E+02  0.17994514166E+02 -0.64102613707E+02  0.75959842305E+02  0.00000000000E+00 0. -1.
</event>
<event>
 7    1  0.2670433E-009  0.1208452E+03  0.7561462E-02  0.1241709E+00
          1   -1    0    0  501    0  0.00000000000E+00  0.00000000000E+00  0.13422077083E+04  0.13422077083E+04  0.00000000000E+00 0. -1.
         -1   -1    0    0    0  501 -0.00000000000E+00 -0.00000000000E+00 -0.11852092280E+02  0.11852092280E+02  0.00000000000E+00 0.  1.
         25    2    1    2    0    0 -0.61646711657E+02  0.10822267333E+02  0.66844132130E+03  0.68291939059E+03  0.12509058911E+03 0.  0.
          5    1    3    3  502    0 -0.72840335192E+02  0.50921213824E+02  0.55337213213E+03  0.56047914632E+03  0.41800000000E+01 0. -1.
         -5    1    3    3    0  502  0.11193623535E+02 -0.40098946491E+02  0.11506918918E+03  0.12244024426E+03  0.41800000000E+01 0. -1.
        -11    1    1    2    0    0 -0.10467814372E+02  0.27348067322E+02  0.16870933220E+03  0.17123180398E+03  0.00000000000E+00 0. -1.
         11    1    1    2    0    0  0.72114526028E+02 -0.38170334655E+02  0.49320496249E+03  0.49990860598E+03  0.00000000000E+00 0.  1.
</event>
<event>
 7    1  0.2670433E-009  0.1140404E+03  0.7561462E-02  0.1253266E+00
          3   -1    0    0  501    0  0.00000000000E+00  0.00000000000E+00  0.10455562821E+03  0.10455562821E+03  0.00000000000E+00 0. -1.
         -3   -1    0    0    0  501 -0.00000000000E+00 -0.00000000000E+00 -0.13911530737E+03  0.13911530737E+03  0.00000000000E+00 0.  1.
         25    2    1    2    0    0  0.34351836872E+02  0.11917794216E+02  0.17562975481E+02  0.13144397215E+03  0.12508787788E+03 0.  0.
          5    1    3    3  502    0  0.79895856454E+02  0.19659596837E+02  0.20719400627E+02  0.84950653845E+02  0.41800000000E+01 0. -1.
         -5    1    3    3    0  502 -0.45544019582E+02 -0.77418026211E+01 -0.31564251463E+01  0.46493318307E+02  0.41800000000E+01 0. -1.
        -11    1    1    2    0    0  0.19844360970E+02 -0.35133275612E+02 -0.23386476831E+02  0.46637678074E+02  0.00000000000E+00 0.  1.
         11    1    1    2    0    0 -0.54196197842E+02  0.23215481396E+02 -0.28736177813E+02  0.65589285347E+02  0.00000000000E+00 0. -1.
</event>
<event>
 7    1  0.2670433E-009  0.1085576E+03  0.7561462E-02  0.1263265E+00
         -2   -1    0    0    0  501 -0.00000000000E+00  0.00000000000E+00  0.89398618027E+03  0.89398618027E+03  0.00000000000E+00 0. -1.
          2   -1    0    0  501    0  0.00000000000E+00 -0.00000000000E+00 -0.18125468073E+02  0.18125468073E+02  0.00000000000E+00 0.  1.
         25    2    1    2    0    0  0.54518488256E+02  0.94468127693E+01  0.63079115801E+03  0.64545074814E+03  0.12509066879E+03 0.  0.
          5    1    3    3  502    0  0.94525779856E+02  0.56194972525E+01  0.48434424043E+03  0.49353167826E+03  0.41800000000E+01 0. -1.
         -5    1    3    3    0  502 -0.40007291601E+02  0.38273155168E+01  0.14644691758E+03  0.15191906988E+03  0.41800000000E+01 0. -1.
        -11    1    1    2    0    0 -0.14338592067E+02  0.25117795043E+02  0.19340630142E+02  0.34793085873E+02  0.00000000000E+00 0.  1.
         11    1    1    2    0    0 -0.40179896188E+02 -0.34564607812E+02  0.22572892405E+03  0.23186781433E+03  0.00000000000E+00 0. -1.
</event>
<event>
 7    1  0.2670433E-009  0.2211035E+03  0.7561462E-02  0.1133063E+00
         -2   -1    0    0    0  501 -0.00000000000E+00  0.00000000000E+00  0.74236401413E+02  0.74236401413E+02  0.00000000000E+00 0.  1.
          2   -1    0    0  501    0  0.00000000000E+00 -0.00000000000E+00 -0.87476374353E+03  0.87476374353E+03  0.00000000000E+00 0. -1.
         25    2    1    2    0    0 -0.21369312934E+03  0.21862916460E+01 -0.57011663870E+03  0.62157102272E+03  0.12509205072E+03 0.  0.
          5    1    3    3  502    0 -0.15880604868E+03  0.14810902257E+02 -0.52670121633E+03  0.55033659483E+03  0.41800000000E+01 0. -1.
         -5    1    3    3    0  502 -0.54887080659E+02 -0.12624610611E+02 -0.43415422371E+02  0.71234427884E+02  0.41800000000E+01 0. -1.
        -11    1    1    2    0    0  0.19633720475E+03 -0.24558146293E+02 -0.17061311626E+03  0.26126659939E+03  0.00000000000E+00 0.  1.
         11    1    1    2    0    0  0.17355924592E+02  0.22371854647E+02 -0.59797587151E+02  0.66162522835E+02  0.00000000000E+00 0. -1.
</event>
<event>
 7    1  0.2670433E-009  0.1614312E+03  0.7561462E-02  0.1187090E+00
          2   -1    0    0  501    0  0.00000000000E+00  0.00000000000E+00  0.97436323666E+02  0.97436323666E+02  0.00000000000E+00 0. -1.
         -2   -1    0    0    0  501 -0.00000000000E+00 -0.00000000000E+00 -0.35116446252E+03  0.35116446252E+03  0.00000000000E+00 0.  1.
         25    2    1    2    0    0 -0.11317512556E+03  0.82088527095E+02 -0.70096177778E+02  0.20027125197E+03  0.12509182588E+03 0.  0.
          5    1    3    3  502    0 -0.13521115170E+03  0.75911828881E+02 -0.36414900211E+02  0.15933668336E+03  0.41800000000E+01 0. -1.
         -5    1    3    3    0  502  0.22036026139E+02  0.61766982136E+01 -0.33681277568E+02  0.40934568612E+02  0.41800000000E+01 0. -1.
        -11    1    1    2    0    0  0.71921472609E+02 -0.72506448613E+02 -0.17852321343E+03  0.20567066161E+03  0.00000000000E+00 0.  1.
         11    1    1    2    0    0  0.41253652949E+02 -0.95820784819E+01 -0.51087476502E+01  0.42658872609E+02  0.00000000000E+00 0. -1.
</event>
<event>
 7    1  0.2670433E-009  0.1213677E+03  0.7561462E-02  0.1240858E+00
         -4   -1    0    0    0  501 -0.00000000000E+00  0.00000000000E+00  0.31723153153E+02  0.31723153153E+02  0.00000000000E+00 0. -1.
          4   -1    0    0  501    0  0.00000000000E+00 -0.00000000000E+00 -0.59588005732E+03  0.59588005732E+03  0.00000000000E+00 0.  1.
         25    2    1    2    0    0 -0.83911440003E+00  0.79760745573E+02 -0.35979241908E+03  0.38918012434E+03  0.12509238069E+03 0.  0.
          5    1    3    3  502    0 -0.42188166374E+02  0.16177616862E+02 -0.25913131100E+03  0.26307425836E+03  0.41800000000E+01 0. -1.
         -5    1    3    3    0  502  0.41349051974E+02  0.63583128711E+02 -0.10066110808E+03  0.12610586598E+03  0.41800000000E+01 0. -1.
        -11    1    1    2    0    0 -0.44277849893E+02 -0.52524967289E+02 -0.97510851955E+02  0.11928020133E+03  0.00000000000E+00 0. -1.
         11    1    1    2    0    0  0.45116964293E+02 -0.27235778285E+02 -0.10685363313E+03  0.11914288480E+03  0.00000000000E+00 0.  1.
</event>
<event>
 7    1  0.2670433E-009  0.1593573E+03  0.7561462E-02  0.1189424E+00
         -2   -1    0    0    0  501 -0.00000000000E+00  0.00000000000E+00  0.37028290818E+02  0.37028290818E+02  0.00000000000E+00 0.  1.
          2   -1    0    0  501    0  0.00000000000E+00 -0.00000000000E+00 -0.85056927378E+03  0.85056927378E+03  0.00000000000E+00 0. -1.
         25    2    1    2    0    0  0.12072791239E+03  0.33601405437E+02 -0.27725025439E+03  0.32896813441E+03  0.12509215251E+03 0.  0.
          5    1    3    3  502    0  0.12470780489E+03 -0.13662625681E+02 -0.16733093788E+03  0.20917891651E+03  0.41800000000E+01 0.  1.
         -5    1    3    3    0  502 -0.39798925050E+01  0.47264031118E+02 -0.10991931651E+03  0.11978921789E+03  0.41800000000E+01 0.  1.
        -11    1    1    2    0    0 -0.76507821995E+02 -0.57131188767E+02 -0.24290895541E+03  0.26100226086E+03  0.00000000000E+00 0. -1.
         11    1    1    2    0    0 -0.44220090395E+02  0.23529783330E+02 -0.29338177316E+03  0.29762716933E+03  0.00000000000E+00 0.  1.
</event>
<event>
 7    1  0.2670433E-009  0.1046319E+03  0.7561462E-02  0.1270847E+00
         -1   -1    0    0    0  501 -0.00000000000E+00  0.00000000000E+00  0.17915460986E+02  0.17915460986E+02  0.00000000000E+00 0.  1.
          1   -1    0    0  501    0  0.00000000000E+00 -0.00000000000E+00 -0.66209031265E+03  0.66209031265E+03  0.00000000000E+00 0. -1.
         25    2    1    2    0    0 -0.11762245515E+02  0.49883066911E+01 -0.38125306954E+03  0.40145312015E+03  0.12508985180E+03 0.  0.
          5    1    3    3  502    0  0.50587959879E+02 -0.23781980831E+02 -0.14772767189E+03  0.15800525858E+03  0.41800000000E+01 0. -1.
         -5    1    3    3    0  502 -0.62350205393E+02  0.28770287522E+02 -0.23352539765E+03  0.24344786157E+03  0.41800000000E+01 0. -1.
        -11    1    1    2    0    0  0.10326147420E+02  0.39029442829E+02 -0.18198447633E+03  0.18640889558E+03  0.00000000000E+00 0. -1.
         11    1    1    2    0    0  0.14360980945E+01 -0.44017749520E+02 -0.80937305801E+02  0.92143757905E+02  0.00000000000E+00 0.  1.
</event>
<event>
 7    1  0.2670433E-009  0.2167963E+03  0.7561462E-02  0.1136294E+00
         -1   -1    0    0    0  501 -0.00000000000E+00  0.00000000000E+00  0.35674837683E+02  0.35674837683E+02  0.00000000000E+00 0.  1.
          1   -1    0    0  501    0  0.00000000000E+00 -0.00000000000E+00 -0.13439445764E+04  0.13439445764E+04  0.00000000000E+00 0. -1.
         25    2    1    2    0    0  0.14196872212E+03 -0.12467316998E+03 -0.62123857890E+03  0.66127392385E+03  0.12508922044E+03 0.  0.
          5    1    3    3  502    0 -0.87846857193E+01 -0.58390679705E+02 -0.21239955407E+03  0.22049418394E+03  0.41800000000E+01 0. -1.
         -5    1    3    3    0  502  0.15075340784E+03 -0.66282490279E+02 -0.40883902483E+03  0.44077973991E+03  0.41800000000E+01 0. -1.
        -11    1    1    2    0    0 -0.15387432561E+03  0.12420488511E+03 -0.64202166178E+03  0.67178566207E+03  0.00000000000E+00 0. -1.
         11    1    1    2    0    0  0.11905603493E+02  0.46828487338E+00 -0.45009498002E+02  0.46559828132E+02  0.00000000000E+00 0.  1.
</event>
<event>
 7    1  0.2670433E-009  0.3214187E+03  0.7561462E-02  0.1074998E+00
         -2   -1    0    0    0  501 -0.00000000000E+00  0.00000000000E+00  0.14776389004E+03  0.14776389004E+03  0.00000000000E+00 0. -1.
          2   -1    0    0  501    0  0.00000000000E+00 -0.00000000000E+00 -0.83625518190E+03  0.83625518190E+03  0.00000000000E+00 0.  1.
         25    2    1    2    0    0  0.98759167494E+02 -0.29441783775E+03 -0.52357989376E+03  0.62146432021E+03  0.12508700890E+03 0.  0.
          5    1    3    3  502    0  0.29642954913E+01 -0.13793044950E+03 -0.14191851465E+03  0.19796952580E+03  0.41800000000E+01 0.  1.
         -5    1    3    3    0  502  0.95794872003E+02 -0.15648738825E+03 -0.38166137912E+03  0.42349479441E+03  0.41800000000E+01 0.  1.
        -11    1    1    2    0    0  0.83283666176E+01  0.91179647091E+02 -0.63605311012E+02  0.11148419315E+03  0.00000000000E+00 0.  1.
         11    1    1    2    0    0 -0.10708753411E+03  0.20323819066E+03 -0.10130608709E+03  0.25107055858E+03  0.00000000000E+00 0. -1.
</event>
<event>
 7    1  0.2670433E-009  0.1217130E+03  0.7561462E-02  0.1240298E+00
          2   -1    0    0  501    0  0.00000000000E+00  0.00000000000E+00  0.49719526832E+03  0.49719526832E+03  0.00000000000E+00 0. -1.
         -2   -1    0    0    0  501 -0.00000000000E+00 -0.00000000000E+00 -0.33331630027E+02  0.33331630027E+02  0.00000000000E+00 0.  1.
         25    2    1    2    0    0 -0.41439589642E+02 -0.91693519086E+01  0.30531492769E+03  0.33266434089E+03  0.12508813703E+03 0.  0.
          5    1    3    3  502    0 -0.52756680494E+02 -0.59568082546E+02  0.20003967295E+03  0.21532525850E+03  0.41800000000E+01 0. -1.
         -5    1    3    3    0  502  0.11317090852E+02  0.50398730637E+02  0.10527525474E+03  0.11733908239E+03  0.41800000000E+01 0. -1.
        -11    1    1    2    0    0  0.20391795078E+02 -0.47380515609E+02  0.10585102501E+03  0.11775049071E+03  0.00000000000E+00 0. -1.
         11    1    1    2    0    0  0.21047794564E+02  0.56549867518E+02  0.52697685597E+02  0.80112066754E+02  0.00000000000E+00 0.  1.
</event>
<event>
 7    1  0.2670433E-009  0.1869544E+03  0.7561462E-02  0.1161237E+00
         -1   -1    0    0    0  501 -0.00000000000E+00  0.00000000000E+00  0.69999330730E+02  0.69999330730E+02  0.00000000000E+00 0.  1.
          1   -1    0    0  501    0  0.00000000000E+00 -0.00000000000E+00 -0.58865599278E+03  0.58865599278E+03  0.00000000000E+00 0. -1.
         25    2    1    2    0    0  0.10114754553E+03 -0.13411236188E+03 -0.32359654747E+03  0.38545912454E+03  0.12508820719E+03 0.  0.
          5    1    3    3  502    0  0.10856031863E+03 -0.47516991003E+02 -0.14938516766E+03  0.19072652655E+03  0.41800000000E+01 0. -1.
         -5    1    3    3    0  502 -0.74127730942E+01 -0.86595370877E+02 -0.17421137981E+03  0.19473259799E+03  0.41800000000E+01 0. -1.
        -11    1    1    2    0    0 -0.34116736907E+02  0.37111619919E+02 -0.65297535196E+01  0.50831700259E+02  0.00000000000E+00 0.  1.
         11    1    1    2    0    0 -0.67030808626E+02  0.97000741961E+02 -0.18853036106E+03  0.22236449871E+03  0.00000000000E+00 0. -1.
</event>
<event>
 7    1  0.2670433E-009  0.9902841E+02  0.7561462E-02  0.1282352E+00
          2   -1    0    0  501    0  0.00000000000E+00  0.00000000000E+00  0.37199282972E+03  0.37199282972E+03  0.00000000000E+00 0. -1.
         -2   -1    0    0    0  501 -0.00000000000E+00 -0.00000000000E+00 -0.73464570451E+02  0.73464570451E+02  0.00000000000E+00 0.  1.
         25    2    1    2    0    0  0.15385052506E+02  0.75814539680E+02  0.28959915774E+03  0.32480835874E+03  0.12509297933E+03 0.  0.
          5    1    3    3  502    0  0.43083624018E+01  0.27727081245E+02  0.27009785696E+03  0.27158364780E+03  0.41800000000E+01 0.  1.
         -5    1    3    3    0  502  0.11076690104E+02  0.48087458435E+02  0.19501300780E+02  0.53224710939E+02  0.41800000000E+01 0.  1.
        -11    1    1    2    0    0 -0.48151096105E+02 -0.13905681642E+02  0.67372939610E+01  0.50569626931E+02  0.00000000000E+00 0.  1.
         11    1    1    2    0    0  0.32766043599E+02 -0.61908858038E+02  0.21918075767E+01  0.70079414504E+02  0.00000000000E+00 0. -1.
</event>
<event>
 7    1  0.2670433E-009  0.1252051E+03  0.7561462E-02  0.1234749E+00
         -2   -1    0    0    0  501 -0.00000000000E+00  0.00000000000E+00  0.12958558337E+03  0.12958558337E+03  0.00000000000E+00 0.  1.
          2   -1    0    0  501    0  0.00000000000E+00 -0.00000000000E+00 -0.14777056773E+03  0.14777056773E+03  0.00000000000E+00 0. -1.
         25    2    1    2    0    0  0.68940530354E+02  0.12945000571E+02 -0.39435132960E+02  0.14874104402E+03  0.12509355978E+03 0.  0.
          5    1    3    3  502    0  0.93439470539E+02  0.31491422812E+02 -0.15088648871E+00  0.98692145240E+02  0.41800000000E+01 0. -1.
         -5    1    3    3    0  502 -0.24498940185E+02 -0.18546422240E+02 -0.39284246471E+02  0.50048898778E+02  0.41800000000E+01 0. -1.
        -11    1    1    2    0    0 -0.25293954166E+02 -0.54725015197E+02 -0.91499588335E+01  0.60978136675E+02  0.00000000000E+00 0.  1.
         11    1    1    2    0    0 -0.43646576188E+02  0.41780014626E+02  0.30400107433E+02  0.67636970416E+02  0.00000000000E+00 0. -1.
</event>
<event>
 7    1  0.2670433E-009  0.4623961E+02  0.7561462E-02  0.1466748E+00
          2   -1    0    0  501    0  0.00000000000E+00  0.00000000000E+00  0.41998920093E+02  0.41998920093E+02  0.00000000000E+00 0. -1.
         -2   -1    0    0    0  501 -0.00000000000E+00 -0.00000000000E+00 -0.28682832580E+03  0.28682832580E+03  0.00000000000E+00 0.  1.
         25    2    1    2    0    0  0.87993840700E+01 -0.17568364108E+02 -0.13358831363E+03  0.18405743737E+03  0.12508087838E+03 0.  0.
          5    1    3    3  502    0  0.27671085294E+02 -0.13190205085E+02 -0.15313043420E+03  0.15622443071E+03  0.41800000000E+01 0.  1.
         -5    1    3    3    0  502 -0.18871701224E+02 -0.43781590229E+01  0.19542120570E+02  0.27833006663E+02  0.41800000000E+01 0.  1.
        -11    1    1    2    0    0 -0.20090001977E+02 -0.86254843904E+00  0.94075741107E+01  0.22200329275E+02  0.00000000000E+00 0. -1.
         11    1    1    2    0    0  0.11290617907E+02  0.18430912547E+02 -0.12064866619E+03  0.12256947925E+03  0.00000000000E+00 0.  1.
</event>
<event>
 7    1  0.2670433E-009  0.1404971E+03  0.7561462E-02  0.1212662E+00
         -1   -1    0    0    0  501 -0.00000000000E+00  0.00000000000E+00  0.24604988010E+02  0.24604988010E+02  0.00000000000E+00 0.  1.
          1   -1    0    0  501    0  0.00000000000E+00 -0.00000000000E+00 -0.96752839818E+03  0.96752839818E+03  0.00000000000E+00 0. -1.
         25    2    1    2    0    0  0.36491457019E+01  0.10311760005E+03 -0.61375956913E+03  0.63481858761E+03  0.12508906734E+03 0.  0.
          5    1    3    3  502    0 -0.46754960325E+02  0.91106664878E+02 -0.48966688232E+03  0.50027750174E+03  0.41800000000E+01 0.  1.
         -5    1    3    3    0  502  0.50404106027E+02  0.12010935169E+02 -0.12409268681E+03  0.13454108587E+03  0.41800000000E+01 0.  1.
        -11    1    1    2    0    0  0.33693025052E+02 -0.33450435820E+02 -0.58482118919E+02  0.75328014888E+02  0.00000000000E+00 0.  1.
         11    1    1    2    0    0 -0.37342170754E+02 -0.69667164227E+02 -0.27068172212E+03  0.28198678369E+03  0.00000000000E+00 0. -1.
</event>
<event>
 7    1  0.2670433E-009  0.7816228E+02  0.7561462E-02  0.1334349E+00
         -1   -1    0    0    0  501 -0.00000000000E+00  0.00000000000E+00  0.19120463813E+03  0.19120463813E+03  0.00000000000E+00 0.  1.
          1   -1    0    0  501    0  0.00000000000E+00 -0.00000000000E+00 -0.76174093776E+02  0.76174093776E+02  0.00000000000E+00 0. -1.
         25    2    1    2    0    0  0.27087855780E+02 -0.27623645223E+02  0.10560386711E+03  0.16821818434E+03  0.12509341744E+03 0.  0.
          5    1    3    3  502    0  0.62909919923E+02 -0.14241537797E+02  0.10311588031E+02  0.65454416743E+02  0.41800000000E+01 0. -1.
         -5    1    3    3    0  502 -0.35822064143E+02 -0.13382107426E+02  0.95292279076E+02  0.10276376759E+03  0.41800000000E+01 0. -1.
        -11    1    1    2    0    0  0.78811187395E+01  0.13239861794E+02 -0.36530894914E+02  0.39647348665E+02  0.00000000000E+00 0. -1.
         11    1    1    2    0    0 -0.34968974520E+02  0.14383783428E+02  0.45957572161E+02  0.59513198902E+02  0.00000000000E+00 0.  1.
</event>
<event>
 7    1  0.2670433E-009  0.1974373E+03  0.7561462E-02  0.1151919E+00
         -1   -1    0    0    0  501 -0.00000000000E+00  0.00000000000E+00  0.68612696866E+02  0.68612696866E+02  0.00000000000E+00 0.  1.
          1   -1    0    0  501    0  0.00000000000E+00 -0.00000000000E+00 -0.63345353842E+03  0.63345353842E+03  0.00000000000E+00 0. -1.
         25    2    1    2    0    0  0.10439605629E+03  0.12741069400E+03 -0.40676349291E+03  0.45632891705E+03  0.12509004697E+03 0.  0.
          5    1    3    3  502    0  0.98875523252E+02  0.22265879530E+02 -0.20282934016E+03  0.22678040506E+03  0.41800000000E+01 0.  1.
         -5    1    3    3    0  502  0.55205330404E+01  0.10514481447E+03 -0.20393415275E+03  0.22954851198E+03  0.41800000000E+01 0.  1.
        -11    1    1    2    0    0  0.65525359546E+00 -0.66757424581E+02 -0.52702064012E+02  0.85055809003E+02  0.00000000000E+00 0.  1.
         11    1    1    2    0    0 -0.10505130989E+03 -0.60653269423E+02 -0.10537528463E+03  0.16068150924E+03  0.00000000000E+00 0. -1.
</event>
<event>
 7    1  0.2670433E-009  0.1369080E+03  0.7561462E-02  0.1217551E+00
          1   -1    0    0  501    0  0.00000000000E+00  0.00000000000E+00  0.89616929554E+02  0.89616929554E+02  0.00000000000E+00 0. -1.
         -1   -1    0    0    0  501 -0.00000000000E+00 -0.00000000000E+00 -0.23037982962E+03  0.23037982962E+03  0.00000000000E+00 0.  1.
         25    2    1    2    0    0 -0.35583631324E+01 -0.89918160072E+02 -0.91006318508E+02  0.17896944599E+03  0.12509986064E+03 0.  0.
          5    1    3    3  502    0  0.42963177133E+02 -0.96901182518E+02 -0.71179421037E+02  0.12774840955E+03  0.41800000000E+01 0.  1.
         -5    1    3    3    0  502 -0.46521540265E+02  0.69830224462E+01 -0.19826897471E+02  0.51221036445E+02  0.41800000000E+01 0.  1.
        -11    1    1    2    0    0  0.29175768231E+02  0.90290110549E+02 -0.12348761699E+02  0.95687101693E+02  0.00000000000E+00 0.  1.
         11    1    1    2    0    0 -0.25617405099E+02 -0.37195047707E+00 -0.37407819860E+02  0.45340211489E+02  0.00000000000E+00 0. -1.
</event>
<event>
 7    1  0.2670433E-009  0.1197240E+03  0.7561462E-02  0.1243553E+00
          2   -1    0    0  501    0  0.00000000000E+00  0.00000000000E+00  0.14729714645E+04  0.14729714645E+04  0.00000000000E+00 0. -1.
         -2   -1    0    0    0  501 -0.00000000000E+00 -0.00000000000E+00 -0.15075036567E+02  0.15075036567E+02  0.00000000000E+00 0.  1.
         25    2    1    2    0    0 -0.59875177735E+02  0.15446796392E+01  0.12050722546E+04  0.12130268484E+04  0.12509025967E+03 0.  0.
          5    1    3    3  502    0 -0.11132841867E+02 -0.58265666343E+02  0.42566892995E+03  0.42980267375E+03  0.41800000000E+01 0. -1.
         -5    1    3    3    0  502 -0.48742335868E+02  0.59810345982E+02  0.77940332466E+03  0.78322417461E+03  0.41800000000E+01 0. -1.
        -11    1    1    2    0    0  0.56755421258E+02 -0.36590000996E+02  0.12085766744E+03  0.13844342452E+03  0.00000000000E+00 0.  1.
         11    1    1    2    0    0  0.31197564777E+01  0.35045321357E+02  0.13196650586E+03  0.13657622816E+03  0.00000000000E+00 0. -1.
</event>
<event>
 7    1  0.2670433E-009  0.1120399E+03  0.7561462E-02  0.1256838E+00
         -1   -1    0    0    0  501 -0.00000000000E+00  0.00000000000E+00  0.90084028856E+02  0.90084028856E+02  0.00000000000E+00 0.  1.
          1   -1    0    0  501    0  0.00000000000E+00 -0.00000000000E+00 -0.33362531010E+03  0.33362531010E+03  0.00000000000E+00 0. -1.
         25    2    1    2    0    0 -0.10921266347E+02  0.24271205977E+02 -0.16289394811E+02  0.12892107928E+03  0.12508770843E+03 0.  0.
          5    1    3    3  502    0  0.58343595255E+00 -0.26673337218E+02  0.42385690885E+02  0.50257601492E+02  0.41800000000E+01 0.  1.
         -5    1    3    3    0  502 -0.11504702299E+02  0.50944543195E+02 -0.58675085696E+02  0.78663477789E+02  0.41800000000E+01 0.  1.
        -11    1    1    2    0    0  0.41813043063E+02 -0.74662588881E+02 -0.32954902441E+02  0.91699827391E+02  0.00000000000E+00 0.  1.
         11    1    1    2    0    0 -0.30891776717E+02  0.50391382904E+02 -0.19429698399E+03  0.20308843229E+03  0.00000000000E+00 0. -1.
</event>
<event>
 7    1  0.2670433E-009  0.1006479E+03  0.7561462E-02  0.1278939E+00
          1   -1    0    0  501    0  0.00000000000E+00  0.00000000000E+00  0.65166393879E+03  0.65166393879E+03  0.00000000000E+00 0. -1.
         -1   -1    0    0    0  501 -0.00000000000E+00 -0.00000000000E+00 -0.26122804798E+02  0.26122804798E+02  0.00000000000E+00 0.  1.
         25    2    1    2    0    0 -0.47331882295E+02 -0.31355231621E+02  0.23538353613E+03  0.27253699452E+03  0.12509015417E+03 0.  0.
          5    1    3    3  502    0 -0.78679762146E+02 -0.10786241928E+01  0.84981609835E+02  0.11589225518E+03  0.41800000000E+01 0. -1.
         -5    1    3    3    0  502  0.31347879850E+02 -0.30276607428E+02  0.15040192630E+03  0.15664473934E+03  0.41800000000E+01 0. -1.
        -11    1    1    2    0    0 -0.12215252898E+02  0.87357761208E+01  0.65402709619E+01  0.16379906351E+02  0.00000000000E+00 0.  1.
         11    1    1    2    0    0  0.59547135193E+02  0.22619455500E+02  0.38361732690E+03  0.38886984271E+03  0.00000000000E+00 0. -1.
</event>
<event>
 7    1  0.2670433E-009  0.1150661E+03  0.7561462E-02  0.1251466E+00
         -2   -1    0    0    0  501 -0.00000000000E+00  0.00000000000E+00  0.23576013418E+02  0.23576013418E+02  0.00000000000E+00 0.  1.
          2   -1    0    0  501    0  0.00000000000E+00 -0.00000000000E+00 -0.81095090559E+03  0.81095090559E+03  0.00000000000E+00 0. -1.
         25    2    1    2    0    0  0.35618039857E+02  0.43442453582E+02 -0.22499498306E+03  0.26348669656E+03  0.12508639143E+03 0.  0.
          5    1    3    3  502    0  0.76002409910E+02  0.48700966414E+02 -0.18674491585E+03  0.20745911992E+03  0.41800000000E+01 0. -1.
         -5    1    3    3    0  502 -0.40384370054E+02 -0.52585128319E+01 -0.38250067210E+02  0.56027576634E+02  0.41800000000E+01 0. -1.
        -11    1    1    2    0    0 -0.61711443201E+02 -0.23688903507E+02 -0.39459044213E+03  0.40008884437E+03  0.00000000000E+00 0. -1.
         11    1    1    2    0    0  0.26093403344E+02 -0.19753550075E+02 -0.16778946697E+03  0.17095137808E+03  0.00000000000E+00 0.  1.
</event>
<event>
 7    1  0.2670433E-009  0.1115472E+03  0.7561462E-02  0.1257731E+00
          1   -1    0    0  501    0  0.00000000000E+00  0.00000000000E+00  0.45041831239E+03  0.45041831239E+03  0.00000000000E+00 0. -1.
         -1   -1    0    0    0  501 -0.00000000000E+00 -0.00000000000E+00 -0.36398015981E+02  0.36398015981E+02  0.00000000000E+00 0.  1.
         25    2    1    2    0    0  0.24535091896E+02 -0.52658785220E+02  0.30133284665E+03  0.33139660139E+03  0.12508918636E+03 0.  0.
          5    1    3    3  502    0  0.98167536250E+01  0.38058913921E+02  0.49879349573E+02  0.63641743333E+02  0.41800000000E+01 0. -1.
         -5    1    3    3    0  502  0.14718338271E+02 -0.90717699140E+02  0.25145349708E+03  0.26775485805E+03  0.41800000000E+01 0. -1.
        -11    1    1    2    0    0 -0.24678205721E+02  0.70002391486E+02  0.47871782954E+02  0.88323588325E+02  0.00000000000E+00 0.  1.
         11    1    1    2    0    0  0.14311382463E+00 -0.17343606266E+02  0.64815666802E+02  0.67096138658E+02  0.00000000000E+00 0. -1.
</event>
<event>
 7    1  0.2670433E-009  0.9725577E+02  0.7561462E-02  0.1286175E+00
          2   -1    0    0  501    0  0.00000000000E+00  0.00000000000E+00  0.13090591996E+04  0.13090591996E+04  0.00000000000E+00 0.  1.
         -2   -1    0    0    0  501 -0.00000000000E+00 -0.00000000000E+00 -0.82015891622E+01  0.82015891622E+01  0.00000000000E+00 0. -1.
         25    2    1    2    0    0 -0.41840538552E+02 -0.34913292588E+02  0.10303551702E+04  0.10393506564E+04  0.12509373121E+03 0.  0.
          5    1    3    3  502    0 -0.73164687025E+02  0.15833681347E+02  0.49078665274E+03  0.49648040022E+03  0.41800000000E+01 0.  1.
         -5    1    3    3    0  502  0.31324148472E+02 -0.50746973935E+02  0.53956851742E+03  0.54287025616E+03  0.41800000000E+01 0.  1.
        -11    1    1    2    0    0  0.16001973378E+02 -0.38845776946E+00  0.36531241703E+02  0.39884153141E+02  0.00000000000E+00 0. -1.
         11    1    1    2    0    0  0.25838565175E+02  0.35301750358E+02  0.23397119858E+03  0.23802597924E+03  0.00000000000E+00 0.  1.
</event>
<event>
 7    1  0.2670433E-009  0.2517822E+03  0.7561462E-02  0.1112184E+00
          1   -1    0    0  501    0  0.00000000000E+00  0.00000000000E+00  0.17619755319E+03  0.17619755319E+03  0.00000000000E+00 0. -1.
         -1   -1    0    0    0  501 -0.00000000000E+00 -0.00000000000E+00 -0.48311279936E+03  0.48311279936E+03  0.00000000000E+00 0.  1.
         25    2    1    2    0    0 -0.78636825596E+02 -0.22041165014E+03 -0.28145113922E+01  0.26536722997E+03  0.12508716724E+03 0.  0.
          5    1    3    3  502    0 -0.65195450390E+02 -0.30270801206E+02  0.16069678812E+02  0.73773132876E+02  0.41800000000E+01 0.  1.
         -5    1    3    3    0  502 -0.13441375206E+02 -0.19014084893E+03 -0.18884190204E+02  0.19159409709E+03  0.41800000000E+01 0.  1.
        -11    1    1    2    0    0  0.84572966104E+02  0.16732393601E+03 -0.18490351522E+03  0.26332336793E+03  0.00000000000E+00 0.  1.
         11    1    1    2    0    0 -0.59361405078E+01  0.53087714129E+02 -0.11919721955E+03  0.13061975465E+03  0.00000000000E+00 0. -1.
</event>
<event>
 7    1  0.2670433E-009  0.1174460E+03  0.7561462E-02  0.1247371E+00
         -1   -1    0    0    0  501 -0.00000000000E+00  0.00000000000E+00  0.11841235740E+03  0.11841235740E+03  0.00000000000E+00 0.  1.
          1   -1    0    0  501    0  0.00000000000E+00 -0.00000000000E+00 -0.12021127876E+03  0.12021127876E+03  0.00000000000E+00 0. -1.
         25    2    1    2    0    0 -0.27190618207E+02 -0.23415950178E+02  0.10314193215E+02  0.13054470502E+03  0.12509157040E+03 0.  0.
          5    1    3    3  502    0 -0.74266151906E+02 -0.33233955325E+02  0.11391120985E+02  0.82262914748E+02  0.41800000000E+01 0.  1.
         -5    1    3    3    0  502  0.47075533700E+02  0.98180051470E+01 -0.10769277695E+01  0.48281790269E+02  0.41800000000E+01 0.  1.
        -11    1    1    2    0    0  0.23472681810E+02  0.62048909886E+02  0.30506083593E+01  0.66410392415E+02  0.00000000000E+00 0.  1.
         11    1    1    2    0    0  0.37179363965E+01 -0.38632959708E+02 -0.15163722929E+02  0.41668538730E+02  0.00000000000E+00 0. -1.
</event>
<event>
 7    1  0.2670433E-009  0.9336053E+02  0.7561462E-02  0.1294912E+00
          1   -1    0    0  501    0  0.00000000000E+00  0.00000000000E+00  0.28528036818E+03  0.28528036818E+03  0.00000000000E+00 0. -1.
         -1   -1    0    0    0  501 -0.00000000000E+00 -0.00000000000E+00 -0.67337377017E+02  0.67337377017E+02  0.00000000000E+00 0.  1.
         25    2    1    2    0    0 -0.47216321203E+02 -0.54533084736E+01  0.21316967933E+03  0.25168996802E+03  0.12508960091E+03 0.  0.
          5    1    3    3  502    0 -0.35371190168E+02 -0.54295603197E+02  0.17993156237E+03  0.19129028505E+03  0.41800000000E+01 0.  1.
         -5    1    3    3    0  502 -0.11845131035E+02  0.48842294724E+02  0.33238116964E+02  0.60399682966E+02  0.41800000000E+01 0.  1.
        -11    1    1    2    0    0 -0.79656150536E+01  0.13413985472E+02  0.34414092364E+02  0.37785126474E+02  0.00000000000E+00 0. -1.
         11    1    1    2    0    0  0.55181936256E+02 -0.79606769988E+01 -0.29640780531E+02  0.63142650703E+02  0.00000000000E+00 0.  1.
</event>
<event>
 7    1  0.2670433E-009  0.1160067E+03  0.7561462E-02  0.1249834E+00
          2   -1    0    0  501    0  0.00000000000E+00  0.00000000000E+00  0.19907243310E+02  0.19907243310E+02  0.00000000000E+00 0. -1.
         -2   -1    0    0    0  501 -0.00000000000E+00 -0.00000000000E+00 -0.75458579300E+03  0.75458579300E+03  0.00000000000E+00 0.  1.
         25    2    1    2    0    0  0.11873024562E+02  0.44753312807E+02 -0.33557746284E+03  0.36111508470E+03  0.12509213850E+03 0.  0.
          5    1    3    3  502    0  0.64905991269E+02  0.26267591668E+02 -0.24138658064E+03  0.25137169250E+03  0.41800000000E+01 0.  1.
         -5    1    3    3    0  502 -0.53032966708E+02  0.18485721140E+02 -0.94190882193E+02  0.10974339220E+03  0.41800000000E+01 0.  1.
        -11    1    1    2    0    0  0.41514614150E+01 -0.72977354152E+02 -0.31140360292E+03  0.31986736746E+03  0.00000000000E+00 0.  1.
         11    1    1    2    0    0 -0.16024485977E+02  0.28224041345E+02 -0.87697483929E+02  0.93510584150E+02  0.00000000000E+00 0. -1.
</event>
<event>
 7    1  0.2670433E-009  0.9352990E+02  0.7561462E-02  0.1294522E+00
         -4   -1    0    0    0  501 -0.00000000000E+00  0.00000000000E+00  0.64669126231E+02  0.64669126231E+02  0.00000000000E+00 0.  1.
          4   -1    0    0  501    0  0.00000000000E+00 -0.00000000000E+00 -0.19452465979E+03  0.19452465979E+03  0.00000000000E+00 0. -1.
         25    2    1    2    0    0 -0.62687119184E+01  0.93538473163E+01 -0.57718919272E+02  0.13822366929E+03  0.12509003918E+03 0.  0.
          5    1    3    3  502    0  0.45957925158E+01 -0.49969706766E+02 -0.59240526152E+02  0.77749631779E+02  0.41800000000E+01 0.  1.
         -5    1    3    3    0  502 -0.10864504434E+02  0.59323554082E+02  0.15216068801E+01  0.60474037512E+02  0.41800000000E+01 0.  1.
        -11    1    1    2    0    0  0.15113767414E+02  0.31240145828E+02  0.32883671718E+01  0.34859518577E+02  0.00000000000E+00 0.  1.
         11    1    1    2    0    0 -0.88450554952E+01 -0.40593993144E+02 -0.75424981463E+02  0.86110598156E+02  0.00000000000E+00 0. -1.
</event>
<event>
 7    1  0.2670433E-009  0.8203323E+02  0.7561462E-02  0.1323378E+00
          1   -1    0    0  501    0  0.00000000000E+00  0.00000000000E+00  0.28852567005E+02  0.28852567005E+02  0.00000000000E+00 0.  1.
         -1   -1    0    0    0  501 -0.00000000000E+00 -0.00000000000E+00 -0.28091011138E+03  0.28091011138E+03  0.00000000000E+00 0. -1.
         25    2    1    2    0    0  0.59800332957E+01  0.33416381141E+01 -0.20912110428E+03  0.24377784198E+03  0.12509625350E+03 0.  0.
          5    1    3    3  502    0 -0.47569399454E+02  0.38284114055E+02 -0.10164020080E+03  0.11864537063E+03  0.41800000000E+01 0. -1.
         -5    1    3    3    0  502  0.53549432750E+02 -0.34942475941E+02 -0.10748090348E+03  0.12513247135E+03  0.41800000000E+01 0. -1.
        -11    1    1    2    0    0  0.15564624520E+02 -0.67609485429E+01 -0.40651427686E+02  0.44051180853E+02  0.00000000000E+00 0.  1.
         11    1    1    2    0    0 -0.21544657816E+02  0.34193104288E+01 -0.22850124080E+01  0.21933655553E+02  0.00000000000E+00 0. -1.
</event>
<event>
 7    1  0.2670433E-009  0.1924717E+03  0.7561462E-02  0.1156251E+00
          1   -1    0    0  501    0  0.00000000000E+00  0.00000000000E+00  0.32046095502E+03  0.32046095502E+03  0.00000000000E+00 0. -1.
         -1   -1    0    0    0  501 -0.00000000000E+00 -0.00000000000E+00 -0.12987986796E+03  0.12987986796E+03  0.00000000000E+00 0.  1.
         25    2    1    2    0    0  0.76205276367E+02  0.15369999686E+03  0.97520282676E+02  0.23363466449E+03  0.12507604781E+03 0.  0.
          5    1    3    3  502    0  0.67346405885E+02  0.10370633609E+02  0.37976776579E+02  0.78120396737E+02  0.41800000000E+01 0. -1.
         -5    1    3    3    0  502  0.88588704822E+01  0.14332936325E+03  0.59543506097E+02  0.15551426775E+03  0.41800000000E+01 0. -1.
        -11    1    1    2    0    0 -0.26799678160E+02 -0.79259766554E+02  0.95963072248E+02  0.12731553157E+03  0.00000000000E+00 0. -1.
         11    1    1    2    0    0 -0.49405598207E+02 -0.74440230304E+02 -0.29022678616E+01  0.89390626918E+02  0.00000000000E+00 0.  1.
</event>
<event>
 7    1  0.2670433E-009  0.8576622E+02  0.7561462E-02  0.1313441E+00
          2   -1    0    0  501    0  0.00000000000E+00  0.00000000000E+00  0.94964747087E+03  0.94964747087E+03  0.00000000000E+00 0. -1.
         -2   -1    0    0    0  501 -0.00000000000E+00 -0.00000000000E+00 -0.13900724842E+02  0.13900724842E+02  0.00000000000E+00 0.  1.
         25    2    1    2    0    0  0.55568497660E+01  0.67636118496E+01  0.66894368470E+03  0.68059534808E+03  0.12509096496E+03 0.  0.
          5    1    3    3  502    0  0.22333918428E+02 -0.40391970847E+02  0.54347425703E+03  0.54544665704E+03  0.41800000000E+01 0.  1.
         -5    1    3    3    0  502 -0.16777068662E+02  0.47155582696E+02  0.12546942767E+03  0.13514869105E+03  0.41800000000E+01 0.  1.
        -11    1    1    2    0    0  0.29666924497E+02 -0.21645751563E+02  0.45991348045E+02  0.58854643528E+02  0.00000000000E+00 0.  1.
         11    1    1    2    0    0 -0.35223774263E+02  0.14882139714E+02  0.22081171329E+03  0.22409820410E+03  0.00000000000E+00 0. -1.
</event>
<event>
 7    1  0.2670433E-009  0.1559851E+03  0.7561462E-02  0.1193306E+00
         -1   -1    0    0    0  501 -0.00000000000E+00  0.00000000000E+00  0.71804397307E+02  0.71804397307E+02  0.00000000000E+00 0.  1.
          1   -1    0    0  501    0  0.00000000000E+00 -0.00000000000E+00 -0.43983150636E+03  0.43983150636E+03  0.00000000000E+00 0. -1.
         25    2    1    2    0    0  0.48343310939E+02  0.10456200032E+03 -0.78922639835E+02  0.18747455712E+03  0.12509052268E+03 0.  0.
          5    1    3    3  502    0  0.66882744135E+02  0.12377699447E+03 -0.76856752122E+02  0.16036981813E+03  0.41800000000E+01 0. -1.
         -5    1    3    3    0  502 -0.18539433196E+02 -0.19214994147E+02 -0.20658877131E+01  0.27104738983E+02  0.41800000000E+01 0. -1.
        -11    1    1    2    0    0  0.16759779796E+02 -0.66924750923E+02 -0.10914391675E+03  0.12912090098E+03  0.00000000000E+00 0.  1.
         11    1    1    2    0    0 -0.65103090736E+02 -0.37637249396E+02 -0.17996055247E+03  0.19504044557E+03  0.00000000000E+00 0. -1.
</event>
<event>
 7    1  0.2670433E-009  0.1040766E+03  0.7561462E-02  0.1271950E+00
         -2   -1    0    0    0  501 -0.00000000000E+00  0.00000000000E+00  0.87809413316E+03  0.87809413316E+03  0.00000000000E+00 0.  1.
          2   -1    0    0  501    0  0.00000000000E+00 -0.00000000000E+00 -0.20530719123E+02  0.20530719123E+02  0.00000000000E+00 0. -1.
         25    2    1    2    0    0  0.46908498515E+02  0.44326025437E+02  0.62944653188E+03  0.64499198672E+03  0.12508606106E+03 0.  0.
          5    1    3    3  502    0  0.63067644635E+02  0.79629065908E+02  0.46150234651E+03  0.47256767153E+03  0.41800000000E+01 0.  1.
         -5    1    3    3    0  502 -0.16159146120E+02 -0.35303040470E+02  0.16794418537E+03  0.17242431519E+03  0.41800000000E+01 0.  1.
        -11    1    1    2    0    0 -0.40139200716E+02 -0.25804070691E+02  0.22897468647E+03  0.23389401989E+03  0.00000000000E+00 0. -1.
         11    1    1    2    0    0 -0.67692977990E+01 -0.18521954746E+02 -0.85780431071E+00  0.19738845674E+02  0.00000000000E+00 0.  1.
</event>
<event>
 7    1  0.2670433E-009  0.8184565E+02  0.7561462E-02  0.1323894E+00
          1   -1    0    0  501    0  0.00000000000E+00  0.00000000000E+00  0.12161414838E+03  0.12161414838E+03  0.00000000000E+00 0. -1.
         -1   -1    0    0    0  501 -0.00000000000E+00 -0.00000000000E+00 -0.11925744915E+03  0.11925744915E+03  0.00000000000E+00 0.  1.
         25    2    1    2    0    0  0.15502700346E+02  0.47936295832E+02 -0.11156802617E+02  0.13530536093E+03  0.12507935192E+03 0.  0.
          5    1    3    3  502    0 -0.11412345362E+01  0.59569208373E+02 -0.58511403087E+02  0.83611301232E+02  0.41800000000E+01 0.  1.
         -5    1    3    3    0  502  0.16643934882E+02 -0.11632912541E+02  0.47354600469E+02  0.51694059699E+02  0.41800000000E+01 0.  1.
        -11    1    1    2    0    0 -0.35858929391E+02 -0.51310208510E+02  0.38245180743E+02  0.73357304779E+02  0.00000000000E+00 0. -1.
         11    1    1    2    0    0  0.20356229045E+02  0.33739126775E+01 -0.24731678904E+02  0.32208931822E+02  0.00000000000E+00 0.  1.
</event>
<event>
 7    1  0.2670433E-009  0.7985085E+02  0.7561462E-02  0.1329475E+00
         -1   -1    0    0    0  501 -0.00000000000E+00  0.00000000000E+00  0.61746322565E+02  0.61746322565E+02  0.00000000000E+00 0.  1.
          1   -1    0    0  501    0  0.00000000000E+00 -0.00000000000E+00 -0.23218357455E+03  0.23218357455E+03  0.00000000000E+00 0. -1.
         25    2    1    2    0    0 -0.45771916805E+02 -0.37714895286E+01 -0.94415022920E+02  0.16331431708E+03  0.12509227438E+03 0.  0.
          5    1    3    3  502    0  0.10448267078E+02  0.10954750423E+02  0.25525402140E+02  0.29969841444E+02  0.41800000000E+01 0. -1.
         -5    1    3    3    0  502 -0.56220183882E+02 -0.14726239952E+02 -0.11994042506E+03  0.13334447564E+03  0.41800000000E+01 0. -1.
        -11    1    1    2    0    0 -0.10213967964E+02 -0.21880396858E+02  0.88823614126E+01  0.25728840870E+02  0.00000000000E+00 0.  1.
         11    1    1    2    0    0  0.55985884769E+02  0.25651886387E+02 -0.84904590478E+02  0.10488673917E+03  0.00000000000E+00 0. -1.
</event>
<event>
 7    1  0.2670433E-009  0.8838028E+02  0.7561462E-02  0.1306822E+00
          1   -1    0    0  501    0  0.00000000000E+00  0.00000000000E+00  0.18064497107E+03  0.18064497107E+03  0.00000000000E+00 0. -1.
         -1   -1    0    0    0  501 -0.00000000000E+00 -0.00000000000E+00 -0.84070302715E+02  0.84070302715E+02  0.00000000000E+00 0.  1.
         25    2    1    2    0    0  0.17207731863E+02 -0.49859998271E+02  0.82998087985E+02  0.15911636590E+03  0.12508880775E+03 0.  0.
          5    1    3    3  502    0  0.37177299226E+02 -0.35773953447E+02  0.11053992543E+03  0.12205930868E+03  0.41800000000E+01 0. -1.
         -5    1    3    3    0  502 -0.19969567363E+02 -0.14086044824E+02 -0.27541837442E+02  0.37057057211E+02  0.41800000000E+01 0. -1.
        -11    1    1    2    0    0  0.34740026140E+02  0.16422597758E+02 -0.96143011893E+01  0.39610679376E+02  0.00000000000E+00 0.  1.
         11    1    1    2    0    0 -0.51947758002E+02  0.33437400513E+02  0.23190881554E+02  0.65988228509E+02  0.00000000000E+00 0. -1.
</event>
<event>
 7    1  0.2670433E-009  0.1128117E+03  0.7561462E-02  0.1255450E+00
          1   -1    0    0  501    0  0.00000000000E+00  0.00000000000E+00  0.22807624757E+03  0.22807624757E+03  0.00000000000E+00 0. -1.
         -1   -1    0    0    0  501 -0.00000000000E+00 -0.00000000000E+00 -0.66659136221E+02  0.66659136221E+02  0.00000000000E+00 0.  1.
         25    2    1    2    0    0  0.61595905146E+01 -0.41191700337E+02  0.13294694705E+03  0.18723586895E+03  0.12509069973E+03 0.  0.
          5    1    3    3  502    0  0.60233016199E+02 -0.25935110736E+02  0.10616026932E+03  0.12485239842E+03  0.41800000000E+01 0. -1.
         -5    1    3    3    0  502 -0.54073425685E+02 -0.15256589601E+02  0.26786677731E+02  0.62383470531E+02  0.41800000000E+01 0. -1.
        -11    1    1    2    0    0 -0.50393309385E+02  0.17185570091E+02  0.16870485630E+02  0.55851971635E+02  0.00000000000E+00 0.  1.
         11    1    1    2    0    0  0.44233718870E+02  0.24006130246E+02  0.11599678675E+02  0.51647543212E+02  0.00000000000E+00 0. -1.
</event>
<event>
 7    1  0.2670433E-009  0.8484821E+02  0.7561462E-02  0.1315830E+00
         -2   -1    0    0    0  501 -0.00000000000E+00  0.00000000000E+00  0.55811434609E+02  0.55811434609E+02  0.00000000000E+00 0.  1.
          2   -1    0    0  501    0  0.00000000000E+00 -0.00000000000E+00 -0.24342990256E+03  0.24342990256E+03  0.00000000000E+00 0. -1.
         25    2    1    2    0    0 -0.68556192694E+00 -0.44357932541E+02 -0.11878278964E+03  0.17811587860E+03  0.12509124237E+03 0.  0.
          5    1    3    3  502    0  0.28833086664E+02 -0.33689451895E+02  0.98728227274E+01  0.45620950058E+02  0.41800000000E+01 0.  1.
         -5    1    3    3    0  502 -0.29518648591E+02 -0.10668480647E+02 -0.12865561237E+03  0.13249492854E+03  0.41800000000E+01 0.  1.
        -11    1    1    2    0    0 -0.39788728809E+02  0.11665373283E+02 -0.10131411928E+02  0.42683361884E+02  0.00000000000E+00 0.  1.
         11    1    1    2    0    0  0.40474290736E+02  0.32692559258E+02 -0.58704266376E+02  0.78442096684E+02  0.00000000000E+00 0. -1.
</event>
<event>
 7    1  0.2670433E-009  0.8472635E+02  0.7561462E-02  0.1316150E+00
          1   -1    0    0  501    0  0.00000000000E+00  0.00000000000E+00  0.97923255564E+02  0.97923255564E+02  0.00000000000E+00 0. -1.
         -1   -1    0    0    0  501 -0.00000000000E+00 -0.00000000000E+00 -0.18239539601E+03  0.18239539601E+03  0.00000000000E+00 0.  1.
         25    2    1    2    0    0 -0.24938796186E+02 -0.63359800893E+02 -0.60494241972E+01  0.14255174889E+03  0.12509195679E+03 0.  0.
          5    1    3    3  502    0  0.60505084072E+00 -0.73071665835E+02 -0.51400321857E+02  0.89438805456E+02  0.41800000000E+01 0.  1.
         -5    1    3    3    0  502 -0.25543847027E+02  0.97118649423E+01  0.45350897660E+02  0.53112943433E+02  0.41800000000E+01 0.  1.
        -11    1    1    2    0    0  0.82796753106E+01  0.11694876828E+02  0.20451110247E+02  0.24971405199E+02  0.00000000000E+00 0. -1.
         11    1    1    2    0    0  0.16659120876E+02  0.51664924065E+02 -0.98873826495E+02  0.11279549748E+03  0.00000000000E+00 0.  1.
</event>
<event>
 7    1  0.2700084E-009  0.1069266E+03  0.7561462E-02  0.1266369E+00
         -2   -1    0    0    0  501 -0.00000000000E+00  0.00000000000E+00  0.12311937440E+02  0.12311937440E+02  0.00000000000E+00 0.  1.
          2   -1    0    0  501    0  0.00000000000E+00 -0.00000000000E+00 -0.13822301170E+04  0.13822301170E+04  0.00000000000E+00 0. -1.
         25    2    1    2    0    0  0.36532873013E+02 -0.54219291249E+02 -0.92228875502E+03  0.93302659493E+03  0.12509075447E+03 0.  0.
          5    1    3    3  502    0  0.63253929142E+02 -0.43674789879E+02 -0.28912478730E+03  0.29919752983E+03  0.41800000000E+01 0. -1.
         -5    1    3    3    0  502 -0.26721056129E+02 -0.10544501370E+02 -0.63316396771E+03  0.63382906510E+03  0.41800000000E+01 0. -1.
        -11    1    1    2    0    0 -0.40285438666E+02 -0.11596333528E+02 -0.24118639832E+03  0.24480251276E+03  0.00000000000E+00 0. -1.
         11    1    1    2    0    0  0.37525656525E+01  0.65815624777E+02 -0.20644302621E+03  0.21671294674E+03  0.00000000000E+00 0.  1.
</event>
<event>
 7    1  0.2670433E-009  0.1303754E+03  0.7561462E-02  0.1226900E+00
          1   -1    0    0  501    0  0.00000000000E+00  0.00000000000E+00  0.20051277837E+03  0.20051277837E+03  0.00000000000E+00 0. -1.
         -1   -1    0    0    0  501 -0.00000000000E+00 -0.00000000000E+00 -0.10645938581E+03  0.10645938581E+03  0.00000000000E+00 0.  1.
         25    2    1    2    0    0  0.16156895662E+02  0.87059427898E+02  0.40895925445E+01  0.15331267125E+03  0.12509061170E+03 0.  0.
          5    1    3    3  502    0  0.48796567397E+02  0.99648986425E+02 -0.16883972451E+02  0.11231013494E+03  0.41800000000E+01 0. -1.
         -5    1    3    3    0  502 -0.32639671735E+02 -0.12589558527E+02  0.20973564996E+02  0.41002536305E+02  0.41800000000E+01 0. -1.
        -11    1    1    2    0    0  0.20205348815E+02 -0.74632235258E-01  0.44748024533E+02  0.49098344069E+02  0.00000000000E+00 0. -1.
         11    1    1    2    0    0 -0.36362244478E+02 -0.86984795663E+02  0.45215775479E+02  0.10456114887E+03  0.00000000000E+00 0.  1.
</event>
<event>
 7    1  0.2670433E-009  0.1049253E+03  0.7561462E-02  0.1270267E+00
          1   -1    0    0  501    0  0.00000000000E+00  0.00000000000E+00  0.18520858793E+03  0.18520858793E+03  0.00000000000E+00 0. -1.
         -1   -1    0    0    0  501 -0.00000000000E+00 -0.00000000000E+00 -0.73040978993E+02  0.73040978993E+02  0.00000000000E+00 0.  1.
         25    2    1    2    0    0  0.61611221946E+01  0.24088512682E+02  0.93669966006E+02  0.15825116170E+03  0.12510456338E+03 0.  0.
          5    1    3    3  502    0 -0.36151881076E+02  0.59471251015E+02  0.36491054831E+02  0.78694711927E+02  0.41800000000E+01 0.  1.
         -5    1    3    3    0  502  0.42313003270E+02 -0.35382738332E+02  0.57178911175E+02  0.79556449775E+02  0.41800000000E+01 0.  1.
        -11    1    1    2    0    0 -0.38978908124E+02  0.70054949103E+01  0.34009577483E+02  0.52202333262E+02  0.00000000000E+00 0. -1.
         11    1    1    2    0    0  0.32817785929E+02 -0.31094007593E+02 -0.15511934550E+02  0.47796071961E+02  0.00000000000E+00 0.  1.
</event>
<event>
 7    1  0.2670433E-009  0.1839142E+03  0.7561462E-02  0.1164068E+00
         -1   -1    0    0    0  501 -0.00000000000E+00  0.00000000000E+00  0.35157224580E+03  0.35157224580E+03  0.00000000000E+00 0. -1.
          1   -1    0    0  501    0  0.00000000000E+00 -0.00000000000E+00 -0.10125149666E+03  0.10125149666E+03  0.00000000000E+00 0.  1.
         25    2    1    2    0    0  0.11188201343E+03 -0.10314907256E+03  0.94718396132E+02  0.21857965253E+03  0.12509266100E+03 0.  0.
          5    1    3    3  502    0  0.43944817233E+02 -0.11911070697E+03  0.63477573710E+02  0.14200486696E+03  0.41800000000E+01 0. -1.
         -5    1    3    3    0  502  0.67937196197E+02  0.15961634404E+02  0.31240822422E+02  0.76574785573E+02  0.41800000000E+01 0. -1.
        -11    1    1    2    0    0 -0.97850964338E+01  0.58743660311E+02  0.79720912711E+02  0.99508741638E+02  0.00000000000E+00 0. -1.
         11    1    1    2    0    0 -0.10209691700E+03  0.44405412250E+02  0.75881440298E+02  0.13473534829E+03  0.00000000000E+00 0.  1.
</event>
<event>
 7    1  0.2670433E-009  0.8384359E+02  0.7561462E-02  0.1318485E+00
          1   -1    0    0  501    0  0.00000000000E+00  0.00000000000E+00  0.17090696113E+03  0.17090696113E+03  0.00000000000E+00 0. -1.
         -1   -1    0    0    0  501 -0.00000000000E+00 -0.00000000000E+00 -0.93924541921E+02  0.93924541921E+02  0.00000000000E+00 0.  1.
         25    2    1    2    0    0  0.36974849436E+01 -0.14401510981E+02 -0.21315771035E+02  0.12776134444E+03  0.12509006405E+03 0.  0.
          5    1    3    3  502    0  0.28308083968E+02 -0.62022254081E+02 -0.27513924539E+02  0.73638278516E+02  0.41800000000E+01 0. -1.
         -5    1    3    3    0  502 -0.24610599025E+02  0.47620743100E+02  0.61981535036E+01  0.54123065920E+02  0.41800000000E+01 0. -1.
        -11    1    1    2    0    0  0.19445541201E+02  0.10647045925E+02  0.10904722130E+03  0.11127796337E+03  0.00000000000E+00 0. -1.
         11    1    1    2    0    0 -0.23143026144E+02  0.37544650560E+01 -0.10749031052E+02  0.25792195245E+02  0.00000000000E+00 0.  1.
</event>
<event>
 7    1  0.2670433E-009  0.1204410E+03  0.7561462E-02  0.1242371E+00
          1   -1    0    0  501    0  0.00000000000E+00  0.00000000000E+00  0.31854264353E+02  0.31854264353E+02  0.00000000000E+00 0. -1.
         -1   -1    0    0    0  501 -0.00000000000E+00 -0.00000000000E+00 -0.48101170226E+03  0.48101170226E+03  0.00000000000E+00 0.  1.
         25    2    1    2    0    0  0.56216297307E+02 -0.13566575515E+01 -0.28314847392E+03  0.31461454823E+03  0.12508854092E+03 0.  0.
          5    1    3    3  502    0 -0.40230333289E+02  0.19359195177E+01 -0.79431359276E+02  0.89157393061E+02  0.41800000000E+01 0. -1.
         -5    1    3    3    0  502  0.96446630596E+02 -0.32925770691E+01 -0.20371711465E+03  0.22545715517E+03  0.41800000000E+01 0. -1.
        -11    1    1    2    0    0 -0.41752585358E+02  0.42865361166E+02 -0.12285161721E+03  0.13665005460E+03  0.00000000000E+00 0.  1.
         11    1    1    2    0    0 -0.14463711949E+02 -0.41508703615E+02 -0.43157346779E+02  0.61601363785E+02  0.00000000000E+00 0. -1.
</event>
<event>
 7    1  0.2670433E-009  0.1992421E+03  0.7561462E-02  0.1150380E+00
          2   -1    0    0  501    0  0.00000000000E+00  0.00000000000E+00  0.54471507752E+03  0.54471507752E+03  0.00000000000E+00 0. -1.
         -2   -1    0    0    0  501 -0.00000000000E+00 -0.00000000000E+00 -0.94313908537E+02  0.94313908537E+02  0.00000000000E+00 0.  1.
         25    2    1    2    0    0  0.80244192515E+02 -0.17365601502E+03  0.16031983528E+03  0.27918752305E+03  0.12509069295E+03 0.  0.
          5    1    3    3  502    0  0.66182324284E+02 -0.17296032649E+03  0.87431606584E+02  0.20483440340E+03  0.41800000000E+01 0.  1.
         -5    1    3    3    0  502  0.14061868230E+02 -0.69568852770E+00  0.72888228691E+02  0.74353119655E+02  0.41800000000E+01 0.  1.
        -11    1    1    2    0    0 -0.55918155541E+02  0.58748806785E+02  0.57933548959E+02  0.99672255481E+02  0.00000000000E+00 0.  1.
         11    1    1    2    0    0 -0.24326036974E+02  0.11490720823E+03  0.23214778475E+03  0.26016920752E+03  0.00000000000E+00 0. -1.
</event>
<event>
 7    1  0.2670433E-009  0.9545005E+02  0.7561462E-02  0.1290166E+00
          3   -1    0    0  501    0  0.00000000000E+00  0.00000000000E+00  0.11850958181E+03  0.11850958181E+03  0.00000000000E+00 0. -1.
         -3   -1    0    0    0  501 -0.00000000000E+00 -0.00000000000E+00 -0.10320600402E+03  0.10320600402E+03  0.00000000000E+00 0.  1.
         25    2    1    2    0    0 -0.38335360013E+02 -0.88127486994E+01  0.46098317993E+02  0.13899457897E+03  0.12508866334E+03 0.  0.
          5    1    3    3  502    0  0.38967231221E+02  0.79170366297E+01  0.44434175998E+02  0.59774517770E+02  0.41800000000E+01 0.  1.
         -5    1    3    3    0  502 -0.77302591234E+02 -0.16729785329E+02  0.16641419954E+01  0.79220061204E+02  0.41800000000E+01 0.  1.
        -11    1    1    2    0    0 -0.12794076799E+01  0.27768985901E+02 -0.26816067091E+02  0.38624537748E+02  0.00000000000E+00 0.  1.
         11    1    1    2    0    0  0.39614767693E+02 -0.18956237202E+02 -0.39786731184E+01  0.44096469110E+02  0.00000000000E+00 0. -1.
</event>
<event>
 7    1  0.2670433E-009  0.1264577E+03  0.7561462E-02  0.1232809E+00
          1   -1    0    0  501    0  0.00000000000E+00  0.00000000000E+00  0.54883981127E+03  0.54883981127E+03  0.00000000000E+00 0. -1.
         -1   -1    0    0    0  501 -0.00000000000E+00 -0.00000000000E+00 -0.42862284449E+02  0.42862284449E+02  0.00000000000E+00 0.  1.
         25    2    1    2    0    0 -0.62028872249E+02 -0.88165234111E+02  0.23294566142E+03  0.28554154846E+03  0.12509838217E+03 0.  0.
          5    1    3    3  502    0 -0.30421141897E+02 -0.28923520405E+01  0.17484173605E+03  0.17754130967E+03  0.41800000000E+01 0. -1.
         -5    1    3    3    0  502 -0.31607730352E+02 -0.85272882071E+02  0.58103925378E+02  0.10800023879E+03  0.41800000000E+01 0. -1.
        -11    1    1    2    0    0 -0.86316653252E+00  0.63456630948E+02  0.83063765236E+02  0.10453266553E+03  0.00000000000E+00 0.  1.
         11    1    1    2    0    0  0.62892038781E+02  0.24708603163E+02  0.18996810016E+03  0.20162788173E+03  0.00000000000E+00 0. -1.
</event>
<event>
 7    1  0.2670433E-009  0.1433260E+03  0.7561462E-02  0.1208922E+00
          1   -1    0    0  501    0  0.00000000000E+00  0.00000000000E+00  0.11438408605E+03  0.11438408605E+03  0.00000000000E+00 0. -1.
         -1   -1    0    0    0  501 -0.00000000000E+00 -0.00000000000E+00 -0.20685297641E+03  0.20685297641E+03  0.00000000000E+00 0.  1.
         25    2    1    2    0    0  0.42596235783E+02 -0.98374290731E+02 -0.71154739841E+02  0.17944045935E+03  0.12507574133E+03 0.  0.
          5    1    3    3  502    0  0.13430607320E+02 -0.12198057578E+03 -0.36261458876E+02  0.12803127696E+03  0.41800000000E+01 0. -1.
         -5    1    3    3    0  502  0.29165628463E+02  0.23606285048E+02 -0.34893280965E+02  0.51409182389E+02  0.41800000000E+01 0. -1.
        -11    1    1    2    0    0 -0.34804274857E+02  0.84072612365E+01 -0.35458564552E+02  0.50391759146E+02  0.00000000000E+00 0.  1.
         11    1    1    2    0    0 -0.77919609266E+01  0.89967029495E+02  0.14144414037E+02  0.91404843962E+02  0.00000000000E+00 0. -1.
</event>
<event>
 7    1  0.2670433E-009  0.1451433E+03  0.7561462E-02  0.1206571E+00
          2   -1    0    0  501    0  0.00000000000E+00  0.00000000000E+00  0.15454190753E+04  0.15454190753E+04  0.00000000000E+00 0. -1.
         -2   -1    0    0    0  501 -0.00000000000E+00 -0.00000000000E+00 -0.23855632321E+02  0.23855632321E+02  0.00000000000E+00 0.  1.
         25    2    1    2    0    0 -0.69372172154E+02  0.12290870611E+03  0.11011347484E+04  0.11171677652E+04  0.12508810182E+03 0.  0.
          5    1    3    3  502    0  0.64096276451E+01  0.15041531493E+02  0.13626239115E+02  0.21690499963E+02  0.41800000000E+01 0.  1.
         -5    1    3    3    0  502 -0.75781799799E+02  0.10786717461E+03  0.10875085093E+04  0.10954772653E+04  0.41800000000E+01 0.  1.
        -11    1    1    2    0    0  0.23063575686E+02 -0.51215914862E+02  0.29560497633E+03  0.30089416825E+03  0.00000000000E+00 0. -1.
         11    1    1    2    0    0  0.46308596468E+02 -0.71692791244E+02  0.12482371820E+03  0.15121277409E+03  0.00000000000E+00 0.  1.
</event>
<event>
 7    1  0.2670433E-009  0.6593699E+02  0.7561462E-02  0.1374481E+00
         -3   -1    0    0    0  501 -0.00000000000E+00  0.00000000000E+00  0.44601700529E+02  0.44601700529E+02  0.00000000000E+00 0.  1.
          3   -1    0    0  501    0  0.00000000000E+00 -0.00000000000E+00 -0.30438521146E+03  0.30438521146E+03  0.00000000000E+00 0. -1.
         25    2    1    2    0    0 -0.88459163605E+01  0.53254998312E+01 -0.20773771802E+03  0.24271088902E+03  0.12508798895E+03 0.  0.
          5    1    3    3  502    0  0.20896877597E+02 -0.27430604785E+02 -0.19268222124E+03  0.19578822323E+03  0.41800000000E+01 0. -1.
         -5    1    3    3    0  502 -0.29742793957E+02  0.32756104616E+02 -0.15055496771E+02  0.46922665792E+02  0.41800000000E+01 0. -1.
        -11    1    1    2    0    0 -0.96304099109E+01  0.19500815578E+02 -0.68046111207E+02  0.71437384146E+02  0.00000000000E+00 0. -1.
         11    1    1    2    0    0  0.18476326271E+02 -0.24826315409E+02  0.16000318293E+02  0.34838638819E+02  0.00000000000E+00 0.  1.
</event>
<event>
 7    1  0.2670433E-009  0.1518929E+03  0.7561462E-02  0.1198166E+00
         -2   -1    0    0    0  501 -0.00000000000E+00  0.00000000000E+00  0.16559386367E+02  0.16559386367E+02  0.00000000000E+00 0. -1.
          2   -1    0    0  501    0  0.00000000000E+00 -0.00000000000E+00 -0.14124744932E+04  0.14124744932E+04  0.00000000000E+00 0.  1.
         25    2    1    2    0    0  0.26706396477E+02  0.10450913160E+03 -0.71500611236E+03  0.73383691804E+03  0.12508993310E+03 0.  0.
          5    1    3    3  502    0  0.29534888663E+01 -0.28680675615E+02 -0.15412870069E+03  0.15685800275E+03  0.41800000000E+01 0.  1.
         -5    1    3    3    0  502  0.23752907610E+02  0.13318980722E+03 -0.56087741167E+03  0.57697891529E+03  0.41800000000E+01 0.  1.
        -11    1    1    2    0    0 -0.15782542297E+02  0.13508478036E+02 -0.76122453805E+02  0.78906245592E+02  0.00000000000E+00 0. -1.
         11    1    1    2    0    0 -0.10923854180E+02 -0.11801760964E+03 -0.60478654066E+03  0.61629071593E+03  0.00000000000E+00 0.  1.
</event>
<event>
 7    1  0.2670433E-009  0.9436006E+02  0.7561462E-02  0.1292624E+00
          1   -1    0    0  501    0  0.00000000000E+00  0.00000000000E+00  0.38655448799E+02  0.38655448799E+02  0.00000000000E+00 0. -1.
         -1   -1    0    0    0  501 -0.00000000000E+00 -0.00000000000E+00 -0.36245345371E+03  0.36245345371E+03  0.00000000000E+00 0.  1.
         25    2    1    2    0    0 -0.23284043955E+02  0.36421445252E+02 -0.14650571491E+03  0.19743529432E+03  0.12509237614E+03 0.  0.
          5    1    3    3  502    0 -0.41146105873E+02  0.50998730896E+02 -0.15817284830E+03  0.17126002137E+03  0.41800000000E+01 0.  1.
         -5    1    3    3    0  502  0.17862061918E+02 -0.14577285644E+02  0.11667133389E+02  0.26175272955E+02  0.41800000000E+01 0.  1.
        -11    1    1    2    0    0  0.38781711533E+02  0.18207668033E+02 -0.87625482698E+02  0.97538533630E+02  0.00000000000E+00 0.  1.
         11    1    1    2    0    0 -0.15497667578E+02 -0.54629113284E+02 -0.89666807310E+02  0.10613507456E+03  0.00000000000E+00 0. -1.
</event>
<event>
 7    1  0.2670433E-009  0.2356345E+03  0.7561462E-02  0.1122736E+00
          2   -1    0    0  501    0  0.00000000000E+00  0.00000000000E+00  0.53673554936E+03  0.53673554936E+03  0.00000000000E+00 0. -1.
         -2   -1    0    0    0  501 -0.00000000000E+00 -0.00000000000E+00 -0.12802834423E+03  0.12802834423E+03  0.00000000000E+00 0.  1.
         25    2    1    2    0    0  0.21545476915E+03  0.64404970209E+02  0.10928407104E+03  0.27956957298E+03  0.12508948883E+03 0.  0.
          5    1    3    3  502    0  0.17509646149E+03  0.29332605931E+02  0.24529567091E+02  0.17927170624E+03  0.41800000000E+01 0. -1.
         -5    1    3    3    0  502  0.40358307668E+02  0.35072364277E+02  0.84754503950E+02  0.10029786675E+03  0.41800000000E+01 0. -1.
        -11    1    1    2    0    0 -0.15392876727E+03 -0.42237244205E+01  0.21653326632E+03  0.26570389659E+03  0.00000000000E+00 0. -1.
         11    1    1    2    0    0 -0.61526001882E+02 -0.60181245788E+02  0.82889867769E+02  0.11949042401E+03  0.00000000000E+00 0.  1.
</event>
<event>
 7    1  0.2670433E-009  0.9988559E+02  0.7561462E-02  0.1280537E+00
         -2   -1    0    0    0  501 -0.00000000000E+00  0.00000000000E+00  0.72171655861E+02  0.72171655861E+02  0.00000000000E+00 0.  1.
          2   -1    0    0  501    0  0.00000000000E+00 -0.00000000000E+00 -0.23074573919E+03  0.23074573919E+03  0.00000000000E+00 0. -1.
         25    2    1    2    0    0 -0.66936412969E+02  0.23222295167E+01 -0.66858040411E+02  0.15685904703E+03  0.12509551125E+03 0.  0.
          5    1    3    3  502    0 -0.52839991045E+02  0.26072629915E+02  0.22520068223E+02  0.63217660168E+02  0.41800000000E+01 0.  1.
         -5    1    3    3    0  502 -0.14096421924E+02 -0.23750400398E+02 -0.89378108634E+02  0.93641386860E+02  0.41800000000E+01 0.  1.
        -11    1    1    2    0    0  0.80300719772E+02  0.23519829628E+02 -0.59639602391E+02  0.10275344352E+03  0.00000000000E+00 0.  1.
         11    1    1    2    0    0 -0.13364306803E+02 -0.25842059145E+02 -0.32076440525E+02  0.43304904502E+02  0.00000000000E+00 0. -1.
</event>
<event>
 7    1  0.2794819E-009  0.1079072E+03  0.7561462E-02  0.1264495E+00
          3   -1    0    0  501    0  0.00000000000E+00  0.00000000000E+00  0.67155894098E+02  0.67155894098E+02  0.00000000000E+00 0. -1.
         -3   -1    0    0    0  501 -0.00000000000E+00 -0.00000000000E+00 -0.29586773678E+03  0.29586773678E+03  0.00000000000E+00 0.  1.
         25    2    1    2    0    0  0.73437193221E+02  0.31816142186E+02 -0.17789487779E+03  0.23173203413E+03  0.12509140596E+03 0.  0.
          5    1    3    3  502    0  0.88607190139E+01 -0.38401673377E+02 -0.10304448216E+03  0.11040307316E+03  0.41800000000E+01 0. -1.
         -5    1    3    3    0  502  0.64576474207E+02  0.70217815563E+02 -0.74850395624E+02  0.12132896096E+03  0.41800000000E+01 0. -1.
        -11    1    1    2    0    0 -0.47155507479E+02 -0.14962477666E+02  0.20414016537E+02  0.53518685472E+02  0.00000000000E+00 0. -1.
         11    1    1    2    0    0 -0.26281685742E+02 -0.16853664520E+02 -0.71230981431E+02  0.77772911279E+02  0.00000000000E+00 0.  1.
</event>
<event>
 7    1  0.2670433E-009  0.8188600E+02  0.7561462E-02  0.1323783E+00
         -1   -1    0    0    0  501 -0.00000000000E+00  0.00000000000E+00  0.29804669215E+02  0.29804669215E+02  0.00000000000E+00 0.  1.
          1   -1    0    0  501    0  0.00000000000E+00 -0.00000000000E+00 -0.42577368987E+03  0.42577368987E+03  0.00000000000E+00 0. -1.
         25    2    1    2    0    0  0.50679281931E+02  0.16107100924E+02 -0.27548016092E+03  0.30718823200E+03  0.12508981775E+03 0.  0.
          5    1    3    3  502    0 -0.24384921080E+02  0.19105398076E+02 -0.19312317256E+03  0.19563658347E+03  0.41800000000E+01 0.  1.
         -5    1    3    3    0  502  0.75064203011E+02 -0.29982971517E+01 -0.82356988361E+02  0.11155164854E+03  0.41800000000E+01 0.  1.
        -11    1    1    2    0    0 -0.12268758392E+02 -0.14269282439E+02  0.29966866073E+01  0.19055576202E+02  0.00000000000E+00 0.  1.
         11    1    1    2    0    0 -0.38410523540E+02 -0.18378184853E+01 -0.12348554635E+03  0.12933455088E+03  0.00000000000E+00 0. -1.
</event>
<event>
 7    1  0.2670433E-009  0.9264835E+02  0.7561462E-02  0.1296562E+00
          1   -1    0    0  501    0  0.00000000000E+00  0.00000000000E+00  0.51548200555E+02  0.51548200555E+02  0.00000000000E+00 0. -1.
         -1   -1    0    0    0  501 -0.00000000000E+00 -0.00000000000E+00 -0.34017215914E+03  0.34017215914E+03  0.00000000000E+00 0.  1.
         25    2    1    2    0    0  0.25529788094E+02  0.50853199740E+02 -0.86587979668E+02  0.16243527452E+03  0.12509964901E+03 0.  0.
          5    1    3    3  502    0  0.25077135599E+01  0.84508108100E+02 -0.87080254432E+02  0.12144279342E+03  0.41800000000E+01 0.  1.
         -5    1    3    3    0  502  0.23022074534E+02 -0.33654908360E+02  0.49227476398E+00  0.40992481104E+02  0.41800000000E+01 0.  1.
        -11    1    1    2    0    0 -0.14981749081E+02 -0.11417100634E+02  0.39896272687E+01  0.19254093543E+02  0.00000000000E+00 0. -1.
         11    1    1    2    0    0 -0.10548039013E+02 -0.39436099106E+02 -0.20602560619E+03  0.21003099163E+03  0.00000000000E+00 0.  1.
</event>
<event>
 7    1  0.2730318E-009  0.1074427E+03  0.7561462E-02  0.1265380E+00
         -2   -1    0    0    0  501 -0.00000000000E+00  0.00000000000E+00  0.61026300930E+02  0.61026300930E+02  0.00000000000E+00 0.  1.
          2   -1    0    0  501    0  0.00000000000E+00 -0.00000000000E+00 -0.26746742211E+03  0.26746742211E+03  0.00000000000E+00 0. -1.
         25    2    1    2    0    0  0.39219470094E+02 -0.64968692384E+01 -0.45401550662E+02  0.13888663726E+03  0.12509125094E+03 0.  0.
          5    1    3    3  502    0 -0.11652910778E+02  0.46719988426E+02 -0.43651243551E+02  0.65126424066E+02  0.41800000000E+01 0.  1.
         -5    1    3    3    0  502  0.50872380872E+02 -0.53216857664E+02 -0.17503071110E+01  0.73760213193E+02  0.41800000000E+01 0.  1.
        -11    1    1    2    0    0  0.56259937442E+01  0.37740461476E+02 -0.33219448093E+02  0.50591757922E+02  0.00000000000E+00 0.  1.
         11    1    1    2    0    0 -0.44845463838E+02 -0.31243592238E+02 -0.12782012242E+03  0.13901532785E+03  0.00000000000E+00 0. -1.
</event>
<event>
 7    1  0.2670433E-009  0.1287224E+03  0.7561462E-02  0.1229364E+00
         -1   -1    0    0    0  501 -0.00000000000E+00  0.00000000000E+00  0.56233057972E+02  0.56233057972E+02  0.00000000000E+00 0.  1.
          1   -1    0    0  501    0  0.00000000000E+00 -0.00000000000E+00 -0.43118810350E+03  0.43118810350E+03  0.00000000000E+00 0. -1.
         25    2    1    2    0    0  0.20642711687E+02  0.78049170688E+02 -0.82810557506E+02  0.17036200156E+03  0.12509128087E+03 0.  0.
          5    1    3    3  502    0  0.65948400864E+02  0.21767556461E+02 -0.14971927818E+02  0.71166348181E+02  0.41800000000E+01 0.  1.
         -5    1    3    3    0  502 -0.45305689177E+02  0.56281614228E+02 -0.67838629688E+02  0.99195653382E+02  0.41800000000E+01 0.  1.
        -11    1    1    2    0    0  0.30594630911E+02 -0.45389832811E+02 -0.19447874862E+03  0.20203527421E+03  0.00000000000E+00 0.  1.
         11    1    1    2    0    0 -0.51237342598E+02 -0.32659337878E+02 -0.97665739408E+02  0.11502388570E+03  0.00000000000E+00 0. -1.
</event>
<event>
 7    1  0.2670433E-009  0.9243079E+02  0.7561462E-02  0.1297070E+00
          1   -1    0    0  501    0  0.00000000000E+00  0.00000000000E+00  0.61069259534E+02  0.61069259534E+02  0.00000000000E+00 0. -1.
         -1   -1    0    0    0  501 -0.00000000000E+00 -0.00000000000E+00 -0.21734945298E+03  0.21734945298E+03  0.00000000000E+00 0.  1.
         25    2    1    2    0    0 -0.15016438799E+02 -0.30801456915E+02 -0.10075341917E+03  0.16423118805E+03  0.12508560457E+03 0.  0.
          5    1    3    3  502    0 -0.19731117974E+02  0.40586852109E+02 -0.75855277069E+02  0.88363482501E+02  0.41800000000E+01 0.  1.
         -5    1    3    3    0  502  0.47146791751E+01 -0.71388309023E+02 -0.24898142099E+02  0.75867705547E+02  0.41800000000E+01 0.  1.
        -11    1    1    2    0    0 -0.10003559377E+02  0.39988230765E+02 -0.71920847874E+02  0.82895947783E+02  0.00000000000E+00 0.  1.
         11    1    1    2    0    0  0.25019998176E+02 -0.91867738504E+01  0.16394073593E+02  0.31291576686E+02  0.00000000000E+00 0. -1.
</event>
<event>
 7    1  0.2670433E-009  0.8035275E+02  0.7561462E-02  0.1328053E+00
         -4   -1    0    0    0  501 -0.00000000000E+00  0.00000000000E+00  0.17451330453E+03  0.17451330453E+03  0.00000000000E+00 0.  1.
          4   -1    0    0  501    0  0.00000000000E+00 -0.00000000000E+00 -0.95903598039E+02  0.95903598039E+02  0.00000000000E+00 0. -1.
         25    2    1    2    0    0 -0.64340178586E+02 -0.75821720266E+01  0.69682599968E+02  0.15716999268E+03  0.12509833711E+03 0.  0.
          5    1    3    3  502    0 -0.39865891908E+02 -0.66835825905E+01 -0.32484299727E+02  0.52025587384E+02  0.41800000000E+01 0. -1.
         -5    1    3    3    0  502 -0.24474286677E+02 -0.89858943608E+00  0.10216689970E+03  0.10514440529E+03  0.41800000000E+01 0. -1.
        -11    1    1    2    0    0  0.76268150583E+02  0.19119318065E+02  0.31945914690E+02  0.84870021692E+02  0.00000000000E+00 0.  1.
         11    1    1    2    0    0 -0.11927971998E+02 -0.11537146038E+02 -0.23018808165E+02  0.28376888202E+02  0.00000000000E+00 0. -1.
</event>
<event>
 7    1  0.2670433E-009  0.8795775E+02  0.7561462E-02  0.1307874E+00
         -2   -1    0    0    0  501 -0.00000000000E+00  0.00000000000E+00  0.98574506014E+02  0.98574506014E+02  0.00000000000E+00 0. -1.
          2   -1    0    0  501    0  0.00000000000E+00 -0.00000000000E+00 -0.14808335469E+03  0.14808335469E+03  0.00000000000E+00 0.  1.
         25    2    1    2    0    0 -0.63764141502E+01  0.27102960356E+02 -0.74704943264E+02  0.14833772570E+03  0.12509205891E+03 0.  0.
          5    1    3    3  502    0 -0.41092073551E+02  0.12120904164E+02 -0.95665813790E+02  0.10490421896E+03  0.41800000000E+01 0. -1.
         -5    1    3    3    0  502  0.34715659401E+02  0.14982056192E+02  0.20960870526E+02  0.43433506750E+02  0.41800000000E+01 0. -1.
        -11    1    1    2    0    0  0.47305020589E+02 -0.25791285233E+02  0.17529958175E+02  0.56659110481E+02  0.00000000000E+00 0.  1.
         11    1    1    2    0    0 -0.40928606439E+02 -0.13116751229E+01  0.76661364106E+01  0.41661024521E+02  0.00000000000E+00 0. -1.
</event>
<event>
 7    1  0.2670433E-009  0.9418836E+02  0.7561462E-02  0.1293015E+00
          2   -1    0    0  501    0  0.00000000000E+00  0.00000000000E+00  0.18230016023E+03  0.18230016023E+03  0.00000000000E+00 0. -1.
         -2   -1    0    0    0  501 -0.00000000000E+00 -0.00000000000E+00 -0.91112764371E+02  0.91112764371E+02  0.00000000000E+00 0.  1.
         25    2    1    2    0    0 -0.56469242590E+02  0.32814279824E+02  0.81354874806E+02  0.16287824064E+03  0.12508058722E+03 0.  0.
          5    1    3    3  502    0 -0.54013236823E+02  0.61182246417E+00 -0.18967716635E+02  0.57402532637E+02  0.41800000000E+01 0. -1.
         -5    1    3    3    0  502 -0.24560057671E+01  0.32202457360E+02  0.10032259144E+03  0.10547570800E+03  0.41800000000E+01 0. -1.
        -11    1    1    2    0    0 -0.11084667378E+02 -0.32223431623E+02 -0.16707351582E+02  0.37952009081E+02  0.00000000000E+00 0. -1.
         11    1    1    2    0    0  0.67553909967E+02 -0.59084820169E+00  0.26539872631E+02  0.72582674880E+02  0.00000000000E+00 0.  1.
</event>
<event>
 7    1  0.2670433E-009  0.1033759E+03  0.7561462E-02  0.1273353E+00
          2   -1    0    0  501    0  0.00000000000E+00  0.00000000000E+00  0.11174149600E+03  0.11174149600E+03  0.00000000000E+00 0.  1.
         -2   -1    0    0    0  501 -0.00000000000E+00 -0.00000000000E+00 -0.23803388173E+03  0.23803388173E+03  0.00000000000E+00 0. -1.
         25    2    1    2    0    0 -0.22764546931E+02  0.32734338736E+02  0.39491061139E+02  0.13710095163E+03  0.12508943000E+03 0.  0.
          5    1    3    3  502    0 -0.66697160285E+02  0.12611454493E+02 -0.88993335272E+01  0.68587393242E+02  0.41800000000E+01 0.  1.
         -5    1    3    3    0  502  0.43932613354E+02  0.20122884242E+02  0.48390394667E+02  0.68513558383E+02  0.41800000000E+01 0.  1.
        -11    1    1    2    0    0 -0.10541617813E+02  0.23007557355E+02  0.84924362998E+01  0.26694472759E+02  0.00000000000E+00 0.  1.
         11    1    1    2    0    0  0.33306164744E+02 -0.55741896091E+02 -0.17427588317E+03  0.18597995334E+03  0.00000000000E+00 0. -1.
</event>
<event>
 7    1  0.2670433E-009  0.1354575E+03  0.7561462E-02  0.1219575E+00
          2   -1    0    0  501    0  0.00000000000E+00  0.00000000000E+00  0.15770359954E+04  0.15770359954E+04  0.00000000000E+00 0. -1.
         -2   -1    0    0    0  501 -0.00000000000E+00 -0.00000000000E+00 -0.14385369362E+02  0.14385369362E+02  0.00000000000E+00 0.  1.
         25    2    1    2    0    0  0.10240341441E+03  0.80200419897E+01  0.96110859655E+03  0.97464373165E+03  0.12509951607E+03 0.  0.
          5    1    3    3  502    0 -0.10227746599E+02  0.18609811480E+02  0.47638447994E+03  0.47687585073E+03  0.41800000000E+01 0.  1.
         -5    1    3    3    0  502  0.11263116101E+03 -0.10589769491E+02  0.48472411661E+03  0.49776788092E+03  0.41800000000E+01 0.  1.
        -11    1    1    2    0    0 -0.29108584630E+02 -0.45292439389E+02  0.22291638630E+03  0.22932603438E+03  0.00000000000E+00 0. -1.
         11    1    1    2    0    0 -0.73294829777E+02  0.37272397400E+02  0.37862564323E+03  0.38745159877E+03  0.00000000000E+00 0.  1.
</event>
<event>
 7    1  0.2670433E-009  0.1073901E+03  0.7561462E-02  0.1265481E+00
         -1   -1    0    0    0  501 -0.00000000000E+00  0.00000000000E+00  0.27360050991E+03  0.27360050991E+03  0.00000000000E+00 0.  1.
          1   -1    0    0  501    0  0.00000000000E+00 -0.00000000000E+00 -0.91888324754E+02  0.91888324754E+02  0.00000000000E+00 0. -1.
         25    2    1    2    0    0 -0.26626360125E+02  0.42664096276E+02  0.21819226374E+03  0.25648572699E+03  0.12509147065E+03 0.  0.
          5    1    3    3  502    0  0.29452321298E+01  0.79551891739E+02  0.17504777934E+03  0.19234441849E+03  0.41800000000E+01 0.  1.
         -5    1    3    3    0  502 -0.29571592255E+02 -0.36887795463E+02  0.43144484401E+02  0.64141308506E+02  0.41800000000E+01 0.  1.
        -11    1    1    2    0    0 -0.21190197417E+02 -0.32371427428E+02  0.11625522788E+02  0.40399091083E+02  0.00000000000E+00 0.  1.
         11    1    1    2    0    0  0.47816557542E+02 -0.10292668848E+02 -0.48105601378E+02  0.68604016582E+02  0.00000000000E+00 0. -1.
</event>
<event>
 7    1  0.2670433E-009  0.9486664E+02  0.7561462E-02  0.1291477E+00
         -3   -1    0    0    0  501 -0.00000000000E+00  0.00000000000E+00  0.93363333721E+02  0.93363333721E+02  0.00000000000E+00 0.  1.
          3   -1    0    0  501    0  0.00000000000E+00 -0.00000000000E+00 -0.14961289369E+03  0.14961289369E+03  0.00000000000E+00 0. -1.
         25    2    1    2    0    0 -0.29992191840E+02  0.37111359489E+02 -0.27495991911E+02  0.13667227037E+03  0.12508595182E+03 0.  0.
          5    1    3    3  502    0 -0.32905103931E+01 -0.41637008584E+02 -0.32763901109E+02  0.53248601468E+02  0.41800000000E+01 0. -1.
         -5    1    3    3    0  502 -0.26701681447E+02  0.78748368073E+02  0.52679091981E+01  0.83423668905E+02  0.41800000000E+01 0. -1.
        -11    1    1    2    0    0  0.50825758561E+01  0.99953619784E+01 -0.48269873523E+02  0.49555227054E+02  0.00000000000E+00 0. -1.
         11    1    1    2    0    0  0.24909615984E+02 -0.47106721467E+02  0.19516305464E+02  0.56748729984E+02  0.00000000000E+00 0.  1.
</event>
<event>
 7    1  0.3136148E-009  0.1767562E+03  0.7561462E-02  0.1170980E+00
          2   -1    0    0  501    0  0.00000000000E+00  0.00000000000E+00  0.12429194433E+04  0.12429194433E+04  0.00000000000E+00 0. -1.
         -2   -1    0    0    0  501 -0.00000000000E+00 -0.00000000000E+00 -0.32288396840E+02  0.32288396840E+02  0.00000000000E+00 0.  1.
         25    2    1    2    0    0  0.15741755441E+03 -0.48301778655E+02  0.73666150730E+03  0.76513427887E+03  0.12508772965E+03 0.  0.
          5    1    3    3  502    0  0.77615736089E+02  0.85292517314E+01  0.13902605473E+03  0.15950757636E+03  0.41800000000E+01 0.  1.
         -5    1    3    3    0  502  0.79801818319E+02 -0.56831030386E+02  0.59763545257E+03  0.60562670251E+03  0.41800000000E+01 0.  1.
        -11    1    1    2    0    0 -0.76688295322E+02 -0.10473351799E+02  0.29652761679E+03  0.30646274366E+03  0.00000000000E+00 0. -1.
         11    1    1    2    0    0 -0.80729259086E+02  0.58775130454E+02  0.17744192242E+03  0.20361081765E+03  0.00000000000E+00 0.  1.
</event>
<event>
 7    1  0.2670433E-009  0.1060970E+03  0.7561462E-02  0.1267973E+00
         -1   -1    0    0    0  501 -0.00000000000E+00  0.00000000000E+00  0.45464888970E+02  0.45464888970E+02  0.00000000000E+00 0.  1.
          1   -1    0    0  501    0  0.00000000000E+00 -0.00000000000E+00 -0.32782173496E+03  0.32782173496E+03  0.00000000000E+00 0. -1.
         25    2    1    2    0    0 -0.27835670569E+02  0.82293480633E+01 -0.23862515366E+03  0.27098280113E+03  0.12508863987E+03 0.  0.
          5    1    3    3  502    0 -0.62380463547E+02  0.40072558060E+02 -0.18619887489E+03  0.20046103250E+03  0.41800000000E+01 0.  1.
         -5    1    3    3    0  502  0.34544792978E+02 -0.31843209997E+02 -0.52426278773E+02  0.70521768631E+02  0.41800000000E+01 0.  1.
        -11    1    1    2    0    0  0.20657634181E+02 -0.46998309822E+02 -0.34366655290E+02  0.61779009153E+02  0.00000000000E+00 0.  1.
         11    1    1    2    0    0  0.71780363876E+01  0.38768961758E+02 -0.93650370385E+01  0.40524813645E+02  0.00000000000E+00 0. -1.
</event>
<event>
 7    1  0.2670433E-009  0.1155874E+03  0.7561462E-02  0.1250559E+00
          1   -1    0    0  501    0  0.00000000000E+00  0.00000000000E+00  0.12115575228E+03  0.12115575228E+03  0.00000000000E+00 0. -1.
         -1   -1    0    0    0  501 -0.00000000000E+00 -0.00000000000E+00 -0.13398989261E+03  0.13398989261E+03  0.00000000000E+00 0.  1.
         25    2    1    2    0    0  0.31584721650E+02 -0.35978571004E+02  0.39606122421E+02  0.13967070668E+03  0.12508880509E+03 0.  0.
          5    1    3    3  502    0 -0.18097525470E+02 -0.70222874183E+02  0.29247015597E+02  0.78304743203E+02  0.41800000000E+01 0.  1.
         -5    1    3    3    0  502  0.49682247120E+02  0.34244303180E+02  0.10359106824E+02  0.61365963477E+02  0.41800000000E+01 0.  1.
        -11    1    1    2    0    0 -0.60442219313E+02  0.14718541400E+02 -0.15726353998E+02  0.64165532387E+02  0.00000000000E+00 0. -1.
         11    1    1    2    0    0  0.28857497662E+02  0.21260029603E+02 -0.36713908754E+02  0.51309405824E+02  0.00000000000E+00 0.  1.
</event>
<event>
 7    1  0.2670433E-009  0.1454225E+03  0.7561462E-02  0.1206213E+00
          2   -1    0    0  501    0  0.00000000000E+00  0.00000000000E+00  0.16674833379E+04  0.16674833379E+04  0.00000000000E+00 0. -1.
         -2   -1    0    0    0  501 -0.00000000000E+00 -0.00000000000E+00 -0.14885609960E+02  0.14885609960E+02  0.00000000000E+00 0.  1.
         25    2    1    2    0    0 -0.31097028627E+02  0.10602396113E+03  0.10393265246E+04  0.10526427789E+04  0.12509632171E+03 0.  0.
          5    1    3    3  502    0 -0.21840454287E+00  0.11550057401E+03  0.95937861266E+03  0.96631528246E+03  0.41800000000E+01 0. -1.
         -5    1    3    3    0  502 -0.30878624084E+02 -0.94766128729E+01  0.79947911951E+02  0.86327496444E+02  0.41800000000E+01 0. -1.
        -11    1    1    2    0    0  0.28567035437E+01  0.16610840318E+02  0.59914162235E+02  0.62239759058E+02  0.00000000000E+00 0.  1.
         11    1    1    2    0    0  0.28240325083E+02 -0.12263480145E+03  0.55335704114E+03  0.56748640994E+03  0.00000000000E+00 0. -1.
</event>
<event>
 7    1  0.2670433E-009  0.9788542E+02  0.7561462E-02  0.1284807E+00
          1   -1    0    0  501    0  0.00000000000E+00  0.00000000000E+00  0.71820617008E+03  0.71820617008E+03  0.00000000000E+00 0. -1.
         -1   -1    0    0    0  501 -0.00000000000E+00 -0.00000000000E+00 -0.18289016630E+02  0.18289016630E+02  0.00000000000E+00 0.  1.
         25    2    1    2    0    0 -0.79337569272E+00 -0.30797881725E+02  0.45476237821E+03  0.47265999265E+03  0.12509799782E+03 0.  0.
          5    1    3    3  502    0 -0.39294107916E+02  0.23539301971E+02  0.82416320757E+02  0.94382455898E+02  0.41800000000E+01 0.  1.
         -5    1    3    3    0  502  0.38500732224E+02 -0.54337183697E+02  0.37234605745E+03  0.37827753676E+03  0.41800000000E+01 0.  1.
        -11    1    1    2    0    0  0.34479152337E+02 -0.38888290606E+01  0.39512091103E+02  0.52584601175E+02  0.00000000000E+00 0.  1.
         11    1    1    2    0    0 -0.33685776645E+02  0.34686710786E+02  0.20564268414E+03  0.21125059288E+03  0.00000000000E+00 0. -1.
</event>
<event>
 7    1  0.2670433E-009  0.1283244E+03  0.7561462E-02  0.1229963E+00
         -1   -1    0    0    0  501 -0.00000000000E+00  0.00000000000E+00  0.92554043485E+02  0.92554043485E+02  0.00000000000E+00 0.  1.
          1   -1    0    0  501    0  0.00000000000E+00 -0.00000000000E+00 -0.21198146319E+03  0.21198146319E+03  0.00000000000E+00 0. -1.
         25    2    1    2    0    0  0.73366522298E+02  0.44908548765E+02 -0.49149833439E+02  0.15956824504E+03  0.12508754674E+03 0.  0.
          5    1    3    3  502    0 -0.31724275100E+02  0.19378983942E+02  0.63423972851E+01  0.37943023767E+02  0.41800000000E+01 0.  1.
         -5    1    3    3    0  502  0.10509079740E+03  0.25529564823E+02 -0.55492230724E+02  0.12162522127E+03  0.41800000000E+01 0.  1.
        -11    1    1    2    0    0  0.12511541940E+02 -0.16185567580E+02 -0.47313269107E+02  0.51546645994E+02  0.00000000000E+00 0. -1.
         11    1    1    2    0    0 -0.85878064238E+02 -0.28722981184E+02 -0.22964317161E+02  0.93420615648E+02  0.00000000000E+00 0.  1.
</event>
<event>
 7    1  0.2670433E-009  0.1039228E+03  0.7561462E-02  0.1272257E+00
         -2   -1    0    0    0  501 -0.00000000000E+00  0.00000000000E+00  0.10320588126E+02  0.10320588126E+02  0.00000000000E+00 0. -1.
          2   -1    0    0  501    0  0.00000000000E+00 -0.00000000000E+00 -0.13661414974E+04  0.13661414974E+04  0.00000000000E+00 0.  1.
         25    2    1    2    0    0  0.39501779956E+02 -0.21210146560E+02 -0.89410503832E+03  0.90392592535E+03  0.12509195827E+03 0.  0.
          5    1    3    3  502    0  0.63472539355E+02  0.13673655838E+02 -0.76982618751E+03  0.77257074983E+03  0.41800000000E+01 0.  1.
         -5    1    3    3    0  502 -0.23970759399E+02 -0.34883802398E+02 -0.12427885081E+03  0.13135517552E+03  0.41800000000E+01 0.  1.
        -11    1    1    2    0    0 -0.28804359941E+02 -0.33686079979E+02 -0.18640923993E+03  0.19160597034E+03  0.00000000000E+00 0.  1.
         11    1    1    2    0    0 -0.10697420015E+02  0.54896226539E+02 -0.27530663104E+03  0.28093018986E+03  0.00000000000E+00 0. -1.
</event>
<event>
 7    1  0.2670433E-009  0.9738003E+02  0.7561462E-02  0.1285904E+00
         -1   -1    0    0    0  501 -0.00000000000E+00  0.00000000000E+00  0.15949950517E+02  0.15949950517E+02  0.00000000000E+00 0.  1.
          1   -1    0    0  501    0  0.00000000000E+00 -0.00000000000E+00 -0.10706864978E+04  0.10706864978E+04  0.00000000000E+00 0. -1.
         25    2    1    2    0    0 -0.28094608497E+02 -0.23835279076E+02 -0.83432710480E+03  0.84445626539E+03  0.12508892357E+03 0.  0.
          5    1    3    3  502    0 -0.25033954910E+02 -0.73179409418E+02 -0.59658650579E+03  0.60159359717E+03  0.41800000000E+01 0.  1.
         -5    1    3    3    0  502 -0.30606535874E+01  0.49344130342E+02 -0.23774059900E+03  0.24286266822E+03  0.41800000000E+01 0.  1.
        -11    1    1    2    0    0  0.40635027702E+02 -0.13635705125E+00 -0.20883982511E+03  0.21275642557E+03  0.00000000000E+00 0. -1.
         11    1    1    2    0    0 -0.12540419205E+02  0.23971636127E+02 -0.11569617420E+02  0.29423757403E+02  0.00000000000E+00 0.  1.
</event>
<event>
 7    1  0.2670433E-009  0.1897629E+03  0.7561462E-02  0.1158675E+00
          1   -1    0    0  501    0  0.00000000000E+00  0.00000000000E+00  0.48525895545E+02  0.48525895545E+02  0.00000000000E+00 0. -1.
         -1   -1    0    0    0  501 -0.00000000000E+00 -0.00000000000E+00 -0.84098523839E+03  0.84098523839E+03  0.00000000000E+00 0.  1.
         25    2    1    2    0    0  0.14314903998E+03 -0.85203546915E+02 -0.49097378819E+03  0.53334237782E+03  0.12509012446E+03 0.  0.
          5    1    3    3  502    0  0.12498343036E+03 -0.10755746279E+03 -0.32104393929E+03  0.36093787419E+03  0.41800000000E+01 0. -1.
         -5    1    3    3    0  502  0.18165609620E+02  0.22353915870E+02 -0.16992984890E+03  0.17240450364E+03  0.41800000000E+01 0. -1.
        -11    1    1    2    0    0 -0.76934892748E+02 -0.79447962066E+00 -0.16277155727E+03  0.18003940895E+03  0.00000000000E+00 0.  1.
         11    1    1    2    0    0 -0.66214147228E+02  0.85998026536E+02 -0.13871399739E+03  0.17612934716E+03  0.00000000000E+00 0. -1.
</event>
<event>
 7    1  0.2670433E-009  0.2970218E+03  0.7561462E-02  0.1086739E+00
         -1   -1    0    0    0  501 -0.00000000000E+00  0.00000000000E+00  0.10224808697E+03  0.10224808697E+03  0.00000000000E+00 0.  1.
          1   -1    0    0  501    0  0.00000000000E+00 -0.00000000000E+00 -0.94615723240E+03  0.94615723240E+03  0.00000000000E+00 0. -1.
         25    2    1    2    0    0 -0.23308038120E+03  0.16816503137E+03 -0.45428759044E+03  0.55193427065E+03  0.12509309501E+03 0.  0.
          5    1    3    3  502    0 -0.23563229349E+02 -0.13792408813E+02 -0.12758292690E+02  0.30425363607E+02  0.41800000000E+01 0. -1.
         -5    1    3    3    0  502 -0.20951715185E+03  0.18195744019E+03 -0.44152929775E+03  0.52150890705E+03  0.41800000000E+01 0. -1.
        -11    1    1    2    0    0  0.19641148335E+03 -0.15398134431E+03 -0.38218552472E+03  0.45645755607E+03  0.00000000000E+00 0. -1.
         11    1    1    2    0    0  0.36668897850E+02 -0.14183687062E+02 -0.74360302749E+01  0.40013492655E+02  0.00000000000E+00 0.  1.
</event>
<event>
 7    1  0.2670433E-009  0.1250431E+03  0.7561462E-02  0.1235002E+00
         -2   -1    0    0    0  501 -0.00000000000E+00  0.00000000000E+00  0.43025964932E+02  0.43025964932E+02  0.00000000000E+00 0.  1.
          2   -1    0    0  501    0  0.00000000000E+00 -0.00000000000E+00 -0.52404046932E+03  0.52404046932E+03  0.00000000000E+00 0. -1.
         25    2    1    2    0    0  0.21702600897E+02 -0.67576356229E+02 -0.11619498902E+03  0.18489362310E+03  0.12508720792E+03 0.  0.
          5    1    3    3  502    0  0.90664368773E+01 -0.10043709153E+03 -0.10930245887E+03  0.14877603822E+03  0.41800000000E+01 0. -1.
         -5    1    3    3    0  502  0.12636164019E+02  0.32860735306E+02 -0.68925301513E+01  0.36117584884E+02  0.41800000000E+01 0. -1.
        -11    1    1    2    0    0  0.15726063344E+02 -0.15809747799E+02 -0.63955210943E+02  0.67731279337E+02  0.00000000000E+00 0.  1.
         11    1    1    2    0    0 -0.37428664241E+02  0.83386104028E+02 -0.30086430443E+03  0.31444153181E+03  0.00000000000E+00 0. -1.
</event>
<event>
 7    1  0.2670433E-009  0.1434853E+03  0.7561462E-02  0.1208715E+00
          2   -1    0    0  501    0  0.00000000000E+00  0.00000000000E+00  0.21847758357E+03  0.21847758357E+03  0.00000000000E+00 0. -1.
         -2   -1    0    0    0  501 -0.00000000000E+00 -0.00000000000E+00 -0.12965024686E+03  0.12965024686E+03  0.00000000000E+00 0.  1.
         25    2    1    2    0    0 -0.46762434978E+02  0.11804502487E+03  0.55373455149E+02  0.18664215256E+03  0.12509084842E+03 0.  0.
          5    1    3    3  502    0 -0.27759700498E+02  0.18279150006E+02 -0.36561681007E+02  0.49587873666E+02  0.41800000000E+01 0.  1.
         -5    1    3    3    0  502 -0.19002734481E+02  0.99765874860E+02  0.91935136156E+02  0.13705427890E+03  0.41800000000E+01 0.  1.
        -11    1    1    2    0    0 -0.15922710481E+02 -0.72791991891E+02  0.38759437453E+02  0.83991075623E+02  0.00000000000E+00 0. -1.
         11    1    1    2    0    0  0.62685145460E+02 -0.45253032975E+02 -0.53055558916E+01  0.77494602251E+02  0.00000000000E+00 0.  1.
</event>
<event>
 7    1  0.2670433E-009  0.5017997E+02  0.7561462E-02  0.1444373E+00
          2   -1    0    0  501    0  0.00000000000E+00  0.00000000000E+00  0.55995245370E+02  0.55995245370E+02  0.00000000000E+00 0. -1.
         -2   -1    0    0    0  501 -0.00000000000E+00 -0.00000000000E+00 -0.30125053700E+03  0.30125053700E+03  0.00000000000E+00 0.  1.
         25    2    1    2    0    0  0.44689641662E+02 -0.19044844820E+02 -0.21597511708E+03  0.25426801959E+03  0.12508838638E+03 0.  0.
          5    1    3    3  502    0  0.21805611863E+02 -0.13918093135E+02 -0.22665343296E+03  0.22816320715E+03  0.41800000000E+01 0. -1.
         -5    1    3    3    0  502  0.22884029799E+02 -0.51267516846E+01  0.10678315882E+02  0.26104812445E+02  0.41800000000E+01 0. -1.
        -11    1    1    2    0    0 -0.17503470667E+02  0.66060681299E+00 -0.57242292857E+02  0.59862241675E+02  0.00000000000E+00 0.  1.
         11    1    1    2    0    0 -0.27186170995E+02  0.18384238007E+02  0.27962118299E+02  0.43115521106E+02  0.00000000000E+00 0. -1.
</event>
<event>
 7    1  0.2670433E-009  0.1524020E+03  0.7561462E-02  0.1197552E+00
          2   -1    0    0  501    0  0.00000000000E+00  0.00000000000E+00  0.23801272042E+03  0.23801272042E+03  0.00000000000E+00 0. -1.
         -2   -1    0    0    0  501 -0.00000000000E+00 -0.00000000000E+00 -0.15811325835E+03  0.15811325835E+03  0.00000000000E+00 0.  1.
         25    2    1    2    0    0  0.13394050602E+03  0.70733155720E+02  0.95690153556E+02  0.21851183691E+03  0.12509028304E+03 0.  0.
          5    1    3    3  502    0  0.11913046971E+03  0.62968972851E+02  0.14590280158E+02  0.13560054952E+03  0.41800000000E+01 0.  1.
         -5    1    3    3    0  502  0.14810036310E+02  0.77641828683E+01  0.81099873398E+02  0.82911287388E+02  0.41800000000E+01 0.  1.
        -11    1    1    2    0    0 -0.11519037974E+03 -0.68114261743E+02  0.21742028089E+02  0.13557688602E+03  0.00000000000E+00 0. -1.
         11    1    1    2    0    0 -0.18750126275E+02 -0.26188939772E+01 -0.37532719574E+02  0.42037255853E+02  0.00000000000E+00 0.  1.
</event>
<event>
 7    1  0.2670433E-009  0.1014510E+03  0.7561462E-02  0.1277274E+00
          2   -1    0    0  501    0  0.00000000000E+00  0.00000000000E+00  0.46403761160E+02  0.46403761160E+02  0.00000000000E+00 0. -1.
         -2   -1    0    0    0  501 -0.00000000000E+00 -0.00000000000E+00 -0.36222570502E+03  0.36222570502E+03  0.00000000000E+00 0.  1.
         25    2    1    2    0    0 -0.63533905435E+02  0.29097713388E+02 -0.17409381088E+03  0.22547688392E+03  0.12509171087E+03 0.  0.
          5    1    3    3  502    0 -0.27385215625E+01  0.35149845362E+02  0.53200652711E+01  0.35899674425E+02  0.41800000000E+01 0. -1.
         -5    1    3    3    0  502 -0.60795383873E+02 -0.60521319737E+01 -0.17941387615E+03  0.18957720949E+03  0.41800000000E+01 0. -1.
        -11    1    1    2    0    0 -0.74526277563E+01 -0.34188240996E+02 -0.85724809606E+02  0.92591146795E+02  0.00000000000E+00 0. -1.
         11    1    1    2    0    0  0.70986533191E+02  0.50905276076E+01 -0.56003323374E+02  0.90561435472E+02  0.00000000000E+00 0.  1.
</event>
<event>
 7    1  0.2670433E-009  0.1558316E+03  0.7561462E-02  0.1193485E+00
          2   -1    0    0  501    0  0.00000000000E+00  0.00000000000E+00  0.85611107289E+02  0.85611107289E+02  0.00000000000E+00 0. -1.
         -2   -1    0    0    0  501 -0.00000000000E+00 -0.00000000000E+00 -0.32281334106E+03  0.32281334106E+03  0.00000000000E+00 0.  1.
         25    2    1    2    0    0  0.33119853625E+02  0.11932408842E+03 -0.98355015459E+02  0.20163005395E+03  0.12508319955E+03 0.  0.
          5    1    3    3  502    0 -0.38619606133E+02  0.64055253277E+02 -0.10966702965E+02  0.75711890903E+02  0.41800000000E+01 0. -1.
         -5    1    3    3    0  502  0.71739459758E+02  0.55268835143E+02 -0.87388312494E+02  0.12591816305E+03  0.41800000000E+01 0. -1.
        -11    1    1    2    0    0 -0.38729891638E+02 -0.14867183086E+02 -0.13707908013E+02  0.43691468061E+02  0.00000000000E+00 0.  1.
         11    1    1    2    0    0  0.56100380132E+01 -0.10445690533E+03 -0.12513931030E+03  0.16310292634E+03  0.00000000000E+00 0. -1.
</event>
<event>
 7    1  0.2670433E-009  0.1137985E+03  0.7561462E-02  0.1253693E+00
         -1   -1    0    0    0  501 -0.00000000000E+00  0.00000000000E+00  0.56206521539E+02  0.56206521539E+02  0.00000000000E+00 0.  1.
          1   -1    0    0  501    0  0.00000000000E+00 -0.00000000000E+00 -0.36671863235E+03  0.36671863235E+03  0.00000000000E+00 0. -1.
         25    2    1    2    0    0  0.81990933909E+02  0.16609226498E+02 -0.22267423251E+03  0.26875619667E+03  0.12509076616E+03 0.  0.
          5    1    3    3  502    0  0.63928997081E+02 -0.15095350187E+02 -0.22249720321E+03  0.23202858466E+03  0.41800000000E+01 0.  1.
         -5    1    3    3    0  502  0.18061936828E+02  0.31704576685E+02 -0.17702930463E+00  0.36727612013E+02  0.41800000000E+01 0.  1.
        -11    1    1    2    0    0 -0.70991621413E+01  0.33953361956E+02 -0.36005604617E+02  0.49996324416E+02  0.00000000000E+00 0. -1.
         11    1    1    2    0    0 -0.74891771768E+02 -0.50562588454E+02 -0.51832273688E+02  0.10417263280E+03  0.00000000000E+00 0.  1.
</event>
<event>
 7    1  0.2670433E-009  0.9061173E+02  0.7561462E-02  0.1301377E+00
         -1   -1    0    0    0  501 -0.00000000000E+00  0.00000000000E+00  0.76176536796E+02  0.76176536796E+02  0.00000000000E+00 0.  1.
          1   -1    0    0  501    0  0.00000000000E+00 -0.00000000000E+00 -0.16302485380E+03  0.16302485380E+03  0.00000000000E+00 0. -1.
         25    2    1    2    0    0 -0.18682703379E+02 -0.39558300081E+01 -0.66714472611E+02  0.14305264509E+03  0.12509415020E+03 0.  0.
          5    1    3    3  502    0  0.50637650845E+01  0.38328112978E+02 -0.83054981131E+02  0.91707623740E+02  0.41800000000E+01 0.  1.
         -5    1    3    3    0  502 -0.23746468464E+02 -0.42283942986E+02  0.16340508521E+02  0.51345021352E+02  0.41800000000E+01 0.  1.
        -11    1    1    2    0    0 -0.12230576506E+02 -0.38923991486E+02 -0.46379332589E+01  0.41063055655E+02  0.00000000000E+00 0. -1.
         11    1    1    2    0    0  0.30913279885E+02  0.42879821494E+02 -0.15495911138E+02  0.55085689853E+02  0.00000000000E+00 0.  1.
</event>
<event>
 7    1  0.2670433E-009  0.1211033E+03  0.7561462E-02  0.1241288E+00
         -2   -1    0    0    0  501 -0.00000000000E+00  0.00000000000E+00  0.90057376127E+02  0.90057376127E+02  0.00000000000E+00 0.  1.
          2   -1    0    0  501    0  0.00000000000E+00 -0.00000000000E+00 -0.24458621645E+03  0.24458621645E+03  0.00000000000E+00 0. -1.
         25    2    1    2    0    0 -0.98623483049E+02 -0.14126311940E+02 -0.10184701186E+03  0.18959241766E+03  0.12508527856E+03 0.  0.
          5    1    3    3  502    0 -0.54481476897E+02  0.13455500375E+02 -0.12141981603E+03  0.13382647698E+03  0.41800000000E+01 0.  1.
         -5    1    3    3    0  502 -0.44142006152E+02 -0.27581812315E+02  0.19572804169E+02  0.55765940687E+02  0.41800000000E+01 0.  1.
        -11    1    1    2    0    0 -0.13734671462E+02  0.16325831637E+02 -0.16564396729E+02  0.27010242831E+02  0.00000000000E+00 0.  1.
         11    1    1    2    0    0  0.11235815451E+03 -0.21995196966E+01 -0.36117431734E+02  0.11804093208E+03  0.00000000000E+00 0. -1.
</event>
<event>
 7    1  0.2670433E-009  0.1166857E+03  0.7561462E-02  0.1248667E+00
         -2   -1    0    0    0  501 -0.00000000000E+00  0.00000000000E+00  0.13826304894E+03  0.13826304894E+03  0.00000000000E+00 0.  1.
          2   -1    0    0  501    0  0.00000000000E+00 -0.00000000000E+00 -0.13553743883E+03  0.13553743883E+03  0.00000000000E+00 0. -1.
         25    2    1    2    0    0  0.55177111098E+02 -0.42032676872E+02  0.47853708530E+02  0.15082544020E+03  0.12508827473E+03 0.  0.
          5    1    3    3  502    0 -0.25773851483E+02 -0.46231356006E+02  0.45013452367E+02  0.69608282498E+02  0.41800000000E+01 0. -1.
         -5    1    3    3    0  502  0.80950962581E+02  0.41986791339E+01  0.28402561634E+01  0.81217157697E+02  0.41800000000E+01 0. -1.
        -11    1    1    2    0    0 -0.71769317721E+02  0.40593961852E+02 -0.58927318449E+02  0.10134660115E+03  0.00000000000E+00 0. -1.
         11    1    1    2    0    0  0.16592206623E+02  0.14387150197E+01  0.13799220032E+02  0.21628446431E+02  0.00000000000E+00 0.  1.
</event>
<event>
 7    1  0.2670433E-009  0.1350389E+03  0.7561462E-02  0.1220165E+00
         -1   -1    0    0    0  501 -0.00000000000E+00  0.00000000000E+00  0.52137753473E+03  0.52137753473E+03  0.00000000000E+00 0.  1.
          1   -1    0    0  501    0  0.00000000000E+00 -0.00000000000E+00 -0.44967742949E+02  0.44967742949E+02  0.00000000000E+00 0. -1.
         25    2    1    2    0    0  0.91540300723E+01  0.98938572748E+02  0.18021011740E+03  0.24082287285E+03  0.12508929703E+03 0.  0.
          5    1    3    3  502    0  0.55197438636E+02  0.89443408555E+02  0.15497949178E+03  0.18730455370E+03  0.41800000000E+01 0.  1.
         -5    1    3    3    0  502 -0.46043408563E+02  0.94951641927E+01  0.25230625622E+02  0.53518319148E+02  0.41800000000E+01 0.  1.
        -11    1    1    2    0    0 -0.30492760286E+02 -0.89141259679E+02  0.28367492307E+03  0.29891041231E+03  0.00000000000E+00 0.  1.
         11    1    1    2    0    0  0.21338730214E+02 -0.97973130688E+01  0.12524751312E+02  0.26611992521E+02  0.00000000000E+00 0. -1.
</event>
<event>
 7    1  0.2670433E-009  0.1634079E+03  0.7561462E-02  0.1184902E+00
          1   -1    0    0  501    0  0.00000000000E+00  0.00000000000E+00  0.11688739227E+03  0.11688739227E+03  0.00000000000E+00 0. -1.
         -1   -1    0    0    0  501 -0.00000000000E+00 -0.00000000000E+00 -0.23793674153E+03  0.23793674153E+03  0.00000000000E+00 0.  1.
         25    2    1    2    0    0 -0.12262358008E+03  0.26205532330E+02 -0.79684211489E+02  0.19421673155E+03  0.12508913996E+03 0.  0.
          5    1    3    3  502    0  0.12540754436E+02  0.36439754743E+02 -0.32633679820E+02  0.50671053928E+02  0.41800000000E+01 0. -1.
         -5    1    3    3    0  502 -0.13516433451E+03 -0.10234222413E+02 -0.47050531670E+02  0.14354567762E+03  0.41800000000E+01 0. -1.
        -11    1    1    2    0    0  0.11810927529E+03  0.75788571872E+01 -0.44357678002E+02  0.12639162782E+03  0.00000000000E+00 0. -1.
         11    1    1    2    0    0  0.45143047872E+01 -0.33784389517E+02  0.29925402221E+01  0.34215774429E+02  0.00000000000E+00 0.  1.
</event>
<event>
 7    1  0.2670433E-009  0.9569920E+02  0.7561462E-02  0.1289609E+00
         -3   -1    0    0    0  501 -0.00000000000E+00  0.00000000000E+00  0.85898511703E+02  0.85898511703E+02  0.00000000000E+00 0.  1.
          3   -1    0    0  501    0  0.00000000000E+00 -0.00000000000E+00 -0.14135044239E+03  0.14135044239E+03  0.00000000000E+00 0. -1.
         25    2    1    2    0    0  0.50280311802E+01  0.12219128085E+02 -0.50501124026E+02  0.13554328741E+03  0.12508809314E+03 0.  0.
          5    1    3    3  502    0 -0.41016974931E+02  0.29562415992E+02  0.15560883041E+02  0.53065451594E+02  0.41800000000E+01 0.  1.
         -5    1    3    3    0  502  0.46045006112E+02 -0.17343287907E+02 -0.66062007067E+02  0.82477835817E+02  0.41800000000E+01 0.  1.
        -11    1    1    2    0    0  0.33162238713E+02 -0.33856271227E+02  0.10512326751E+01  0.47403441521E+02  0.00000000000E+00 0.  1.
         11    1    1    2    0    0 -0.38190269893E+02  0.21637143142E+02 -0.60020393313E+01  0.44302225158E+02  0.00000000000E+00 0. -1.
</event>
<event>
 7    1  0.2670433E-009  0.1236484E+03  0.7561462E-02  0.1237197E+00
          2   -1    0    0  501    0  0.00000000000E+00  0.00000000000E+00  0.21869738769E+04  0.21869738769E+04  0.00000000000E+00 0. -1.
         -2   -1    0    0    0  501 -0.00000000000E+00 -0.00000000000E+00 -0.81957387963E+01  0.81957387963E+01  0.00000000000E+00 0.  1.
         25    2    1    2    0    0  0.55214546395E+02 -0.38478652598E+02  0.15283277570E+04  0.15349144208E+04  0.12508914246E+03 0.  0.
          5    1    3    3  502    0  0.88399226298E+02 -0.45870694714E+02  0.86915059614E+03  0.87484785821E+03  0.41800000000E+01 0. -1.
         -5    1    3    3    0  502 -0.33184679903E+02  0.73920421162E+01  0.65917716084E+03  0.66006656258E+03  0.41800000000E+01 0. -1.
        -11    1    1    2    0    0  0.10090893038E+02 -0.22095103271E+02  0.13919220497E+03  0.14129575236E+03  0.00000000000E+00 0.  1.
         11    1    1    2    0    0 -0.65305439434E+02  0.60573755868E+02  0.51125817613E+03  0.51895944251E+03  0.00000000000E+00 0. -1.
</event>
<event>
 7    1  0.2670433E-009  0.1494626E+03  0.7561462E-02  0.1201135E+00
          1   -1    0    0  501    0  0.00000000000E+00  0.00000000000E+00  0.57244240716E+03  0.57244240716E+03  0.00000000000E+00 0. -1.
         -1   -1    0    0    0  501 -0.00000000000E+00 -0.00000000000E+00 -0.53124609372E+02  0.53124609372E+02  0.00000000000E+00 0.  1.
         25    2    1    2    0    0 -0.83636528213E+02 -0.99303288510E+02  0.34718101155E+03  0.39120010601E+03  0.12508659480E+03 0.  0.
          5    1    3    3  502    0 -0.76035245181E+02 -0.47354589818E+02  0.31920789381E+03  0.33156442444E+03  0.41800000000E+01 0. -1.
         -5    1    3    3    0  502 -0.76012830328E+01 -0.51948698692E+02  0.27973117744E+02  0.59635681566E+02  0.41800000000E+01 0. -1.
        -11    1    1    2    0    0  0.30061861031E+02  0.98519182777E+02  0.13193471415E+03  0.16738134204E+03  0.00000000000E+00 0. -1.
         11    1    1    2    0    0  0.53574667182E+02  0.78410573258E+00  0.40202072081E+02  0.66985568484E+02  0.00000000000E+00 0.  1.
</event>
<event>
 7    1  0.2670433E-009  0.1053905E+03  0.7561462E-02  0.1269352E+00
         -2   -1    0    0    0  501 -0.00000000000E+00  0.00000000000E+00  0.10700199188E+03  0.10700199188E+03  0.00000000000E+00 0.  1.
          2   -1    0    0  501    0  0.00000000000E+00 -0.00000000000E+00 -0.13959683329E+03  0.13959683329E+03  0.00000000000E+00 0. -1.
         25    2    1    2    0    0  0.58519303106E+01 -0.34838204775E+02  0.24584360642E+02  0.13229027160E+03  0.12509348333E+03 0.  0.
          5    1    3    3  502    0  0.12132692808E+02  0.41928528537E+02  0.32741356514E+02  0.54723601549E+02  0.41800000000E+01 0.  1.
         -5    1    3    3    0  502 -0.62807624978E+01 -0.76766733313E+02 -0.81569958725E+01  0.77566670050E+02  0.41800000000E+01 0.  1.
        -11    1    1    2    0    0  0.21117832297E+02  0.53153753176E+02 -0.11745784256E+02  0.58388764034E+02  0.00000000000E+00 0.  1.
         11    1    1    2    0    0 -0.26969762608E+02 -0.18315548400E+02 -0.45433417802E+02  0.55919789534E+02  0.00000000000E+00 0. -1.
</event>
<event>
 7    1  0.2670433E-009  0.3034107E+03  0.7561462E-02  0.1083548E+00
         -1   -1    0    0    0  501 -0.00000000000E+00  0.00000000000E+00  0.37780459615E+02  0.37780459615E+02  0.00000000000E+00 0.  1.
          1   -1    0    0  501    0  0.00000000000E+00 -0.00000000000E+00 -0.29551668139E+04  0.29551668139E+04  0.00000000000E+00 0. -1.
         25    2    1    2    0    0 -0.26272851174E+03  0.14032396076E+03 -0.19533939077E+04  0.19799261659E+04  0.12507109592E+03 0.  0.
          5    1    3    3  502    0 -0.20147676847E+02  0.40659384304E+02 -0.57473377675E+03  0.57653751044E+03  0.41800000000E+01 0. -1.
         -5    1    3    3    0  502 -0.24258083489E+03  0.99664576454E+02 -0.13786601309E+04  0.14033886555E+04  0.41800000000E+01 0. -1.
        -11    1    1    2    0    0  0.49644116910E+02 -0.38363217132E+02 -0.10669569772E+03  0.12377498408E+03  0.00000000000E+00 0.  1.
         11    1    1    2    0    0  0.21308439483E+03 -0.10196074363E+03 -0.85729674885E+03  0.88924612349E+03  0.00000000000E+00 0. -1.
</event>
<event>
 7    1  0.2670433E-009  0.8847279E+02  0.7561462E-02  0.1306593E+00
          1   -1    0    0  501    0  0.00000000000E+00  0.00000000000E+00  0.28295179729E+03  0.28295179729E+03  0.00000000000E+00 0. -1.
         -1   -1    0    0    0  501 -0.00000000000E+00 -0.00000000000E+00 -0.44426667784E+02  0.44426667784E+02  0.00000000000E+00 0.  1.
         25    2    1    2    0    0 -0.28020506419E+02  0.13323363230E+02  0.16455828866E+03  0.20902108372E+03  0.12509085613E+03 0.  0.
          5    1    3    3  502    0  0.29870452634E+02 -0.27788264156E+01 -0.35036106560E+01  0.30491203723E+02  0.41800000000E+01 0. -1.
         -5    1    3    3    0  502 -0.57890959053E+02  0.16102189645E+02  0.16806189931E+03  0.17852988000E+03  0.41800000000E+01 0. -1.
        -11    1    1    2    0    0 -0.28097988873E+02 -0.11247741222E+02  0.71929771889E+01  0.31108641599E+02  0.00000000000E+00 0.  1.
         11    1    1    2    0    0  0.56118495291E+02 -0.20756220080E+01  0.66773863659E+02  0.87248739753E+02  0.00000000000E+00 0. -1.
</event>
<event>
 7    1  0.2670433E-009  0.1255365E+03  0.7561462E-02  0.1234233E+00
         -1   -1    0    0    0  501 -0.00000000000E+00  0.00000000000E+00  0.23296104416E+03  0.23296104416E+03  0.00000000000E+00 0.  1.
          1   -1    0    0  501    0  0.00000000000E+00 -0.00000000000E+00 -0.11352673268E+03  0.11352673268E+03  0.00000000000E+00 0. -1.
         25    2    1    2    0    0  0.57458677447E+02 -0.40884895690E+02 -0.40501623748E+02  0.14919660464E+03  0.12508465533E+03 0.  0.
          5    1    3    3  502    0 -0.10710597218E+02  0.34626001650E+02 -0.29247839006E+02  0.46760938502E+02  0.41800000000E+01 0. -1.
         -5    1    3    3    0  502  0.68169274665E+02 -0.75510897340E+02 -0.11253784742E+02  0.10243566613E+03  0.41800000000E+01 0. -1.
        -11    1    1    2    0    0  0.49587814362E+01  0.49513752462E+02  0.92249640183E+02  0.10481506242E+03  0.00000000000E+00 0.  1.
         11    1    1    2    0    0 -0.62417458883E+02 -0.86288567728E+01  0.67686295051E+02  0.92476109782E+02  0.00000000000E+00 0. -1.
</event>
<event>
 7    1  0.2670433E-009  0.1234096E+03  0.7561462E-02  0.1237576E+00
         -2   -1    0    0    0  501 -0.00000000000E+00  0.00000000000E+00  0.99482473744E+03  0.99482473744E+03  0.00000000000E+00 0.  1.
          2   -1    0    0  501    0  0.00000000000E+00 -0.00000000000E+00 -0.19532990985E+02  0.19532990985E+02  0.00000000000E+00 0. -1.
         25    2    1    2    0    0 -0.77924633437E+02  0.26844569427E+02  0.62566756096E+03  0.64335167292E+03  0.12509435959E+03 0.  0.
          5    1    3    3  502    0 -0.70730544335E+01  0.62466700612E+02  0.18108960106E+03  0.19173688429E+03  0.41800000000E+01 0.  1.
         -5    1    3    3    0  502 -0.70851579003E+02 -0.35622131185E+02  0.44457795990E+03  0.45161478863E+03  0.41800000000E+01 0.  1.
        -11    1    1    2    0    0  0.50261632398E+02  0.16570613291E+02  0.27685967773E+03  0.28187248548E+03  0.00000000000E+00 0.  1.
         11    1    1    2    0    0  0.27663001038E+02 -0.43415182718E+02  0.72764507767E+02  0.89133570037E+02  0.00000000000E+00 0. -1.
</event>
<event>
 7    1  0.2670433E-009  0.2161711E+03  0.7561462E-02  0.1136770E+00
         -1   -1    0    0    0  501 -0.00000000000E+00  0.00000000000E+00  0.22578020780E+03  0.22578020780E+03  0.00000000000E+00 0.  1.
          1   -1    0    0  501    0  0.00000000000E+00 -0.00000000000E+00 -0.22328569142E+03  0.22328569142E+03  0.00000000000E+00 0. -1.
         25    2    1    2    0    0  0.82853092005E+00 -0.19528370919E+03  0.23229972706E+02  0.23307530773E+03  0.12509218163E+03 0.  0.
          5    1    3    3  502    0 -0.47304970607E+01  0.16387089968E+02  0.11447777607E+02  0.20962784458E+02  0.41800000000E+01 0.  1.
         -5    1    3    3    0  502  0.55590279808E+01 -0.21167079916E+03  0.11782195099E+02  0.21211252328E+03  0.41800000000E+01 0.  1.
        -11    1    1    2    0    0  0.24082186904E+02  0.14379959490E+03  0.18007022301E+02  0.14690993184E+03  0.00000000000E+00 0.  1.
         11    1    1    2    0    0 -0.24910717824E+02  0.51484114289E+02 -0.38742478634E+02  0.69080659647E+02  0.00000000000E+00 0. -1.
</event>
<event>
 7    1  0.2670433E-009  0.1507253E+03  0.7561462E-02  0.1199585E+00
         -2   -1    0    0    0  501 -0.00000000000E+00  0.00000000000E+00  0.14288162169E+03  0.14288162169E+03  0.00000000000E+00 0.  1.
          2   -1    0    0  501    0  0.00000000000E+00 -0.00000000000E+00 -0.26758257644E+03  0.26758257644E+03  0.00000000000E+00 0. -1.
         25    2    1    2    0    0 -0.12322768241E+03 -0.29101509780E+02 -0.16993049491E+03  0.24608078937E+03  0.12508965669E+03 0.  0.
          5    1    3    3  502    0 -0.41607947166E+02  0.29940942572E+02 -0.12601971073E+03  0.13611069466E+03  0.41800000000E+01 0.  1.
         -5    1    3    3    0  502 -0.81619735244E+02 -0.59042452352E+02 -0.43910784183E+02  0.10997009470E+03  0.41800000000E+01 0.  1.
        -11    1    1    2    0    0  0.99450985205E+02 -0.13545688711E+02  0.39531287594E+01  0.10044705754E+03  0.00000000000E+00 0. -1.
         11    1    1    2    0    0  0.23776697206E+02  0.42647198491E+02  0.41276411409E+02  0.63936351225E+02  0.00000000000E+00 0.  1.
</event>
<event>
 7    1  0.2670433E-009  0.1173656E+03  0.7561462E-02  0.1247507E+00
         -1   -1    0    0    0  501 -0.00000000000E+00  0.00000000000E+00  0.93867865099E+02  0.93867865099E+02  0.00000000000E+00 0.  1.
          1   -1    0    0  501    0  0.00000000000E+00 -0.00000000000E+00 -0.27636643368E+03  0.27636643368E+03  0.00000000000E+00 0. -1.
         25    2    1    2    0    0  0.70306227539E+02 -0.13974062319E+02 -0.20696025920E+03  0.25222649052E+03  0.12508962219E+03 0.  0.
          5    1    3    3  502    0 -0.23194332424E+02  0.32122615664E+02 -0.56712852017E+02  0.69308437276E+02  0.41800000000E+01 0. -1.
         -5    1    3    3    0  502  0.93500559962E+02 -0.46096677982E+02 -0.15024740719E+03  0.18291805324E+03  0.41800000000E+01 0. -1.
        -11    1    1    2    0    0 -0.52318656584E+02  0.34957173185E+02  0.50006111348E+02  0.80373235321E+02  0.00000000000E+00 0.  1.
         11    1    1    2    0    0 -0.17987570955E+02 -0.20983110866E+02 -0.25544420726E+02  0.37634572945E+02  0.00000000000E+00 0. -1.
</event>
<event>
 7    1  0.2670433E-009  0.1391365E+03  0.7561462E-02  0.1214496E+00
         -1   -1    0    0    0  501 -0.00000000000E+00  0.00000000000E+00  0.12331575512E+03  0.12331575512E+03  0.00000000000E+00 0.  1.
          1   -1    0    0  501    0  0.00000000000E+00 -0.00000000000E+00 -0.20127888007E+03  0.20127888007E+03  0.00000000000E+00 0. -1.
         25    2    1    2    0    0 -0.61631653426E+02 -0.73833665834E+02 -0.10513908471E+03  0.18961042781E+03  0.12509203127E+03 0.  0.
          5    1    3    3  502    0  0.10252251198E+02  0.23021312291E+02  0.52187829082E+01  0.26072927900E+02  0.41800000000E+01 0.  1.
         -5    1    3    3    0  502 -0.71883904623E+02 -0.96854978125E+02 -0.11035786762E+03  0.16353749991E+03  0.41800000000E+01 0.  1.
        -11    1    1    2    0    0  0.26529814725E+02 -0.19104925170E+02  0.97952454248E+01  0.34128815802E+02  0.00000000000E+00 0.  1.
         11    1    1    2    0    0  0.35101838700E+02  0.92938591004E+02  0.17380714338E+02  0.10085539157E+03  0.00000000000E+00 0. -1.
</event>
<event>
 7    1  0.2670433E-009  0.1050406E+03  0.7561462E-02  0.1270040E+00
         -1   -1    0    0    0  501 -0.00000000000E+00  0.00000000000E+00  0.53820385071E+02  0.53820385071E+02  0.00000000000E+00 0.  1.
          1   -1    0    0  501    0  0.00000000000E+00 -0.00000000000E+00 -0.42116162876E+03  0.42116162876E+03  0.00000000000E+00 0. -1.
         25    2    1    2    0    0  0.23897250757E+02  0.21826941437E+02 -0.43385687247E+02  0.13630747105E+03  0.12509961966E+03 0.  0.
          5    1    3    3  502    0  0.50983046312E+02 -0.25279244098E+02  0.12322360516E+02  0.58374858990E+02  0.41800000000E+01 0. -1.
         -5    1    3    3    0  502 -0.27085795555E+02  0.47106185535E+02 -0.55708047764E+02  0.77932612058E+02  0.41800000000E+01 0. -1.
        -11    1    1    2    0    0 -0.47853462753E+02 -0.44640094203E+02 -0.20388836818E+03  0.21413350646E+03  0.00000000000E+00 0.  1.
         11    1    1    2    0    0  0.23956211996E+02  0.22813152767E+02 -0.12006718826E+03  0.12454103633E+03  0.00000000000E+00 0. -1.
</event>
<event>
 7    1  0.2670433E-009  0.1007316E+03  0.7561462E-02  0.1278765E+00
         -2   -1    0    0    0  501 -0.00000000000E+00  0.00000000000E+00  0.63096617866E+02  0.63096617866E+02  0.00000000000E+00 0.  1.
          2   -1    0    0  501    0  0.00000000000E+00 -0.00000000000E+00 -0.28044094098E+03  0.28044094098E+03  0.00000000000E+00 0. -1.
         25    2    1    2    0    0  0.17127111114E+02  0.81204688890E+01 -0.20863755428E+03  0.24400370287E+03  0.12509555552E+03 0.  0.
          5    1    3    3  502    0  0.25275708344E+02  0.60903741160E+02 -0.15355102087E+03  0.16716314047E+03  0.41800000000E+01 0. -1.
         -5    1    3    3    0  502 -0.81485972304E+01 -0.52783272271E+02 -0.55086533403E+02  0.76840562406E+02  0.41800000000E+01 0. -1.
        -11    1    1    2    0    0 -0.37229207822E+02  0.23734458782E+02 -0.32639835461E+02  0.54906259276E+02  0.00000000000E+00 0. -1.
         11    1    1    2    0    0  0.20102096708E+02 -0.31854927671E+02  0.23933066624E+02  0.44627596697E+02  0.00000000000E+00 0.  1.
</event>
<event>
 7    1  0.2670433E-009  0.1457161E+03  0.7561462E-02  0.1205838E+00
         -2   -1    0    0    0  501 -0.00000000000E+00  0.00000000000E+00  0.15707382132E+03  0.15707382132E+03  0.00000000000E+00 0. -1.
          2   -1    0    0  501    0  0.00000000000E+00 -0.00000000000E+00 -0.21700308008E+03  0.21700308008E+03  0.00000000000E+00 0.  1.
         25    2    1    2    0    0  0.97282246074E+02 -0.76423736957E+02  0.52494654775E+02  0.18359636530E+03  0.12509002199E+03 0.  0.
          5    1    3    3  502    0 -0.10740293380E+02 -0.13093599259E+02  0.55597961732E+02  0.58270078017E+02  0.41800000000E+01 0.  1.
         -5    1    3    3    0  502  0.10802253945E+03 -0.63330137698E+02 -0.31033069566E+01  0.12532628729E+03  0.41800000000E+01 0.  1.
        -11    1    1    2    0    0 -0.15552641415E+02 -0.18020125292E+02 -0.22067309038E+01  0.23905631801E+02  0.00000000000E+00 0.  1.
         11    1    1    2    0    0 -0.81729604659E+02  0.94443862249E+02 -0.11021718263E+03  0.16657490429E+03  0.00000000000E+00 0. -1.
</event>
<event>
 7    1  0.2670433E-009  0.1582228E+03  0.7561462E-02  0.1190718E+00
          1   -1    0    0  501    0  0.00000000000E+00  0.00000000000E+00  0.76517052006E+03  0.76517052006E+03  0.00000000000E+00 0. -1.
         -1   -1    0    0    0  501 -0.00000000000E+00 -0.00000000000E+00 -0.52368979096E+02  0.52368979096E+02  0.00000000000E+00 0.  1.
         25    2    1    2    0    0  0.52138820534E+01  0.14366658816E+03  0.55149615909E+03  0.58349177351E+03  0.12508942059E+03 0.  0.
          5    1    3    3  502    0  0.48920196086E+02  0.66984994536E+02  0.14142126249E+03  0.16400494189E+03  0.41800000000E+01 0.  1.
         -5    1    3    3    0  502 -0.43706314032E+02  0.76681593627E+02  0.41007489660E+03  0.41948683162E+03  0.41800000000E+01 0.  1.
        -11    1    1    2    0    0 -0.12531491574E+02 -0.89129212598E+02  0.35534848583E+02  0.96766627942E+02  0.00000000000E+00 0.  1.
         11    1    1    2    0    0  0.73176095209E+01 -0.54537375564E+02  0.12577053330E+03  0.13728109771E+03  0.00000000000E+00 0. -1.
</event>
<event>
 7    1  0.2670433E-009  0.8638959E+02  0.7561462E-02  0.1311838E+00
          1   -1    0    0  501    0  0.00000000000E+00  0.00000000000E+00  0.19017996848E+03  0.19017996848E+03  0.00000000000E+00 0. -1.
         -1   -1    0    0    0  501 -0.00000000000E+00 -0.00000000000E+00 -0.92594137950E+02  0.92594137950E+02  0.00000000000E+00 0.  1.
         25    2    1    2    0    0 -0.21012893276E+02 -0.39865439435E+02 -0.26123565389E+02  0.13550553144E+03  0.12509401839E+03 0.  0.
          5    1    3    3  502    0  0.81271537939E+01 -0.57738123505E+02  0.32966546060E+02  0.67111899793E+02  0.41800000000E+01 0.  1.
         -5    1    3    3    0  502 -0.29140047070E+02  0.17872684070E+02 -0.59090111449E+02  0.68393631649E+02  0.41800000000E+01 0.  1.
        -11    1    1    2    0    0  0.15645227342E+02 -0.16804240557E+02  0.36936657727E+02  0.43491060269E+02  0.00000000000E+00 0. -1.
         11    1    1    2    0    0  0.53676659345E+01  0.56669679992E+02  0.86772738193E+02  0.10377751472E+03  0.00000000000E+00 0.  1.
</event>
<event>
 7    1  0.2670433E-009  0.1703607E+03  0.7561462E-02  0.1177472E+00
          1   -1    0    0  501    0  0.00000000000E+00  0.00000000000E+00  0.16481896098E+03  0.16481896098E+03  0.00000000000E+00 0. -1.
         -1   -1    0    0    0  501 -0.00000000000E+00 -0.00000000000E+00 -0.21325203150E+03  0.21325203150E+03  0.00000000000E+00 0.  1.
         25    2    1    2    0    0  0.93808922343E+02 -0.11452756876E+03  0.11856454276E+02  0.19417770003E+03  0.12509087003E+03 0.  0.
          5    1    3    3  502    0  0.10870168456E+03 -0.13000067272E+03  0.46474454776E+00  0.16951082420E+03  0.41800000000E+01 0. -1.
         -5    1    3    3    0  502 -0.14892762218E+02  0.15473103962E+02  0.11391709728E+02  0.24666875830E+02  0.41800000000E+01 0. -1.
        -11    1    1    2    0    0 -0.69621047665E+02  0.70405568700E+02  0.76948435529E+01  0.99313871132E+02  0.00000000000E+00 0. -1.
         11    1    1    2    0    0 -0.24187874678E+02  0.44122000060E+02 -0.67984368344E+02  0.84579421314E+02  0.00000000000E+00 0.  1.
</event>
<event>
 7    1  0.2670433E-009  0.8890576E+02  0.7561462E-02  0.1305523E+00
         -1   -1    0    0    0  501 -0.00000000000E+00  0.00000000000E+00  0.88574298500E+02  0.88574298500E+02  0.00000000000E+00 0.  1.
          1   -1    0    0  501    0  0.00000000000E+00 -0.00000000000E+00 -0.18412437047E+03  0.18412437047E+03  0.00000000000E+00 0. -1.
         25    2    1    2    0    0 -0.44067862271E+01 -0.51667766732E+02 -0.95914331855E+02  0.16593909026E+03  0.12508894731E+03 0.  0.
          5    1    3    3  502    0  0.75769481361E+01 -0.57392425966E+02 -0.12270873381E+03  0.13574316357E+03  0.41800000000E+01 0. -1.
         -5    1    3    3    0  502 -0.11983734363E+02  0.57246592338E+01  0.26794401959E+02  0.30195926695E+02  0.41800000000E+01 0. -1.
        -11    1    1    2    0    0  0.48368896080E+02  0.25342527488E+02 -0.67700057596E+01  0.55023874686E+02  0.00000000000E+00 0.  1.
         11    1    1    2    0    0 -0.43962109852E+02  0.26325239244E+02  0.71342656463E+01  0.51735704018E+02  0.00000000000E+00 0. -1.
</event>
<event>
 7    1  0.2670433E-009  0.1369616E+03  0.7561462E-02  0.1217477E+00
         -3   -1    0    0    0  501 -0.00000000000E+00  0.00000000000E+00  0.43708788925E+02  0.43708788925E+02  0.00000000000E+00 0. -1.
          3   -1    0    0  501    0  0.00000000000E+00 -0.00000000000E+00 -0.70011137766E+03  0.70011137766E+03  0.00000000000E+00 0.  1.
         25    2    1    2    0    0 -0.12650199657E+03  0.36893536030E+02 -0.42134516399E+03  0.45885070155E+03  0.12509328903E+03 0.  0.
          5    1    3    3  502    0 -0.48336377097E+02 -0.93808452881E+01 -0.31638917094E+02  0.58676222476E+02  0.41800000000E+01 0.  1.
         -5    1    3    3    0  502 -0.78165619468E+02  0.46274381318E+02 -0.38970624689E+03  0.40017447907E+03  0.41800000000E+01 0.  1.
        -11    1    1    2    0    0  0.55485223646E+02 -0.27545011472E+02 -0.32154684925E+02  0.69794422863E+02  0.00000000000E+00 0. -1.
         11    1    1    2    0    0  0.71016772919E+02 -0.93485245581E+01 -0.20290273982E+03  0.21517504217E+03  0.00000000000E+00 0.  1.
</event>
<event>
 7    1  0.2670433E-009  0.1611724E+03  0.7561462E-02  0.1187379E+00
         -2   -1    0    0    0  501 -0.00000000000E+00  0.00000000000E+00  0.11764825601E+03  0.11764825601E+03  0.00000000000E+00 0. -1.
          2   -1    0    0  501    0  0.00000000000E+00 -0.00000000000E+00 -0.28712030788E+03  0.28712030788E+03  0.00000000000E+00 0.  1.
         25    2    1    2    0    0 -0.16356807171E+02 -0.12258706941E+03  0.13973304744E+01  0.17591152622E+03  0.12509107801E+03 0.  0.
          5    1    3    3  502    0  0.12453645474E+02 -0.13897426984E+03 -0.11577410351E+02  0.14007301594E+03  0.41800000000E+01 0.  1.
         -5    1    3    3    0  502 -0.28810452645E+02  0.16387200431E+02  0.12974740826E+02  0.35838510280E+02  0.41800000000E+01 0.  1.
        -11    1    1    2    0    0 -0.13986192962E+02  0.11779758152E+03 -0.15198236459E+03  0.19279658439E+03  0.00000000000E+00 0. -1.
         11    1    1    2    0    0  0.30343000133E+02  0.47894878910E+01 -0.18887017754E+02  0.36060453284E+02  0.00000000000E+00 0.  1.
</event>
<event>
 7    1  0.2670433E-009  0.1072235E+03  0.7561462E-02  0.1265800E+00
         -1   -1    0    0    0  501 -0.00000000000E+00  0.00000000000E+00  0.11960294693E+02  0.11960294693E+02  0.00000000000E+00 0.  1.
          1   -1    0    0  501    0  0.00000000000E+00 -0.00000000000E+00 -0.12202419756E+04  0.12202419756E+04  0.00000000000E+00 0. -1.
         25    2    1    2    0    0 -0.37954753953E+02  0.95089704555E+01 -0.86923737778E+03  0.87906372991E+03  0.12509371866E+03 0.  0.
          5    1    3    3  502    0  0.16805454539E+02  0.48489703234E+02 -0.20288568605E+03  0.20931733952E+03  0.41800000000E+01 0. -1.
         -5    1    3    3    0  502 -0.54760208493E+02 -0.38980732779E+02 -0.66635169173E+03  0.66974639039E+03  0.41800000000E+01 0. -1.
        -11    1    1    2    0    0  0.66485281914E+02 -0.88548514208E+01 -0.19274140591E+03  0.20407829541E+03  0.00000000000E+00 0.  1.
         11    1    1    2    0    0 -0.28530527960E+02 -0.65411903471E+00 -0.14630289720E+03  0.14906024495E+03  0.00000000000E+00 0. -1.
</event>
<event>
 7    1  0.2670433E-009  0.1125452E+03  0.7561462E-02  0.1255928E+00
          2   -1    0    0  501    0  0.00000000000E+00  0.00000000000E+00  0.17210081063E+03  0.17210081063E+03  0.00000000000E+00 0. -1.
         -2   -1    0    0    0  501 -0.00000000000E+00 -0.00000000000E+00 -0.89134389888E+02  0.89134389888E+02  0.00000000000E+00 0.  1.
         25    2    1    2    0    0  0.18744039299E+02 -0.24306208765E+02  0.91244144627E+02  0.15784658544E+03  0.12509164566E+03 0.  0.
          5    1    3    3  502    0 -0.46013108838E+02  0.19155482058E+02  0.27796444038E+02  0.57221092081E+02  0.41800000000E+01 0. -1.
         -5    1    3    3    0  502  0.64757148137E+02 -0.43461690824E+02  0.63447700589E+02  0.10062549336E+03  0.41800000000E+01 0. -1.
        -11    1    1    2    0    0 -0.16216220730E+02  0.59509163391E+02  0.11779641596E+02  0.62793839653E+02  0.00000000000E+00 0.  1.
         11    1    1    2    0    0 -0.25278185693E+01 -0.35202954625E+02 -0.20057365485E+02  0.40594775419E+02  0.00000000000E+00 0. -1.
</event>
<event>
 7    1  0.2670433E-009  0.1235567E+03  0.7561462E-02  0.1237342E+00
          1   -1    0    0  501    0  0.00000000000E+00  0.00000000000E+00  0.76627567886E+03  0.76627567886E+03  0.00000000000E+00 0. -1.
         -1   -1    0    0    0  501 -0.00000000000E+00 -0.00000000000E+00 -0.21535333494E+02  0.21535333494E+02  0.00000000000E+00 0.  1.
         25    2    1    2    0    0  0.63418771135E+02 -0.26955453665E+02  0.44248577747E+03  0.46496178617E+03  0.12508901759E+03 0.  0.
          5    1    3    3  502    0  0.41128978871E+02  0.48455228961E+02  0.18129686768E+03  0.19216016431E+03  0.41800000000E+01 0. -1.
         -5    1    3    3    0  502  0.22289792264E+02 -0.75410682627E+02  0.26118890979E+03  0.27280162186E+03  0.41800000000E+01 0. -1.
        -11    1    1    2    0    0  0.26180115412E+01 -0.22196864690E+02  0.24550871215E+02  0.33200904564E+02  0.00000000000E+00 0.  1.
         11    1    1    2    0    0 -0.66036782677E+02  0.49152318355E+02  0.27770369668E+03  0.28964832162E+03  0.00000000000E+00 0. -1.
</event>
<event>
 7    1  0.2670433E-009  0.8848281E+02  0.7561462E-02  0.1306568E+00
          3   -1    0    0  501    0  0.00000000000E+00  0.00000000000E+00  0.72912523181E+03  0.72912523181E+03  0.00000000000E+00 0. -1.
         -3   -1    0    0    0  501 -0.00000000000E+00 -0.00000000000E+00 -0.24344719215E+02  0.24344719215E+02  0.00000000000E+00 0.  1.
         25    2    1    2    0    0  0.74515919304E+02 -0.20654977743E+02  0.36867557237E+03  0.39692337075E+03  0.12508890540E+03 0.  0.
          5    1    3    3  502    0  0.32368602329E+01 -0.10619488716E+02  0.28985795770E+03  0.29010060125E+03  0.41800000000E+01 0.  1.
         -5    1    3    3    0  502  0.71279059071E+02 -0.10035489027E+02  0.78817614669E+02  0.10682276950E+03  0.41800000000E+01 0.  1.
        -11    1    1    2    0    0 -0.32094624297E+02  0.35684819020E+02  0.28252784084E+03  0.28657538636E+03  0.00000000000E+00 0. -1.
         11    1    1    2    0    0 -0.42421295006E+02 -0.15029841277E+02  0.53577099385E+02  0.69971193911E+02  0.00000000000E+00 0.  1.
</event>
<event>
 7    1  0.2670433E-009  0.3092722E+03  0.7561462E-02  0.1080695E+00
          1   -1    0    0  501    0  0.00000000000E+00  0.00000000000E+00  0.29261273074E+03  0.29261273074E+03  0.00000000000E+00 0. -1.
         -1   -1    0    0    0  501 -0.00000000000E+00 -0.00000000000E+00 -0.40641428245E+03  0.40641428245E+03  0.00000000000E+00 0.  1.
         25    2    1    2    0    0 -0.20025095247E+03  0.22807681588E+03 -0.18150487140E+03  0.37511644872E+03  0.12509537901E+03 0.  0.
          5    1    3    3  502    0 -0.60551841041E+02  0.10586060191E+03 -0.10120794695E+02  0.12244547920E+03  0.41800000000E+01 0. -1.
         -5    1    3    3    0  502 -0.13969911143E+03  0.12221621397E+03 -0.17138407670E+03  0.25267096952E+03  0.41800000000E+01 0. -1.
        -11    1    1    2    0    0  0.16736151894E+03 -0.14475258643E+03  0.19369152983E+02  0.22212238380E+03  0.00000000000E+00 0.  1.
         11    1    1    2    0    0  0.32889433524E+02 -0.83324229455E+02  0.48334166708E+02  0.10178818067E+03  0.00000000000E+00 0. -1.
</event>
<event>
 7    1  0.2670433E-009  0.1044661E+03  0.7561462E-02  0.1271175E+00
          2   -1    0    0  501    0  0.00000000000E+00  0.00000000000E+00  0.14336090030E+03  0.14336090030E+03  0.00000000000E+00 0. -1.
         -2   -1    0    0    0  501 -0.00000000000E+00 -0.00000000000E+00 -0.97528925407E+02  0.97528925407E+02  0.00000000000E+00 0.  1.
         25    2    1    2    0    0 -0.40642276934E+02  0.23646520419E+02  0.80864269007E+01  0.13387674841E+03  0.12508653350E+03 0.  0.
          5    1    3    3  502    0 -0.84584945713E+02  0.27539432144E+02  0.93761763963E+01  0.89545622160E+02  0.41800000000E+01 0. -1.
         -5    1    3    3    0  502  0.43942668779E+02 -0.38929117253E+01 -0.12897494956E+01  0.44331126254E+02  0.41800000000E+01 0. -1.
        -11    1    1    2    0    0  0.11349556591E+01  0.18073343442E+02  0.45559539311E+02  0.49026579422E+02  0.00000000000E+00 0. -1.
         11    1    1    2    0    0  0.39507321275E+02 -0.41719863861E+02 -0.78139913208E+01  0.57986497870E+02  0.00000000000E+00 0.  1.
</event>
<event>
 7    1  0.2670433E-009  0.1108491E+03  0.7561462E-02  0.1259006E+00
         -2   -1    0    0    0  501 -0.00000000000E+00  0.00000000000E+00  0.75484899138E+03  0.75484899138E+03  0.00000000000E+00 0. -1.
          2   -1    0    0  501    0  0.00000000000E+00 -0.00000000000E+00 -0.18432685303E+02  0.18432685303E+02  0.00000000000E+00 0.  1.
         25    2    1    2    0    0  0.51598925040E+02 -0.54347411358E+01  0.37713639061E+03  0.40071355734E+03  0.12509001736E+03 0.  0.
          5    1    3    3  502    0  0.61544866964E+02 -0.53848193560E+02  0.27880119115E+03  0.29057696947E+03  0.41800000000E+01 0.  1.
         -5    1    3    3    0  502 -0.99459419232E+01  0.48413452424E+02  0.98335199458E+02  0.11013658788E+03  0.41800000000E+01 0.  1.
        -11    1    1    2    0    0 -0.92084192141E+01  0.36509941680E+02  0.80424445426E+02  0.88802377490E+02  0.00000000000E+00 0.  1.
         11    1    1    2    0    0 -0.42390505826E+02 -0.31075200545E+02  0.27885547004E+03  0.28376574185E+03  0.00000000000E+00 0. -1.
</event>
<event>
 7    1  0.2670433E-009  0.1192429E+03  0.7561462E-02  0.1244351E+00
         -2   -1    0    0    0  501 -0.00000000000E+00  0.00000000000E+00  0.10050805779E+03  0.10050805779E+03  0.00000000000E+00 0.  1.
          2   -1    0    0  501    0  0.00000000000E+00 -0.00000000000E+00 -0.17889012061E+03  0.17889012061E+03  0.00000000000E+00 0. -1.
         25    2    1    2    0    0 -0.71558962489E+02  0.16950035214E+02 -0.72515451976E+02  0.16221156364E+03  0.12508441868E+03 0.  0.
          5    1    3    3  502    0 -0.10147495129E+03  0.33309901266E+02 -0.70002304860E+02  0.12776740722E+03  0.41800000000E+01 0.  1.
         -5    1    3    3    0  502  0.29915988799E+02 -0.16359866052E+02 -0.25131471163E+01  0.34444156420E+02  0.41800000000E+01 0.  1.
        -11    1    1    2    0    0  0.96996414137E+01  0.22072853951E+02  0.27690998059E+02  0.36716281110E+02  0.00000000000E+00 0.  1.
         11    1    1    2    0    0  0.61859321076E+02 -0.39022889165E+02 -0.33557608909E+02  0.80470333654E+02  0.00000000000E+00 0. -1.
</event>
<event>
 7    1  0.2670433E-009  0.1180814E+03  0.7561462E-02  0.1246296E+00
          2   -1    0    0  501    0  0.00000000000E+00  0.00000000000E+00  0.11058428192E+03  0.11058428192E+03  0.00000000000E+00 0. -1.
         -2   -1    0    0    0  501 -0.00000000000E+00 -0.00000000000E+00 -0.17996941327E+03  0.17996941327E+03  0.00000000000E+00 0.  1.
         25    2    1    2    0    0  0.66962570774E+02  0.45575389967E+02  0.14223109995E+01  0.14903124714E+03  0.12508871892E+03 0.  0.
          5    1    3    3  502    0 -0.32064600939E+02  0.17935062813E+02 -0.22641058925E+02  0.43357756638E+02  0.41800000000E+01 0.  1.
         -5    1    3    3    0  502  0.99027171713E+02  0.27640327154E+02  0.24063369924E+02  0.10567349050E+03  0.41800000000E+01 0.  1.
        -11    1    1    2    0    0 -0.72487951364E+02 -0.27735408945E+02 -0.10415426213E+02  0.78308601734E+02  0.00000000000E+00 0. -1.
         11    1    1    2    0    0  0.55253805900E+01 -0.17839981022E+02 -0.60392016131E+02  0.63213846315E+02  0.00000000000E+00 0.  1.
</event>
<event>
 7    1  0.2670433E-009  0.1454983E+03  0.7561462E-02  0.1206116E+00
          1   -1    0    0  501    0  0.00000000000E+00  0.00000000000E+00  0.16200622137E+03  0.16200622137E+03  0.00000000000E+00 0. -1.
         -1   -1    0    0    0  501 -0.00000000000E+00 -0.00000000000E+00 -0.13710977778E+03  0.13710977778E+03  0.00000000000E+00 0.  1.
         25    2    1    2    0    0 -0.90710775446E+02 -0.46695683172E+02  0.85336055248E+01  0.16164852262E+03  0.12509392805E+03 0.  0.
          5    1    3    3  502    0 -0.75834390454E+02 -0.84794443183E+02  0.26343544411E+02  0.11684351545E+03  0.41800000000E+01 0.  1.
         -5    1    3    3    0  502 -0.14876384991E+02  0.38098760011E+02 -0.17809938886E+02  0.44805007174E+02  0.41800000000E+01 0.  1.
        -11    1    1    2    0    0  0.62878524463E+02  0.73967399539E+02  0.16654174671E+02  0.98499982574E+02  0.00000000000E+00 0. -1.
         11    1    1    2    0    0  0.27832250982E+02 -0.27271716367E+02 -0.29133660924E+00  0.38967493958E+02  0.00000000000E+00 0.  1.
</event>
<event>
 7    1  0.2670433E-009  0.1199221E+03  0.7561462E-02  0.1243226E+00
          2   -1    0    0  501    0  0.00000000000E+00  0.00000000000E+00  0.61744036330E+03  0.61744036330E+03  0.00000000000E+00 0. -1.
         -2   -1    0    0    0  501 -0.00000000000E+00 -0.00000000000E+00 -0.30341421687E+02  0.30341421687E+02  0.00000000000E+00 0.  1.
         25    2    1    2    0    0 -0.24562409071E+02 -0.75534270386E+02  0.25711046749E+03  0.29675055158E+03  0.12508540855E+03 0.  0.
          5    1    3    3  502    0 -0.47640370306E+02 -0.83316866887E+02  0.25434824244E+03  0.27188564880E+03  0.41800000000E+01 0.  1.
         -5    1    3    3    0  502  0.23077961235E+02  0.77825965008E+01  0.27622250414E+01  0.24864902779E+02  0.41800000000E+01 0.  1.
        -11    1    1    2    0    0 -0.33686216387E+02  0.24953547347E+02  0.13407950510E+03  0.14048044130E+03  0.00000000000E+00 0. -1.
         11    1    1    2    0    0  0.58248625458E+02  0.50580723039E+02  0.19590896902E+03  0.21055079210E+03  0.00000000000E+00 0.  1.
</event>
<event>
 7    1  0.2670433E-009  0.1014243E+03  0.7561462E-02  0.1277329E+00
          1   -1    0    0  501    0  0.00000000000E+00  0.00000000000E+00  0.19010330158E+03  0.19010330158E+03  0.00000000000E+00 0. -1.
         -1   -1    0    0    0  501 -0.00000000000E+00 -0.00000000000E+00 -0.92541249598E+02  0.92541249598E+02  0.00000000000E+00 0.  1.
         25    2    1    2    0    0 -0.39739003588E+02  0.95168512346E+01  0.11493467194E+03  0.17471354971E+03  0.12508032130E+03 0.  0.
          5    1    3    3  502    0 -0.63344114678E+02 -0.40645110863E+02  0.74381308243E+02  0.10589878808E+03  0.41800000000E+01 0. -1.
         -5    1    3    3    0  502  0.23605111091E+02  0.50161962097E+02  0.40553363695E+02  0.68814761629E+02  0.41800000000E+01 0. -1.
        -11    1    1    2    0    0  0.43247025753E+02  0.16003784430E+02  0.29290607726E+02  0.54629351575E+02  0.00000000000E+00 0. -1.
         11    1    1    2    0    0 -0.35080221656E+01 -0.25520635664E+02 -0.46663227678E+02  0.53301649895E+02  0.00000000000E+00 0.  1.
</event>
<event>
 7    1  0.2670433E-009  0.7758597E+02  0.7561462E-02  0.1336045E+00
         -2   -1    0    0    0  501 -0.00000000000E+00  0.00000000000E+00  0.21828960024E+02  0.21828960024E+02  0.00000000000E+00 0.  1.
          2   -1    0    0  501    0  0.00000000000E+00 -0.00000000000E+00 -0.49408352448E+03  0.49408352448E+03  0.00000000000E+00 0. -1.
         25    2    1    2    0    0  0.59973256433E+01 -0.99232894538E+01 -0.25568253879E+03  0.28487788103E+03  0.12508959536E+03 0.  0.
          5    1    3    3  502    0 -0.28103444691E+02  0.19539916658E+02 -0.23053818053E+03  0.23310284646E+03  0.41800000000E+01 0.  1.
         -5    1    3    3    0  502  0.34100770334E+02 -0.29463206112E+02 -0.25144358263E+02  0.51775034566E+02  0.41800000000E+01 0.  1.
        -11    1    1    2    0    0  0.27367732355E+02 -0.17291628542E+02 -0.54962160190E+02  0.63787398792E+02  0.00000000000E+00 0.  1.
         11    1    1    2    0    0 -0.33365057998E+02  0.27214917995E+02 -0.16160986547E+03  0.16724720469E+03  0.00000000000E+00 0. -1.
</event>
<event>
 7    1  0.2670433E-009  0.9683403E+02  0.7561462E-02  0.1287098E+00
         -2   -1    0    0    0  501 -0.00000000000E+00  0.00000000000E+00  0.91761146155E+02  0.91761146155E+02  0.00000000000E+00 0. -1.
          2   -1    0    0  501    0  0.00000000000E+00 -0.00000000000E+00 -0.16364037707E+03  0.16364037707E+03  0.00000000000E+00 0.  1.
         25    2    1    2    0    0  0.78858421655E+01 -0.56307055623E+02 -0.38449610481E+02  0.14268377536E+03  0.12509043203E+03 0.  0.
          5    1    3    3  502    0  0.53946594159E+02 -0.47589805669E+02 -0.57220156948E+02  0.92014365108E+02  0.41800000000E+01 0.  1.
         -5    1    3    3    0  502 -0.46060751994E+02 -0.87172499537E+01  0.18770546468E+02  0.50669410256E+02  0.41800000000E+01 0.  1.
        -11    1    1    2    0    0 -0.15770155233E+02 -0.18295394157E+01  0.25194381237E+02  0.29779218533E+02  0.00000000000E+00 0. -1.
         11    1    1    2    0    0  0.78843130674E+01  0.58136595039E+02 -0.58624001668E+02  0.82938529326E+02  0.00000000000E+00 0.  1.
</event>
<event>
 7    1  0.2670433E-009  0.1562822E+03  0.7561462E-02  0.1192959E+00
          1   -1    0    0  501    0  0.00000000000E+00  0.00000000000E+00  0.12320158280E+04  0.12320158280E+04  0.00000000000E+00 0. -1.
         -1   -1    0    0    0  501 -0.00000000000E+00 -0.00000000000E+00 -0.33211472908E+02  0.33211472908E+02  0.00000000000E+00 0.  1.
         25    2    1    2    0    0  0.11254914090E+03  0.79530115196E+02  0.95253908376E+03  0.97055144410E+03  0.12508817381E+03 0.  0.
          5    1    3    3  502    0  0.60325133389E+02 -0.15953287999E+02  0.18409356838E+03  0.19442619020E+03  0.41800000000E+01 0. -1.
         -5    1    3    3    0  502  0.52224007510E+02  0.95483403195E+02  0.76844551538E+03  0.77612525391E+03  0.41800000000E+01 0. -1.
        -11    1    1    2    0    0 -0.10330823966E+03 -0.59902272445E+02  0.24545838423E+03  0.27296646867E+03  0.00000000000E+00 0.  1.
         11    1    1    2    0    0 -0.92409012389E+01 -0.19627842751E+02  0.80688710699E+00  0.21709388144E+02  0.00000000000E+00 0. -1.
</event>
<event>
 7    1  0.2670433E-009  0.7124893E+02  0.7561462E-02  0.1355897E+00
          1   -1    0    0  501    0  0.00000000000E+00  0.00000000000E+00  0.59258808839E+02  0.59258808839E+02  0.00000000000E+00 0. -1.
         -1   -1    0    0    0  501 -0.00000000000E+00 -0.00000000000E+00 -0.24950418794E+03  0.24950418794E+03  0.00000000000E+00 0.  1.
         25    2    1    2    0    0  0.32883308344E+02 -0.49883480678E+01 -0.16376982136E+03  0.20874563827E+03  0.12509193229E+03 0.  0.
          5    1    3    3  502    0 -0.58986424587E+01 -0.11623868596E+01  0.19762280777E+02  0.21075228767E+02  0.41800000000E+01 0. -1.
         -5    1    3    3    0  502  0.38781950802E+02 -0.38259612082E+01 -0.18353210214E+03  0.18767040950E+03  0.41800000000E+01 0. -1.
        -11    1    1    2    0    0 -0.28873554904E+02  0.46251517725E+02 -0.10148166403E+02  0.55460529622E+02  0.00000000000E+00 0. -1.
         11    1    1    2    0    0 -0.40097534394E+01 -0.41263169657E+02 -0.16327391338E+02  0.44556828889E+02  0.00000000000E+00 0.  1.
</event>
<event>
 7    1  0.2670433E-009  0.7905519E+02  0.7561462E-02  0.1331754E+00
          3   -1    0    0  501    0  0.00000000000E+00  0.00000000000E+00  0.70537049121E+02  0.70537049121E+02  0.00000000000E+00 0. -1.
         -3   -1    0    0    0  501 -0.00000000000E+00 -0.00000000000E+00 -0.18891957306E+03  0.18891957306E+03  0.00000000000E+00 0.  1.
         25    2    1    2    0    0  0.31876166981E+02 -0.21502921207E+02 -0.56577865094E+02  0.14257186122E+03  0.12508882905E+03 0.  0.
          5    1    3    3  502    0 -0.11321098570E+02 -0.32759539591E+02  0.29376507830E+02  0.45626815793E+02  0.41800000000E+01 0.  1.
         -5    1    3    3    0  502  0.43197265551E+02  0.11256618385E+02 -0.85954372924E+02  0.96945045430E+02  0.41800000000E+01 0.  1.
        -11    1    1    2    0    0 -0.52095638443E+02  0.25099305941E+02 -0.68657759707E+01  0.58232890905E+02  0.00000000000E+00 0. -1.
         11    1    1    2    0    0  0.20219471463E+02 -0.35963847341E+01 -0.54938882878E+02  0.58651870058E+02  0.00000000000E+00 0.  1.
</event>
<event>
 7    1  0.2670433E-009  0.8344015E+02  0.7561462E-02  0.1319563E+00
          2   -1    0    0  501    0  0.00000000000E+00  0.00000000000E+00  0.66920615873E+03  0.66920615873E+03  0.00000000000E+00 0. -1.
         -2   -1    0    0    0  501 -0.00000000000E+00 -0.00000000000E+00 -0.29437782649E+02  0.29437782649E+02  0.00000000000E+00 0.  1.
         25    2    1    2    0    0  0.48467159502E+02 -0.26075004065E+02  0.52246450254E+03  0.54004245329E+03  0.12509086117E+03 0.  0.
          5    1    3    3  502    0 -0.70945373554E+01  0.24419055459E+02  0.21774711799E+02  0.33737711892E+02  0.41800000000E+01 0.  1.
         -5    1    3    3    0  502  0.55561696857E+02 -0.50494059525E+02  0.50068979075E+03  0.50630474140E+03  0.41800000000E+01 0.  1.
        -11    1    1    2    0    0 -0.14535026821E+02 -0.90142589804E+01 -0.11666203172E+02  0.20703240473E+02  0.00000000000E+00 0.  1.
         11    1    1    2    0    0 -0.33932132681E+02  0.35089263046E+02  0.12897007670E+03  0.13789824761E+03  0.00000000000E+00 0. -1.
</event>
<event>
 7    1  0.2670433E-009  0.7999432E+02  0.7561462E-02  0.1329068E+00
         -1   -1    0    0    0  501 -0.00000000000E+00  0.00000000000E+00  0.35691443140E+02  0.35691443140E+02  0.00000000000E+00 0.  1.
          1   -1    0    0  501    0  0.00000000000E+00 -0.00000000000E+00 -0.40281194013E+03  0.40281194013E+03  0.00000000000E+00 0. -1.
         25    2    1    2    0    0 -0.21176627028E+02 -0.13631877265E+02 -0.28908325635E+03  0.31599203563E+03  0.12509020693E+03 0.  0.
          5    1    3    3  502    0 -0.51430945575E+02 -0.81915769682E+01 -0.27828027549E+03  0.28314241686E+03  0.41800000000E+01 0. -1.
         -5    1    3    3    0  502  0.30254318547E+02 -0.54403002967E+01 -0.10802980859E+02  0.32849618773E+02  0.41800000000E+01 0. -1.
        -11    1    1    2    0    0  0.18487689389E+02  0.43220685542E+02 -0.97059072156E+01  0.48000280755E+02  0.00000000000E+00 0.  1.
         11    1    1    2    0    0  0.26889376388E+01 -0.29588808277E+02 -0.68331333427E+02  0.74511066888E+02  0.00000000000E+00 0. -1.
</event>
<event>
 7    1  0.2670433E-009  0.1592918E+03  0.7561462E-02  0.1189499E+00
          2   -1    0    0  501    0  0.00000000000E+00  0.00000000000E+00  0.82241984828E+03  0.82241984828E+03  0.00000000000E+00 0. -1.
         -2   -1    0    0    0  501 -0.00000000000E+00 -0.00000000000E+00 -0.31536704225E+02  0.31536704225E+02  0.00000000000E+00 0.  1.
         25    2    1    2    0    0 -0.11489460817E+03  0.29201200464E+02  0.44459042034E+03  0.47682453919E+03  0.12509004045E+03 0.  0.
          5    1    3    3  502    0 -0.23473854436E+02  0.66318162143E+02  0.14200283478E+03  0.15852885529E+03  0.41800000000E+01 0.  1.
         -5    1    3    3    0  502 -0.91420753733E+02 -0.37116961679E+02  0.30258758556E+03  0.31829568390E+03  0.41800000000E+01 0.  1.
        -11    1    1    2    0    0  0.10914387216E+03  0.10121090423E+02  0.25199822237E+03  0.27480524991E+03  0.00000000000E+00 0. -1.
         11    1    1    2    0    0  0.57507360117E+01 -0.39322290887E+02  0.94294501345E+02  0.10232676341E+03  0.00000000000E+00 0.  1.
</event>
<event>
 7    1  0.2670433E-009  0.9341625E+02  0.7561462E-02  0.1294783E+00
          1   -1    0    0  501    0  0.00000000000E+00  0.00000000000E+00  0.28794143658E+03  0.28794143658E+03  0.00000000000E+00 0.  1.
         -1   -1    0    0    0  501 -0.00000000000E+00 -0.00000000000E+00 -0.46237411781E+02  0.46237411781E+02  0.00000000000E+00 0. -1.
         25    2    1    2    0    0  0.25884114311E+02  0.13561024436E+02  0.98169389899E+02  0.16167619650E+03  0.12509226452E+03 0.  0.
          5    1    3    3  502    0 -0.55084522652E+01 -0.48745534082E+02  0.11907887550E+02  0.50653137368E+02  0.41800000000E+01 0. -1.
         -5    1    3    3    0  502  0.31392566576E+02  0.62306558518E+02  0.86261502349E+02  0.11102305913E+03  0.41800000000E+01 0. -1.
        -11    1    1    2    0    0 -0.46082062102E+02 -0.81708131482E+01  0.14418232506E+03  0.15158780128E+03  0.00000000000E+00 0.  1.
         11    1    1    2    0    0  0.20197947791E+02 -0.53902112873E+01 -0.64769016171E+00  0.20914850591E+02  0.00000000000E+00 0. -1.
</event>
<event>
 7    1  0.2670433E-009  0.1210979E+03  0.7561462E-02  0.1241297E+00
         -1   -1    0    0    0  501 -0.00000000000E+00  0.00000000000E+00  0.98414284018E+02  0.98414284018E+02  0.00000000000E+00 0.  1.
          1   -1    0    0  501    0  0.00000000000E+00 -0.00000000000E+00 -0.17344648677E+03  0.17344648677E+03  0.00000000000E+00 0. -1.
         25    2    1    2    0    0 -0.65178069857E+02  0.33280331527E+02 -0.39631722225E+02  0.15024714787E+03  0.12509104996E+03 0.  0.
          5    1    3    3  502    0 -0.69947638362E+01 -0.35139904306E+02  0.21058705576E+02  0.41769379650E+02  0.41800000000E+01 0.  1.
         -5    1    3    3    0  502 -0.58183306021E+02  0.68420235833E+02 -0.60690427802E+02  0.10847776822E+03  0.41800000000E+01 0.  1.
        -11    1    1    2    0    0  0.68200059644E+02  0.13341014487E+02 -0.24036620328E+02  0.73532237282E+02  0.00000000000E+00 0.  1.
         11    1    1    2    0    0 -0.30219897867E+01 -0.46621346014E+02 -0.11363860202E+02  0.48081385641E+02  0.00000000000E+00 0. -1.
</event>
<event>
 7    1  0.2670433E-009  0.1319212E+03  0.7561462E-02  0.1224633E+00
          2   -1    0    0  501    0  0.00000000000E+00  0.00000000000E+00  0.11365036168E+04  0.11365036168E+04  0.00000000000E+00 0. -1.
         -2   -1    0    0    0  501 -0.00000000000E+00 -0.00000000000E+00 -0.37822382487E+02  0.37822382487E+02  0.00000000000E+00 0.  1.
         25    2    1    2    0    0  0.29781105842E+02  0.74813057259E+02  0.10200608449E+04  0.10308518130E+04  0.12508966878E+03 0.  0.
          5    1    3    3  502    0  0.72986793850E+02  0.72494537571E+02  0.62729788957E+03  0.63569068320E+03  0.41800000000E+01 0. -1.
         -5    1    3    3    0  502 -0.43205688008E+02  0.23185196874E+01  0.39276295535E+03  0.39516112980E+03  0.41800000000E+01 0. -1.
        -11    1    1    2    0    0  0.30347432783E+02 -0.26296382763E+02  0.41539118569E+02  0.57775122625E+02  0.00000000000E+00 0.  1.
         11    1    1    2    0    0 -0.60128538625E+02 -0.48516674496E+02  0.37081270779E+02  0.85699063612E+02  0.00000000000E+00 0. -1.
</event>
<event>
 7    1  0.2670433E-009  0.9012534E+02  0.7561462E-02  0.1302548E+00
         -1   -1    0    0    0  501 -0.00000000000E+00  0.00000000000E+00  0.10917175909E+03  0.10917175909E+03  0.00000000000E+00 0.  1.
          1   -1    0    0  501    0  0.00000000000E+00 -0.00000000000E+00 -0.16173291930E+03  0.16173291930E+03  0.00000000000E+00 0. -1.
         25    2    1    2    0    0 -0.14524255229E+02 -0.59684745585E+02  0.19133707549E+02  0.14066496049E+03  0.12508920617E+03 0.  0.
          5    1    3    3  502    0 -0.70489441514E+01 -0.88089780687E+02  0.46811027067E+02  0.10009116709E+03  0.41800000000E+01 0.  1.
         -5    1    3    3    0  502 -0.74753110779E+01  0.28405035102E+02 -0.27677319518E+02  0.40573793396E+02  0.41800000000E+01 0.  1.
        -11    1    1    2    0    0  0.90681351688E+01  0.18883824399E+02 -0.84556766552E+02  0.87113010906E+02  0.00000000000E+00 0. -1.
         11    1    1    2    0    0  0.54561200604E+01  0.40800921186E+02  0.12861898798E+02  0.43126706997E+02  0.00000000000E+00 0.  1.
</event>
<event>
 7    1  0.2670433E-009  0.1436674E+03  0.7561462E-02  0.1208478E+00
         -2   -1    0    0    0  501 -0.00000000000E+00  0.00000000000E+00  0.29862502398E+03  0.29862502398E+03  0.00000000000E+00 0.  1.
          2   -1    0    0  501    0  0.00000000000E+00 -0.00000000000E+00 -0.10768506109E+03  0.10768506109E+03  0.00000000000E+00 0. -1.
         25    2    1    2    0    0  0.13731375201E+03  0.36677633693E+01  0.53973862335E+02  0.19345884474E+03  0.12507848662E+03 0.  0.
          5    1    3    3  502    0  0.41722603697E+01 -0.54109131405E+01  0.59298085702E+02  0.59836620105E+02  0.41800000000E+01 0.  1.
         -5    1    3    3    0  502  0.13314149164E+03  0.90786765098E+01 -0.53242233674E+01  0.13362222464E+03  0.41800000000E+01 0.  1.
        -11    1    1    2    0    0 -0.38588922996E+02 -0.23402590329E+02  0.92233257172E+02  0.10268281229E+03  0.00000000000E+00 0.  1.
         11    1    1    2    0    0 -0.98724829013E+02  0.19734826960E+02  0.44732843379E+02  0.11016842803E+03  0.00000000000E+00 0. -1.
</event>
<event>
 7    1  0.2670433E-009  0.5703500E+02  0.7561462E-02  0.1410713E+00
          1   -1    0    0  501    0  0.00000000000E+00  0.00000000000E+00  0.26515467641E+03  0.26515467641E+03  0.00000000000E+00 0. -1.
         -1   -1    0    0    0  501 -0.00000000000E+00 -0.00000000000E+00 -0.54202449445E+02  0.54202449445E+02  0.00000000000E+00 0.  1.
         25    2    1    2    0    0  0.30382846605E+01  0.10491491221E+02  0.18475032994E+03  0.22338052893E+03  0.12508746432E+03 0.  0.
          5    1    3    3  502    0  0.53708762962E+01  0.25369486007E+02  0.19989746672E+03  0.20161578989E+03  0.41800000000E+01 0.  1.
         -5    1    3    3    0  502 -0.23325916358E+01 -0.14877994786E+02 -0.15147136783E+02  0.21764739036E+02  0.41800000000E+01 0.  1.
        -11    1    1    2    0    0  0.18839317899E+02  0.24500460055E+02 -0.17787769042E+02  0.35659461147E+02  0.00000000000E+00 0.  1.
         11    1    1    2    0    0 -0.21877602559E+02 -0.34991951276E+02  0.43989666065E+02  0.60317135777E+02  0.00000000000E+00 0. -1.
</event>
<event>
 7    1  0.2670433E-009  0.8105835E+02  0.7561462E-02  0.1326075E+00
          2   -1    0    0  501    0  0.00000000000E+00  0.00000000000E+00  0.69169981372E+03  0.69169981372E+03  0.00000000000E+00 0. -1.
         -2   -1    0    0    0  501 -0.00000000000E+00 -0.00000000000E+00 -0.27774993401E+02  0.27774993401E+02  0.00000000000E+00 0.  1.
         25    2    1    2    0    0 -0.61826095283E+02  0.22273276675E+02  0.51728575606E+03  0.53623621555E+03  0.12508461347E+03 0.  0.
          5    1    3    3  502    0 -0.65111908972E+01  0.11228272680E+02  0.44129730384E+03  0.44150793027E+03  0.41800000000E+01 0. -1.
         -5    1    3    3    0  502 -0.55314904386E+02  0.11045003995E+02  0.75988452221E+02  0.94728285276E+02  0.41800000000E+01 0. -1.
        -11    1    1    2    0    0 -0.13261843744E+01 -0.28435969074E+02  0.62054092015E+01  0.29135377216E+02  0.00000000000E+00 0. -1.
         11    1    1    2    0    0  0.63152279657E+02  0.61626923988E+01  0.14043365506E+03  0.15410321436E+03  0.00000000000E+00 0.  1.
</event>
<event>
 7    1  0.2670433E-009  0.2652151E+03  0.7561462E-02  0.1104050E+00
          2   -1    0    0  501    0  0.00000000000E+00  0.00000000000E+00  0.12398702032E+04  0.12398702032E+04  0.00000000000E+00 0. -1.
         -2   -1    0    0    0  501 -0.00000000000E+00 -0.00000000000E+00 -0.59342578589E+02  0.59342578589E+02  0.00000000000E+00 0.  1.
         25    2    1    2    0    0  0.24365499162E+03  0.38506641653E+02  0.53232859812E+03  0.59989348813E+03  0.12509174369E+03 0.  0.
          5    1    3    3  502    0  0.19624645153E+03 -0.23345128744E+02  0.35953965785E+03  0.41029733455E+03  0.41800000000E+01 0.  1.
         -5    1    3    3    0  502  0.47408540094E+02  0.61851770397E+02  0.17278894027E+03  0.18959615359E+03  0.41800000000E+01 0.  1.
        -11    1    1    2    0    0 -0.19753897888E+03 -0.56107125251E+02  0.44322191706E+03  0.48848267670E+03  0.00000000000E+00 0.  1.
         11    1    1    2    0    0 -0.46116012746E+02  0.17600483598E+02  0.20497710942E+03  0.21083661694E+03  0.00000000000E+00 0. -1.
</event>
<event>
 7    1  0.2670433E-009  0.1350715E+03  0.7561462E-02  0.1220119E+00
         -1   -1    0    0    0  501 -0.00000000000E+00  0.00000000000E+00  0.29659877622E+02  0.29659877622E+02  0.00000000000E+00 0.  1.
          1   -1    0    0  501    0  0.00000000000E+00 -0.00000000000E+00 -0.63849864393E+03  0.63849864393E+03  0.00000000000E+00 0. -1.
         25    2    1    2    0    0  0.59480320052E+02  0.58101592742E+02 -0.29958394223E+03  0.33512912457E+03  0.12508912081E+03 0.  0.
          5    1    3    3  502    0  0.25627835474E+01  0.85340765947E+02 -0.14852116449E+03  0.17136400700E+03  0.41800000000E+01 0.  1.
         -5    1    3    3    0  502  0.56917536505E+02 -0.27239173205E+02 -0.15106277773E+03  0.16376511758E+03  0.41800000000E+01 0.  1.
        -11    1    1    2    0    0  0.14274329377E+02  0.12758277196E+02 -0.29536025693E+02  0.35198109749E+02  0.00000000000E+00 0.  1.
         11    1    1    2    0    0 -0.73754649429E+02 -0.70859869938E+02 -0.27971879839E+03  0.29783128723E+03  0.00000000000E+00 0. -1.
</event>
<event>
 7    1  0.2670433E-009  0.1698379E+03  0.7561462E-02  0.1178017E+00
         -2   -1    0    0    0  501 -0.00000000000E+00  0.00000000000E+00  0.23281554563E+02  0.23281554563E+02  0.00000000000E+00 0.  1.
          2   -1    0    0  501    0  0.00000000000E+00 -0.00000000000E+00 -0.30570276119E+04  0.30570276119E+04  0.00000000000E+00 0. -1.
         25    2    1    2    0    0 -0.49742324763E+02  0.13540270680E+03 -0.26919870171E+04  0.26987497183E+04  0.12509096470E+03 0.  0.
          5    1    3    3  502    0 -0.84030734904E+02  0.58516992519E+02 -0.17503987413E+04  0.17533963125E+04  0.41800000000E+01 0.  1.
         -5    1    3    3    0  502  0.34288410141E+02  0.76885714286E+02 -0.94158827582E+03  0.94535340572E+03  0.41800000000E+01 0.  1.
        -11    1    1    2    0    0  0.59830343671E+02 -0.12399594738E+03 -0.33925598058E+03  0.36612741682E+03  0.00000000000E+00 0.  1.
         11    1    1    2    0    0 -0.10088018908E+02 -0.11406759427E+02 -0.25030596502E+01  0.15432031420E+02  0.00000000000E+00 0. -1.
</event>
<event>
 7    1  0.2670433E-009  0.1192686E+03  0.7561462E-02  0.1244308E+00
         -1   -1    0    0    0  501 -0.00000000000E+00  0.00000000000E+00  0.10492155895E+03  0.10492155895E+03  0.00000000000E+00 0.  1.
          1   -1    0    0  501    0  0.00000000000E+00 -0.00000000000E+00 -0.20813278151E+03  0.20813278151E+03  0.00000000000E+00 0. -1.
         25    2    1    2    0    0 -0.57967520894E+02 -0.76432998654E+02 -0.36556671707E+02  0.16182087434E+03  0.12508944145E+03 0.  0.
          5    1    3    3  502    0 -0.62151635521E+02 -0.73157710844E+02  0.25488614579E+02  0.99408341335E+02  0.41800000000E+01 0.  1.
         -5    1    3    3    0  502  0.41841146270E+01 -0.32752878096E+01 -0.62045286286E+02  0.62412533002E+02  0.41800000000E+01 0.  1.
        -11    1    1    2    0    0  0.24898186812E+02  0.94695812317E+02 -0.50116543260E+02  0.10999492936E+03  0.00000000000E+00 0.  1.
         11    1    1    2    0    0  0.33069334082E+02 -0.18262813663E+02 -0.16538007590E+02  0.41238536765E+02  0.00000000000E+00 0. -1.
</event>
<event>
 7    1  0.2670433E-009  0.8304362E+02  0.7561462E-02  0.1320629E+00
          2   -1    0    0  501    0  0.00000000000E+00  0.00000000000E+00  0.12279273873E+03  0.12279273873E+03  0.00000000000E+00 0. -1.
         -2   -1    0    0    0  501 -0.00000000000E+00 -0.00000000000E+00 -0.10262446061E+03  0.10262446061E+03  0.00000000000E+00 0.  1.
         25    2    1    2    0    0  0.28555619209E+02  0.43293010896E+01  0.75954897718E+01  0.12861064696E+03  0.12509532689E+03 0.  0.
          5    1    3    3  502    0  0.46242723173E+02  0.25965870572E+02 -0.44492534470E+02  0.69351812554E+02  0.41800000000E+01 0.  1.
         -5    1    3    3    0  502 -0.17687103964E+02 -0.21636569482E+02  0.52088024242E+02  0.59258834405E+02  0.41800000000E+01 0.  1.
        -11    1    1    2    0    0  0.22568426353E+02  0.17977192614E+02  0.26651469054E+02  0.39278672649E+02  0.00000000000E+00 0. -1.
         11    1    1    2    0    0 -0.51124045562E+02 -0.22306493703E+02 -0.14078680712E+02  0.57527879733E+02  0.00000000000E+00 0.  1.
</event>
<event>
 7    1  0.2670433E-009  0.1441483E+03  0.7561462E-02  0.1207854E+00
          1   -1    0    0  501    0  0.00000000000E+00  0.00000000000E+00  0.26045707627E+03  0.26045707627E+03  0.00000000000E+00 0. -1.
         -1   -1    0    0    0  501 -0.00000000000E+00 -0.00000000000E+00 -0.10723972793E+03  0.10723972793E+03  0.00000000000E+00 0.  1.
         25    2    1    2    0    0  0.84899122853E+02  0.92957931222E+02  0.64440316328E+02  0.18880762887E+03  0.12508688305E+03 0.  0.
          5    1    3    3  502    0 -0.11857015514E+02  0.62364520127E-01  0.52608753143E+02  0.54090165590E+02  0.41800000000E+01 0. -1.
         -5    1    3    3    0  502  0.96756138367E+02  0.92895566702E+02  0.11831563185E+02  0.13471746328E+03  0.41800000000E+01 0. -1.
        -11    1    1    2    0    0 -0.95705548736E+02 -0.80717766972E+02  0.46478038772E+02  0.13354818625E+03  0.00000000000E+00 0.  1.
         11    1    1    2    0    0  0.10806425882E+02 -0.12240164250E+02  0.42298993238E+02  0.45340989074E+02  0.00000000000E+00 0. -1.
</event>
<event>
 7    1  0.2670433E-009  0.1259779E+03  0.7561462E-02  0.1233549E+00
          1   -1    0    0  501    0  0.00000000000E+00  0.00000000000E+00  0.62939241033E+03  0.62939241033E+03  0.00000000000E+00 0. -1.
         -1   -1    0    0    0  501 -0.00000000000E+00 -0.00000000000E+00 -0.39044513056E+02  0.39044513056E+02  0.00000000000E+00 0.  1.
         25    2    1    2    0    0 -0.81497640156E+02  0.48229475856E+02  0.18944940315E+03  0.24597984171E+03  0.12508820281E+03 0.  0.
          5    1    3    3  502    0 -0.94561871452E+02  0.13616106502E+02  0.63867944116E+02  0.11499535893E+03  0.41800000000E+01 0. -1.
         -5    1    3    3    0  502  0.13064231296E+02  0.34613369354E+02  0.12558145903E+03  0.13098448279E+03  0.41800000000E+01 0. -1.
        -11    1    1    2    0    0  0.44864813132E+02 -0.64859395105E+02  0.16179052474E+03  0.17998823985E+03  0.00000000000E+00 0.  1.
         11    1    1    2    0    0  0.36632827024E+02  0.16629919249E+02  0.23910796939E+03  0.24246884182E+03  0.00000000000E+00 0. -1.
</event>
<event>
 7    1  0.2670433E-009  0.6925474E+02  0.7561462E-02  0.1362646E+00
          2   -1    0    0  501    0  0.00000000000E+00  0.00000000000E+00  0.47188950315E+02  0.47188950315E+02  0.00000000000E+00 0. -1.
         -2   -1    0    0    0  501 -0.00000000000E+00 -0.00000000000E+00 -0.28693647674E+03  0.28693647674E+03  0.00000000000E+00 0.  1.
         25    2    1    2    0    0 -0.54876857745E+01 -0.37249700024E+02 -0.10308636128E+03  0.16641107205E+03  0.12509273428E+03 0.  0.
          5    1    3    3  502    0  0.58875621750E+01 -0.10863664197E+02  0.28667460698E+02  0.31495686863E+02  0.41800000000E+01 0. -1.
         -5    1    3    3    0  502 -0.11375247950E+02 -0.26386035827E+02 -0.13175382198E+03  0.13491538518E+03  0.41800000000E+01 0. -1.
        -11    1    1    2    0    0  0.45425202589E+02  0.62098284802E+01 -0.75696087699E+02  0.88498071691E+02  0.00000000000E+00 0.  1.
         11    1    1    2    0    0 -0.39937516815E+02  0.31039871544E+02 -0.60965077439E+02  0.79216283313E+02  0.00000000000E+00 0. -1.
</event>
<event>
 7    1  0.2670433E-009  0.1520219E+03  0.7561462E-02  0.1198010E+00
          2   -1    0    0  501    0  0.00000000000E+00  0.00000000000E+00  0.57202827827E+02  0.57202827827E+02  0.00000000000E+00 0.  1.
         -2   -1    0    0    0  501 -0.00000000000E+00 -0.00000000000E+00 -0.49680443169E+03  0.49680443169E+03  0.00000000000E+00 0. -1.
         25    2    1    2    0    0  0.10734630782E+03  0.84175270818E+01 -0.34871522833E+03  0.38580201994E+03  0.12508718384E+03 0.  0.
          5    1    3    3  502    0 -0.27964842241E+02 -0.34179872838E+01 -0.48122652711E+02  0.55919380742E+02  0.41800000000E+01 0. -1.
         -5    1    3    3    0  502  0.13531115006E+03  0.11835514366E+02 -0.30059257561E+03  0.32988263920E+03  0.41800000000E+01 0. -1.
        -11    1    1    2    0    0 -0.45734284017E+02  0.40430869364E+02 -0.53380115436E+02  0.81090792671E+02  0.00000000000E+00 0.  1.
         11    1    1    2    0    0 -0.61612023802E+02 -0.48848396446E+02 -0.37506260098E+02  0.87114446901E+02  0.00000000000E+00 0. -1.
</event>
<event>
 7    1  0.2670433E-009  0.1790592E+03  0.7561462E-02  0.1168717E+00
          1   -1    0    0  501    0  0.00000000000E+00  0.00000000000E+00  0.97556904573E+03  0.97556904573E+03  0.00000000000E+00 0. -1.
         -1   -1    0    0    0  501 -0.00000000000E+00 -0.00000000000E+00 -0.43797007214E+02  0.43797007214E+02  0.00000000000E+00 0.  1.
         25    2    1    2    0    0 -0.40042630370E+02  0.16943954900E+03  0.53076349068E+03  0.57242524798E+03  0.12509040118E+03 0.  0.
          5    1    3    3  502    0 -0.23406730179E+02  0.41826637303E+02  0.33287398010E+03  0.33633302192E+03  0.41800000000E+01 0.  1.
         -5    1    3    3    0  502 -0.16635900191E+02  0.12761291169E+03  0.19788951059E+03  0.23609222606E+03  0.41800000000E+01 0.  1.
        -11    1    1    2    0    0 -0.86082762380E+01 -0.70159462055E+02  0.24990290621E+03  0.25970736430E+03  0.00000000000E+00 0. -1.
         11    1    1    2    0    0  0.48650906608E+02 -0.99280086941E+02  0.15110564162E+03  0.18723344067E+03  0.00000000000E+00 0.  1.
</event>
<event>
 7    1  0.2670433E-009  0.1337033E+03  0.7561462E-02  0.1222062E+00
         -2   -1    0    0    0  501 -0.00000000000E+00  0.00000000000E+00  0.68779631427E+02  0.68779631427E+02  0.00000000000E+00 0.  1.
          2   -1    0    0  501    0  0.00000000000E+00 -0.00000000000E+00 -0.27842041667E+03  0.27842041667E+03  0.00000000000E+00 0. -1.
         25    2    1    2    0    0  0.83459301806E+02  0.18015590875E+01 -0.91123092501E+02  0.17584201523E+03  0.12509314794E+03 0.  0.
          5    1    3    3  502    0 -0.30060417796E+02  0.11307964249E+02 -0.45613613480E+01  0.32707448554E+02  0.41800000000E+01 0.  1.
         -5    1    3    3    0  502  0.11351971960E+03 -0.95064051618E+01 -0.86561731153E+02  0.14313456668E+03  0.41800000000E+01 0.  1.
        -11    1    1    2    0    0 -0.62828360035E+02 -0.42185000177E+02 -0.56085207662E+02  0.94194095266E+02  0.00000000000E+00 0. -1.
         11    1    1    2    0    0 -0.20630941771E+02  0.40383441090E+02 -0.62432485083E+02  0.77163937602E+02  0.00000000000E+00 0.  1.
</event>
<event>
 7    1  0.2670433E-009  0.8272630E+02  0.7561462E-02  0.1321488E+00
          3   -1    0    0  501    0  0.00000000000E+00  0.00000000000E+00  0.41351764882E+02  0.41351764882E+02  0.00000000000E+00 0.  1.
         -3   -1    0    0    0  501 -0.00000000000E+00 -0.00000000000E+00 -0.30999549092E+03  0.30999549092E+03  0.00000000000E+00 0. -1.
         25    2    1    2    0    0  0.12389214187E+02 -0.12446827415E+02 -0.10703704984E+03  0.16556767383E+03  0.12508920192E+03 0.  0.
          5    1    3    3  502    0 -0.33437864075E+02 -0.66654075811E+01  0.13119345306E+02  0.36771021653E+02  0.41800000000E+01 0.  1.
         -5    1    3    3    0  502  0.45827078262E+02 -0.57814198340E+01 -0.12015639515E+03  0.12879665218E+03  0.41800000000E+01 0.  1.
        -11    1    1    2    0    0  0.20809672603E+02 -0.26404338108E+02 -0.10129648270E+03  0.10672960673E+03  0.00000000000E+00 0. -1.
         11    1    1    2    0    0 -0.33198886790E+02  0.38851165523E+02 -0.60310193495E+02  0.79049975243E+02  0.00000000000E+00 0.  1.
</event>
<event>
 7    1  0.2670433E-009  0.1004081E+03  0.7561462E-02  0.1279440E+00
         -1   -1    0    0    0  501 -0.00000000000E+00  0.00000000000E+00  0.34278038429E+02  0.34278038429E+02  0.00000000000E+00 0.  1.
          1   -1    0    0  501    0  0.00000000000E+00 -0.00000000000E+00 -0.35108247327E+03  0.35108247327E+03  0.00000000000E+00 0. -1.
         25    2    1    2    0    0 -0.98936982911E+01 -0.15432333457E+02 -0.17491458308E+03  0.21581769045E+03  0.12508445928E+03 0.  0.
          5    1    3    3  502    0  0.55064247082E+02 -0.76874984922E+01 -0.50664577806E+02  0.75336185091E+02  0.41800000000E+01 0.  1.
         -5    1    3    3    0  502 -0.64957945374E+02 -0.77448349643E+01 -0.12425000528E+03  0.14048150536E+03  0.41800000000E+01 0.  1.
        -11    1    1    2    0    0  0.51082558638E+01 -0.31713085892E+02 -0.10406639952E+03  0.10891110873E+03  0.00000000000E+00 0. -1.
         11    1    1    2    0    0  0.47854424273E+01  0.47145419349E+02 -0.37823452239E+02  0.60631712528E+02  0.00000000000E+00 0.  1.
</event>
<event>
 7    1  0.2670433E-009  0.1324817E+03  0.7561462E-02  0.1223819E+00
         -1   -1    0    0    0  501 -0.00000000000E+00  0.00000000000E+00  0.53409712421E+02  0.53409712421E+02  0.00000000000E+00 0.  1.
          1   -1    0    0  501    0  0.00000000000E+00 -0.00000000000E+00 -0.44700531110E+03  0.44700531110E+03  0.00000000000E+00 0. -1.
         25    2    1    2    0    0  0.35128978880E+02 -0.10595820527E+03 -0.16290612039E+03  0.23376627429E+03  0.12508829087E+03 0.  0.
          5    1    3    3  502    0 -0.21948658030E+02 -0.40804864997E+02  0.29417575271E+01  0.46614449842E+02  0.41800000000E+01 0. -1.
         -5    1    3    3    0  502  0.57077636910E+02 -0.65153340275E+02 -0.16584787791E+03  0.18715182444E+03  0.41800000000E+01 0. -1.
        -11    1    1    2    0    0 -0.34892086350E+02  0.10745510037E+02 -0.44788432952E+02  0.57783452667E+02  0.00000000000E+00 0. -1.
         11    1    1    2    0    0 -0.23689252994E+00  0.95212695235E+02 -0.18590104534E+03  0.20886529657E+03  0.00000000000E+00 0.  1.
</event>
<event>
 7    1  0.3013894E-009  0.2253814E+03  0.7561462E-02  0.1129933E+00
          2   -1    0    0  501    0  0.00000000000E+00  0.00000000000E+00  0.73909487132E+03  0.73909487132E+03  0.00000000000E+00 0. -1.
         -2   -1    0    0    0  501 -0.00000000000E+00 -0.00000000000E+00 -0.83945723286E+02  0.83945723286E+02  0.00000000000E+00 0.  1.
         25    2    1    2    0    0  0.11301297701E+03 -0.17560545875E+03  0.20462870243E+03  0.31800977014E+03  0.12509235760E+03 0.  0.
          5    1    3    3  502    0  0.11101950641E+03 -0.82965431719E+02  0.72204031566E+02  0.15633134119E+03  0.41800000000E+01 0.  1.
         -5    1    3    3    0  502  0.19934705969E+01 -0.92640027034E+02  0.13242467086E+03  0.16167842895E+03  0.41800000000E+01 0.  1.
        -11    1    1    2    0    0 -0.33482594318E+02  0.11380920255E+03  0.31178379089E+03  0.33359069377E+03  0.00000000000E+00 0. -1.
         11    1    1    2    0    0 -0.79530382693E+02  0.61796256199E+02  0.13873665472E+03  0.17144013070E+03  0.00000000000E+00 0.  1.
</event>
<event>
 7    1  0.2670433E-009  0.1070874E+03  0.7561462E-02  0.1266061E+00
         -1   -1    0    0    0  501 -0.00000000000E+00  0.00000000000E+00  0.19982757534E+03  0.19982757534E+03  0.00000000000E+00 0.  1.
          1   -1    0    0  501    0  0.00000000000E+00 -0.00000000000E+00 -0.58662496012E+02  0.58662496012E+02  0.00000000000E+00 0. -1.
         25    2    1    2    0    0 -0.10319745820E+02 -0.52806194875E+01  0.87721212061E+02  0.15322187553E+03  0.12509016748E+03 0.  0.
          5    1    3    3  502    0  0.22026416160E+02 -0.57612901949E+02  0.29830827552E+02  0.68642262144E+02  0.41800000000E+01 0.  1.
         -5    1    3    3    0  502 -0.32346161980E+02  0.52332282462E+02  0.57890384509E+02  0.84579613390E+02  0.41800000000E+01 0.  1.
        -11    1    1    2    0    0  0.48424038550E+02  0.16182532324E+02  0.29666093227E+02  0.59049461888E+02  0.00000000000E+00 0.  1.
         11    1    1    2    0    0 -0.38104292729E+02 -0.10901912837E+02  0.23777774041E+02  0.46218733931E+02  0.00000000000E+00 0. -1.
</event>
<event>
 7    1  0.2670433E-009  0.9618276E+02  0.7561462E-02  0.1288534E+00
         -1   -1    0    0    0  501 -0.00000000000E+00  0.00000000000E+00  0.32861396230E+03  0.32861396230E+03  0.00000000000E+00 0. -1.
          1   -1    0    0  501    0  0.00000000000E+00 -0.00000000000E+00 -0.39467887953E+02  0.39467887953E+02  0.00000000000E+00 0.  1.
         25    2    1    2    0    0  0.12716509304E+02  0.28428687591E+02  0.18594448288E+03  0.22626764172E+03  0.12510713445E+03 0.  0.
          5    1    3    3  502    0  0.62277964272E+02 -0.13512994463E+02  0.91892538271E+02  0.11190557110E+03  0.41800000000E+01 0.  1.
         -5    1    3    3    0  502 -0.49561454968E+02  0.41941682054E+02  0.94051944614E+02  0.11436207063E+03  0.41800000000E+01 0.  1.
        -11    1    1    2    0    0 -0.32144317988E+02 -0.42505717780E+01  0.10583088757E+03  0.11068650009E+03  0.00000000000E+00 0. -1.
         11    1    1    2    0    0  0.19427808684E+02 -0.24178115813E+02 -0.26292961054E+01  0.31127708437E+02  0.00000000000E+00 0.  1.
</event>
<event>
 7    1  0.2670433E-009  0.8859450E+02  0.7561462E-02  0.1306291E+00
         -1   -1    0    0    0  501 -0.00000000000E+00  0.00000000000E+00  0.45966545913E+03  0.45966545913E+03  0.00000000000E+00 0.  1.
          1   -1    0    0  501    0  0.00000000000E+00 -0.00000000000E+00 -0.39388552033E+02  0.39388552033E+02  0.00000000000E+00 0. -1.
         25    2    1    2    0    0 -0.59004786981E+02 -0.30783614165E+02  0.15285074198E+03  0.20842302385E+03  0.12509041434E+03 0.  0.
          5    1    3    3  502    0 -0.48423492727E+01 -0.26517810534E+02 -0.15568236797E+02  0.31408359062E+02  0.41800000000E+01 0. -1.
         -5    1    3    3    0  502 -0.54162437708E+02 -0.42658036313E+01  0.16841897878E+03  0.17701466479E+03  0.41800000000E+01 0. -1.
        -11    1    1    2    0    0  0.73250392404E+02  0.34091618894E+02  0.26332627809E+03  0.27544252976E+03  0.00000000000E+00 0.  1.
         11    1    1    2    0    0 -0.14245605423E+02 -0.33080047291E+01  0.40998870266E+01  0.15188457551E+02  0.00000000000E+00 0. -1.
</event>
<event>
 7    1  0.2670433E-009  0.7832356E+02  0.7561462E-02  0.1333877E+00
         -1   -1    0    0    0  501 -0.00000000000E+00  0.00000000000E+00  0.20169545091E+03  0.20169545091E+03  0.00000000000E+00 0.  1.
          1   -1    0    0  501    0  0.00000000000E+00 -0.00000000000E+00 -0.20680579173E+03  0.20680579173E+03  0.00000000000E+00 0. -1.
         25    2    1    2    0    0 -0.26157627764E+02  0.65984427080E+02  0.15489355659E+03  0.21137908286E+03  0.12510370374E+03 0.  0.
          5    1    3    3  502    0 -0.33511820705E+02  0.22319923259E+02 -0.90749666995E+01  0.41485521834E+02  0.41800000000E+01 0.  1.
         -5    1    3    3    0  502  0.73541929408E+01  0.43664503821E+02  0.16396852329E+03  0.16989356102E+03  0.41800000000E+01 0.  1.
        -11    1    1    2    0    0  0.25350664674E+02 -0.53742327418E+02 -0.17076167749E+03  0.18080499012E+03  0.00000000000E+00 0. -1.
         11    1    1    2    0    0  0.80696309024E+00 -0.12242099662E+02  0.10757780075E+02  0.16317169660E+02  0.00000000000E+00 0.  1.
</event>
<event>
 7    1  0.2670433E-009  0.9610302E+02  0.7561462E-02  0.1288711E+00
          2   -1    0    0  501    0  0.00000000000E+00  0.00000000000E+00  0.23819911770E+03  0.23819911770E+03  0.00000000000E+00 0. -1.
         -2   -1    0    0    0  501 -0.00000000000E+00 -0.00000000000E+00 -0.51987125384E+02  0.51987125384E+02  0.00000000000E+00 0.  1.
         25    2    1    2    0    0  0.22237995049E+02 -0.44681128329E+01  0.11642108783E+03  0.17238054973E+03  0.12508673701E+03 0.  0.
          5    1    3    3  502    0  0.23807032533E+02 -0.59921238361E+02  0.90002720049E+02  0.11079391509E+03  0.41800000000E+01 0.  1.
         -5    1    3    3    0  502 -0.15690374833E+01  0.55453125529E+02  0.26418367784E+02  0.61586634637E+02  0.41800000000E+01 0.  1.
        -11    1    1    2    0    0 -0.46254149570E+02  0.99837858863E+01  0.78509691559E+02  0.91667300613E+02  0.00000000000E+00 0. -1.
         11    1    1    2    0    0  0.24016154521E+02 -0.55156730534E+01 -0.87187870756E+01  0.26138392744E+02  0.00000000000E+00 0.  1.
</event>
<event>
 7    1  0.2670433E-009  0.2611911E+03  0.7561462E-02  0.1106430E+00
         -3   -1    0    0    0  501 -0.00000000000E+00  0.00000000000E+00  0.47190433602E+03  0.47190433602E+03  0.00000000000E+00 0.  1.
          3   -1    0    0  501    0  0.00000000000E+00 -0.00000000000E+00 -0.16460240118E+03  0.16460240118E+03  0.00000000000E+00 0. -1.
         25    2    1    2    0    0  0.13415283283E+03 -0.21118061651E+03  0.92420313646E+02  0.29458930566E+03  0.12508840588E+03 0.  0.
          5    1    3    3  502    0 -0.10825907193E+02 -0.24134829716E+02  0.46241043753E+02  0.53435913011E+02  0.41800000000E+01 0.  1.
         -5    1    3    3    0  502  0.14497874002E+03 -0.18704578680E+03  0.46179269894E+02  0.24115339265E+03  0.41800000000E+01 0.  1.
        -11    1    1    2    0    0 -0.64358562256E+01  0.62826571399E+02  0.89177515355E+02  0.10927592399E+03  0.00000000000E+00 0.  1.
         11    1    1    2    0    0 -0.12771697660E+03  0.14835404511E+03  0.12570410584E+03  0.23264150756E+03  0.00000000000E+00 0. -1.
</event>
<event>
 7    1  0.2937558E-009  0.1891409E+03  0.7561462E-02  0.1159238E+00
         -2   -1    0    0    0  501 -0.00000000000E+00  0.00000000000E+00  0.13613338418E+03  0.13613338418E+03  0.00000000000E+00 0.  1.
          2   -1    0    0  501    0  0.00000000000E+00 -0.00000000000E+00 -0.30738007953E+03  0.30738007953E+03  0.00000000000E+00 0. -1.
         25    2    1    2    0    0 -0.16392019379E+03  0.19835871798E+02 -0.32643859300E+02  0.20970549289E+03  0.12508988950E+03 0.  0.
          5    1    3    3  502    0 -0.69198597389E+02  0.66141727381E+02  0.90659391733E+01  0.96243636853E+02  0.41800000000E+01 0.  1.
         -5    1    3    3    0  502 -0.94721596401E+02 -0.46305855583E+02 -0.41709798474E+02  0.11346185603E+03  0.41800000000E+01 0.  1.
        -11    1    1    2    0    0  0.85969551583E+02 -0.42318487107E+02 -0.34535806253E+02  0.10185450439E+03  0.00000000000E+00 0.  1.
         11    1    1    2    0    0  0.77950642207E+02  0.22482615309E+02 -0.10406702980E+03  0.13195346643E+03  0.00000000000E+00 0. -1.
</event>
<event>
 7    1  0.2670433E-009  0.9680631E+02  0.7561462E-02  0.1287159E+00
         -2   -1    0    0    0  501 -0.00000000000E+00  0.00000000000E+00  0.18324377055E+02  0.18324377055E+02  0.00000000000E+00 0.  1.
          2   -1    0    0  501    0  0.00000000000E+00 -0.00000000000E+00 -0.77296257170E+03  0.77296257170E+03  0.00000000000E+00 0. -1.
         25    2    1    2    0    0  0.37843659243E+02 -0.96313147606E+01 -0.51826993725E+03  0.53458057512E+03  0.12509100158E+03 0.  0.
          5    1    3    3  502    0 -0.20054399607E+02 -0.26418759777E+02 -0.40342999528E+03  0.40481275091E+03  0.41800000000E+01 0.  1.
         -5    1    3    3    0  502  0.57898058849E+02  0.16787445016E+02 -0.11483994197E+03  0.12976782421E+03  0.41800000000E+01 0.  1.
        -11    1    1    2    0    0 -0.66841513696E+02 -0.54612447574E+01 -0.16917399043E+03  0.18198201061E+03  0.00000000000E+00 0. -1.
         11    1    1    2    0    0  0.28997854454E+02  0.15092559518E+02 -0.67194266965E+02  0.74724363019E+02  0.00000000000E+00 0.  1.
</event>
<event>
 7    1  0.2670433E-009  0.7776323E+02  0.7561462E-02  0.1335522E+00
          1   -1    0    0  501    0  0.00000000000E+00  0.00000000000E+00  0.16919080192E+03  0.16919080192E+03  0.00000000000E+00 0. -1.
         -1   -1    0    0    0  501 -0.00000000000E+00 -0.00000000000E+00 -0.86139181044E+02  0.86139181044E+02  0.00000000000E+00 0.  1.
         25    2    1    2    0    0 -0.27291799023E+02 -0.12473719691E+02 -0.68334231970E+01  0.12882442459E+03  0.12509436726E+03 0.  0.
          5    1    3    3  502    0  0.13372182722E+02  0.22395101939E+02  0.46270608378E+02  0.53280366565E+02  0.41800000000E+01 0.  1.
         -5    1    3    3    0  502 -0.40663981745E+02 -0.34868821631E+02 -0.53104031575E+02  0.75544058024E+02  0.41800000000E+01 0.  1.
        -11    1    1    2    0    0 -0.23522740213E+02  0.43088069049E+01  0.65156926856E+02  0.69406845781E+02  0.00000000000E+00 0. -1.
         11    1    1    2    0    0  0.50814539236E+02  0.81649127861E+01  0.24728117217E+02  0.57098712591E+02  0.00000000000E+00 0.  1.
</event>
<event>
 7    1  0.2670433E-009  0.1939044E+03  0.7561462E-02  0.1154986E+00
          1   -1    0    0  501    0  0.00000000000E+00  0.00000000000E+00  0.51835931617E+03  0.51835931617E+03  0.00000000000E+00 0. -1.
         -1   -1    0    0    0  501 -0.00000000000E+00 -0.00000000000E+00 -0.89234001707E+02  0.89234001707E+02  0.00000000000E+00 0.  1.
         25    2    1    2    0    0 -0.10338352363E+03 -0.15046210722E+03  0.26749862987E+03  0.34717439167E+03  0.12509013783E+03 0.  0.
          5    1    3    3  502    0 -0.27452120169E+02 -0.10372081317E+03  0.64101548042E+02  0.12505241640E+03  0.41800000000E+01 0. -1.
         -5    1    3    3    0  502 -0.75931403462E+02 -0.46741294052E+02  0.20339708183E+03  0.22212197527E+03  0.41800000000E+01 0. -1.
        -11    1    1    2    0    0  0.18476737605E+02  0.76084473938E+02  0.22908487757E+02  0.81578402891E+02  0.00000000000E+00 0.  1.
         11    1    1    2    0    0  0.84906786027E+02  0.74377633285E+02  0.13871819684E+03  0.17884052332E+03  0.00000000000E+00 0. -1.
</event>
<event>
 7    1  0.2670433E-009  0.1182733E+03  0.7561462E-02  0.1245973E+00
          2   -1    0    0  501    0  0.00000000000E+00  0.00000000000E+00  0.41085662899E+03  0.41085662899E+03  0.00000000000E+00 0. -1.
         -2   -1    0    0    0  501 -0.00000000000E+00 -0.00000000000E+00 -0.37957249363E+02  0.37957249363E+02  0.00000000000E+00 0.  1.
         25    2    1    2    0    0  0.14114222588E+02 -0.60349573719E+02  0.19228268747E+03  0.23760886391E+03  0.12507620868E+03 0.  0.
          5    1    3    3  502    0 -0.20599456001E+02 -0.85634561439E+02  0.87198456634E+02  0.12401072107E+03  0.41800000000E+01 0.  1.
         -5    1    3    3    0  502  0.34713678589E+02  0.25284987720E+02  0.10508423084E+03  0.11359814284E+03  0.41800000000E+01 0.  1.
        -11    1    1    2    0    0  0.28960597653E+02 -0.24547926759E+01  0.26649472161E+02  0.39432684285E+02  0.00000000000E+00 0.  1.
         11    1    1    2    0    0 -0.43074820240E+02  0.62804366395E+02  0.15396721999E+03  0.17177233016E+03  0.00000000000E+00 0. -1.
</event>
<event>
 7    1  0.2670433E-009  0.1216899E+03  0.7561462E-02  0.1240335E+00
          1   -1    0    0  501    0  0.00000000000E+00  0.00000000000E+00  0.39802803286E+03  0.39802803286E+03  0.00000000000E+00 0. -1.
         -1   -1    0    0    0  501 -0.00000000000E+00 -0.00000000000E+00 -0.51939016215E+02  0.51939016215E+02  0.00000000000E+00 0.  1.
         25    2    1    2    0    0 -0.47707404838E+02 -0.71823965324E+02  0.24177870168E+03  0.28554791905E+03  0.12508395188E+03 0.  0.
          5    1    3    3  502    0  0.18285550467E+02 -0.71959691364E+02  0.72692126718E+02  0.10399123148E+03  0.41800000000E+01 0. -1.
         -5    1    3    3    0  502 -0.65992955305E+02  0.13572603914E+00  0.16908657496E+03  0.18155668758E+03  0.41800000000E+01 0. -1.
        -11    1    1    2    0    0  0.57589118771E+02  0.41465598296E+02  0.11105155391E+03  0.13178903622E+03  0.00000000000E+00 0. -1.
         11    1    1    2    0    0 -0.98817139332E+01  0.30358367028E+02 -0.67412389454E+01  0.32630093800E+02  0.00000000000E+00 0.  1.
</event>
<event>
 7    1  0.2670433E-009  0.2581474E+03  0.7561462E-02  0.1108261E+00
          2   -1    0    0  501    0  0.00000000000E+00  0.00000000000E+00  0.12565258162E+04  0.12565258162E+04  0.00000000000E+00 0. -1.
         -2   -1    0    0    0  501 -0.00000000000E+00 -0.00000000000E+00 -0.83086337076E+02  0.83086337076E+02  0.00000000000E+00 0.  1.
         25    2    1    2    0    0  0.78166851795E+02 -0.22787297443E+03  0.97911057157E+03  0.10160428306E+04  0.12509745426E+03 0.  0.
          5    1    3    3  502    0  0.87814521791E+01  0.15361601079E+02  0.78507975285E+02  0.80585775875E+02  0.41800000000E+01 0.  1.
         -5    1    3    3    0  502  0.69385399616E+02 -0.24323457551E+03  0.90060259629E+03  0.93545705473E+03  0.41800000000E+01 0.  1.
        -11    1    1    2    0    0 -0.83771925754E+02  0.20225570574E+03  0.13122926786E+03  0.25523758891E+03  0.00000000000E+00 0.  1.
         11    1    1    2    0    0  0.56050739597E+01  0.25617268686E+02  0.63099639686E+02  0.68331733752E+02  0.00000000000E+00 0. -1.
</event>
<event>
 7    1  0.2670433E-009  0.2894516E+03  0.7561462E-02  0.1090636E+00
         -2   -1    0    0    0  501 -0.00000000000E+00  0.00000000000E+00  0.30304495616E+03  0.30304495616E+03  0.00000000000E+00 0.  1.
          2   -1    0    0  501    0  0.00000000000E+00 -0.00000000000E+00 -0.29719937236E+03  0.29719937236E+03  0.00000000000E+00 0. -1.
         25    2    1    2    0    0  0.25119200861E+03  0.12172979587E+03  0.18734228433E+02  0.30645432519E+03  0.12509082188E+03 0.  0.
          5    1    3    3  502    0  0.22911542933E+03  0.64268526025E+02 -0.10402093771E+02  0.23822258362E+03  0.41800000000E+01 0.  1.
         -5    1    3    3    0  502  0.22076579281E+02  0.57461269848E+02  0.29136322204E+02  0.68231741564E+02  0.41800000000E+01 0.  1.
        -11    1    1    2    0    0 -0.39799405041E+02 -0.21962920876E+02  0.32228879847E+02  0.55723094236E+02  0.00000000000E+00 0.  1.
         11    1    1    2    0    0 -0.21139260357E+03 -0.99766874997E+02 -0.45117524474E+02  0.23806690909E+03  0.00000000000E+00 0. -1.
</event>
<event>
 7    1  0.2804439E-009  0.1742919E+03  0.7561462E-02  0.1173445E+00
          2   -1    0    0  501    0  0.00000000000E+00  0.00000000000E+00  0.39552258395E+03  0.39552258395E+03  0.00000000000E+00 0. -1.
         -2   -1    0    0    0  501 -0.00000000000E+00 -0.00000000000E+00 -0.10118349806E+03  0.10118349806E+03  0.00000000000E+00 0.  1.
         25    2    1    2    0    0  0.14057856547E+03 -0.42877837672E+02  0.25383426691E+03  0.31887367899E+03  0.12509095117E+03 0.  0.
          5    1    3    3  502    0  0.91374462385E+02 -0.82648908493E+02  0.12654665606E+03  0.17666822864E+03  0.41800000000E+01 0.  1.
         -5    1    3    3    0  502  0.49204103088E+02  0.39771070821E+02  0.12728761084E+03  0.14220545035E+03  0.41800000000E+01 0.  1.
        -11    1    1    2    0    0 -0.98651953865E+02 -0.43486260128E+01 -0.67194915208E+01  0.98976108814E+02  0.00000000000E+00 0.  1.
         11    1    1    2    0    0 -0.41926611608E+02  0.47226463685E+02  0.47224310505E+02  0.78856294205E+02  0.00000000000E+00 0. -1.
</event>
<event>
 7    1  0.2670433E-009  0.1222759E+03  0.7561462E-02  0.1239389E+00
          2   -1    0    0  501    0  0.00000000000E+00  0.00000000000E+00  0.28842681611E+03  0.28842681611E+03  0.00000000000E+00 0. -1.
         -2   -1    0    0    0  501 -0.00000000000E+00 -0.00000000000E+00 -0.66442927963E+02  0.66442927963E+02  0.00000000000E+00 0.  1.
         25    2    1    2    0    0 -0.80632661800E+02 -0.27477640319E+02  0.10069869412E+03  0.18178380046E+03  0.12509386975E+03 0.  0.
          5    1    3    3  502    0 -0.75337549001E+02 -0.66931306068E+02  0.99588214448E+02  0.14174212810E+03  0.41800000000E+01 0. -1.
         -5    1    3    3    0  502 -0.52951127982E+01  0.39453665749E+02  0.11104796694E+01  0.40041672364E+02  0.41800000000E+01 0. -1.
        -11    1    1    2    0    0  0.60809692250E+02  0.46221739938E+02  0.12403369077E+03  0.14566614006E+03  0.00000000000E+00 0. -1.
         11    1    1    2    0    0  0.19822969549E+02 -0.18744099619E+02 -0.27484967395E+01  0.27419803548E+02  0.00000000000E+00 0.  1.
</event>
<event>
 7    1  0.2670433E-009  0.9110065E+02  0.7561462E-02  0.1300208E+00
         -1   -1    0    0    0  501 -0.00000000000E+00  0.00000000000E+00  0.20470776113E+03  0.20470776113E+03  0.00000000000E+00 0.  1.
          1   -1    0    0  501    0  0.00000000000E+00 -0.00000000000E+00 -0.78659549047E+02  0.78659549047E+02  0.00000000000E+00 0. -1.
         25    2    1    2    0    0  0.11390803398E+02  0.38900129796E+02  0.95802257567E+01  0.13184192494E+03  0.12509013529E+03 0.  0.
          5    1    3    3  502    0 -0.43138257130E+01 -0.32242492619E+02 -0.33677672674E+02  0.47008993388E+02  0.41800000000E+01 0.  1.
         -5    1    3    3    0  502  0.15704629111E+02  0.71142622415E+02  0.43257898431E+02  0.84832931555E+02  0.41800000000E+01 0.  1.
        -11    1    1    2    0    0  0.19646643908E+02 -0.40851302355E+02  0.11106688853E+03  0.11996113224E+03  0.00000000000E+00 0.  1.
         11    1    1    2    0    0 -0.31037447306E+02  0.19511725591E+01  0.54010977961E+01  0.31564252993E+02  0.00000000000E+00 0. -1.
</event>
<event>
 7    1  0.2670433E-009  0.9570600E+02  0.7561462E-02  0.1289594E+00
          2   -1    0    0  501    0  0.00000000000E+00  0.00000000000E+00  0.50439237234E+03  0.50439237234E+03  0.00000000000E+00 0.  1.
         -2   -1    0    0    0  501 -0.00000000000E+00 -0.00000000000E+00 -0.22377780988E+02  0.22377780988E+02  0.00000000000E+00 0. -1.
         25    2    1    2    0    0  0.17750894169E+01 -0.74755820322E+01  0.28016266129E+03  0.30691690325E+03  0.12509130047E+03 0.  0.
          5    1    3    3  502    0 -0.25832096668E+02  0.45189528682E+02  0.63551995440E+02  0.82253992275E+02  0.41800000000E+01 0. -1.
         -5    1    3    3    0  502  0.27607186085E+02 -0.52665110714E+02  0.21661066585E+03  0.22466291098E+03  0.41800000000E+01 0. -1.
        -11    1    1    2    0    0 -0.64588877018E+01  0.43135983151E+02  0.64448992341E+02  0.77820966882E+02  0.00000000000E+00 0. -1.
         11    1    1    2    0    0  0.46837982850E+01 -0.35660401118E+02  0.13740293772E+03  0.14203228319E+03  0.00000000000E+00 0.  1.
</event>
<event>
 7    1  0.2670433E-009  0.1444094E+03  0.7561462E-02  0.1207516E+00
          1   -1    0    0  501    0  0.00000000000E+00  0.00000000000E+00  0.89861231312E+03  0.89861231312E+03  0.00000000000E+00 0. -1.
         -1   -1    0    0    0  501 -0.00000000000E+00 -0.00000000000E+00 -0.25200800622E+02  0.25200800622E+02  0.00000000000E+00 0.  1.
         25    2    1    2    0    0 -0.11308266182E+02 -0.10334118389E+03  0.37528741360E+03  0.40901922640E+03  0.12509519408E+03 0.  0.
          5    1    3    3  502    0 -0.20006929084E+02 -0.13133941773E+03  0.31275447522E+03  0.33982812425E+03  0.41800000000E+01 0. -1.
         -5    1    3    3    0  502  0.86986629025E+01  0.27998233833E+02  0.62532938384E+02  0.69191102152E+02  0.41800000000E+01 0. -1.
        -11    1    1    2    0    0  0.39554990329E+02  0.36930011594E+02  0.15536753062E+03  0.16452201247E+03  0.00000000000E+00 0.  1.
         11    1    1    2    0    0 -0.28246724147E+02  0.66411172301E+02  0.34275656827E+03  0.35027187487E+03  0.00000000000E+00 0. -1.
</event>
<event>
 7    1  0.2670433E-009  0.2266950E+03  0.7561462E-02  0.1128988E+00
         -3   -1    0    0    0  501 -0.00000000000E+00  0.00000000000E+00  0.11518565223E+03  0.11518565223E+03  0.00000000000E+00 0.  1.
          3   -1    0    0  501    0  0.00000000000E+00 -0.00000000000E+00 -0.49085777253E+03  0.49085777253E+03  0.00000000000E+00 0. -1.
         25    2    1    2    0    0  0.20567754672E+03 -0.16810191690E+01 -0.13333641827E+03  0.27519430350E+03  0.12508886918E+03 0.  0.
          5    1    3    3  502    0  0.20481400124E+03 -0.30447326255E+02 -0.97122273120E+02  0.22874882102E+03  0.41800000000E+01 0.  1.
         -5    1    3    3    0  502  0.86354548043E+00  0.28766307086E+02 -0.36214145152E+02  0.46445482485E+02  0.41800000000E+01 0.  1.
        -11    1    1    2    0    0 -0.42768063347E+00 -0.11519933437E+02 -0.42667915897E+02  0.44197769447E+02  0.00000000000E+00 0. -1.
         11    1    1    2    0    0 -0.20524986609E+03  0.13200952606E+02 -0.19966778613E+03  0.28665135182E+03  0.00000000000E+00 0.  1.
</event>
<event>
 7    1  0.2670433E-009  0.1496793E+03  0.7561462E-02  0.1200868E+00
         -2   -1    0    0    0  501 -0.00000000000E+00  0.00000000000E+00  0.67633171940E+02  0.67633171940E+02  0.00000000000E+00 0. -1.
          2   -1    0    0  501    0  0.00000000000E+00 -0.00000000000E+00 -0.39201485429E+03  0.39201485429E+03  0.00000000000E+00 0.  1.
         25    2    1    2    0    0  0.11537207449E+03  0.26504437373E+02 -0.20006806900E+03  0.26398646203E+03  0.12509364144E+03 0.  0.
          5    1    3    3  502    0  0.82718692155E+02  0.66244096008E+02 -0.17938552806E+03  0.20839218403E+03  0.41800000000E+01 0.  1.
         -5    1    3    3    0  502  0.32653382338E+02 -0.39739658635E+02 -0.20682540938E+02  0.55594277998E+02  0.41800000000E+01 0.  1.
        -11    1    1    2    0    0 -0.12553548933E+03 -0.32790362909E+02 -0.86332969259E+02  0.15584527122E+03  0.00000000000E+00 0. -1.
         11    1    1    2    0    0  0.10163414835E+02  0.62859255359E+01 -0.37980644096E+02  0.39816292983E+02  0.00000000000E+00 0.  1.
</event>
<event>
 7    1  0.2670433E-009  0.1770914E+03  0.7561462E-02  0.1170648E+00
          1   -1    0    0  501    0  0.00000000000E+00  0.00000000000E+00  0.27128265353E+03  0.27128265353E+03  0.00000000000E+00 0. -1.
         -1   -1    0    0    0  501 -0.00000000000E+00 -0.00000000000E+00 -0.12327014689E+03  0.12327014689E+03  0.00000000000E+00 0.  1.
         25    2    1    2    0    0  0.89281726234E+02 -0.11436196900E+03  0.51422452191E+02  0.19834740945E+03  0.12509012613E+03 0.  0.
          5    1    3    3  502    0  0.11848397606E+03 -0.73273525630E+02  0.26156610884E+02  0.14180656837E+03  0.41800000000E+01 0. -1.
         -5    1    3    3    0  502 -0.29202249822E+02 -0.41088443369E+02  0.25265841307E+02  0.56540841081E+02  0.41800000000E+01 0. -1.
        -11    1    1    2    0    0 -0.10015031982E+03  0.79975638631E+02  0.50670838539E+02  0.13781771734E+03  0.00000000000E+00 0.  1.
         11    1    1    2    0    0  0.10868593584E+02  0.34386330368E+02  0.45919215904E+02  0.58387673630E+02  0.00000000000E+00 0. -1.
</event>
<event>
 7    1  0.2670433E-009  0.7470243E+02  0.7561462E-02  0.1344795E+00
          4   -1    0    0  501    0  0.00000000000E+00  0.00000000000E+00  0.55415441147E+02  0.55415441147E+02  0.00000000000E+00 0. -1.
         -4   -1    0    0    0  501 -0.00000000000E+00 -0.00000000000E+00 -0.26487755179E+03  0.26487755179E+03  0.00000000000E+00 0.  1.
         25    2    1    2    0    0  0.49869569744E+02 -0.23499334150E+02 -0.11076383638E+03  0.17594479726E+03  0.12509497009E+03 0.  0.
          5    1    3    3  502    0  0.24728763705E+02  0.22725471544E+01  0.24964968873E+02  0.35459812405E+02  0.41800000000E+01 0. -1.
         -5    1    3    3    0  502  0.25140806038E+02 -0.25771881304E+02 -0.13572880526E+03  0.14048498486E+03  0.41800000000E+01 0. -1.
        -11    1    1    2    0    0 -0.49010746594E+02  0.44954239267E+02 -0.10284961319E+03  0.12247848726E+03  0.00000000000E+00 0.  1.
         11    1    1    2    0    0 -0.85882314919E+00 -0.21454905117E+02  0.41513389328E+01  0.21869708405E+02  0.00000000000E+00 0. -1.
</event>
<event>
 7    1  0.2670433E-009  0.1323253E+03  0.7561462E-02  0.1224046E+00
         -1   -1    0    0    0  501 -0.00000000000E+00  0.00000000000E+00  0.30017681589E+03  0.30017681589E+03  0.00000000000E+00 0.  1.
          1   -1    0    0  501    0  0.00000000000E+00 -0.00000000000E+00 -0.93352617028E+02  0.93352617028E+02  0.00000000000E+00 0. -1.
         25    2    1    2    0    0 -0.12229525722E+03  0.15119071808E+02  0.70341537995E+02  0.18915715466E+03  0.12509109049E+03 0.  0.
          5    1    3    3  502    0 -0.72877588410E+02  0.10715009145E+02  0.10511743564E+03  0.12842547251E+03  0.41800000000E+01 0. -1.
         -5    1    3    3    0  502 -0.49417668813E+02  0.44040626630E+01 -0.34775897649E+02  0.60731682145E+02  0.41800000000E+01 0. -1.
        -11    1    1    2    0    0  0.59114232629E+02 -0.41901500913E+02  0.31633411154E+02  0.79062639593E+02  0.00000000000E+00 0.  1.
         11    1    1    2    0    0  0.63181024594E+02  0.26782429105E+02  0.10484924971E+03  0.12530963866E+03  0.00000000000E+00 0. -1.
</event>
<event>
 7    1  0.2670433E-009  0.9088810E+02  0.7561462E-02  0.1300715E+00
          3   -1    0    0  501    0  0.00000000000E+00  0.00000000000E+00  0.10616495897E+03  0.10616495897E+03  0.00000000000E+00 0. -1.
         -3   -1    0    0    0  501 -0.00000000000E+00 -0.00000000000E+00 -0.12464967309E+03  0.12464967309E+03  0.00000000000E+00 0.  1.
         25    2    1    2    0    0  0.18521475044E+02 -0.18953831856E+02 -0.31614498938E+02  0.13171766710E+03  0.12509106485E+03 0.  0.
          5    1    3    3  502    0  0.46361309205E+02  0.11387374912E+02  0.30698217926E+02  0.56911301886E+02  0.41800000000E+01 0.  1.
         -5    1    3    3    0  502 -0.27839834161E+02 -0.30341206768E+02 -0.62312716864E+02  0.74806365218E+02  0.41800000000E+01 0.  1.
        -11    1    1    2    0    0  0.30421758984E+02 -0.13971810678E+02 -0.11183109159E+02  0.35295280757E+02  0.00000000000E+00 0.  1.
         11    1    1    2    0    0 -0.48943234028E+02  0.32925642534E+02  0.24312893980E+02  0.63801684202E+02  0.00000000000E+00 0. -1.
</event>
<event>
 7    1  0.2670433E-009  0.1876794E+03  0.7561462E-02  0.1160571E+00
         -2   -1    0    0    0  501 -0.00000000000E+00  0.00000000000E+00  0.36356123476E+03  0.36356123476E+03  0.00000000000E+00 0.  1.
          2   -1    0    0  501    0  0.00000000000E+00 -0.00000000000E+00 -0.15476264529E+03  0.15476264529E+03  0.00000000000E+00 0. -1.
         25    2    1    2    0    0  0.10575296823E+03  0.13043429717E+03  0.24772248605E+03  0.32436172775E+03  0.12508918486E+03 0.  0.
          5    1    3    3  502    0 -0.22044925729E+02  0.45188240248E+02  0.95764098216E+02  0.10824135399E+03  0.41800000000E+01 0. -1.
         -5    1    3    3    0  502  0.12779789396E+03  0.85246056920E+02  0.15195838783E+03  0.21612037376E+03  0.41800000000E+01 0. -1.
        -11    1    1    2    0    0 -0.69461413768E+02 -0.59129844503E+02 -0.62469553098E+02  0.11056071444E+03  0.00000000000E+00 0. -1.
         11    1    1    2    0    0 -0.36291554461E+02 -0.71304452664E+02  0.23545656522E+02  0.83401437853E+02  0.00000000000E+00 0.  1.
</event>
<event>
 7    1  0.2670433E-009  0.1047372E+03  0.7561462E-02  0.1270638E+00
         -1   -1    0    0    0  501 -0.00000000000E+00  0.00000000000E+00  0.11318113670E+03  0.11318113670E+03  0.00000000000E+00 0.  1.
          1   -1    0    0  501    0  0.00000000000E+00 -0.00000000000E+00 -0.17198094984E+03  0.17198094984E+03  0.00000000000E+00 0. -1.
         25    2    1    2    0    0 -0.31613179302E+02 -0.17286083360E+02  0.49777421712E+02  0.13936828647E+03  0.12509007066E+03 0.  0.
          5    1    3    3  502    0 -0.36673850097E+02 -0.59297534773E+02 -0.49978342595E+01  0.70025849930E+02  0.41800000000E+01 0. -1.
         -5    1    3    3    0  502  0.50606707952E+01  0.42011451412E+02  0.54775255971E+02  0.69342436541E+02  0.41800000000E+01 0. -1.
        -11    1    1    2    0    0 -0.22031084161E+02  0.34354543578E+02 -0.50180549471E+02  0.64681456995E+02  0.00000000000E+00 0. -1.
         11    1    1    2    0    0  0.53644263463E+02 -0.17068460217E+02 -0.58396685380E+02  0.81112343081E+02  0.00000000000E+00 0.  1.
</event>
<event>
 7    1  0.2670433E-009  0.1109632E+03  0.7561462E-02  0.1258797E+00
         -2   -1    0    0    0  501 -0.00000000000E+00  0.00000000000E+00  0.68490612726E+03  0.68490612726E+03  0.00000000000E+00 0. -1.
          2   -1    0    0  501    0  0.00000000000E+00 -0.00000000000E+00 -0.24698735541E+02  0.24698735541E+02  0.00000000000E+00 0.  1.
         25    2    1    2    0    0 -0.18047478270E+02  0.54598127823E+02  0.48243451304E+03  0.50169392420E+03  0.12508823757E+03 0.  0.
          5    1    3    3  502    0 -0.44623077449E+02  0.74470153337E+02  0.43533695086E+03  0.44392877352E+03  0.41800000000E+01 0.  1.
         -5    1    3    3    0  502  0.26575599179E+02 -0.19872025514E+02  0.47097562179E+02  0.57765150679E+02  0.41800000000E+01 0.  1.
        -11    1    1    2    0    0  0.49017774369E+02 -0.14936928814E+02  0.54724504850E+02  0.74970830845E+02  0.00000000000E+00 0.  1.
         11    1    1    2    0    0 -0.30970296099E+02 -0.39661199009E+02  0.12304837384E+03  0.13294010776E+03  0.00000000000E+00 0. -1.
</event>
<event>
 7    1  0.2670433E-009  0.1129633E+03  0.7561462E-02  0.1255179E+00
         -2   -1    0    0    0  501 -0.00000000000E+00  0.00000000000E+00  0.18001734020E+02  0.18001734020E+02  0.00000000000E+00 0. -1.
          2   -1    0    0  501    0  0.00000000000E+00 -0.00000000000E+00 -0.75128342654E+03  0.75128342654E+03  0.00000000000E+00 0.  1.
         25    2    1    2    0    0  0.84914812886E+01  0.30326325994E+02 -0.32869569216E+03  0.35310136212E+03  0.12509165673E+03 0.  0.
          5    1    3    3  502    0 -0.56988991954E+02  0.25499820623E+02 -0.17769580451E+03  0.18839123492E+03  0.41800000000E+01 0.  1.
         -5    1    3    3    0  502  0.65480473243E+02  0.48265053709E+01 -0.15099988766E+03  0.16471012720E+03  0.41800000000E+01 0.  1.
        -11    1    1    2    0    0 -0.30027232498E+02 -0.56308791327E+02 -0.26282909223E+03  0.27046524064E+03  0.00000000000E+00 0.  1.
         11    1    1    2    0    0  0.21535751209E+02  0.25982465333E+02 -0.14175690813E+03  0.14571855780E+03  0.00000000000E+00 0. -1.
</event>
<event>
 7    1  0.2670433E-009  0.9003685E+02  0.7561462E-02  0.1302762E+00
          1   -1    0    0  501    0  0.00000000000E+00  0.00000000000E+00  0.73324804739E+02  0.73324804739E+02  0.00000000000E+00 0. -1.
         -1   -1    0    0    0  501 -0.00000000000E+00 -0.00000000000E+00 -0.20144572838E+03  0.20144572838E+03  0.00000000000E+00 0.  1.
         25    2    1    2    0    0  0.61429720839E+02  0.28200856268E+02 -0.45769664647E+02  0.14936654935E+03  0.12508639002E+03 0.  0.
          5    1    3    3  502    0 -0.28073308036E+01  0.24583521601E+02 -0.74623816534E+02  0.78730026258E+02  0.41800000000E+01 0.  1.
         -5    1    3    3    0  502  0.64237051643E+02  0.36173346672E+01  0.28854151886E+02  0.70636523095E+02  0.41800000000E+01 0.  1.
        -11    1    1    2    0    0 -0.31320813969E+02 -0.45908715680E+02 -0.67533875711E+02  0.87461008064E+02  0.00000000000E+00 0.  1.
         11    1    1    2    0    0 -0.30108906870E+02  0.17707859412E+02 -0.14817383283E+02  0.37942975703E+02  0.00000000000E+00 0. -1.
</event>
<event>
 7    1  0.2670433E-009  0.1719216E+03  0.7561462E-02  0.1175859E+00
         -2   -1    0    0    0  501 -0.00000000000E+00  0.00000000000E+00  0.12712753727E+03  0.12712753727E+03  0.00000000000E+00 0. -1.
          2   -1    0    0  501    0  0.00000000000E+00 -0.00000000000E+00 -0.33811622215E+03  0.33811622215E+03  0.00000000000E+00 0.  1.
         25    2    1    2    0    0 -0.16261983362E+03 -0.19156136526E+01 -0.27601695457E+02  0.20702109180E+03  0.12508796503E+03 0.  0.
          5    1    3    3  502    0 -0.53685787737E+02 -0.25797953739E+02  0.44226326690E+02  0.74304364573E+02  0.41800000000E+01 0. -1.
         -5    1    3    3    0  502 -0.10893404588E+03  0.23882340086E+02 -0.71828022148E+02  0.13271672723E+03  0.41800000000E+01 0. -1.
        -11    1    1    2    0    0  0.11339945561E+03 -0.25447206550E+02 -0.15877330399E+03  0.19676371341E+03  0.00000000000E+00 0.  1.
         11    1    1    2    0    0  0.49220378011E+02  0.27362820203E+02 -0.24613685428E+02  0.61458954200E+02  0.00000000000E+00 0. -1.
</event>
<event>
 7    1  0.2670433E-009  0.1013851E+03  0.7561462E-02  0.1277410E+00
         -1   -1    0    0    0  501 -0.00000000000E+00  0.00000000000E+00  0.20851167482E+03  0.20851167482E+03  0.00000000000E+00 0. -1.
          1   -1    0    0  501    0  0.00000000000E+00 -0.00000000000E+00 -0.53711506510E+02  0.53711506510E+02  0.00000000000E+00 0.  1.
         25    2    1    2    0    0  0.38042730101E+02  0.57180396829E+01  0.72528648619E+02  0.14962499023E+03  0.12508911839E+03 0.  0.
          5    1    3    3  502    0 -0.29802153489E+02 -0.35526603661E+02  0.46905569404E+02  0.66090186574E+02  0.41800000000E+01 0.  1.
         -5    1    3    3    0  502  0.67844883589E+02  0.41244643344E+02  0.25623079215E+02  0.83534803658E+02  0.41800000000E+01 0.  1.
        -11    1    1    2    0    0  0.68303379163E+01  0.22621301911E+02  0.28895320194E+02  0.37327152923E+02  0.00000000000E+00 0.  1.
         11    1    1    2    0    0 -0.44873068017E+02 -0.28339341594E+02  0.53376199496E+02  0.75271038175E+02  0.00000000000E+00 0. -1.
</event>
<event>
 7    1  0.2670433E-009  0.1146220E+03  0.7561462E-02  0.1252242E+00
         -4   -1    0    0    0  501 -0.00000000000E+00  0.00000000000E+00  0.10355705339E+03  0.10355705339E+03  0.00000000000E+00 0.  1.
          4   -1    0    0  501    0  0.00000000000E+00 -0.00000000000E+00 -0.16810503753E+03  0.16810503753E+03  0.00000000000E+00 0. -1.
         25    2    1    2    0    0 -0.20655135553E+02  0.69444499877E+02 -0.11134023329E+02  0.14498839660E+03  0.12509394664E+03 0.  0.
          5    1    3    3  502    0 -0.30208803638E+02  0.94999718029E+02 -0.37719036220E+02  0.10666637866E+03  0.41800000000E+01 0.  1.
         -5    1    3    3    0  502  0.95536680849E+01 -0.25555218152E+02  0.26585012891E+02  0.38322017941E+02  0.41800000000E+01 0.  1.
        -11    1    1    2    0    0  0.44938282220E+02 -0.25521965741E+02 -0.56273929284E+02  0.76404025163E+02  0.00000000000E+00 0. -1.
         11    1    1    2    0    0 -0.24283146667E+02 -0.43922534136E+02  0.28599684688E+01  0.50269669152E+02  0.00000000000E+00 0.  1.
</event>
<event>
 7    1  0.2670433E-009  0.9963611E+02  0.7561462E-02  0.1281063E+00
         -1   -1    0    0    0  501 -0.00000000000E+00  0.00000000000E+00  0.57347527639E+02  0.57347527639E+02  0.00000000000E+00 0.  1.
          1   -1    0    0  501    0  0.00000000000E+00 -0.00000000000E+00 -0.31644308740E+03  0.31644308740E+03  0.00000000000E+00 0. -1.
         25    2    1    2    0    0  0.27200777177E+02  0.69564122070E+02 -0.17862347070E+03  0.23050509626E+03  0.12508879150E+03 0.  0.
          5    1    3    3  502    0 -0.16895378090E+02  0.74063209980E+02 -0.42200317604E+02  0.87000874015E+02  0.41800000000E+01 0.  1.
         -5    1    3    3    0  502  0.44096155266E+02 -0.44990879102E+01 -0.13642315310E+03  0.14350422225E+03  0.41800000000E+01 0.  1.
        -11    1    1    2    0    0  0.46733354313E+01 -0.11860816640E+02  0.19642367070E+02  0.23416695317E+02  0.00000000000E+00 0.  1.
         11    1    1    2    0    0 -0.31874112608E+02 -0.57703305430E+02 -0.10011445613E+03  0.11986882346E+03  0.00000000000E+00 0. -1.
</event>
<event>
 7    1  0.2670433E-009  0.8899304E+02  0.7561462E-02  0.1305309E+00
          1   -1    0    0  501    0  0.00000000000E+00  0.00000000000E+00  0.36126344353E+03  0.36126344353E+03  0.00000000000E+00 0. -1.
         -1   -1    0    0    0  501 -0.00000000000E+00 -0.00000000000E+00 -0.40151406441E+02  0.40151406441E+02  0.00000000000E+00 0.  1.
         25    2    1    2    0    0  0.45439838167E+02  0.26096509089E+02  0.18293185935E+03  0.22772094070E+03  0.12508778912E+03 0.  0.
          5    1    3    3  502    0 -0.11121289503E+02 -0.57974051764E+01 -0.14630924415E+02  0.19718755950E+02  0.41800000000E+01 0. -1.
         -5    1    3    3    0  502  0.56561127670E+02  0.31893914266E+02  0.19756278377E+03  0.20800218475E+03  0.41800000000E+01 0. -1.
        -11    1    1    2    0    0 -0.11160975751E+02 -0.54221261500E+02  0.48280385952E+02  0.73454123411E+02  0.00000000000E+00 0.  1.
         11    1    1    2    0    0 -0.34278862416E+02  0.28124752411E+02  0.89899791790E+02  0.10023978587E+03  0.00000000000E+00 0. -1.
</event>
<event>
 7    1  0.2670433E-009  0.6728080E+02  0.7561462E-02  0.1369592E+00
         -3   -1    0    0    0  501 -0.00000000000E+00  0.00000000000E+00  0.86389938766E+03  0.86389938766E+03  0.00000000000E+00 0.  1.
          3   -1    0    0  501    0  0.00000000000E+00 -0.00000000000E+00 -0.17135360369E+02  0.17135360369E+02  0.00000000000E+00 0. -1.
         25    2    1    2    0    0  0.66951558347E+01  0.30497699323E+02  0.64221355635E+03  0.65502728041E+03  0.12509017286E+03 0.  0.
          5    1    3    3  502    0  0.13508709500E+02  0.49339740532E+01  0.62013585872E+03  0.62031668122E+03  0.41800000000E+01 0.  1.
         -5    1    3    3    0  502 -0.68135536651E+01  0.25563725270E+02  0.22077697626E+02  0.34710599183E+02  0.41800000000E+01 0.  1.
        -11    1    1    2    0    0 -0.44787596196E+02 -0.13019041901E+01  0.12841265193E+03  0.13600526792E+03  0.00000000000E+00 0.  1.
         11    1    1    2    0    0  0.38092440362E+02 -0.29195795133E+02  0.76137819019E+02  0.90002199701E+02  0.00000000000E+00 0. -1.
</event>
<event>
 7    1  0.2909585E-009  0.9603953E+02  0.7561462E-02  0.1288852E+00
         -2   -1    0    0    0  501 -0.00000000000E+00  0.00000000000E+00  0.45423645723E+02  0.45423645723E+02  0.00000000000E+00 0.  1.
          2   -1    0    0  501    0  0.00000000000E+00 -0.00000000000E+00 -0.35216582886E+03  0.35216582886E+03  0.00000000000E+00 0. -1.
         25    2    1    2    0    0  0.27621318932E+02  0.51752295478E+02 -0.12261649670E+03  0.18472520603E+03  0.12508940456E+03 0.  0.
          5    1    3    3  502    0 -0.22741905799E+02  0.62965848115E+02 -0.11396760322E+03  0.13224212374E+03  0.41800000000E+01 0.  1.
         -5    1    3    3    0  502  0.50363224731E+02 -0.11213552637E+02 -0.86488934811E+01  0.52483082288E+02  0.41800000000E+01 0.  1.
        -11    1    1    2    0    0 -0.36354361859E+02 -0.22605995352E+02 -0.22428224072E+02  0.48329037721E+02  0.00000000000E+00 0.  1.
         11    1    1    2    0    0  0.87330429270E+01 -0.29146300126E+02 -0.16169746236E+03  0.16453523083E+03  0.00000000000E+00 0. -1.
</event>
<event>
 7    1  0.2670433E-009  0.1410354E+03  0.7561462E-02  0.1211942E+00
         -2   -1    0    0    0  501 -0.00000000000E+00  0.00000000000E+00  0.31334458892E+02  0.31334458892E+02  0.00000000000E+00 0.  1.
          2   -1    0    0  501    0  0.00000000000E+00 -0.00000000000E+00 -0.97201429659E+03  0.97201429659E+03  0.00000000000E+00 0. -1.
         25    2    1    2    0    0 -0.49953389808E+02 -0.11465805853E+03 -0.65282937443E+03  0.67636951802E+03  0.12509085199E+03 0.  0.
          5    1    3    3  502    0 -0.15715042125E+02 -0.15879475988E+02 -0.42563140605E+03  0.42623782859E+03  0.41800000000E+01 0.  1.
         -5    1    3    3    0  502 -0.34238347684E+02 -0.98778582543E+02 -0.22719796838E+03  0.25013168943E+03  0.41800000000E+01 0.  1.
        -11    1    1    2    0    0  0.42524906919E+02  0.13048038830E+03 -0.24740315634E+03  0.28291663296E+03  0.00000000000E+00 0. -1.
         11    1    1    2    0    0  0.74284828892E+01 -0.15822329769E+02 -0.40447306934E+02  0.44062604503E+02  0.00000000000E+00 0.  1.
</event>
<event>
 7    1  0.2670433E-009  0.2392587E+03  0.7561462E-02  0.1120288E+00
          2   -1    0    0  501    0  0.00000000000E+00  0.00000000000E+00  0.37746594578E+03  0.37746594578E+03  0.00000000000E+00 0. -1.
         -2   -1    0    0    0  501 -0.00000000000E+00 -0.00000000000E+00 -0.16654969135E+03  0.16654969135E+03  0.00000000000E+00 0.  1.
         25    2    1    2    0    0  0.15323451557E+03 -0.16009459895E+03  0.64001006702E+02  0.26240178950E+03  0.12508985930E+03 0.  0.
          5    1    3    3  502    0 -0.18745363616E+02 -0.17355693180E+02  0.24027314793E+02  0.35318451254E+02  0.41800000000E+01 0.  1.
         -5    1    3    3    0  502  0.17197987918E+03 -0.14273890577E+03  0.39973691908E+02  0.22708333825E+03  0.41800000000E+01 0.  1.
        -11    1    1    2    0    0 -0.11713249998E+03  0.81773054143E+02  0.13118499499E+03  0.19394936929E+03  0.00000000000E+00 0.  1.
         11    1    1    2    0    0 -0.36102015586E+02  0.78321544807E+02  0.15730252740E+02  0.87664478335E+02  0.00000000000E+00 0. -1.
</event>
<event>
 7    1  0.2670433E-009  0.1107382E+03  0.7561462E-02  0.1259209E+00
         -2   -1    0    0    0  501 -0.00000000000E+00  0.00000000000E+00  0.65709347717E+02  0.65709347717E+02  0.00000000000E+00 0. -1.
          2   -1    0    0  501    0  0.00000000000E+00 -0.00000000000E+00 -0.26669086883E+03  0.26669086883E+03  0.00000000000E+00 0.  1.
         25    2    1    2    0    0  0.19953828952E+02  0.57725476790E+02 -0.50529935532E+02  0.14810487017E+03  0.12510552434E+03 0.  0.
          5    1    3    3  502    0 -0.52146859974E+02  0.30007916383E+02 -0.11265542231E+02  0.61352708926E+02  0.41800000000E+01 0.  1.
         -5    1    3    3    0  502  0.72100688926E+02  0.27717560407E+02 -0.39264393302E+02  0.86752161240E+02  0.41800000000E+01 0.  1.
        -11    1    1    2    0    0  0.17009600574E+02 -0.22653688570E+01  0.26054955944E+01  0.17356468968E+02  0.00000000000E+00 0. -1.
         11    1    1    2    0    0 -0.36963429526E+02 -0.55460107933E+02 -0.15305708117E+03  0.16693887741E+03  0.00000000000E+00 0.  1.
</event>
<event>
 7    1  0.2670433E-009  0.8222569E+02  0.7561462E-02  0.1322851E+00
         -1   -1    0    0    0  501 -0.00000000000E+00  0.00000000000E+00  0.37392933627E+03  0.37392933627E+03  0.00000000000E+00 0.  1.
          1   -1    0    0  501    0  0.00000000000E+00 -0.00000000000E+00 -0.33174728201E+02  0.33174728201E+02  0.00000000000E+00 0. -1.
         25    2    1    2    0    0  0.19446030984E+02  0.14805841454E+02  0.23452441855E+03  0.26692129627E+03  0.12509162420E+03 0.  0.
          5    1    3    3  502    0  0.63080775507E+00 -0.29316743678E+02  0.22459398555E+01  0.29704983154E+02  0.41800000000E+01 0.  1.
         -5    1    3    3    0  502  0.18815223229E+02  0.44122585132E+02  0.23227847869E+03  0.23721631311E+03  0.41800000000E+01 0.  1.
        -11    1    1    2    0    0 -0.43076835285E+02 -0.35074515455E+02  0.88113984409E+02  0.10416289945E+03  0.00000000000E+00 0.  1.
         11    1    1    2    0    0  0.23630804301E+02  0.20268674001E+02  0.18116205114E+02  0.36019868759E+02  0.00000000000E+00 0. -1.
</event>
<event>
 7    1  0.2670433E-009  0.1293995E+03  0.7561462E-02  0.1228350E+00
          1   -1    0    0  501    0  0.00000000000E+00  0.00000000000E+00  0.59529168931E+02  0.59529168931E+02  0.00000000000E+00 0. -1.
         -1   -1    0    0    0  501 -0.00000000000E+00 -0.00000000000E+00 -0.48159520127E+03  0.48159520127E+03  0.00000000000E+00 0.  1.
         25    2    1    2    0    0 -0.28936945321E+02  0.78114435526E+02 -0.65507458468E+02  0.16394330821E+03  0.12508784654E+03 0.  0.
          5    1    3    3  502    0 -0.61090820784E+02  0.88867944011E+02 -0.24676956854E+02  0.11070693048E+03  0.41800000000E+01 0. -1.
         -5    1    3    3    0  502  0.32153875463E+02 -0.10753508485E+02 -0.40830501614E+02  0.53236377733E+02  0.41800000000E+01 0. -1.
        -11    1    1    2    0    0  0.56628114857E+02 -0.38866902570E+02 -0.14796839534E+03  0.16313192675E+03  0.00000000000E+00 0. -1.
         11    1    1    2    0    0 -0.27691169536E+02 -0.39247532956E+02 -0.20859017854E+03  0.21404913524E+03  0.00000000000E+00 0.  1.
</event>
<event>
 7    1  0.2670433E-009  0.1103734E+03  0.7561462E-02  0.1259880E+00
          1   -1    0    0  501    0  0.00000000000E+00  0.00000000000E+00  0.97178708981E+02  0.97178708981E+02  0.00000000000E+00 0. -1.
         -1   -1    0    0    0  501 -0.00000000000E+00 -0.00000000000E+00 -0.16077204603E+03  0.16077204603E+03  0.00000000000E+00 0.  1.
         25    2    1    2    0    0 -0.22476462160E+02 -0.17348580345E+02  0.21283970567E+02  0.13003397346E+03  0.12509861014E+03 0.  0.
          5    1    3    3  502    0 -0.13655735218E+02  0.52922126343E+02 -0.33911915194E+01  0.54919970329E+02  0.41800000000E+01 0. -1.
         -5    1    3    3    0  502 -0.88207269419E+01 -0.70270706688E+02  0.24675162087E+02  0.75114003130E+02  0.41800000000E+01 0. -1.
        -11    1    1    2    0    0 -0.34928058339E+02  0.13522754394E+02 -0.41226271591E+02  0.55699547709E+02  0.00000000000E+00 0.  1.
         11    1    1    2    0    0  0.57404520498E+02  0.38258259514E+01 -0.43651036026E+02  0.72217233843E+02  0.00000000000E+00 0. -1.
</event>
<event>
 7    1  0.2670433E-009  0.1056026E+03  0.7561462E-02  0.1268937E+00
          2   -1    0    0  501    0  0.00000000000E+00  0.00000000000E+00  0.63240270424E+03  0.63240270424E+03  0.00000000000E+00 0.  1.
         -2   -1    0    0    0  501 -0.00000000000E+00 -0.00000000000E+00 -0.54583813621E+02  0.54583813621E+02  0.00000000000E+00 0. -1.
         25    2    1    2    0    0  0.59618764493E+01 -0.10310698108E+03  0.51730269257E+03  0.54214034951E+03  0.12508992490E+03 0.  0.
          5    1    3    3  502    0  0.12303001540E+02 -0.85141606670E+02  0.51539576926E+03  0.52254256133E+03  0.41800000000E+01 0. -1.
         -5    1    3    3    0  502 -0.63411250907E+01 -0.17965374407E+02  0.19069233108E+01  0.19597788179E+02  0.41800000000E+01 0. -1.
        -11    1    1    2    0    0  0.80442716401E+01  0.26422059889E+02 -0.18975895178E+02  0.33510000788E+02  0.00000000000E+00 0. -1.
         11    1    1    2    0    0 -0.14006148089E+02  0.76684921188E+02  0.79492093226E+02  0.11133616756E+03  0.00000000000E+00 0.  1.
</event>
<event>
 7    1  0.2670433E-009  0.1041859E+03  0.7561462E-02  0.1271732E+00
          2   -1    0    0  501    0  0.00000000000E+00  0.00000000000E+00  0.16206438079E+03  0.16206438079E+03  0.00000000000E+00 0. -1.
         -2   -1    0    0    0  501 -0.00000000000E+00 -0.00000000000E+00 -0.73451182160E+02  0.73451182160E+02  0.00000000000E+00 0.  1.
         25    2    1    2    0    0 -0.45661891858E+01 -0.11961108760E+02  0.60188249217E+02  0.13940784941E+03  0.12509198586E+03 0.  0.
          5    1    3    3  502    0  0.55989854106E+02 -0.28047177438E+02  0.33903446608E+02  0.71333190150E+02  0.41800000000E+01 0. -1.
         -5    1    3    3    0  502 -0.60556043292E+02  0.16086068678E+02  0.26284802609E+02  0.68074659256E+02  0.41800000000E+01 0. -1.
        -11    1    1    2    0    0  0.35758884289E+02 -0.17586479483E+02 -0.69526358674E+01  0.40451467362E+02  0.00000000000E+00 0. -1.
         11    1    1    2    0    0 -0.31192695104E+02  0.29547588243E+02  0.35377585281E+02  0.55656246182E+02  0.00000000000E+00 0.  1.
</event>
<event>
 7    1  0.2670433E-009  0.1305549E+03  0.7561462E-02  0.1226635E+00
         -2   -1    0    0    0  501 -0.00000000000E+00  0.00000000000E+00  0.13405302502E+03  0.13405302502E+03  0.00000000000E+00 0.  1.
          2   -1    0    0  501    0  0.00000000000E+00 -0.00000000000E+00 -0.14315078699E+03  0.14315078699E+03  0.00000000000E+00 0. -1.
         25    2    1    2    0    0 -0.76922509654E+02 -0.10542040653E+01  0.31402555584E+02  0.15017232835E+03  0.12508966332E+03 0.  0.
          5    1    3    3  502    0 -0.10944944111E+03  0.92835858175E+00  0.39321101082E+02  0.11637724606E+03  0.41800000000E+01 0. -1.
         -5    1    3    3    0  502  0.32526931458E+02 -0.19825626470E+01 -0.79185454982E+01  0.33795082298E+02  0.41800000000E+01 0. -1.
        -11    1    1    2    0    0 -0.41042865841E+01  0.31795993944E+02 -0.17712879242E+01  0.32108688235E+02  0.00000000000E+00 0.  1.
         11    1    1    2    0    0  0.81026796239E+02 -0.30741789879E+02 -0.38729029628E+02  0.94922795416E+02  0.00000000000E+00 0. -1.
</event>
<event>
 7    1  0.2670433E-009  0.1140031E+03  0.7561462E-02  0.1253331E+00
         -1   -1    0    0    0  501 -0.00000000000E+00  0.00000000000E+00  0.78075119735E+03  0.78075119735E+03  0.00000000000E+00 0.  1.
          1   -1    0    0  501    0  0.00000000000E+00 -0.00000000000E+00 -0.34081421727E+02  0.34081421727E+02  0.00000000000E+00 0. -1.
         25    2    1    2    0    0  0.35879869576E+02 -0.94157066828E+02  0.57107957767E+03  0.59323774818E+03  0.12508486546E+03 0.  0.
          5    1    3    3  502    0  0.10687259695E+02 -0.95584260005E+02  0.20733848694E+03  0.22859853203E+03  0.41800000000E+01 0. -1.
         -5    1    3    3    0  502  0.25192609880E+02  0.14271931762E+01  0.36374109073E+03  0.36463921615E+03  0.41800000000E+01 0. -1.
        -11    1    1    2    0    0 -0.41488373456E+02  0.70106720121E+02  0.54501480015E+02  0.98013512650E+02  0.00000000000E+00 0. -1.
         11    1    1    2    0    0  0.56085038802E+01  0.24050346707E+02  0.12108871794E+03  0.12358135824E+03  0.00000000000E+00 0.  1.
</event>
<event>
 7    1  0.2670433E-009  0.1487652E+03  0.7561462E-02  0.1201999E+00
          2   -1    0    0  501    0  0.00000000000E+00  0.00000000000E+00  0.33458649588E+03  0.33458649588E+03  0.00000000000E+00 0. -1.
         -2   -1    0    0    0  501 -0.00000000000E+00 -0.00000000000E+00 -0.99388613502E+02  0.99388613502E+02  0.00000000000E+00 0.  1.
         25    2    1    2    0    0 -0.10193123706E+03 -0.10205119948E+03  0.92900220144E+02  0.21232531959E+03  0.12508863271E+03 0.  0.
          5    1    3    3  502    0 -0.33315005066E+02 -0.14348828378E+02 -0.29395311757E+02  0.46875742038E+02  0.41800000000E+01 0.  1.
         -5    1    3    3    0  502 -0.68616231992E+02 -0.87702371107E+02  0.12229553190E+03  0.16544957756E+03  0.41800000000E+01 0.  1.
        -11    1    1    2    0    0  0.35567722563E+02  0.63641230558E+02  0.17175498950E+02  0.74901714796E+02  0.00000000000E+00 0.  1.
         11    1    1    2    0    0  0.66363514495E+02  0.38409968927E+02  0.12512216329E+03  0.14674807499E+03  0.00000000000E+00 0. -1.
</event>
<event>
 7    1  0.2670433E-009  0.1102612E+03  0.7561462E-02  0.1260087E+00
          1   -1    0    0  501    0  0.00000000000E+00  0.00000000000E+00  0.24656937519E+03  0.24656937519E+03  0.00000000000E+00 0. -1.
         -1   -1    0    0    0  501 -0.00000000000E+00 -0.00000000000E+00 -0.52316756322E+02  0.52316756322E+02  0.00000000000E+00 0.  1.
         25    2    1    2    0    0 -0.12939913917E+02  0.34680967210E+02  0.12043009127E+03  0.17753940174E+03  0.12508645581E+03 0.  0.
          5    1    3    3  502    0  0.52832529426E+02  0.20370231212E+02  0.82542654050E+02  0.10018475245E+03  0.41800000000E+01 0. -1.
         -5    1    3    3    0  502 -0.65772443342E+02  0.14310735999E+02  0.37887437219E+02  0.77354649292E+02  0.41800000000E+01 0. -1.
        -11    1    1    2    0    0 -0.17149873078E+02  0.24503881503E+02  0.23465747792E+02  0.38015781917E+02  0.00000000000E+00 0. -1.
         11    1    1    2    0    0  0.30089786995E+02 -0.59184848713E+02  0.50356779812E+02  0.83330947862E+02  0.00000000000E+00 0.  1.
</event>
<event>
 7    1  0.3460780E-009  0.1115937E+03  0.7561462E-02  0.1257647E+00
         -1   -1    0    0    0  501 -0.00000000000E+00  0.00000000000E+00  0.21037242616E+02  0.21037242616E+02  0.00000000000E+00 0.  1.
          1   -1    0    0  501    0  0.00000000000E+00 -0.00000000000E+00 -0.72525771517E+03  0.72525771517E+03  0.00000000000E+00 0. -1.
         25    2    1    2    0    0  0.44742041960E+02  0.30765884357E+02 -0.46398724888E+03  0.48361186014E+03  0.12509146328E+03 0.  0.
          5    1    3    3  502    0  0.28909434716E+02 -0.40080533905E+02 -0.91333600334E+02  0.10393028223E+03  0.41800000000E+01 0.  1.
         -5    1    3    3    0  502  0.15832607244E+02  0.70846418262E+02 -0.37265364855E+03  0.37968157791E+03  0.41800000000E+01 0.  1.
        -11    1    1    2    0    0 -0.20830950386E+02 -0.59765651110E+02 -0.10767353222E+03  0.12489776254E+03  0.00000000000E+00 0.  1.
         11    1    1    2    0    0 -0.23911091573E+02  0.28999766754E+02 -0.13255969145E+03  0.13778533511E+03  0.00000000000E+00 0. -1.
</event>
<event>
 7    1  0.2670433E-009  0.9412509E+02  0.7561462E-02  0.1293159E+00
          2   -1    0    0  501    0  0.00000000000E+00  0.00000000000E+00  0.57860219323E+03  0.57860219323E+03  0.00000000000E+00 0.  1.
         -2   -1    0    0    0  501 -0.00000000000E+00 -0.00000000000E+00 -0.37455585880E+02  0.37455585880E+02  0.00000000000E+00 0. -1.
         25    2    1    2    0    0  0.41871285259E+02 -0.59950495206E+02  0.43095733268E+03  0.45466384434E+03  0.12509085639E+03 0.  0.
          5    1    3    3  502    0 -0.10176064506E+02  0.40405320747E+01 -0.36528230314E+01  0.12275736408E+02  0.41800000000E+01 0.  1.
         -5    1    3    3    0  502  0.52047349765E+02 -0.63991027280E+02  0.43461015571E+03  0.44238810793E+03  0.41800000000E+01 0.  1.
        -11    1    1    2    0    0  0.26553933203E+01  0.47679046539E+02  0.10445461820E+03  0.11485255702E+03  0.00000000000E+00 0.  1.
         11    1    1    2    0    0 -0.44526678579E+02  0.12271448667E+02  0.57346564727E+01  0.46541377747E+02  0.00000000000E+00 0. -1.
</event>
<event>
 7    1  0.2670433E-009  0.1239865E+03  0.7561462E-02  0.1236662E+00
          1   -1    0    0  501    0  0.00000000000E+00  0.00000000000E+00  0.23168532255E+02  0.23168532255E+02  0.00000000000E+00 0. -1.
         -1   -1    0    0    0  501 -0.00000000000E+00 -0.00000000000E+00 -0.75863450730E+03  0.75863450730E+03  0.00000000000E+00 0.  1.
         25    2    1    2    0    0  0.23463568675E+02 -0.64693659745E+02 -0.30847958300E+03  0.33991259409E+03  0.12508041343E+03 0.  0.
          5    1    3    3  502    0 -0.23404150030E+02 -0.83822852748E+02 -0.14973641437E+03  0.17324113562E+03  0.41800000000E+01 0.  1.
         -5    1    3    3    0  502  0.46867718705E+02  0.19129193004E+02 -0.15874316863E+03  0.16667145847E+03  0.41800000000E+01 0.  1.
        -11    1    1    2    0    0 -0.33319706890E+02 -0.99382588388E+01 -0.87449551805E+02  0.94108426652E+02  0.00000000000E+00 0. -1.
         11    1    1    2    0    0  0.98561382153E+01  0.74631918584E+02 -0.33953684023E+03  0.34778201881E+03  0.00000000000E+00 0.  1.
</event>
<event>
 7    1  0.2670433E-009  0.1409567E+03  0.7561462E-02  0.1212047E+00
          1   -1    0    0  501    0  0.00000000000E+00  0.00000000000E+00  0.26929277043E+03  0.26929277043E+03  0.00000000000E+00 0. -1.
         -1   -1    0    0    0  501 -0.00000000000E+00 -0.00000000000E+00 -0.96752356611E+02  0.96752356611E+02  0.00000000000E+00 0.  1.
         25    2    1    2    0    0  0.11288048886E+03  0.26886323819E+02  0.60967145584E+02  0.18118914912E+03  0.12509051021E+03 0.  0.
          5    1    3    3  502    0  0.11452051996E+03 -0.11564622748E+02  0.77782052911E+02  0.13898276924E+03  0.41800000000E+01 0. -1.
         -5    1    3    3    0  502 -0.16400311035E+01  0.38450946567E+02 -0.16814907327E+02  0.42206379877E+02  0.41800000000E+01 0. -1.
        -11    1    1    2    0    0 -0.51385044128E+02  0.15103377517E+02  0.94248622794E+02  0.10840358698E+03  0.00000000000E+00 0. -1.
         11    1    1    2    0    0 -0.61495444730E+02 -0.41989701335E+02  0.17324645445E+02  0.76452390940E+02  0.00000000000E+00 0.  1.
</event>
<event>
 7    1  0.2670433E-009  0.1906884E+03  0.7561462E-02  0.1157842E+00
          2   -1    0    0  501    0  0.00000000000E+00  0.00000000000E+00  0.81986116873E+03  0.81986116873E+03  0.00000000000E+00 0. -1.
         -2   -1    0    0    0  501 -0.00000000000E+00 -0.00000000000E+00 -0.14551573019E+03  0.14551573019E+03  0.00000000000E+00 0.  1.
         25    2    1    2    0    0 -0.17417252047E+03 -0.19795915971E+02  0.72837860494E+03  0.75954653244E+03  0.12509035789E+03 0.  0.
          5    1    3    3  502    0 -0.13502935496E+03 -0.61696867059E+02  0.41117235557E+03  0.43717228696E+03  0.41800000000E+01 0.  1.
         -5    1    3    3    0  502 -0.39143165511E+02  0.41900951088E+02  0.31720624937E+03  0.32237424548E+03  0.41800000000E+01 0.  1.
        -11    1    1    2    0    0  0.11761979297E+03  0.10948158019E+02 -0.80314118073E+02  0.14284479488E+03  0.00000000000E+00 0.  1.
         11    1    1    2    0    0  0.56552727502E+02  0.88477579526E+01  0.26280951678E+02  0.62985571600E+02  0.00000000000E+00 0. -1.
</event>
<event>
 7    1  0.2670433E-009  0.1490623E+03  0.7561462E-02  0.1201630E+00
          1   -1    0    0  501    0  0.00000000000E+00  0.00000000000E+00  0.46238124767E+02  0.46238124767E+02  0.00000000000E+00 0. -1.
         -1   -1    0    0    0  501 -0.00000000000E+00 -0.00000000000E+00 -0.52123744082E+03  0.52123744082E+03  0.00000000000E+00 0.  1.
         25    2    1    2    0    0 -0.84131477853E+02  0.67444871739E+02 -0.23789299369E+03  0.28959971322E+03  0.12509197082E+03 0.  0.
          5    1    3    3  502    0 -0.31534339502E+02  0.90291441255E+02 -0.19704823628E+03  0.21907176622E+03  0.41800000000E+01 0.  1.
         -5    1    3    3    0  502 -0.52597138351E+02 -0.22846569516E+02 -0.40844757405E+02  0.70527947005E+02  0.41800000000E+01 0.  1.
        -11    1    1    2    0    0  0.30598625223E+02  0.24031605348E+02 -0.63053700153E+02  0.74091585380E+02  0.00000000000E+00 0.  1.
         11    1    1    2    0    0  0.53532852630E+02 -0.91476477087E+02 -0.17405262222E+03  0.20378426699E+03  0.00000000000E+00 0. -1.
</event>
<event>
 7    1  0.2670433E-009  0.1879265E+03  0.7561462E-02  0.1160345E+00
          1   -1    0    0  501    0  0.00000000000E+00  0.00000000000E+00  0.12396210176E+04  0.12396210176E+04  0.00000000000E+00 0. -1.
         -1   -1    0    0    0  501 -0.00000000000E+00 -0.00000000000E+00 -0.36912629040E+02  0.36912629040E+02  0.00000000000E+00 0.  1.
         25    2    1    2    0    0 -0.42380005026E+02  0.16911123489E+03  0.79269484225E+03  0.82122250981E+03  0.12508646252E+03 0.  0.
          5    1    3    3  502    0 -0.77825169510E+01  0.10081255147E+03  0.66204384297E+03  0.66973372360E+03  0.41800000000E+01 0. -1.
         -5    1    3    3    0  502 -0.34597488075E+02  0.68298683418E+02  0.13065099927E+03  0.15148878622E+03  0.41800000000E+01 0. -1.
        -11    1    1    2    0    0  0.32388730572E+02 -0.18017959281E+03  0.37833877021E+03  0.42030220149E+03  0.00000000000E+00 0. -1.
         11    1    1    2    0    0  0.99912744542E+01  0.11068357919E+02  0.31674776071E+02  0.35008935308E+02  0.00000000000E+00 0.  1.
</event>
<event>
 7    1  0.2670433E-009  0.8726588E+02  0.7561462E-02  0.1309611E+00
          2   -1    0    0  501    0  0.00000000000E+00  0.00000000000E+00  0.22299236701E+03  0.22299236701E+03  0.00000000000E+00 0. -1.
         -2   -1    0    0    0  501 -0.00000000000E+00 -0.00000000000E+00 -0.12341941263E+03  0.12341941263E+03  0.00000000000E+00 0.  1.
         25    2    1    2    0    0 -0.13499657548E+02 -0.26938857242E+02  0.18011484249E+03  0.22134965303E+03  0.12508544931E+03 0.  0.
          5    1    3    3  502    0 -0.59830556206E+02  0.15980410907E+02  0.64314100916E+02  0.89380338807E+02  0.41800000000E+01 0. -1.
         -5    1    3    3    0  502  0.46330898658E+02 -0.42919268148E+02  0.11580074157E+03  0.13196931423E+03  0.41800000000E+01 0. -1.
        -11    1    1    2    0    0  0.23871726017E+02  0.42841834760E+01 -0.93767601703E+02  0.96853377123E+02  0.00000000000E+00 0.  1.
         11    1    1    2    0    0 -0.10372068469E+02  0.22654673766E+02  0.13225713595E+02  0.28208749491E+02  0.00000000000E+00 0. -1.
</event>
<event>
 7    1  0.2670433E-009  0.1150574E+03  0.7561462E-02  0.1251481E+00
          1   -1    0    0  501    0  0.00000000000E+00  0.00000000000E+00  0.65715548195E+02  0.65715548195E+02  0.00000000000E+00 0. -1.
         -1   -1    0    0    0  501 -0.00000000000E+00 -0.00000000000E+00 -0.35274217177E+03  0.35274217177E+03  0.00000000000E+00 0.  1.
         25    2    1    2    0    0  0.61005646159E+02 -0.82722752656E+02 -0.19931261342E+03  0.25678418986E+03  0.12509140507E+03 0.  0.
          5    1    3    3  502    0  0.72737886642E+02 -0.86308972918E+02 -0.21100183764E+03  0.23933091494E+03  0.41800000000E+01 0. -1.
         -5    1    3    3    0  502 -0.11732240483E+02  0.35862202616E+01  0.11689224220E+02  0.17453274919E+02  0.41800000000E+01 0. -1.
        -11    1    1    2    0    0 -0.11046372215E+02  0.28035170998E+02  0.16083463948E+02  0.34156565468E+02  0.00000000000E+00 0. -1.
         11    1    1    2    0    0 -0.49959273944E+02  0.54687581658E+02 -0.10379747411E+03  0.12751696464E+03  0.00000000000E+00 0.  1.
</event>
<event>
 7    1  0.2670433E-009  0.1311454E+03  0.7561462E-02  0.1225766E+00
         -1   -1    0    0    0  501 -0.00000000000E+00  0.00000000000E+00  0.88766780309E+02  0.88766780309E+02  0.00000000000E+00 0.  1.
          1   -1    0    0  501    0  0.00000000000E+00 -0.00000000000E+00 -0.22553497764E+03  0.22553497764E+03  0.00000000000E+00 0. -1.
         25    2    1    2    0    0  0.82147730766E+02 -0.26502570600E+02 -0.43493573194E+02  0.15808385236E+03  0.12509267585E+03 0.  0.
          5    1    3    3  502    0  0.18142616002E+02  0.49158852332E+02 -0.10984341295E+02  0.53701726525E+02  0.41800000000E+01 0. -1.
         -5    1    3    3    0  502  0.64005114764E+02 -0.75661422933E+02 -0.32509231899E+02  0.10438212584E+03  0.41800000000E+01 0. -1.
        -11    1    1    2    0    0 -0.57054300230E+02  0.50218106513E+02 -0.94981021876E+02  0.12164886318E+03  0.00000000000E+00 0. -1.
         11    1    1    2    0    0 -0.25093430536E+02 -0.23715535912E+02  0.17063977364E+01  0.34569042407E+02  0.00000000000E+00 0.  1.
</event>
<event>
 7    1  0.2670433E-009  0.1595937E+03  0.7561462E-02  0.1189156E+00
         -2   -1    0    0    0  501 -0.00000000000E+00  0.00000000000E+00  0.35647813328E+02  0.35647813328E+02  0.00000000000E+00 0.  1.
          2   -1    0    0  501    0  0.00000000000E+00 -0.00000000000E+00 -0.87266692219E+03  0.87266692219E+03  0.00000000000E+00 0. -1.
         25    2    1    2    0    0  0.83978142687E+02  0.10579346496E+03 -0.36108556174E+03  0.40530847946E+03  0.12509034714E+03 0.  0.
          5    1    3    3  502    0 -0.14365780110E+02  0.32750251886E+02 -0.19826270287E+03  0.20150564852E+03  0.41800000000E+01 0.  1.
         -5    1    3    3    0  502  0.98343922797E+02  0.73043213078E+02 -0.16282285887E+03  0.20380283094E+03  0.41800000000E+01 0.  1.
        -11    1    1    2    0    0  0.18288440131E+02 -0.20194592987E+02 -0.11610178330E+03  0.11925566114E+03  0.00000000000E+00 0. -1.
         11    1    1    2    0    0 -0.10226658282E+03 -0.85598871977E+02 -0.35983176382E+03  0.38375059492E+03  0.00000000000E+00 0.  1.
</event>
<event>
 7    1  0.2670433E-009  0.1422125E+03  0.7561462E-02  0.1210382E+00
          2   -1    0    0  501    0  0.00000000000E+00  0.00000000000E+00  0.50931978491E+03  0.50931978491E+03  0.00000000000E+00 0. -1.
         -2   -1    0    0    0  501 -0.00000000000E+00 -0.00000000000E+00 -0.64593124862E+02  0.64593124862E+02  0.00000000000E+00 0.  1.
         25    2    1    2    0    0 -0.10286361632E+03 -0.49296193764E+02  0.37559140354E+03  0.41197877636E+03  0.12508625613E+03 0.  0.
          5    1    3    3  502    0 -0.83991617571E+02 -0.88103246620E+02  0.31278840750E+03  0.33566476454E+03  0.41800000000E+01 0. -1.
         -5    1    3    3    0  502 -0.18871998752E+02  0.38807052855E+02  0.62802996041E+02  0.76314011819E+02  0.41800000000E+01 0. -1.
        -11    1    1    2    0    0  0.93292725847E+02  0.54836909791E+02  0.88392185923E+02  0.13972758462E+03  0.00000000000E+00 0. -1.
         11    1    1    2    0    0  0.95708904755E+01 -0.55407160267E+01 -0.19256929418E+02  0.22206548791E+02  0.00000000000E+00 0.  1.
</event>
<event>
 7    1  0.2670433E-009  0.1077520E+03  0.7561462E-02  0.1264790E+00
          4   -1    0    0  501    0  0.00000000000E+00  0.00000000000E+00  0.13223158838E+04  0.13223158838E+04  0.00000000000E+00 0.  1.
         -4   -1    0    0    0  501 -0.00000000000E+00 -0.00000000000E+00 -0.11568406020E+02  0.11568406020E+02  0.00000000000E+00 0. -1.
         25    2    1    2    0    0  0.19990758354E+02 -0.55127414292E+02  0.87706078559E+03  0.88787492146E+03  0.12509033662E+03 0.  0.
          5    1    3    3  502    0  0.23386532469E+02  0.24023573479E+02  0.56075101993E+03  0.56176795987E+03  0.41800000000E+01 0. -1.
         -5    1    3    3    0  502 -0.33957741152E+01 -0.79150987771E+02  0.31630976566E+03  0.32610696159E+03  0.41800000000E+01 0. -1.
        -11    1    1    2    0    0  0.27375494162E+02 -0.28429673054E+01  0.83806061868E+02  0.88209728203E+02  0.00000000000E+00 0.  1.
         11    1    1    2    0    0 -0.47366252516E+02  0.57970381597E+02  0.34988063028E+03  0.35779964011E+03  0.00000000000E+00 0. -1.
</event>
<event>
 7    1  0.2670433E-009  0.1207885E+03  0.7561462E-02  0.1241802E+00
          1   -1    0    0  501    0  0.00000000000E+00  0.00000000000E+00  0.44268320770E+02  0.44268320770E+02  0.00000000000E+00 0. -1.
         -1   -1    0    0    0  501 -0.00000000000E+00 -0.00000000000E+00 -0.39755916228E+03  0.39755916228E+03  0.00000000000E+00 0.  1.
         25    2    1    2    0    0 -0.49977524422E+02 -0.57047726466E+02 -0.17223764650E+03  0.22597627321E+03  0.12508906083E+03 0.  0.
          5    1    3    3  502    0 -0.97268339863E+01  0.37291518484E+02 -0.23756479966E+02  0.45465496704E+02  0.41800000000E+01 0.  1.
         -5    1    3    3    0  502 -0.40250690435E+02 -0.94339244950E+02 -0.14848116653E+03  0.18051077650E+03  0.41800000000E+01 0.  1.
        -11    1    1    2    0    0  0.46132968525E+02  0.32744724894E+01 -0.29159153134E+02  0.54673843532E+02  0.00000000000E+00 0. -1.
         11    1    1    2    0    0  0.38445558963E+01  0.53773253977E+02 -0.15189404188E+03  0.16117736631E+03  0.00000000000E+00 0.  1.
</event>
<event>
 7    1  0.2670433E-009  0.8645205E+02  0.7561462E-02  0.1311678E+00
          1   -1    0    0  501    0  0.00000000000E+00  0.00000000000E+00  0.56658199103E+02  0.56658199103E+02  0.00000000000E+00 0. -1.
         -1   -1    0    0    0  501 -0.00000000000E+00 -0.00000000000E+00 -0.23272530660E+03  0.23272530660E+03  0.00000000000E+00 0.  1.
         25    2    1    2    0    0  0.18963902182E+02  0.15096271196E+02 -0.61447179938E+02  0.14145963100E+03  0.12509014466E+03 0.  0.
          5    1    3    3  502    0  0.14662714777E+02  0.46436692067E+02 -0.87526887192E+02  0.10024864067E+03  0.41800000000E+01 0. -1.
         -5    1    3    3    0  502  0.43011874045E+01 -0.31340420871E+02  0.26079707254E+02  0.41210990330E+02  0.41800000000E+01 0. -1.
        -11    1    1    2    0    0  0.31444233264E+02  0.13437965331E+02 -0.55266925855E+02  0.64990397839E+02  0.00000000000E+00 0.  1.
         11    1    1    2    0    0 -0.50408135446E+02 -0.28534236527E+02 -0.59353001705E+02  0.82933476864E+02  0.00000000000E+00 0. -1.
</event>
<event>
 7    1  0.2670433E-009  0.1061702E+03  0.7561462E-02  0.1267831E+00
          1   -1    0    0  501    0  0.00000000000E+00  0.00000000000E+00  0.11414955935E+04  0.11414955935E+04  0.00000000000E+00 0. -1.
         -1   -1    0    0    0  501 -0.00000000000E+00 -0.00000000000E+00 -0.14983925608E+02  0.14983925608E+02  0.00000000000E+00 0.  1.
         25    2    1    2    0    0 -0.66689524206E+01 -0.45645220170E+02  0.87689648692E+03  0.88697390587E+03  0.12508916771E+03 0.  0.
          5    1    3    3  502    0 -0.38278920072E+02 -0.77282149703E+02  0.64643914012E+03  0.65218006767E+03  0.41800000000E+01 0. -1.
         -5    1    3    3    0  502  0.31609967651E+02  0.31636929533E+02  0.23045734680E+03  0.23479383821E+03  0.41800000000E+01 0. -1.
        -11    1    1    2    0    0  0.34639571550E+02  0.10568857833E+02  0.19726453559E+03  0.20056145611E+03  0.00000000000E+00 0. -1.
         11    1    1    2    0    0 -0.27970619130E+02  0.35076362337E+02  0.52350645351E+02  0.68944157098E+02  0.00000000000E+00 0.  1.
</event>
<event>
 7    1  0.2670433E-009  0.6955104E+02  0.7561462E-02  0.1361626E+00
         -1   -1    0    0    0  501 -0.00000000000E+00  0.00000000000E+00  0.66316805370E+03  0.66316805370E+03  0.00000000000E+00 0.  1.
          1   -1    0    0  501    0  0.00000000000E+00 -0.00000000000E+00 -0.19342296157E+02  0.19342296157E+02  0.00000000000E+00 0. -1.
         25    2    1    2    0    0  0.30087108020E+02 -0.14490264630E+02  0.34833080811E+03  0.37161478734E+03  0.12509195198E+03 0.  0.
          5    1    3    3  502    0  0.33363107835E+02 -0.18215864978E+02  0.19879965364E+02  0.43099885431E+02  0.41800000000E+01 0.  1.
         -5    1    3    3    0  502 -0.32759998150E+01  0.37256003474E+01  0.32845084275E+03  0.32851490191E+03  0.41800000000E+01 0.  1.
        -11    1    1    2    0    0 -0.38479508835E+02 -0.30191776044E+02  0.11946630630E+03  0.12909072113E+03  0.00000000000E+00 0.  1.
         11    1    1    2    0    0  0.83924008147E+01  0.44682040674E+02  0.17602864312E+03  0.18180484138E+03  0.00000000000E+00 0. -1.
</event>
<event>
 7    1  0.2670433E-009  0.7877339E+02  0.7561462E-02  0.1332569E+00
          1   -1    0    0  501    0  0.00000000000E+00  0.00000000000E+00  0.19263306838E+03  0.19263306838E+03  0.00000000000E+00 0. -1.
         -1   -1    0    0    0  501 -0.00000000000E+00 -0.00000000000E+00 -0.63070069497E+02  0.63070069497E+02  0.00000000000E+00 0.  1.
         25    2    1    2    0    0  0.90692521716E+01 -0.19388172314E+02  0.63526430395E+02  0.14191781645E+03  0.12508759613E+03 0.  0.
          5    1    3    3  502    0 -0.48759092044E+02  0.21623181532E+02  0.13898247327E+02  0.55277886313E+02  0.41800000000E+01 0. -1.
         -5    1    3    3    0  502  0.57828344215E+02 -0.41011353845E+02  0.49628183068E+02  0.86639930134E+02  0.41800000000E+01 0. -1.
        -11    1    1    2    0    0 -0.10061550283E+02 -0.30911180948E+01 -0.21213092456E+02  0.23680901518E+02  0.00000000000E+00 0.  1.
         11    1    1    2    0    0  0.99229811115E+00  0.22479290409E+02  0.87249660948E+02  0.90104419916E+02  0.00000000000E+00 0. -1.
</event>
<event>
 7    1  0.2670433E-009  0.1731442E+03  0.7561462E-02  0.1174608E+00
          1   -1    0    0  501    0  0.00000000000E+00  0.00000000000E+00  0.18975381970E+04  0.18975381970E+04  0.00000000000E+00 0. -1.
         -1   -1    0    0    0  501 -0.00000000000E+00 -0.00000000000E+00 -0.24881954122E+02  0.24881954122E+02  0.00000000000E+00 0.  1.
         25    2    1    2    0    0 -0.57627932316E+02  0.13968124383E+03  0.14602256512E+04  0.14733425506E+04  0.12508992993E+03 0.  0.
          5    1    3    3  502    0 -0.75728602297E+02  0.55919699934E+02  0.10512263611E+04  0.10554412199E+04  0.41800000000E+01 0. -1.
         -5    1    3    3    0  502  0.18100669980E+02  0.83761543899E+02  0.40899929011E+03  0.41790133070E+03  0.41800000000E+01 0. -1.
        -11    1    1    2    0    0 -0.94267464409E+01 -0.65864080671E+02  0.92356414537E+02  0.11382727255E+03  0.00000000000E+00 0.  1.
         11    1    1    2    0    0  0.67054678757E+02 -0.73817163162E+02  0.32007417716E+03  0.33525032797E+03  0.00000000000E+00 0. -1.
</event>
<event>
 7    1  0.2670433E-009  0.7914782E+02  0.7561462E-02  0.1331487E+00
          1   -1    0    0  501    0  0.00000000000E+00  0.00000000000E+00  0.42155781364E+02  0.42155781364E+02  0.00000000000E+00 0. -1.
         -1   -1    0    0    0  501 -0.00000000000E+00 -0.00000000000E+00 -0.33158120084E+03  0.33158120084E+03  0.00000000000E+00 0.  1.
         25    2    1    2    0    0  0.23089843743E+02 -0.16047702330E+02 -0.19648546939E+03  0.23460647529E+03  0.12507193503E+03 0.  0.
          5    1    3    3  502    0  0.27208820771E+02  0.37667318344E+02 -0.16628285245E+03  0.17270381066E+03  0.41800000000E+01 0. -1.
         -5    1    3    3    0  502 -0.41189770279E+01 -0.53715020675E+02 -0.30202616940E+02  0.61902664627E+02  0.41800000000E+01 0. -1.
        -11    1    1    2    0    0 -0.35148608160E+02  0.24531369162E+02 -0.10912231071E+03  0.11723860893E+03  0.00000000000E+00 0.  1.
         11    1    1    2    0    0  0.12058764417E+02 -0.84836668319E+01  0.16182360622E+02  0.21891897988E+02  0.00000000000E+00 0. -1.
</event>
<event>
 7    1  0.2670433E-009  0.1282929E+03  0.7561462E-02  0.1230011E+00
          2   -1    0    0  501    0  0.00000000000E+00  0.00000000000E+00  0.20873002374E+03  0.20873002374E+03  0.00000000000E+00 0.  1.
         -2   -1    0    0    0  501 -0.00000000000E+00 -0.00000000000E+00 -0.11896651695E+03  0.11896651695E+03  0.00000000000E+00 0. -1.
         25    2    1    2    0    0  0.11421021245E+03  0.91477731423E+01  0.56837256231E+02  0.17890201433E+03  0.12509117736E+03 0.  0.
          5    1    3    3  502    0  0.41785151161E+02  0.43678898812E+02 -0.23774275820E+02  0.65088659916E+02  0.41800000000E+01 0.  1.
         -5    1    3    3    0  502  0.72425061289E+02 -0.34531125669E+02  0.80611532051E+02  0.11381335441E+03  0.41800000000E+01 0.  1.
        -11    1    1    2    0    0 -0.56520393739E+02  0.33579543449E+01 -0.28682632403E+02  0.63470655955E+02  0.00000000000E+00 0.  1.
         11    1    1    2    0    0 -0.57689818710E+02 -0.12505727487E+02  0.61608882956E+02  0.85323870411E+02  0.00000000000E+00 0. -1.
</event>
<event>
 7    1  0.2670433E-009  0.1512885E+03  0.7561462E-02  0.1198899E+00
         -2   -1    0    0    0  501 -0.00000000000E+00  0.00000000000E+00  0.18887454972E+02  0.18887454972E+02  0.00000000000E+00 0.  1.
          2   -1    0    0  501    0  0.00000000000E+00 -0.00000000000E+00 -0.12640221847E+04  0.12640221847E+04  0.00000000000E+00 0. -1.
         25    2    1    2    0    0  0.90238018263E+02  0.63688403626E+02 -0.69774288345E+03  0.71741758845E+03  0.12507498596E+03 0.  0.
          5    1    3    3  502    0  0.12055451065E+03  0.63180385603E+02 -0.57823299304E+03  0.59405051788E+03  0.41800000000E+01 0. -1.
         -5    1    3    3    0  502 -0.30316492384E+02  0.50801802286E+00 -0.11950989042E+03  0.12336707057E+03  0.41800000000E+01 0. -1.
        -11    1    1    2    0    0 -0.82106228984E+02 -0.11414817052E+02 -0.40937669989E+03  0.41768530414E+03  0.00000000000E+00 0.  1.
         11    1    1    2    0    0 -0.81317892787E+01 -0.52273586574E+02 -0.13801514641E+03  0.14780674710E+03  0.00000000000E+00 0. -1.
</event>
<event>
 7    1  0.2670433E-009  0.9936203E+02  0.7561462E-02  0.1281643E+00
         -1   -1    0    0    0  501 -0.00000000000E+00  0.00000000000E+00  0.58172037117E+02  0.58172037117E+02  0.00000000000E+00 0.  1.
          1   -1    0    0  501    0  0.00000000000E+00 -0.00000000000E+00 -0.22798478907E+03  0.22798478907E+03  0.00000000000E+00 0. -1.
         25    2    1    2    0    0  0.19972074973E+02 -0.34528366732E+02 -0.10992814295E+03  0.17123873941E+03  0.12508963736E+03 0.  0.
          5    1    3    3  502    0 -0.51242689947E+02 -0.14707491418E+01 -0.55159664862E+02  0.75419078513E+02  0.41800000000E+01 0.  1.
         -5    1    3    3    0  502  0.71214764919E+02 -0.33057617590E+02 -0.54768478083E+02  0.95819660899E+02  0.41800000000E+01 0.  1.
        -11    1    1    2    0    0  0.14878510517E+02 -0.52522267056E+01  0.15967845338E+02  0.22448341705E+02  0.00000000000E+00 0.  1.
         11    1    1    2    0    0 -0.34850585489E+02  0.39780593438E+02 -0.75852454350E+02  0.92469745075E+02  0.00000000000E+00 0. -1.
</event>
<event>
 7    1  0.2670433E-009  0.1207375E+03  0.7561462E-02  0.1241885E+00
          1   -1    0    0  501    0  0.00000000000E+00  0.00000000000E+00  0.18886292208E+04  0.18886292208E+04  0.00000000000E+00 0. -1.
         -1   -1    0    0    0  501 -0.00000000000E+00 -0.00000000000E+00 -0.10066848590E+02  0.10066848590E+02  0.00000000000E+00 0.  1.
         25    2    1    2    0    0  0.48254428809E+02  0.44323913418E+02  0.13943311614E+04  0.14014638096E+04  0.12509325635E+03 0.  0.
          5    1    3    3  502    0  0.82432629666E+02  0.16210556233E+02  0.59726527195E+03  0.60315934714E+03  0.41800000000E+01 0.  1.
         -5    1    3    3    0  502 -0.34178200857E+02  0.28113357185E+02  0.79706588947E+03  0.79830446249E+03  0.41800000000E+01 0.  1.
        -11    1    1    2    0    0 -0.51705074416E+02  0.14722630074E+02  0.23816818188E+03  0.24416030270E+03  0.00000000000E+00 0.  1.
         11    1    1    2    0    0  0.34506456077E+01 -0.59046543492E+02  0.24606302894E+03  0.25307195709E+03  0.00000000000E+00 0. -1.
</event>
<event>
 7    1  0.2670433E-009  0.1224521E+03  0.7561462E-02  0.1239106E+00
         -2   -1    0    0    0  501 -0.00000000000E+00  0.00000000000E+00  0.17736259609E+03  0.17736259609E+03  0.00000000000E+00 0. -1.
          2   -1    0    0  501    0  0.00000000000E+00 -0.00000000000E+00 -0.21510054291E+03  0.21510054291E+03  0.00000000000E+00 0.  1.
         25    2    1    2    0    0 -0.20677581690E+02  0.95099036956E+02  0.11066316235E+03  0.19330322089E+03  0.12509360691E+03 0.  0.
          5    1    3    3  502    0 -0.23216554418E+02  0.11357246275E+03  0.12415489659E+03  0.16991063369E+03  0.41800000000E+01 0. -1.
         -5    1    3    3    0  502  0.25389727282E+01 -0.18473425792E+02 -0.13491734238E+02  0.23392587197E+02  0.41800000000E+01 0. -1.
        -11    1    1    2    0    0 -0.15077131824E+02 -0.11787387065E+02 -0.88388534828E+02  0.90436693255E+02  0.00000000000E+00 0.  1.
         11    1    1    2    0    0  0.35754713514E+02 -0.83311649891E+02 -0.60012574339E+02  0.10872322486E+03  0.00000000000E+00 0. -1.
</event>
<event>
 7    1  0.2670433E-009  0.9657329E+02  0.7561462E-02  0.1287671E+00
          2   -1    0    0  501    0  0.00000000000E+00  0.00000000000E+00  0.10467598978E+03  0.10467598978E+03  0.00000000000E+00 0. -1.
         -2   -1    0    0    0  501 -0.00000000000E+00 -0.00000000000E+00 -0.18221658014E+03  0.18221658014E+03  0.00000000000E+00 0.  1.
         25    2    1    2    0    0 -0.46742309648E+01 -0.33696892322E+02 -0.12383789534E+03  0.17927730540E+03  0.12508876418E+03 0.  0.
          5    1    3    3  502    0 -0.13793524644E+02 -0.71755820230E+02 -0.33010982171E+02  0.80289204771E+02  0.41800000000E+01 0.  1.
         -5    1    3    3    0  502  0.91192936794E+01  0.38058927908E+02 -0.90826913170E+02  0.98988100632E+02  0.41800000000E+01 0.  1.
        -11    1    1    2    0    0 -0.32433422679E+02  0.32444073776E+01  0.49761869958E+02  0.59486946363E+02  0.00000000000E+00 0. -1.
         11    1    1    2    0    0  0.37107653644E+02  0.30452484944E+02 -0.34645649778E+01  0.48128318158E+02  0.00000000000E+00 0.  1.
</event>
<event>
 7    1  0.2670433E-009  0.9025177E+02  0.7561462E-02  0.1302243E+00
         -1   -1    0    0    0  501 -0.00000000000E+00  0.00000000000E+00  0.47060641669E+03  0.47060641669E+03  0.00000000000E+00 0.  1.
          1   -1    0    0  501    0  0.00000000000E+00 -0.00000000000E+00 -0.27141119119E+02  0.27141119119E+02  0.00000000000E+00 0. -1.
         25    2    1    2    0    0  0.27255858064E+02 -0.86713825695E+01  0.23305482966E+03  0.26604460604E+03  0.12508838516E+03 0.  0.
          5    1    3    3  502    0 -0.13271906122E+01  0.35646494080E+02  0.10688128737E+02  0.37471889077E+02  0.41800000000E+01 0. -1.
         -5    1    3    3    0  502  0.28583048676E+02 -0.44317876649E+02  0.22236670092E+03  0.22857271697E+03  0.41800000000E+01 0. -1.
        -11    1    1    2    0    0 -0.34760023064E+02 -0.33843885603E+02  0.14851586359E+03  0.15623901412E+03  0.00000000000E+00 0.  1.
         11    1    1    2    0    0  0.75041650002E+01  0.42515268172E+02  0.61894604323E+02  0.75463915645E+02  0.00000000000E+00 0. -1.
</event>
<event>
 7    1  0.2670433E-009  0.2830413E+03  0.7561462E-02  0.1094039E+00
          1   -1    0    0  501    0  0.00000000000E+00  0.00000000000E+00  0.10530992264E+03  0.10530992264E+03  0.00000000000E+00 0. -1.
         -1   -1    0    0    0  501 -0.00000000000E+00 -0.00000000000E+00 -0.79597371089E+03  0.79597371089E+03  0.00000000000E+00 0.  1.
         25    2    1    2    0    0  0.26777453497E+03  0.10043350846E+02 -0.34141501299E+03  0.45168070671E+03  0.12508868554E+03 0.  0.
          5    1    3    3  502    0  0.98207079647E+02  0.48626743155E+02 -0.72696189926E+02  0.13157279002E+03  0.41800000000E+01 0. -1.
         -5    1    3    3    0  502  0.16956745532E+03 -0.38583392309E+02 -0.26871882306E+03  0.32010791670E+03  0.41800000000E+01 0. -1.
        -11    1    1    2    0    0 -0.14840189844E+03 -0.49974175764E+02 -0.17809915750E+03  0.23714942885E+03  0.00000000000E+00 0. -1.
         11    1    1    2    0    0 -0.11937263653E+03  0.39930824918E+02 -0.17114961777E+03  0.21245349795E+03  0.00000000000E+00 0.  1.
</event>
<event>
 7    1  0.2670433E-009  0.1230953E+03  0.7561462E-02  0.1238076E+00
          1   -1    0    0  501    0  0.00000000000E+00  0.00000000000E+00  0.94467754228E+03  0.94467754228E+03  0.00000000000E+00 0. -1.
         -1   -1    0    0    0  501 -0.00000000000E+00 -0.00000000000E+00 -0.21731527263E+02  0.21731527263E+02  0.00000000000E+00 0.  1.
         25    2    1    2    0    0  0.86511805970E+00 -0.86938437493E+02  0.51980594154E+03  0.54166841535E+03  0.12508962780E+03 0.  0.
          5    1    3    3  502    0  0.44672818149E+02 -0.34339731893E+02  0.39709022246E+03  0.40108975933E+03  0.41800000000E+01 0.  1.
         -5    1    3    3    0  502 -0.43807700089E+02 -0.52598705599E+02  0.12271571907E+03  0.14057865601E+03  0.41800000000E+01 0.  1.
        -11    1    1    2    0    0 -0.39126357127E+02  0.19839895091E+02  0.24321278913E+03  0.24713752054E+03  0.00000000000E+00 0. -1.
         11    1    1    2    0    0  0.38261239067E+02  0.67098542402E+02  0.15992728434E+03  0.17760313366E+03  0.00000000000E+00 0.  1.
</event>
<event>
 7    1  0.2670433E-009  0.8586660E+02  0.7561462E-02  0.1313182E+00
         -1   -1    0    0    0  501 -0.00000000000E+00  0.00000000000E+00  0.52705976165E+02  0.52705976165E+02  0.00000000000E+00 0.  1.
          1   -1    0    0  501    0  0.00000000000E+00 -0.00000000000E+00 -0.29604224629E+03  0.29604224629E+03  0.00000000000E+00 0. -1.
         25    2    1    2    0    0 -0.11179979414E+02  0.12853568586E+02 -0.53706584182E+02  0.13719201041E+03  0.12508814641E+03 0.  0.
          5    1    3    3  502    0 -0.11832884439E+01 -0.38091489602E+02 -0.72342752303E+02  0.81873731822E+02  0.41800000000E+01 0. -1.
         -5    1    3    3    0  502 -0.99966909704E+01  0.50945058188E+02  0.18636168121E+02  0.55318278592E+02  0.41800000000E+01 0. -1.
        -11    1    1    2    0    0  0.40787505447E+02 -0.26571399545E+02 -0.56935235070E+02  0.74908483277E+02  0.00000000000E+00 0.  1.
         11    1    1    2    0    0 -0.29607526032E+02  0.13717830959E+02 -0.13269445087E+03  0.13664772876E+03  0.00000000000E+00 0. -1.
</event>
<event>
 7    1  0.2670433E-009  0.1210109E+03  0.7561462E-02  0.1241439E+00
          1   -1    0    0  501    0  0.00000000000E+00  0.00000000000E+00  0.10584592264E+03  0.10584592264E+03  0.00000000000E+00 0. -1.
         -1   -1    0    0    0  501 -0.00000000000E+00 -0.00000000000E+00 -0.27644695959E+03  0.27644695959E+03  0.00000000000E+00 0.  1.
         25    2    1    2    0    0  0.91657989466E+02 -0.42082166402E+02 -0.18806812705E+03  0.24736355204E+03  0.12508801183E+03 0.  0.
          5    1    3    3  502    0  0.83852012682E+02 -0.51754216723E+02 -0.20408302153E+03  0.22666497536E+03  0.41800000000E+01 0.  1.
         -5    1    3    3    0  502  0.78059767847E+01  0.96720503207E+01  0.16014894485E+02  0.20698576674E+02  0.41800000000E+01 0.  1.
        -11    1    1    2    0    0 -0.53690254915E+02  0.66250797552E+02 -0.33502184202E+01  0.85340703141E+02  0.00000000000E+00 0.  1.
         11    1    1    2    0    0 -0.37967734552E+02 -0.24168631150E+02  0.20817308517E+02  0.49588627048E+02  0.00000000000E+00 0. -1.
</event>
<event>
 7    1  0.2670433E-009  0.6623279E+02  0.7561462E-02  0.1373393E+00
          4   -1    0    0  501    0  0.00000000000E+00  0.00000000000E+00  0.85371848663E+02  0.85371848663E+02  0.00000000000E+00 0. -1.
         -4   -1    0    0    0  501 -0.00000000000E+00 -0.00000000000E+00 -0.14594034518E+03  0.14594034518E+03  0.00000000000E+00 0.  1.
         25    2    1    2    0    0  0.95315338422E+01  0.79874369629E+01 -0.49643546732E+02  0.13515577641E+03  0.12509177782E+03 0.  0.
          5    1    3    3  502    0  0.44384050003E+02  0.86992940489E+01  0.25589442354E+02  0.52133612686E+02  0.41800000000E+01 0.  1.
         -5    1    3    3    0  502 -0.34852516161E+02 -0.71185708600E+00 -0.75232989086E+02  0.83022163728E+02  0.41800000000E+01 0.  1.
        -11    1    1    2    0    0  0.20659245318E+02 -0.66926445322E+01 -0.45391382181E+02  0.50318719024E+02  0.00000000000E+00 0.  1.
         11    1    1    2    0    0 -0.30190779160E+02 -0.12947924306E+01  0.34466432391E+02  0.45837698410E+02  0.00000000000E+00 0. -1.
</event>
<event>
 7    1  0.2670433E-009  0.6860070E+02  0.7561462E-02  0.1364917E+00
          2   -1    0    0  501    0  0.00000000000E+00  0.00000000000E+00  0.87251404854E+03  0.87251404854E+03  0.00000000000E+00 0. -1.
         -2   -1    0    0    0  501 -0.00000000000E+00 -0.00000000000E+00 -0.16136026868E+02  0.16136026868E+02  0.00000000000E+00 0.  1.
         25    2    1    2    0    0 -0.33653338571E+02  0.29472828161E+02  0.57158035699E+03  0.58681584823E+03  0.12509012925E+03 0.  0.
          5    1    3    3  502    0 -0.22920895071E+02  0.82390737382E+01  0.55906306243E+03  0.55960899737E+03  0.41800000000E+01 0.  1.
         -5    1    3    3    0  502 -0.10732443500E+02  0.21233754422E+02  0.12517294564E+02  0.27206850857E+02  0.41800000000E+01 0.  1.
        -11    1    1    2    0    0  0.55784249928E+02 -0.60555612319E+01  0.10384431454E+03  0.11803471533E+03  0.00000000000E+00 0.  1.
         11    1    1    2    0    0 -0.22130911357E+02 -0.23417266929E+02  0.18095335013E+03  0.18379951184E+03  0.00000000000E+00 0. -1.
</event>
<event>
 7    1  0.2670433E-009  0.1074605E+03  0.7561462E-02  0.1265346E+00
         -1   -1    0    0    0  501 -0.00000000000E+00  0.00000000000E+00  0.13956786857E+03  0.13956786857E+03  0.00000000000E+00 0.  1.
          1   -1    0    0  501    0  0.00000000000E+00 -0.00000000000E+00 -0.10949305563E+03  0.10949305563E+03  0.00000000000E+00 0. -1.
         25    2    1    2    0    0  0.48228392443E+02 -0.22024413365E+02  0.27569529474E+02  0.13863386195E+03  0.12509282994E+03 0.  0.
          5    1    3    3  502    0  0.86640524913E+02 -0.29530703753E+01 -0.12406312069E+01  0.86800419052E+02  0.41800000000E+01 0. -1.
         -5    1    3    3    0  502 -0.38412132470E+02 -0.19071342990E+02  0.28810160680E+02  0.51833442899E+02  0.41800000000E+01 0. -1.
        -11    1    1    2    0    0 -0.15654546801E+02  0.43361119431E+02 -0.33819163441E+02  0.57175058634E+02  0.00000000000E+00 0. -1.
         11    1    1    2    0    0 -0.32573845642E+02 -0.21336706066E+02  0.36324446913E+02  0.53252003617E+02  0.00000000000E+00 0.  1.
</event>
<event>
 7    1  0.2670433E-009  0.2392422E+03  0.7561462E-02  0.1120299E+00
         -1   -1    0    0    0  501 -0.00000000000E+00  0.00000000000E+00  0.11174550849E+03  0.11174550849E+03  0.00000000000E+00 0.  1.
          1   -1    0    0  501    0  0.00000000000E+00 -0.00000000000E+00 -0.58414142951E+03  0.58414142951E+03  0.00000000000E+00 0. -1.
         25    2    1    2    0    0  0.19444434529E+03 -0.12336655341E+03 -0.22707015495E+03  0.34674885090E+03  0.12508397345E+03 0.  0.
          5    1    3    3  502    0  0.19796801256E+03 -0.10674081826E+03 -0.15648292100E+03  0.27402429316E+03  0.41800000000E+01 0.  1.
         -5    1    3    3    0  502 -0.35236672709E+01 -0.16625735143E+02 -0.70587233958E+02  0.72724557736E+02  0.41800000000E+01 0.  1.
        -11    1    1    2    0    0 -0.16716331710E+03  0.81276000261E+02 -0.14073875271E+03  0.23314536092E+03  0.00000000000E+00 0. -1.
         11    1    1    2    0    0 -0.27281028184E+02  0.42090553144E+02 -0.10458701336E+03  0.11599272618E+03  0.00000000000E+00 0.  1.
</event>
<event>
 7    1  0.2670433E-009  0.9446573E+02  0.7561462E-02  0.1292384E+00
          1   -1    0    0  501    0  0.00000000000E+00  0.00000000000E+00  0.84807242967E+02  0.84807242967E+02  0.00000000000E+00 0. -1.
         -1   -1    0    0    0  501 -0.00000000000E+00 -0.00000000000E+00 -0.20501067302E+03  0.20501067302E+03  0.00000000000E+00 0.  1.
         25    2    1    2    0    0 -0.10848402969E+02  0.60247148768E+02 -0.20695280997E+02  0.14079494483E+03  0.12509002779E+03 0.  0.
          5    1    3    3  502    0  0.14713173831E+01 -0.14041449415E+02  0.40867984329E+02  0.43439516798E+02  0.41800000000E+01 0. -1.
         -5    1    3    3    0  502 -0.12319720353E+02  0.74288598183E+02 -0.61563265327E+02  0.97355428031E+02  0.41800000000E+01 0. -1.
        -11    1    1    2    0    0 -0.33496422788E+02 -0.31206154374E+02 -0.80692752805E+02  0.92774752846E+02  0.00000000000E+00 0.  1.
         11    1    1    2    0    0  0.44344825758E+02 -0.29040994394E+02 -0.18815396246E+02  0.56248218307E+02  0.00000000000E+00 0. -1.
</event>
<event>
 7    1  0.2670433E-009  0.1112246E+03  0.7561462E-02  0.1258319E+00
          1   -1    0    0  501    0  0.00000000000E+00  0.00000000000E+00  0.14653401109E+03  0.14653401109E+03  0.00000000000E+00 0. -1.
         -1   -1    0    0    0  501 -0.00000000000E+00 -0.00000000000E+00 -0.10929922834E+03  0.10929922834E+03  0.00000000000E+00 0.  1.
         25    2    1    2    0    0 -0.27795104369E+02 -0.35448033977E+02 -0.28398895525E+02  0.13595149585E+03  0.12508869260E+03 0.  0.
          5    1    3    3  502    0  0.43114624439E+02 -0.35908712050E+02  0.67997510264E+01  0.56674645615E+02  0.41800000000E+01 0. -1.
         -5    1    3    3    0  502 -0.70909728808E+02  0.46067807247E+00 -0.35198646552E+02  0.79276850233E+02  0.41800000000E+01 0. -1.
        -11    1    1    2    0    0  0.28354344123E+02 -0.23115944455E+02  0.44527050010E+02  0.57627891695E+02  0.00000000000E+00 0.  1.
         11    1    1    2    0    0 -0.55923975365E+00  0.58563978432E+02  0.21106628263E+02  0.62253851893E+02  0.00000000000E+00 0. -1.
</event>
<event>
 7    1  0.2670433E-009  0.1797912E+03  0.7561462E-02  0.1168005E+00
         -1   -1    0    0    0  501 -0.00000000000E+00  0.00000000000E+00  0.10426330245E+03  0.10426330245E+03  0.00000000000E+00 0. -1.
          1   -1    0    0  501    0  0.00000000000E+00 -0.00000000000E+00 -0.35880082812E+03  0.35880082812E+03  0.00000000000E+00 0.  1.
         25    2    1    2    0    0 -0.15448757036E+03 -0.26212810794E+02 -0.91698610145E+02  0.22047702166E+03  0.12509181081E+03 0.  0.
          5    1    3    3  502    0 -0.29619318094E+02  0.45255561171E+02 -0.40533379043E+02  0.67718513258E+02  0.41800000000E+01 0.  1.
         -5    1    3    3    0  502 -0.12486825226E+03 -0.71468371965E+02 -0.51165231102E+02  0.15275850840E+03  0.41800000000E+01 0.  1.
        -11    1    1    2    0    0  0.65878699909E+02 -0.81085276640E+01 -0.12255889993E+03  0.13937874757E+03  0.00000000000E+00 0.  1.
         11    1    1    2    0    0  0.88608870447E+02  0.34321338458E+02 -0.40280015586E+02  0.10320836134E+03  0.00000000000E+00 0. -1.
</event>
<event>
 7    1  0.2670433E-009  0.2147256E+03  0.7561462E-02  0.1137878E+00
         -1   -1    0    0    0  501 -0.00000000000E+00  0.00000000000E+00  0.86295908548E+02  0.86295908548E+02  0.00000000000E+00 0.  1.
          1   -1    0    0  501    0  0.00000000000E+00 -0.00000000000E+00 -0.68065458909E+03  0.68065458909E+03  0.00000000000E+00 0. -1.
         25    2    1    2    0    0 -0.14128164765E+03 -0.14467260896E+03 -0.42042099445E+03  0.48300296291E+03  0.12508949539E+03 0.  0.
          5    1    3    3  502    0 -0.20177988420E+02 -0.49499995690E+02 -0.23918417255E+03  0.24512025944E+03  0.41800000000E+01 0. -1.
         -5    1    3    3    0  502 -0.12110365923E+03 -0.95172613269E+02 -0.18123682190E+03  0.23788270347E+03  0.41800000000E+01 0. -1.
        -11    1    1    2    0    0  0.26561006773E+02  0.91554660315E+02 -0.53377656894E+02  0.10925619965E+03  0.00000000000E+00 0.  1.
         11    1    1    2    0    0  0.11472064088E+03  0.53117948644E+02 -0.12056002920E+03  0.17469133508E+03  0.00000000000E+00 0. -1.
</event>
<event>
 7    1  0.2670433E-009  0.2000715E+03  0.7561462E-02  0.1149679E+00
          2   -1    0    0  501    0  0.00000000000E+00  0.00000000000E+00  0.15351266260E+04  0.15351266260E+04  0.00000000000E+00 0. -1.
         -2   -1    0    0    0  501 -0.00000000000E+00 -0.00000000000E+00 -0.36107856765E+02  0.36107856765E+02  0.00000000000E+00 0.  1.
         25    2    1    2    0    0 -0.23749544447E+02 -0.19182539124E+03  0.10525862422E+04  0.10774727881E+04  0.12509512524E+03 0.  0.
          5    1    3    3  502    0 -0.19498642668E+01 -0.17884201767E+03  0.65310038059E+03  0.67716013526E+03  0.41800000000E+01 0.  1.
         -5    1    3    3    0  502 -0.21799680180E+02 -0.12983373577E+02  0.39948586157E+03  0.40031265286E+03  0.41800000000E+01 0.  1.
        -11    1    1    2    0    0 -0.22002277232E+01  0.10210643101E+03  0.13920482016E+03  0.17265151667E+03  0.00000000000E+00 0.  1.
         11    1    1    2    0    0  0.25949772170E+02  0.89718960233E+02  0.30722770696E+03  0.32111017802E+03  0.00000000000E+00 0. -1.
</event>
<event>
 7    1  0.2670433E-009  0.3386233E+03  0.7561462E-02  0.1067384E+00
          2   -1    0    0  501    0  0.00000000000E+00  0.00000000000E+00  0.11934839953E+04  0.11934839953E+04  0.00000000000E+00 0.  1.
         -2   -1    0    0    0  501 -0.00000000000E+00 -0.00000000000E+00 -0.10794031783E+03  0.10794031783E+03  0.00000000000E+00 0. -1.
         25    2    1    2    0    0 -0.18486216933E+03  0.27559495588E+03  0.70147677800E+03  0.78603029352E+03  0.12508937167E+03 0.  0.
          5    1    3    3  502    0 -0.17559790278E+02  0.46355307502E+02  0.23324589757E+03  0.23849168099E+03  0.41800000000E+01 0. -1.
         -5    1    3    3    0  502 -0.16730237905E+03  0.22923964837E+03  0.46823088043E+03  0.54753861253E+03  0.41800000000E+01 0. -1.
        -11    1    1    2    0    0  0.30198824011E+02 -0.12206769115E+03  0.14309374819E+03  0.19049491060E+03  0.00000000000E+00 0.  1.
         11    1    1    2    0    0  0.15466334532E+03 -0.15352726473E+03  0.24097315127E+03  0.32489910901E+03  0.00000000000E+00 0. -1.
</event>
<event>
 7    1  0.2712312E-009  0.1277123E+03  0.7561462E-02  0.1230890E+00
         -1   -1    0    0    0  501 -0.00000000000E+00  0.00000000000E+00  0.52822049612E+02  0.52822049612E+02  0.00000000000E+00 0.  1.
          1   -1    0    0  501    0  0.00000000000E+00 -0.00000000000E+00 -0.41697052610E+03  0.41697052610E+03  0.00000000000E+00 0. -1.
         25    2    1    2    0    0 -0.10126837782E+03 -0.16812906560E+01 -0.20482610072E+03  0.26049741399E+03  0.12508820919E+03 0.  0.
          5    1    3    3  502    0 -0.85268179985E+02  0.36278143618E+02 -0.61461333676E+02  0.11127324099E+03  0.41800000000E+01 0.  1.
         -5    1    3    3    0  502 -0.16000197835E+02 -0.37959434274E+02 -0.14336476704E+03  0.14922417301E+03  0.41800000000E+01 0.  1.
        -11    1    1    2    0    0  0.58067312327E+02  0.34017304527E+02 -0.13343324603E+03  0.14944370484E+03  0.00000000000E+00 0. -1.
         11    1    1    2    0    0  0.43201065492E+02 -0.32336013871E+02 -0.25889129744E+02  0.59851456888E+02  0.00000000000E+00 0.  1.
</event>
<event>
 7    1  0.3019218E-009  0.2203962E+03  0.7561462E-02  0.1133588E+00
         -1   -1    0    0    0  501 -0.00000000000E+00  0.00000000000E+00  0.18215402927E+03  0.18215402927E+03  0.00000000000E+00 0.  1.
          1   -1    0    0  501    0  0.00000000000E+00 -0.00000000000E+00 -0.30120852010E+03  0.30120852010E+03  0.00000000000E+00 0. -1.
         25    2    1    2    0    0  0.17773826478E+02  0.20532363365E+03 -0.37286720241E+02  0.24394896358E+03  0.12508834431E+03 0.  0.
          5    1    3    3  502    0  0.59287096646E+02  0.65004917198E+02 -0.41786422871E+02  0.97489366728E+02  0.41800000000E+01 0.  1.
         -5    1    3    3    0  502 -0.41513270168E+02  0.14031871645E+03  0.44997026301E+01  0.14645959686E+03  0.41800000000E+01 0.  1.
        -11    1    1    2    0    0 -0.24893545347E+01 -0.84340816866E+02  0.12476952029E+02  0.85295044449E+02  0.00000000000E+00 0.  1.
         11    1    1    2    0    0 -0.15284471943E+02 -0.12098281679E+03 -0.94244722622E+02  0.15411854133E+03  0.00000000000E+00 0. -1.
</event>
<event>
 7    1  0.2766511E-009  0.1830517E+03  0.7561462E-02  0.1164882E+00
         -2   -1    0    0    0  501 -0.00000000000E+00  0.00000000000E+00  0.44433230516E+02  0.44433230516E+02  0.00000000000E+00 0.  1.
          2   -1    0    0  501    0  0.00000000000E+00 -0.00000000000E+00 -0.11968731475E+04  0.11968731475E+04  0.00000000000E+00 0. -1.
         25    2    1    2    0    0  0.11421774189E+03  0.12874678611E+03 -0.88659551229E+03  0.91176735952E+03  0.12508672185E+03 0.  0.
          5    1    3    3  502    0 -0.14057460974E+02  0.20013027896E+02 -0.30571460753E+02  0.39372834635E+02  0.41800000000E+01 0. -1.
         -5    1    3    3    0  502  0.12827520286E+03  0.10873375821E+03 -0.85602405153E+03  0.87239452488E+03  0.41800000000E+01 0. -1.
        -11    1    1    2    0    0 -0.45700871979E+02 -0.38402555871E+02 -0.27759210213E+02  0.65832360953E+02  0.00000000000E+00 0.  1.
         11    1    1    2    0    0 -0.68516869912E+02 -0.90344230236E+02 -0.23808519448E+03  0.26370665754E+03  0.00000000000E+00 0. -1.
</event>
<event>
 7    1  0.2670433E-009  0.1557166E+03  0.7561462E-02  0.1193619E+00
         -2   -1    0    0    0  501 -0.00000000000E+00  0.00000000000E+00  0.34692885452E+02  0.34692885452E+02  0.00000000000E+00 0.  1.
          2   -1    0    0  501    0  0.00000000000E+00 -0.00000000000E+00 -0.95402718945E+03  0.95402718945E+03  0.00000000000E+00 0. -1.
         25    2    1    2    0    0  0.11354192026E+03  0.30842049503E+02 -0.71652987062E+03  0.73682149077E+03  0.12509138298E+03 0.  0.
          5    1    3    3  502    0  0.13682481639E+03  0.35325521975E+02 -0.52192490031E+03  0.54073283315E+03  0.41800000000E+01 0.  1.
         -5    1    3    3    0  502 -0.23282896134E+02 -0.44834724717E+01 -0.19460497030E+03  0.19608865761E+03  0.41800000000E+01 0.  1.
        -11    1    1    2    0    0 -0.12399533984E+03 -0.41788537526E+02 -0.19509832412E+03  0.23491377619E+03  0.00000000000E+00 0. -1.
         11    1    1    2    0    0  0.10453419579E+02  0.10946488023E+02 -0.77061092614E+01  0.16984807944E+02  0.00000000000E+00 0.  1.
</event>
<event>
 7    1  0.2670433E-009  0.8954892E+02  0.7561462E-02  0.1303948E+00
         -1   -1    0    0    0  501 -0.00000000000E+00  0.00000000000E+00  0.76939767109E+02  0.76939767109E+02  0.00000000000E+00 0.  1.
          1   -1    0    0  501    0  0.00000000000E+00 -0.00000000000E+00 -0.16807816973E+03  0.16807816973E+03  0.00000000000E+00 0. -1.
         25    2    1    2    0    0 -0.19319707905E+02 -0.26263149176E+02 -0.65589820542E+02  0.14494609349E+03  0.12507734144E+03 0.  0.
          5    1    3    3  502    0  0.18079221655E+02 -0.38528013155E+02  0.22537086298E+02  0.48338997839E+02  0.41800000000E+01 0. -1.
         -5    1    3    3    0  502 -0.37398929560E+02  0.12264863979E+02 -0.88126906840E+02  0.96607095650E+02  0.41800000000E+01 0. -1.
        -11    1    1    2    0    0 -0.23377798883E+02 -0.22148419534E+02 -0.82383314160E+01  0.33240699045E+02  0.00000000000E+00 0.  1.
         11    1    1    2    0    0  0.42697506788E+02  0.48411568710E+02 -0.17310250661E+02  0.66831144303E+02  0.00000000000E+00 0. -1.
</event>
<event>
 7    1  0.2670433E-009  0.9753719E+02  0.7561462E-02  0.1285562E+00
          2   -1    0    0  501    0  0.00000000000E+00  0.00000000000E+00  0.46462895021E+03  0.46462895021E+03  0.00000000000E+00 0. -1.
         -2   -1    0    0    0  501 -0.00000000000E+00 -0.00000000000E+00 -0.26027729151E+02  0.26027729151E+02  0.00000000000E+00 0.  1.
         25    2    1    2    0    0  0.18198472922E+02  0.89910569381E+01  0.25184694318E+03  0.28193071753E+03  0.12508406444E+03 0.  0.
          5    1    3    3  502    0  0.69919190507E+02  0.99717588608E+01  0.17910585706E+03  0.19257338760E+03  0.41800000000E+01 0. -1.
         -5    1    3    3    0  502 -0.51720717584E+02 -0.98070192270E+00  0.72741086114E+02  0.89357329933E+02  0.41800000000E+01 0. -1.
        -11    1    1    2    0    0 -0.24835709244E+02  0.26500138757E+02  0.27840693207E+02  0.45762145994E+02  0.00000000000E+00 0. -1.
         11    1    1    2    0    0  0.66372363217E+01 -0.35491195695E+02  0.15891358468E+03  0.16296381584E+03  0.00000000000E+00 0.  1.
</event>
<event>
 7    1  0.2670433E-009  0.1796054E+03  0.7561462E-02  0.1168185E+00
          2   -1    0    0  501    0  0.00000000000E+00  0.00000000000E+00  0.29242582377E+02  0.29242582377E+02  0.00000000000E+00 0. -1.
         -2   -1    0    0    0  501 -0.00000000000E+00 -0.00000000000E+00 -0.11075189059E+04  0.11075189059E+04  0.00000000000E+00 0.  1.
         25    2    1    2    0    0  0.14038748626E+03  0.15230319928E+02 -0.57545618561E+03  0.60559003833E+03  0.12509541968E+03 0.  0.
          5    1    3    3  502    0  0.10371521010E+03  0.68013347472E+02 -0.36737422268E+03  0.38776791014E+03  0.41800000000E+01 0. -1.
         -5    1    3    3    0  502  0.36672276161E+02 -0.52783027543E+02 -0.20808196293E+03  0.21782212819E+03  0.41800000000E+01 0. -1.
        -11    1    1    2    0    0 -0.10742951725E+03 -0.53654666349E+02 -0.37183309310E+03  0.39074259241E+03  0.00000000000E+00 0.  1.
         11    1    1    2    0    0 -0.32957969010E+02  0.38424346421E+02 -0.13098704477E+03  0.14042885749E+03  0.00000000000E+00 0. -1.
</event>
<event>
 7    1  0.2670433E-009  0.1254622E+03  0.7561462E-02  0.1234349E+00
         -4   -1    0    0    0  501 -0.00000000000E+00  0.00000000000E+00  0.13221612658E+03  0.13221612658E+03  0.00000000000E+00 0.  1.
          4   -1    0    0  501    0  0.00000000000E+00 -0.00000000000E+00 -0.14824909874E+03  0.14824909874E+03  0.00000000000E+00 0. -1.
         25    2    1    2    0    0 -0.64420614678E+02 -0.59650157369E+02 -0.57007396149E+01  0.15292938514E+03  0.12508693592E+03 0.  0.
          5    1    3    3  502    0  0.28597584209E+01  0.35608940951E+02  0.16036078226E+01  0.36003039481E+02  0.41800000000E+01 0.  1.
         -5    1    3    3    0  502 -0.67280373099E+02 -0.95259098320E+02 -0.73043474375E+01  0.11692634566E+03  0.41800000000E+01 0.  1.
        -11    1    1    2    0    0  0.54874925744E+02  0.21506000942E+02  0.34188885893E+02  0.68136961119E+02  0.00000000000E+00 0.  1.
         11    1    1    2    0    0  0.95456889339E+01  0.38144156427E+02 -0.44521118434E+02  0.59398879058E+02  0.00000000000E+00 0. -1.
</event>
<event>
 7    1  0.2670433E-009  0.1033882E+03  0.7561462E-02  0.1273328E+00
          2   -1    0    0  501    0  0.00000000000E+00  0.00000000000E+00  0.45370089353E+03  0.45370089353E+03  0.00000000000E+00 0.  1.
         -2   -1    0    0    0  501 -0.00000000000E+00 -0.00000000000E+00 -0.30793658388E+02  0.30793658388E+02  0.00000000000E+00 0. -1.
         25    2    1    2    0    0 -0.42540816681E+02  0.22540273733E+01  0.27802612424E+03  0.30783624092E+03  0.12509925555E+03 0.  0.
          5    1    3    3  502    0  0.83703797804E+01  0.56500039500E+02  0.10948072796E+03  0.12355492672E+03  0.41800000000E+01 0. -1.
         -5    1    3    3    0  502 -0.50911196461E+02 -0.54246012127E+02  0.16854539628E+03  0.18428131421E+03  0.41800000000E+01 0. -1.
        -11    1    1    2    0    0  0.54552351253E+02  0.12503538867E+02  0.14720851694E+03  0.15748855505E+03  0.00000000000E+00 0.  1.
         11    1    1    2    0    0 -0.12011534572E+02 -0.14757566241E+02 -0.23274060438E+01  0.19169755946E+02  0.00000000000E+00 0. -1.
</event>
<event>
 7    1  0.2670433E-009  0.1281691E+03  0.7561462E-02  0.1230198E+00
          2   -1    0    0  501    0  0.00000000000E+00  0.00000000000E+00  0.49436353066E+02  0.49436353066E+02  0.00000000000E+00 0. -1.
         -2   -1    0    0    0  501 -0.00000000000E+00 -0.00000000000E+00 -0.43746148757E+03  0.43746148757E+03  0.00000000000E+00 0.  1.
         25    2    1    2    0    0 -0.81499962277E+02 -0.67714058670E+02 -0.21956475474E+03  0.27401404485E+03  0.12509027803E+03 0.  0.
          5    1    3    3  502    0 -0.47971554929E+02  0.21886424479E+02 -0.27998598799E+02  0.59847135215E+02  0.41800000000E+01 0. -1.
         -5    1    3    3    0  502 -0.33528407348E+02 -0.89600483149E+02 -0.19156615595E+03  0.21416690964E+03  0.41800000000E+01 0. -1.
        -11    1    1    2    0    0  0.52056148902E+02  0.54643900457E+02 -0.16377871485E+03  0.18033098995E+03  0.00000000000E+00 0.  1.
         11    1    1    2    0    0  0.29443813375E+02  0.13070158213E+02 -0.46816649082E+01  0.32552805840E+02  0.00000000000E+00 0. -1.
</event>
<event>
 7    1  0.2670433E-009  0.1091072E+03  0.7561462E-02  0.1262232E+00
          2   -1    0    0  501    0  0.00000000000E+00  0.00000000000E+00  0.13865431490E+04  0.13865431490E+04  0.00000000000E+00 0. -1.
         -2   -1    0    0    0  501 -0.00000000000E+00 -0.00000000000E+00 -0.14408806824E+02  0.14408806824E+02  0.00000000000E+00 0.  1.
         25    2    1    2    0    0 -0.19510823789E+02 -0.93040006273E+02  0.78874119710E+03  0.80423680922E+03  0.12508818601E+03 0.  0.
          5    1    3    3  502    0  0.41557493017E+00 -0.32354417750E+01  0.52239333925E+03  0.52242024662E+03  0.41800000000E+01 0. -1.
         -5    1    3    3    0  502 -0.19926398719E+02 -0.89804564498E+02  0.26634785786E+03  0.28181656260E+03  0.41800000000E+01 0. -1.
        -11    1    1    2    0    0  0.36223513241E+02  0.97094211432E+02  0.54320689070E+03  0.55300375668E+03  0.00000000000E+00 0.  1.
         11    1    1    2    0    0 -0.16712689452E+02 -0.40542051594E+01  0.40186254345E+02  0.43711389894E+02  0.00000000000E+00 0. -1.
</event>
<event>
 7    1  0.2670433E-009  0.1360592E+03  0.7561462E-02  0.1218732E+00
         -1   -1    0    0    0  501 -0.00000000000E+00  0.00000000000E+00  0.53962074544E+03  0.53962074544E+03  0.00000000000E+00 0.  1.
          1   -1    0    0  501    0  0.00000000000E+00 -0.00000000000E+00 -0.54780245617E+02  0.54780245617E+02  0.00000000000E+00 0. -1.
         25    2    1    2    0    0  0.17871241742E+02 -0.93536437867E+02  0.41288069013E+03  0.44179928113E+03  0.12509074320E+03 0.  0.
          5    1    3    3  502    0 -0.26319854517E+00 -0.12244171546E+03  0.33364357234E+03  0.35542586952E+03  0.41800000000E+01 0.  1.
         -5    1    3    3    0  502  0.18134440288E+02  0.28905277598E+02  0.79237117794E+02  0.86373411614E+02  0.41800000000E+01 0.  1.
        -11    1    1    2    0    0  0.24637411080E+02  0.38029144486E+02  0.69095985506E+02  0.82628524542E+02  0.00000000000E+00 0.  1.
         11    1    1    2    0    0 -0.42508652822E+02  0.55507293381E+02  0.28638241809E+01  0.69973185380E+02  0.00000000000E+00 0. -1.
</event>
<event>
 7    1  0.2670433E-009  0.1213562E+03  0.7561462E-02  0.1240876E+00
          1   -1    0    0  501    0  0.00000000000E+00  0.00000000000E+00  0.18113665548E+03  0.18113665548E+03  0.00000000000E+00 0. -1.
         -1   -1    0    0    0  501 -0.00000000000E+00 -0.00000000000E+00 -0.89312710926E+02  0.89312710926E+02  0.00000000000E+00 0.  1.
         25    2    1    2    0    0 -0.30181409980E+02  0.59165278822E+02  0.66229097558E+02  0.15634997981E+03  0.12509026780E+03 0.  0.
          5    1    3    3  502    0 -0.75584243556E+02  0.49558022078E+02  0.24346370625E+02  0.93697351023E+02  0.41800000000E+01 0. -1.
         -5    1    3    3    0  502  0.45402833576E+02  0.96072567446E+01  0.41882726933E+02  0.62652628790E+02  0.41800000000E+01 0. -1.
        -11    1    1    2    0    0 -0.26458629019E+02 -0.35444185207E+02  0.28511051940E+02  0.52623468123E+02  0.00000000000E+00 0. -1.
         11    1    1    2    0    0  0.56640038999E+02 -0.23721093615E+02 -0.29162049467E+01  0.61475918468E+02  0.00000000000E+00 0.  1.
</event>
<event>
 7    1  0.2670433E-009  0.2533780E+03  0.7561462E-02  0.1111188E+00
         -2   -1    0    0    0  501 -0.00000000000E+00  0.00000000000E+00  0.97758655812E+02  0.97758655812E+02  0.00000000000E+00 0. -1.
          2   -1    0    0  501    0  0.00000000000E+00 -0.00000000000E+00 -0.10535957152E+04  0.10535957152E+04  0.00000000000E+00 0.  1.
         25    2    1    2    0    0 -0.87560975612E+02 -0.23445809249E+03 -0.78565762965E+03  0.83399222087E+03  0.12509033481E+03 0.  0.
          5    1    3    3  502    0 -0.80355503103E+02 -0.18740620924E+03 -0.43906859718E+03  0.48412477686E+03  0.41800000000E+01 0. -1.
         -5    1    3    3    0  502 -0.72054725089E+01 -0.47051883258E+02 -0.34658903246E+03  0.34986744401E+03  0.41800000000E+01 0. -1.
        -11    1    1    2    0    0  0.39375318481E+02  0.17025389614E+03 -0.68215253458E+02  0.18759031334E+03  0.00000000000E+00 0. -1.
         11    1    1    2    0    0  0.48185657131E+02  0.64204196358E+02 -0.10196417631E+03  0.12977183682E+03  0.00000000000E+00 0.  1.
</event>
<event>
 7    1  0.2670433E-009  0.1170683E+03  0.7561462E-02  0.1248013E+00
          2   -1    0    0  501    0  0.00000000000E+00  0.00000000000E+00  0.75101809880E+03  0.75101809880E+03  0.00000000000E+00 0. -1.
         -2   -1    0    0    0  501 -0.00000000000E+00 -0.00000000000E+00 -0.19665843631E+02  0.19665843631E+02  0.00000000000E+00 0.  1.
         25    2    1    2    0    0 -0.50680147515E+02 -0.17292757122E+02  0.41077013228E+03  0.43272001292E+03  0.12508793391E+03 0.  0.
          5    1    3    3  502    0  0.41005866046E+02  0.47308986668E+01  0.11505544350E+03  0.12230735845E+03  0.41800000000E+01 0.  1.
         -5    1    3    3    0  502 -0.91686013560E+02 -0.22023655789E+02  0.29571468878E+03  0.31041265447E+03  0.41800000000E+01 0.  1.
        -11    1    1    2    0    0 -0.13036777293E+02  0.30518029529E+02  0.52600049676E+02  0.62193833412E+02  0.00000000000E+00 0.  1.
         11    1    1    2    0    0  0.63716924807E+02 -0.13225272407E+02  0.26798207322E+03  0.27577009610E+03  0.00000000000E+00 0. -1.
</event>
<event>
 7    1  0.2670433E-009  0.1674145E+03  0.7561462E-02  0.1180571E+00
          3   -1    0    0  501    0  0.00000000000E+00  0.00000000000E+00  0.36061240230E+03  0.36061240230E+03  0.00000000000E+00 0. -1.
         -3   -1    0    0    0  501 -0.00000000000E+00 -0.00000000000E+00 -0.99285101534E+02  0.99285101534E+02  0.00000000000E+00 0.  1.
         25    2    1    2    0    0  0.14626764827E+03  0.49703025681E+02  0.13482517179E+03  0.24018821218E+03  0.12509170488E+03 0.  0.
          5    1    3    3  502    0  0.15832906309E+03  0.40615531266E+02  0.77847288453E+02  0.18109496492E+03  0.41800000000E+01 0. -1.
         -5    1    3    3    0  502 -0.12061414819E+02  0.90874944156E+01  0.56977883341E+02  0.59093247264E+02  0.41800000000E+01 0. -1.
        -11    1    1    2    0    0 -0.27533816607E+02 -0.17509549286E+02 -0.11719502721E+02  0.34670479045E+02  0.00000000000E+00 0.  1.
         11    1    1    2    0    0 -0.11873383166E+03 -0.32193476395E+02  0.13822163169E+03  0.18503881261E+03  0.00000000000E+00 0. -1.
</event>
<event>
 7    1  0.2670433E-009  0.1352070E+03  0.7561462E-02  0.1219928E+00
          1   -1    0    0  501    0  0.00000000000E+00  0.00000000000E+00  0.21205167498E+03  0.21205167498E+03  0.00000000000E+00 0. -1.
         -1   -1    0    0    0  501 -0.00000000000E+00 -0.00000000000E+00 -0.15879511398E+03  0.15879511398E+03  0.00000000000E+00 0.  1.
         25    2    1    2    0    0  0.80304686120E+02  0.83396625686E+02 -0.65584134047E+02  0.18262748396E+03  0.12509068498E+03 0.  0.
          5    1    3    3  502    0  0.36542001504E+02  0.75458966470E+01 -0.84920633887E+02  0.92850659071E+02  0.41800000000E+01 0.  1.
         -5    1    3    3    0  502  0.43762684616E+02  0.75850729039E+02  0.19336499839E+02  0.89776824886E+02  0.41800000000E+01 0.  1.
        -11    1    1    2    0    0 -0.97964439033E+02 -0.81506031703E+02  0.11016228945E+03  0.16845175730E+03  0.00000000000E+00 0.  1.
         11    1    1    2    0    0  0.17659752913E+02 -0.18905939825E+01  0.86784055934E+01  0.19767547703E+02  0.00000000000E+00 0. -1.
</event>
<event>
 7    1  0.2670433E-009  0.9559379E+02  0.7561462E-02  0.1289844E+00
         -3   -1    0    0    0  501 -0.00000000000E+00  0.00000000000E+00  0.50870462120E+02  0.50870462120E+02  0.00000000000E+00 0.  1.
          3   -1    0    0  501    0  0.00000000000E+00 -0.00000000000E+00 -0.44998468099E+03  0.44998468099E+03  0.00000000000E+00 0. -1.
         25    2    1    2    0    0 -0.52237598943E+01  0.88010865933E+02 -0.31497422010E+03  0.35018600436E+03  0.12509307789E+03 0.  0.
          5    1    3    3  502    0  0.10704201908E+01  0.63891164325E+02 -0.43215996646E+02  0.77254912105E+02  0.41800000000E+01 0.  1.
         -5    1    3    3    0  502 -0.62941800851E+01  0.24119701607E+02 -0.27175822345E+03  0.27293109226E+03  0.41800000000E+01 0.  1.
        -11    1    1    2    0    0  0.21214970974E+02 -0.12359985998E+02  0.11970883381E+02  0.27315678579E+02  0.00000000000E+00 0.  1.
         11    1    1    2    0    0 -0.15991211080E+02 -0.75650879935E+02 -0.96110882157E+02  0.12335346017E+03  0.00000000000E+00 0. -1.
</event>
<event>
 7    1  0.2670433E-009  0.1994223E+03  0.7561462E-02  0.1150227E+00
          1   -1    0    0  501    0  0.00000000000E+00  0.00000000000E+00  0.98859558288E+02  0.98859558288E+02  0.00000000000E+00 0. -1.
         -1   -1    0    0    0  501 -0.00000000000E+00 -0.00000000000E+00 -0.48026794213E+03  0.48026794213E+03  0.00000000000E+00 0.  1.
         25    2    1    2    0    0 -0.16807133185E+03 -0.62860172726E+02 -0.26877984121E+03  0.34653839894E+03  0.12508750935E+03 0.  0.
          5    1    3    3  502    0 -0.46376479702E+01 -0.29948797187E+02 -0.43575008274E+00  0.30595759670E+02  0.41800000000E+01 0. -1.
         -5    1    3    3    0  502 -0.16343368388E+03 -0.32911375539E+02 -0.26834409113E+03  0.31594263927E+03  0.41800000000E+01 0. -1.
        -11    1    1    2    0    0  0.32350396494E+02 -0.24059916061E+02 -0.36338714280E+02  0.54276420936E+02  0.00000000000E+00 0.  1.
         11    1    1    2    0    0  0.13572093536E+03  0.86920088787E+02 -0.76289828348E+02  0.17831268053E+03  0.00000000000E+00 0. -1.
</event>
<event>
 7    1  0.3306913E-009  0.1128798E+03  0.7561462E-02  0.1255328E+00
          1   -1    0    0  501    0  0.00000000000E+00  0.00000000000E+00  0.21997261042E+03  0.21997261042E+03  0.00000000000E+00 0. -1.
         -1   -1    0    0    0  501 -0.00000000000E+00 -0.00000000000E+00 -0.10566257118E+03  0.10566257118E+03  0.00000000000E+00 0.  1.
         25    2    1    2    0    0  0.10628964383E+03 -0.94523770229E+01  0.59879617444E+02  0.17498685722E+03  0.12509194938E+03 0.  0.
          5    1    3    3  502    0  0.10272951291E+02  0.15387955446E+02  0.72483202385E+02  0.74924026380E+02  0.41800000000E+01 0.  1.
         -5    1    3    3    0  502  0.96016692535E+02 -0.24840332469E+02 -0.12603584941E+02  0.10006283084E+03  0.41800000000E+01 0.  1.
        -11    1    1    2    0    0 -0.35182960271E+02 -0.31002239096E+01 -0.25023991766E+02  0.43285704864E+02  0.00000000000E+00 0.  1.
         11    1    1    2    0    0 -0.71106683555E+02  0.12552600933E+02  0.79454413563E+02  0.10736261952E+03  0.00000000000E+00 0. -1.
</event>
<event>
 7    1  0.2670433E-009  0.1847304E+03  0.7561462E-02  0.1163302E+00
          2   -1    0    0  501    0  0.00000000000E+00  0.00000000000E+00  0.18218812019E+04  0.18218812019E+04  0.00000000000E+00 0. -1.
         -2   -1    0    0    0  501 -0.00000000000E+00 -0.00000000000E+00 -0.19724025660E+02  0.19724025660E+02  0.00000000000E+00 0.  1.
         25    2    1    2    0    0 -0.12462136582E+03 -0.82829076716E+02  0.11490119435E+04  0.11654471321E+04  0.12508969108E+03 0.  0.
          5    1    3    3  502    0  0.87226243767E-01  0.27897549195E+02  0.16426842453E+03  0.16667293888E+03  0.41800000000E+01 0. -1.
         -5    1    3    3    0  502 -0.12470859206E+03 -0.11072662591E+03  0.98474351893E+03  0.99877419325E+03  0.41800000000E+01 0. -1.
        -11    1    1    2    0    0  0.84090867947E+02  0.99786083780E+02  0.46611976175E+03  0.48404149500E+03  0.00000000000E+00 0.  1.
         11    1    1    2    0    0  0.40530497870E+02 -0.16957007064E+02  0.18702547108E+03  0.19211660047E+03  0.00000000000E+00 0. -1.
</event>
<event>
 7    1  0.2670433E-009  0.1144160E+03  0.7561462E-02  0.1252604E+00
          2   -1    0    0  501    0  0.00000000000E+00  0.00000000000E+00  0.35573180063E+03  0.35573180063E+03  0.00000000000E+00 0. -1.
         -2   -1    0    0    0  501 -0.00000000000E+00 -0.00000000000E+00 -0.36872569125E+02  0.36872569125E+02  0.00000000000E+00 0.  1.
         25    2    1    2    0    0  0.29824989127E+02  0.23663674824E+02  0.18831945428E+03  0.22926193303E+03  0.12508923852E+03 0.  0.
          5    1    3    3  502    0  0.76833443662E+02 -0.21170235940E+01  0.11150866151E+03  0.13549728353E+03  0.41800000000E+01 0. -1.
         -5    1    3    3    0  502 -0.47008454535E+02  0.25780698418E+02  0.76810792775E+02  0.93764649498E+02  0.41800000000E+01 0. -1.
        -11    1    1    2    0    0 -0.59767494766E+02 -0.30888506033E+02  0.92995299713E+02  0.11477969770E+03  0.00000000000E+00 0.  1.
         11    1    1    2    0    0  0.29942505639E+02  0.72248312093E+01  0.37544477510E+02  0.48562739023E+02  0.00000000000E+00 0. -1.
</event>
<event>
 7    1  0.2670433E-009  0.1236604E+03  0.7561462E-02  0.1237178E+00
         -1   -1    0    0    0  501 -0.00000000000E+00  0.00000000000E+00  0.20709003999E+03  0.20709003999E+03  0.00000000000E+00 0.  1.
          1   -1    0    0  501    0  0.00000000000E+00 -0.00000000000E+00 -0.11238584401E+03  0.11238584401E+03  0.00000000000E+00 0. -1.
         25    2    1    2    0    0  0.29473756361E+02  0.59239224220E+02 -0.37295533879E+02  0.14634748477E+03  0.12509453006E+03 0.  0.
          5    1    3    3  502    0 -0.38358325864E+02 -0.14338702892E+02 -0.74362308960E+01  0.41829768033E+02  0.41800000000E+01 0. -1.
         -5    1    3    3    0  502  0.67832082225E+02  0.73577927112E+02 -0.29859302983E+02  0.10451771674E+03  0.41800000000E+01 0. -1.
        -11    1    1    2    0    0  0.20131123905E+02 -0.52132433375E+02  0.41239948411E+02  0.69453481584E+02  0.00000000000E+00 0.  1.
         11    1    1    2    0    0 -0.49604880266E+02 -0.71067908450E+01  0.90759781445E+02  0.10367491765E+03  0.00000000000E+00 0. -1.
</event>
<event>
 7    1  0.2670433E-009  0.8693536E+02  0.7561462E-02  0.1310448E+00
          2   -1    0    0  501    0  0.00000000000E+00  0.00000000000E+00  0.17919197210E+03  0.17919197210E+03  0.00000000000E+00 0. -1.
         -2   -1    0    0    0  501 -0.00000000000E+00 -0.00000000000E+00 -0.82370455513E+02  0.82370455513E+02  0.00000000000E+00 0.  1.
         25    2    1    2    0    0 -0.52840891189E+02 -0.11876822349E+02  0.40421426706E+02  0.14217875129E+03  0.12509071465E+03 0.  0.
          5    1    3    3  502    0 -0.27626556457E+02  0.27856952834E+02 -0.35290942709E+02  0.52935427458E+02  0.41800000000E+01 0.  1.
         -5    1    3    3    0  502 -0.25214334733E+02 -0.39733775183E+02  0.75712369415E+02  0.89243323833E+02  0.41800000000E+01 0.  1.
        -11    1    1    2    0    0  0.63593643787E+02 -0.84728178080E+01  0.65651980098E+01  0.64490634952E+02  0.00000000000E+00 0.  1.
         11    1    1    2    0    0 -0.10752752597E+02  0.20349640157E+02  0.49834891867E+02  0.54893041365E+02  0.00000000000E+00 0. -1.
</event>
<event>
 7    1  0.2670433E-009  0.8870820E+02  0.7561462E-02  0.1306010E+00
         -1   -1    0    0    0  501 -0.00000000000E+00  0.00000000000E+00  0.78362921767E+02  0.78362921767E+02  0.00000000000E+00 0.  1.
          1   -1    0    0  501    0  0.00000000000E+00 -0.00000000000E+00 -0.58199825403E+03  0.58199825403E+03  0.00000000000E+00 0. -1.
         25    2    1    2    0    0  0.71649305469E+01  0.76276606584E+02 -0.53833752250E+03  0.55796183897E+03  0.12507864995E+03 0.  0.
          5    1    3    3  502    0 -0.12318925564E+02  0.85936105627E+01 -0.58654825693E+00  0.15602003346E+02  0.41800000000E+01 0.  1.
         -5    1    3    3    0  502  0.19483856111E+02  0.67682996022E+02 -0.53775097424E+03  0.54235983562E+03  0.41800000000E+01 0.  1.
        -11    1    1    2    0    0 -0.27566251543E+02 -0.30260273922E+02  0.32059149056E+02  0.51993955804E+02  0.00000000000E+00 0.  1.
         11    1    1    2    0    0  0.20401320996E+02 -0.46016332663E+02  0.26430411735E+01  0.50405381030E+02  0.00000000000E+00 0. -1.
</event>
<event>
 7    1  0.2670433E-009  0.1232355E+03  0.7561462E-02  0.1237853E+00
         -2   -1    0    0    0  501 -0.00000000000E+00  0.00000000000E+00  0.76157401869E+02  0.76157401869E+02  0.00000000000E+00 0.  1.
          2   -1    0    0  501    0  0.00000000000E+00 -0.00000000000E+00 -0.23351858279E+03  0.23351858279E+03  0.00000000000E+00 0. -1.
         25    2    1    2    0    0  0.74558391009E+02 -0.14338772453E+02 -0.10889901177E+03  0.18240461281E+03  0.12509154225E+03 0.  0.
          5    1    3    3  502    0  0.42285464285E+02  0.48751970281E+02 -0.18113570698E+02  0.67159429267E+02  0.41800000000E+01 0. -1.
         -5    1    3    3    0  502  0.32272926724E+02 -0.63090742734E+02 -0.90785441076E+02  0.11524518354E+03  0.41800000000E+01 0. -1.
        -11    1    1    2    0    0 -0.10041498212E+02  0.40102335888E+02  0.20292983284E+01  0.41390180982E+02  0.00000000000E+00 0.  1.
         11    1    1    2    0    0 -0.64516892797E+02 -0.25763563435E+02 -0.50491467476E+02  0.85881190869E+02  0.00000000000E+00 0. -1.
</event>
<event>
 7    1  0.2670433E-009  0.1157683E+03  0.7561462E-02  0.1250246E+00
          1   -1    0    0  501    0  0.00000000000E+00  0.00000000000E+00  0.28290212889E+03  0.28290212889E+03  0.00000000000E+00 0. -1.
         -1   -1    0    0    0  501 -0.00000000000E+00 -0.00000000000E+00 -0.51183101972E+02  0.51183101972E+02  0.00000000000E+00 0.  1.
         25    2    1    2    0    0 -0.24731552925E+02 -0.43825428088E+02  0.10995293568E+03  0.17397941547E+03  0.12508745375E+03 0.  0.
          5    1    3    3  502    0  0.34035473923E+02 -0.57651155033E+02  0.29428221948E+02  0.73249995282E+02  0.41800000000E+01 0.  1.
         -5    1    3    3    0  502 -0.58767026848E+02  0.13825726946E+02  0.80524713729E+02  0.10072942019E+03  0.41800000000E+01 0.  1.
        -11    1    1    2    0    0  0.49713409934E+02  0.57053713205E+02  0.87464879542E+02  0.11565748774E+03  0.00000000000E+00 0. -1.
         11    1    1    2    0    0 -0.24981857010E+02 -0.13228285117E+02  0.34301211697E+02  0.44448327648E+02  0.00000000000E+00 0.  1.
</event>
<event>
 7    1  0.2670433E-009  0.1616291E+03  0.7561462E-02  0.1186870E+00
          2   -1    0    0  501    0  0.00000000000E+00  0.00000000000E+00  0.83511520668E+02  0.83511520668E+02  0.00000000000E+00 0. -1.
         -2   -1    0    0    0  501 -0.00000000000E+00 -0.00000000000E+00 -0.36675768378E+03  0.36675768378E+03  0.00000000000E+00 0.  1.
         25    2    1    2    0    0 -0.54916431247E+02  0.12491201416E+03 -0.14035318805E+03  0.23230533465E+03  0.12509166801E+03 0.  0.
          5    1    3    3  502    0 -0.24201510987E+02  0.14132072821E+03 -0.84870543564E+02  0.16666656209E+03  0.41800000000E+01 0. -1.
         -5    1    3    3    0  502 -0.30714920260E+02 -0.16408714045E+02 -0.55482644489E+02  0.65638772556E+02  0.41800000000E+01 0. -1.
        -11    1    1    2    0    0  0.18643432743E+02 -0.97536291837E+02 -0.42985468880E+02  0.10820654483E+03  0.00000000000E+00 0. -1.
         11    1    1    2    0    0  0.36272998503E+02 -0.27375722324E+02 -0.99907506177E+02  0.10975732497E+03  0.00000000000E+00 0.  1.
</event>
<event>
 7    1  0.2670433E-009  0.1047951E+03  0.7561462E-02  0.1270524E+00
         -2   -1    0    0    0  501 -0.00000000000E+00  0.00000000000E+00  0.16815652580E+02  0.16815652580E+02  0.00000000000E+00 0. -1.
          2   -1    0    0  501    0  0.00000000000E+00 -0.00000000000E+00 -0.80721166346E+03  0.80721166346E+03  0.00000000000E+00 0.  1.
         25    2    1    2    0    0  0.28225483030E+02 -0.17398415658E+02 -0.53852579394E+03  0.55385545143E+03  0.12508576088E+03 0.  0.
          5    1    3    3  502    0  0.76006794566E+02 -0.11516840997E+02 -0.25962570880E+03  0.27080002126E+03  0.41800000000E+01 0. -1.
         -5    1    3    3    0  502 -0.47781311536E+02 -0.58815746619E+01 -0.27890008514E+03  0.28305543016E+03  0.41800000000E+01 0. -1.
        -11    1    1    2    0    0  0.42667798585E+01 -0.28070983290E+02 -0.29732639356E+02  0.41112228792E+02  0.00000000000E+00 0. -1.
         11    1    1    2    0    0 -0.32492262889E+02  0.45469398948E+02 -0.22213757759E+03  0.22905963583E+03  0.00000000000E+00 0.  1.
</event>
<event>
 7    1  0.2670433E-009  0.1377743E+03  0.7561462E-02  0.1216356E+00
         -1   -1    0    0    0  501 -0.00000000000E+00  0.00000000000E+00  0.18386044525E+03  0.18386044525E+03  0.00000000000E+00 0.  1.
          1   -1    0    0  501    0  0.00000000000E+00 -0.00000000000E+00 -0.23848533063E+03  0.23848533063E+03  0.00000000000E+00 0. -1.
         25    2    1    2    0    0  0.92613965408E+02 -0.39877783998E+02 -0.17654970331E+03  0.23871583434E+03  0.12509143687E+03 0.  0.
          5    1    3    3  502    0  0.23982179348E+02  0.41195076305E+02 -0.88805997676E+02  0.10087693919E+03  0.41800000000E+01 0.  1.
         -5    1    3    3    0  502  0.68631786060E+02 -0.81072860303E+02 -0.87743705635E+02  0.13783889514E+03  0.41800000000E+01 0.  1.
        -11    1    1    2    0    0 -0.33284320541E+02 -0.18566844222E+02  0.83753571440E+02  0.92017576730E+02  0.00000000000E+00 0.  1.
         11    1    1    2    0    0 -0.59329644866E+02  0.58444628220E+02  0.38171246493E+02  0.91612364813E+02  0.00000000000E+00 0. -1.
</event>
<event>
 7    1  0.2670433E-009  0.1086720E+03  0.7561462E-02  0.1263049E+00
         -2   -1    0    0    0  501 -0.00000000000E+00  0.00000000000E+00  0.26122586429E+02  0.26122586429E+02  0.00000000000E+00 0.  1.
          2   -1    0    0  501    0  0.00000000000E+00 -0.00000000000E+00 -0.49083721426E+03  0.49083721426E+03  0.00000000000E+00 0. -1.
         25    2    1    2    0    0  0.34235404935E+02  0.43702748180E+01 -0.26713123167E+03  0.29698078403E+03  0.12508928370E+03 0.  0.
          5    1    3    3  502    0  0.78333390738E+02  0.31254155392E+01 -0.21310532972E+03  0.22710623567E+03  0.41800000000E+01 0.  1.
         -5    1    3    3    0  502 -0.44097985803E+02  0.12448592788E+01 -0.54025901954E+02  0.69874548360E+02  0.41800000000E+01 0.  1.
        -11    1    1    2    0    0 -0.63887092188E+02 -0.89825706943E+01 -0.11155672229E+03  0.12886872938E+03  0.00000000000E+00 0.  1.
         11    1    1    2    0    0  0.29651687253E+02  0.46122958763E+01 -0.86026673872E+02  0.91110287277E+02  0.00000000000E+00 0. -1.
</event>
<event>
 7    1  0.2670433E-009  0.9901656E+02  0.7561462E-02  0.1282378E+00
         -1   -1    0    0    0  501 -0.00000000000E+00  0.00000000000E+00  0.34608939105E+03  0.34608939105E+03  0.00000000000E+00 0.  1.
          1   -1    0    0  501    0  0.00000000000E+00 -0.00000000000E+00 -0.84452876283E+02  0.84452876283E+02  0.00000000000E+00 0. -1.
         25    2    1    2    0    0  0.34854652115E+01 -0.49333455232E+02  0.29440034052E+03  0.32367311981E+03  0.12508712849E+03 0.  0.
          5    1    3    3  502    0  0.39738138216E+02 -0.66606641761E+01  0.23118376393E+02  0.46641352931E+02  0.41800000000E+01 0.  1.
         -5    1    3    3    0  502 -0.36252673005E+02 -0.42672791056E+02  0.27128196413E+03  0.27703176688E+03  0.41800000000E+01 0.  1.
        -11    1    1    2    0    0  0.13489491313E+02 -0.23224791248E+02 -0.48349624129E+01  0.27289817990E+02  0.00000000000E+00 0. -1.
         11    1    1    2    0    0 -0.16974956524E+02  0.72558246480E+02 -0.27928863346E+02  0.79579329534E+02  0.00000000000E+00 0.  1.
</event>
<event>
 7    1  0.2670433E-009  0.1070118E+03  0.7561462E-02  0.1266206E+00
          2   -1    0    0  501    0  0.00000000000E+00  0.00000000000E+00  0.12637852747E+04  0.12637852747E+04  0.00000000000E+00 0. -1.
         -2   -1    0    0    0  501 -0.00000000000E+00 -0.00000000000E+00 -0.15093924089E+02  0.15093924089E+02  0.00000000000E+00 0.  1.
         25    2    1    2    0    0  0.66523871453E+02 -0.19048629903E+02  0.88327415761E+03  0.89476832890E+03  0.12509536008E+03 0.  0.
          5    1    3    3  502    0  0.10428077205E+01 -0.29182052967E+02  0.44613360787E+02  0.53483679979E+02  0.41800000000E+01 0. -1.
         -5    1    3    3    0  502  0.65481063733E+02  0.10133423064E+02  0.83866079683E+03  0.84128464892E+03  0.41800000000E+01 0. -1.
        -11    1    1    2    0    0  0.14246272845E+02 -0.23014065817E+02  0.94336106261E+02  0.98142266430E+02  0.00000000000E+00 0. -1.
         11    1    1    2    0    0 -0.80770144299E+02  0.42062695720E+02  0.27108108676E+03  0.28596860349E+03  0.00000000000E+00 0.  1.
</event>
<event>
 7    1  0.2670433E-009  0.8190378E+02  0.7561462E-02  0.1323734E+00
         -1   -1    0    0    0  501 -0.00000000000E+00  0.00000000000E+00  0.35789988767E+02  0.35789988767E+02  0.00000000000E+00 0.  1.
          1   -1    0    0  501    0  0.00000000000E+00 -0.00000000000E+00 -0.36242297725E+03  0.36242297725E+03  0.00000000000E+00 0. -1.
         25    2    1    2    0    0  0.23902453273E+02 -0.26352713045E+02 -0.21296410912E+03  0.24953335208E+03  0.12508952502E+03 0.  0.
          5    1    3    3  502    0  0.30281442091E+02 -0.42236680524E+02 -0.22316427914E+03  0.22917388770E+03  0.41800000000E+01 0.  1.
         -5    1    3    3    0  502 -0.63789888179E+01  0.15883967479E+02  0.10200170027E+02  0.20359464379E+02  0.41800000000E+01 0.  1.
        -11    1    1    2    0    0 -0.31978652228E+02 -0.25915376260E+02 -0.64198858694E+02  0.76260962377E+02  0.00000000000E+00 0.  1.
         11    1    1    2    0    0  0.80761989553E+01  0.52268089305E+02 -0.49470020676E+02  0.72418651568E+02  0.00000000000E+00 0. -1.
</event>
<event>
 7    1  0.2670433E-009  0.1271215E+03  0.7561462E-02  0.1231790E+00
          1   -1    0    0  501    0  0.00000000000E+00  0.00000000000E+00  0.54400028363E+03  0.54400028363E+03  0.00000000000E+00 0. -1.
         -1   -1    0    0    0  501 -0.00000000000E+00 -0.00000000000E+00 -0.40885061546E+02  0.40885061546E+02  0.00000000000E+00 0.  1.
         25    2    1    2    0    0  0.75697197162E+02 -0.25324703741E+01  0.14079885934E+03  0.20299087829E+03  0.12507797092E+03 0.  0.
          5    1    3    3  502    0  0.47321212624E+02 -0.56078680555E+02  0.11612101857E+03  0.13742517575E+03  0.41800000000E+01 0. -1.
         -5    1    3    3    0  502  0.28375984538E+02  0.53546210181E+02  0.24677840774E+02  0.65565702532E+02  0.41800000000E+01 0. -1.
        -11    1    1    2    0    0  0.21588700117E+02  0.67695911415E+01  0.85790470462E+02  0.88723751944E+02  0.00000000000E+00 0. -1.
         11    1    1    2    0    0 -0.97285897279E+02 -0.42371207674E+01  0.27652589227E+03  0.29317071494E+03  0.00000000000E+00 0.  1.
</event>
<event>
 7    1  0.2670433E-009  0.4288846E+03  0.7561462E-02  0.1034213E+00
         -2   -1    0    0    0  501 -0.00000000000E+00  0.00000000000E+00  0.11542037907E+03  0.11542037907E+03  0.00000000000E+00 0.  1.
          2   -1    0    0  501    0  0.00000000000E+00 -0.00000000000E+00 -0.17634065950E+04  0.17634065950E+04  0.00000000000E+00 0. -1.
         25    2    1    2    0    0 -0.39985160832E+03  0.14474231272E+03 -0.10476375640E+04  0.11375515323E+04  0.12508947792E+03 0.  0.
          5    1    3    3  502    0 -0.40066114736E+03  0.14757162958E+03 -0.97093190338E+03  0.10606757159E+04  0.41800000000E+01 0.  1.
         -5    1    3    3    0  502  0.80953903773E+00 -0.28293168589E+01 -0.76705660592E+02  0.76875816446E+02  0.41800000000E+01 0.  1.
        -11    1    1    2    0    0  0.25124434760E+03 -0.81194833769E+02 -0.44293190879E+03  0.51565977064E+03  0.00000000000E+00 0.  1.
         11    1    1    2    0    0  0.14860726072E+03 -0.63547478950E+02 -0.15741674315E+03  0.22561567109E+03  0.00000000000E+00 0. -1.
</event>
<event>
 7    1  0.2670433E-009  0.1339645E+03  0.7561462E-02  0.1221689E+00
          1   -1    0    0  501    0  0.00000000000E+00  0.00000000000E+00  0.55456005940E+02  0.55456005940E+02  0.00000000000E+00 0. -1.
         -1   -1    0    0    0  501 -0.00000000000E+00 -0.00000000000E+00 -0.41530101491E+03  0.41530101491E+03  0.00000000000E+00 0.  1.
         25    2    1    2    0    0 -0.31932204199E+01  0.10052778821E+03 -0.14171101661E+03  0.21411616616E+03  0.12509071716E+03 0.  0.
          5    1    3    3  502    0  0.40253281623E+02  0.80285759771E+02 -0.33954945657E+02  0.96106922945E+02  0.41800000000E+01 0. -1.
         -5    1    3    3    0  502 -0.43446502043E+02  0.20242028443E+02 -0.10775607096E+03  0.11800924321E+03  0.41800000000E+01 0. -1.
        -11    1    1    2    0    0  0.23152847117E+02  0.39960371839E+01 -0.72915877778E+02  0.76607753360E+02  0.00000000000E+00 0.  1.
         11    1    1    2    0    0 -0.19959626697E+02 -0.10452382540E+03 -0.14521811457E+03  0.18003310133E+03  0.00000000000E+00 0. -1.
</event>
<event>
 7    1  0.2670433E-009  0.1668937E+03  0.7561462E-02  0.1181127E+00
         -2   -1    0    0    0  501 -0.00000000000E+00  0.00000000000E+00  0.14839929805E+03  0.14839929805E+03  0.00000000000E+00 0.  1.
          2   -1    0    0  501    0  0.00000000000E+00 -0.00000000000E+00 -0.19852469279E+03  0.19852469279E+03  0.00000000000E+00 0. -1.
         25    2    1    2    0    0 -0.35416838622E+02 -0.12244505997E+03 -0.62989866447E+02  0.18937724419E+03  0.12509545224E+03 0.  0.
          5    1    3    3  502    0 -0.59504445826E+02 -0.77936721583E+01 -0.11082482072E+02  0.61170370341E+02  0.41800000000E+01 0. -1.
         -5    1    3    3    0  502  0.24087607203E+02 -0.11465138781E+03 -0.51907384375E+02  0.12820687385E+03  0.41800000000E+01 0. -1.
        -11    1    1    2    0    0  0.14734990625E+02  0.13256072541E+03  0.15911250494E+02  0.13432287133E+03  0.00000000000E+00 0.  1.
         11    1    1    2    0    0  0.20681847998E+02 -0.10115665441E+02 -0.30467787840E+01  0.23223875320E+02  0.00000000000E+00 0. -1.
</event>
<event>
 7    1  0.2670433E-009  0.1304311E+03  0.7561462E-02  0.1226818E+00
         -2   -1    0    0    0  501 -0.00000000000E+00  0.00000000000E+00  0.97615277781E+02  0.97615277781E+02  0.00000000000E+00 0.  1.
          2   -1    0    0  501    0  0.00000000000E+00 -0.00000000000E+00 -0.20820302371E+03  0.20820302371E+03  0.00000000000E+00 0. -1.
         25    2    1    2    0    0 -0.92377289973E+02 -0.30724121467E+01 -0.73963433678E+02  0.17222439436E+03  0.12509056348E+03 0.  0.
          5    1    3    3  502    0 -0.10495211989E+03  0.26413985933E+02 -0.21223877949E+02  0.11036562652E+03  0.41800000000E+01 0. -1.
         -5    1    3    3    0  502  0.12574829919E+02 -0.29486398080E+02 -0.52739555729E+02  0.61858767832E+02  0.41800000000E+01 0. -1.
        -11    1    1    2    0    0  0.31472433323E+02 -0.36039570359E+02  0.80726749340E+01  0.48523528021E+02  0.00000000000E+00 0.  1.
         11    1    1    2    0    0  0.60904856650E+02  0.39111982506E+02 -0.44696987181E+02  0.85070379112E+02  0.00000000000E+00 0. -1.
</event>
<event>
 7    1  0.2670433E-009  0.1084541E+03  0.7561462E-02  0.1263460E+00
          1   -1    0    0  501    0  0.00000000000E+00  0.00000000000E+00  0.48554472679E+02  0.48554472679E+02  0.00000000000E+00 0. -1.
         -1   -1    0    0    0  501 -0.00000000000E+00 -0.00000000000E+00 -0.42633659415E+03  0.42633659415E+03  0.00000000000E+00 0.  1.
         25    2    1    2    0    0 -0.35559170602E+02 -0.15268682950E+02 -0.35069428440E+03  0.37434315611E+03  0.12509488447E+03 0.  0.
          5    1    3    3  502    0  0.29497618710E+02  0.30419397212E+02 -0.19363628870E+03  0.19826228571E+03  0.41800000000E+01 0.  1.
         -5    1    3    3    0  502 -0.65056789312E+02 -0.45688080162E+02 -0.15705799571E+03  0.17608087040E+03  0.41800000000E+01 0.  1.
        -11    1    1    2    0    0  0.18529569419E+02 -0.36114806376E+02 -0.13617703617E+01  0.40613773537E+02  0.00000000000E+00 0. -1.
         11    1    1    2    0    0  0.17029601183E+02  0.51383489325E+02 -0.25726066708E+02  0.59934137184E+02  0.00000000000E+00 0.  1.
</event>
<event>
 7    1  0.2670433E-009  0.1826370E+03  0.7561462E-02  0.1165275E+00
         -1   -1    0    0    0  501 -0.00000000000E+00  0.00000000000E+00  0.98716085507E+02  0.98716085507E+02  0.00000000000E+00 0.  1.
          1   -1    0    0  501    0  0.00000000000E+00 -0.00000000000E+00 -0.37412488588E+03  0.37412488588E+03  0.00000000000E+00 0. -1.
         25    2    1    2    0    0  0.81305215536E+01 -0.15368649520E+03 -0.10041969601E+03  0.22230121513E+03  0.12509224881E+03 0.  0.
          5    1    3    3  502    0  0.54752058290E+02 -0.52436704518E+02 -0.77363057944E+02  0.10839700643E+03  0.41800000000E+01 0.  1.
         -5    1    3    3    0  502 -0.46621536737E+02 -0.10124979068E+03 -0.23056638064E+02  0.11390420870E+03  0.41800000000E+01 0.  1.
        -11    1    1    2    0    0 -0.44053921569E+02  0.12266890433E+03 -0.11325785610E+03  0.17267237782E+03  0.00000000000E+00 0.  1.
         11    1    1    2    0    0  0.35923400015E+02  0.31017590876E+02 -0.61731248264E+02  0.77867378437E+02  0.00000000000E+00 0. -1.
</event>
<event>
 7    1  0.2670433E-009  0.2094253E+03  0.7561462E-02  0.1142022E+00
          1   -1    0    0  501    0  0.00000000000E+00  0.00000000000E+00  0.28952948747E+03  0.28952948747E+03  0.00000000000E+00 0. -1.
         -1   -1    0    0    0  501 -0.00000000000E+00 -0.00000000000E+00 -0.18423469547E+03  0.18423469547E+03  0.00000000000E+00 0.  1.
         25    2    1    2    0    0  0.18868382768E+03 -0.66070359524E+02  0.80297134163E+02  0.24911974505E+03  0.12508452496E+03 0.  0.
          5    1    3    3  502    0  0.15140588600E+03 -0.16304778487E+02  0.10176910120E+03  0.18320483202E+03  0.41800000000E+01 0.  1.
         -5    1    3    3    0  502  0.37277941681E+02 -0.49765581036E+02 -0.21471967032E+02  0.65914913032E+02  0.41800000000E+01 0.  1.
        -11    1    1    2    0    0 -0.14704846855E+03  0.69044099591E+02  0.56878686767E+02  0.17212066930E+03  0.00000000000E+00 0. -1.
         11    1    1    2    0    0 -0.41635359132E+02 -0.29737400670E+01 -0.31881028931E+02  0.52523768579E+02  0.00000000000E+00 0.  1.
</event>
<event>
 7    1  0.2670433E-009  0.1246898E+03  0.7561462E-02  0.1235555E+00
         -1   -1    0    0    0  501 -0.00000000000E+00  0.00000000000E+00  0.52305573383E+03  0.52305573383E+03  0.00000000000E+00 0.  1.
          1   -1    0    0  501    0  0.00000000000E+00 -0.00000000000E+00 -0.40848265876E+02  0.40848265876E+02  0.00000000000E+00 0. -1.
         25    2    1    2    0    0  0.64442203723E+02  0.50658290992E+02  0.15920866413E+03  0.21843651818E+03  0.12509218071E+03 0.  0.
          5    1    3    3  502    0  0.97317490618E+02  0.36465088804E+02  0.14759498235E+03  0.18056064880E+03  0.41800000000E+01 0. -1.
         -5    1    3    3    0  502 -0.32875286895E+02  0.14193202188E+02  0.11613681782E+02  0.37875869380E+02  0.41800000000E+01 0. -1.
        -11    1    1    2    0    0 -0.80317431448E+02 -0.37231366140E+02  0.30619023945E+03  0.31873112046E+03  0.00000000000E+00 0.  1.
         11    1    1    2    0    0  0.15875227725E+02 -0.13426924852E+02  0.16808564377E+02  0.26736361060E+02  0.00000000000E+00 0. -1.
</event>
<event>
 7    1  0.2670433E-009  0.1137647E+03  0.7561462E-02  0.1253753E+00
          2   -1    0    0  501    0  0.00000000000E+00  0.00000000000E+00  0.69302103071E+02  0.69302103071E+02  0.00000000000E+00 0. -1.
         -2   -1    0    0    0  501 -0.00000000000E+00 -0.00000000000E+00 -0.22351190843E+03  0.22351190843E+03  0.00000000000E+00 0.  1.
         25    2    1    2    0    0  0.27067849810E+02 -0.46192086542E+02 -0.70907439153E+02  0.15342769537E+03  0.12508323400E+03 0.  0.
          5    1    3    3  502    0  0.31127003156E+02  0.27980961779E+02 -0.66765568275E+02  0.78910950157E+02  0.41800000000E+01 0.  1.
         -5    1    3    3    0  502 -0.40591533463E+01 -0.74173048320E+02 -0.41418708774E+01  0.74516745215E+02  0.41800000000E+01 0.  1.
        -11    1    1    2    0    0 -0.63701058584E+02  0.23096220864E+02 -0.43160467810E+02  0.80337327964E+02  0.00000000000E+00 0. -1.
         11    1    1    2    0    0  0.36633208774E+02  0.23095865678E+02 -0.40141898395E+02  0.59048988164E+02  0.00000000000E+00 0.  1.
</event>
<event>
 7    1  0.4568930E-009  0.2032224E+03  0.7561462E-02  0.1147048E+00
         -2   -1    0    0    0  501 -0.00000000000E+00  0.00000000000E+00  0.41295135832E+02  0.41295135832E+02  0.00000000000E+00 0.  1.
          2   -1    0    0  501    0  0.00000000000E+00 -0.00000000000E+00 -0.11096671346E+04  0.11096671346E+04  0.00000000000E+00 0. -1.
         25    2    1    2    0    0 -0.34206172072E+02  0.18081069060E+03 -0.53226045464E+03  0.57689821141E+03  0.12509111362E+03 0.  0.
          5    1    3    3  502    0  0.33060610991E+02  0.44351881055E+02 -0.25143984871E+03  0.25748701573E+03  0.41800000000E+01 0. -1.
         -5    1    3    3    0  502 -0.67266783063E+02  0.13645880955E+03 -0.28082060593E+03  0.31941119568E+03  0.41800000000E+01 0. -1.
        -11    1    1    2    0    0 -0.97913877615E+01 -0.13464473899E+03 -0.29096368944E+03  0.32075683248E+03  0.00000000000E+00 0.  1.
         11    1    1    2    0    0  0.43997559833E+02 -0.46165951618E+02 -0.24514785466E+03  0.25330722652E+03  0.00000000000E+00 0. -1.
</event>
<event>
 7    1  0.2670433E-009  0.1468876E+03  0.7561462E-02  0.1204351E+00
          1   -1    0    0  501    0  0.00000000000E+00  0.00000000000E+00  0.12406997704E+04  0.12406997704E+04  0.00000000000E+00 0. -1.
         -1   -1    0    0    0  501 -0.00000000000E+00 -0.00000000000E+00 -0.22905951709E+02  0.22905951709E+02  0.00000000000E+00 0.  1.
         25    2    1    2    0    0  0.85716038792E+02  0.63460945788E+02  0.91304633757E+03  0.92772593024E+03  0.12508899295E+03 0.  0.
          5    1    3    3  502    0  0.54640163413E+01 -0.32758049151E+02  0.30901010850E+03  0.31081773568E+03  0.41800000000E+01 0. -1.
         -5    1    3    3    0  502  0.80252022451E+02  0.96218994940E+02  0.60403622907E+03  0.61690819456E+03  0.41800000000E+01 0. -1.
        -11    1    1    2    0    0 -0.72132232469E+02 -0.83744741180E+02  0.28041826075E+03  0.30141440178E+03  0.00000000000E+00 0.  1.
         11    1    1    2    0    0 -0.13583806323E+02  0.20283795392E+02  0.24329220366E+02  0.34465390080E+02  0.00000000000E+00 0. -1.
</event>
<event>
 7    1  0.2944376E-009  0.1192805E+03  0.7561462E-02  0.1244289E+00
          1   -1    0    0  501    0  0.00000000000E+00  0.00000000000E+00  0.67324731952E+03  0.67324731952E+03  0.00000000000E+00 0. -1.
         -1   -1    0    0    0  501 -0.00000000000E+00 -0.00000000000E+00 -0.28643613594E+02  0.28643613594E+02  0.00000000000E+00 0.  1.
         25    2    1    2    0    0 -0.49487435924E+02 -0.52895621199E+02  0.23464277647E+03  0.27559749153E+03  0.12509912761E+03 0.  0.
          5    1    3    3  502    0 -0.64217345619E+02  0.57915400281E+01  0.18885725041E+03  0.19960446600E+03  0.41800000000E+01 0. -1.
         -5    1    3    3    0  502  0.14729909695E+02 -0.58687161227E+02  0.45785526065E+02  0.75993025533E+02  0.41800000000E+01 0. -1.
        -11    1    1    2    0    0  0.16629786331E+02 -0.24273094474E+02  0.66126137049E+02  0.72376784329E+02  0.00000000000E+00 0.  1.
         11    1    1    2    0    0  0.32857649594E+02  0.77168715674E+02  0.34383479240E+03  0.35391665725E+03  0.00000000000E+00 0. -1.
</event>
<event>
 7    1  0.2670433E-009  0.1249140E+03  0.7561462E-02  0.1235204E+00
          1   -1    0    0  501    0  0.00000000000E+00  0.00000000000E+00  0.11428193275E+04  0.11428193275E+04  0.00000000000E+00 0. -1.
         -1   -1    0    0    0  501 -0.00000000000E+00 -0.00000000000E+00 -0.15620829889E+02  0.15620829889E+02  0.00000000000E+00 0.  1.
         25    2    1    2    0    0 -0.93258698761E+02 -0.66909134044E+01  0.85611651827E+03  0.87024325992E+03  0.12508351356E+03 0.  0.
          5    1    3    3  502    0 -0.11050920168E+03  0.27961985008E+02  0.70622025214E+03  0.71537310070E+03  0.41800000000E+01 0. -1.
         -5    1    3    3    0  502  0.17250502921E+02 -0.34652898412E+02  0.14989626612E+03  0.15487015922E+03  0.41800000000E+01 0. -1.
        -11    1    1    2    0    0  0.83740817131E+01 -0.69112023063E+01  0.19318003075E+02  0.22160216711E+02  0.00000000000E+00 0.  1.
         11    1    1    2    0    0  0.84884617048E+02  0.13602115711E+02  0.25176397626E+03  0.26603668075E+03  0.00000000000E+00 0. -1.
</event>
<event>
 7    1  0.2670433E-009  0.7527542E+02  0.7561462E-02  0.1343020E+00
         -2   -1    0    0    0  501 -0.00000000000E+00  0.00000000000E+00  0.13924969441E+02  0.13924969441E+02  0.00000000000E+00 0.  1.
          2   -1    0    0  501    0  0.00000000000E+00 -0.00000000000E+00 -0.94319281190E+03  0.94319281190E+03  0.00000000000E+00 0. -1.
         25    2    1    2    0    0  0.19800153494E+01  0.33803218337E+02 -0.51493823604E+03  0.53099482011E+03  0.12509010359E+03 0.  0.
          5    1    3    3  502    0 -0.18206351225E+02  0.88051848643E+01 -0.48914407322E+03  0.48957981910E+03  0.41800000000E+01 0. -1.
         -5    1    3    3    0  502  0.20186366575E+02  0.24998033473E+02 -0.25794162824E+02  0.41415001012E+02  0.41800000000E+01 0. -1.
        -11    1    1    2    0    0  0.38379311718E+02 -0.41374924516E+02 -0.28108714333E+03  0.28669642148E+03  0.00000000000E+00 0.  1.
         11    1    1    2    0    0 -0.40359327068E+02  0.75717061781E+01 -0.13324246309E+03  0.13942653975E+03  0.00000000000E+00 0. -1.
</event>
<event>
 7    1  0.2670433E-009  0.9212224E+02  0.7561462E-02  0.1297792E+00
          2   -1    0    0  501    0  0.00000000000E+00  0.00000000000E+00  0.20548195055E+03  0.20548195055E+03  0.00000000000E+00 0. -1.
         -2   -1    0    0    0  501 -0.00000000000E+00 -0.00000000000E+00 -0.62072025647E+02  0.62072025647E+02  0.00000000000E+00 0.  1.
         25    2    1    2    0    0 -0.29791169586E+02  0.21222180083E+02  0.78124725443E+02  0.15195000429E+03  0.12508971327E+03 0.  0.
          5    1    3    3  502    0 -0.64147436502E+02  0.10861694192E+02 -0.74596538988E+00  0.65198917743E+02  0.41800000000E+01 0. -1.
         -5    1    3    3    0  502  0.34356266916E+02  0.10360485891E+02  0.78870690833E+02  0.86751086545E+02  0.41800000000E+01 0. -1.
        -11    1    1    2    0    0  0.19135491326E+02  0.27247538703E+02 -0.37654286228E+00  0.33297705299E+02  0.00000000000E+00 0.  1.
         11    1    1    2    0    0  0.10655678259E+02 -0.48469718786E+02  0.65661742321E+02  0.82306266608E+02  0.00000000000E+00 0. -1.
</event>
<event>
 7    1  0.2670433E-009  0.1083668E+03  0.7561462E-02  0.1263625E+00
          1   -1    0    0  501    0  0.00000000000E+00  0.00000000000E+00  0.11483601355E+03  0.11483601355E+03  0.00000000000E+00 0. -1.
         -1   -1    0    0    0  501 -0.00000000000E+00 -0.00000000000E+00 -0.17644033226E+03  0.17644033226E+03  0.00000000000E+00 0.  1.
         25    2    1    2    0    0  0.61891479261E+02 -0.59149618941E+02  0.22921149675E+01  0.15159934581E+03  0.12509146746E+03 0.  0.
          5    1    3    3  502    0  0.44026678725E+02 -0.64089214811E+02  0.55157387741E+02  0.95423192763E+02  0.41800000000E+01 0. -1.
         -5    1    3    3    0  502  0.17864800536E+02  0.49395958697E+01 -0.52865272773E+02  0.56176153045E+02  0.41800000000E+01 0. -1.
        -11    1    1    2    0    0 -0.64408548692E+02  0.38652450478E+01 -0.52475930694E+02  0.83169252528E+02  0.00000000000E+00 0.  1.
         11    1    1    2    0    0  0.25170694310E+01  0.55284373894E+02 -0.11420502982E+02  0.56507747466E+02  0.00000000000E+00 0. -1.
</event>
<event>
 7    1  0.2670433E-009  0.1203375E+03  0.7561462E-02  0.1242541E+00
          1   -1    0    0  501    0  0.00000000000E+00  0.00000000000E+00  0.49075020941E+03  0.49075020941E+03  0.00000000000E+00 0. -1.
         -1   -1    0    0    0  501 -0.00000000000E+00 -0.00000000000E+00 -0.58026485285E+02  0.58026485285E+02  0.00000000000E+00 0.  1.
         25    2    1    2    0    0 -0.84767817333E+01 -0.85863350788E+02  0.38709537452E+03  0.41585392880E+03  0.12508912937E+03 0.  0.
          5    1    3    3  502    0 -0.17738271045E+02 -0.11362234099E+03  0.24449656145E+03  0.27022346973E+03  0.41800000000E+01 0. -1.
         -5    1    3    3    0  502  0.92614893118E+01  0.27758990198E+02  0.14259881307E+03  0.14563045907E+03  0.41800000000E+01 0. -1.
        -11    1    1    2    0    0 -0.16306178619E+02  0.48818528880E+02 -0.18614883137E+02  0.54732568891E+02  0.00000000000E+00 0.  1.
         11    1    1    2    0    0  0.24782960352E+02  0.37044821907E+02  0.64243232736E+02  0.78190196997E+02  0.00000000000E+00 0. -1.
</event>
<event>
 7    1  0.2670433E-009  0.1612169E+03  0.7561462E-02  0.1187330E+00
          2   -1    0    0  501    0  0.00000000000E+00  0.00000000000E+00  0.26180454196E+03  0.26180454196E+03  0.00000000000E+00 0.  1.
         -2   -1    0    0    0  501 -0.00000000000E+00 -0.00000000000E+00 -0.11778653765E+03  0.11778653765E+03  0.00000000000E+00 0. -1.
         25    2    1    2    0    0  0.48452451088E+02  0.12684412217E+03  0.51842312234E+02  0.19175885517E+03  0.12508701712E+03 0.  0.
          5    1    3    3  502    0 -0.33011335871E+01  0.12816996302E+03  0.55326659913E+02  0.13970307298E+03  0.41800000000E+01 0. -1.
         -5    1    3    3    0  502  0.51753584675E+02 -0.13258408428E+01 -0.34843476796E+01  0.52055782190E+02  0.41800000000E+01 0. -1.
        -11    1    1    2    0    0  0.69792757876E+01 -0.28315115359E+02  0.65466990609E+02  0.71668562897E+02  0.00000000000E+00 0.  1.
         11    1    1    2    0    0 -0.55431726876E+02 -0.98529006814E+02  0.26708701472E+02  0.11616366154E+03  0.00000000000E+00 0. -1.
</event>
<event>
 7    1  0.2670433E-009  0.1101090E+03  0.7561462E-02  0.1260368E+00
          1   -1    0    0  501    0  0.00000000000E+00  0.00000000000E+00  0.59226410084E+03  0.59226410084E+03  0.00000000000E+00 0. -1.
         -1   -1    0    0    0  501 -0.00000000000E+00 -0.00000000000E+00 -0.26267183339E+02  0.26267183339E+02  0.00000000000E+00 0.  1.
         25    2    1    2    0    0 -0.26178415592E+02  0.22150301054E+02  0.18486653151E+03  0.22583053680E+03  0.12509137299E+03 0.  0.
          5    1    3    3  502    0  0.32893961437E+02  0.50651290457E+02  0.11467057321E+03  0.12967026909E+03  0.41800000000E+01 0.  1.
         -5    1    3    3    0  502 -0.59072377030E+02 -0.28500989403E+02  0.70195958299E+02  0.96160267712E+02  0.41800000000E+01 0.  1.
        -11    1    1    2    0    0  0.58659132523E+02 -0.16979791661E+02  0.26911471308E+03  0.27595640227E+03  0.00000000000E+00 0.  1.
         11    1    1    2    0    0 -0.32480716931E+02 -0.51705093936E+01  0.11201567290E+03  0.11674434511E+03  0.00000000000E+00 0. -1.
</event>
<event>
 7    1  0.2670433E-009  0.7315043E+02  0.7561462E-02  0.1349696E+00
          2   -1    0    0  501    0  0.00000000000E+00  0.00000000000E+00  0.30957116267E+02  0.30957116267E+02  0.00000000000E+00 0. -1.
         -2   -1    0    0    0  501 -0.00000000000E+00 -0.00000000000E+00 -0.40546103578E+03  0.40546103578E+03  0.00000000000E+00 0.  1.
         25    2    1    2    0    0  0.12224191547E+02 -0.27037263863E+02 -0.18949968720E+03  0.22899155901E+03  0.12508620287E+03 0.  0.
          5    1    3    3  502    0  0.75779328622E+01 -0.50258532848E+02 -0.15448135210E+02  0.53286606872E+02  0.41800000000E+01 0. -1.
         -5    1    3    3    0  502  0.46462586847E+01  0.23221268984E+02 -0.17405155199E+03  0.17570495213E+03  0.41800000000E+01 0. -1.
        -11    1    1    2    0    0 -0.37679253299E+02  0.25999531511E+02 -0.41856698754E+02  0.62029710611E+02  0.00000000000E+00 0. -1.
         11    1    1    2    0    0  0.25455061752E+02  0.10377323524E+01 -0.14314753355E+03  0.14539688243E+03  0.00000000000E+00 0.  1.
</event>
<event>
 7    1  0.2670433E-009  0.9231312E+02  0.7561462E-02  0.1297345E+00
         -2   -1    0    0    0  501 -0.00000000000E+00  0.00000000000E+00  0.30630387776E+03  0.30630387776E+03  0.00000000000E+00 0.  1.
          2   -1    0    0  501    0  0.00000000000E+00 -0.00000000000E+00 -0.64019735014E+02  0.64019735014E+02  0.00000000000E+00 0. -1.
         25    2    1    2    0    0 -0.28745984795E+02  0.43925214084E+01  0.24124509756E+03  0.27329699123E+03  0.12508566037E+03 0.  0.
          5    1    3    3  502    0 -0.17629948170E+02  0.62089336186E+02  0.16294926474E+03  0.17531638834E+03  0.41800000000E+01 0. -1.
         -5    1    3    3    0  502 -0.11116036624E+02 -0.57696814777E+02  0.78295832817E+02  0.97980602888E+02  0.41800000000E+01 0. -1.
        -11    1    1    2    0    0  0.44802686591E+02 -0.39758898038E+01 -0.35377861711E+02  0.57224833113E+02  0.00000000000E+00 0. -1.
         11    1    1    2    0    0 -0.16056701797E+02 -0.41663160463E+00  0.36416906896E+02  0.39801788432E+02  0.00000000000E+00 0.  1.
</event>
<event>
 7    1  0.2670433E-009  0.9646902E+02  0.7561462E-02  0.1287901E+00
         -2   -1    0    0    0  501 -0.00000000000E+00  0.00000000000E+00  0.25709369583E+02  0.25709369583E+02  0.00000000000E+00 0.  1.
          2   -1    0    0  501    0  0.00000000000E+00 -0.00000000000E+00 -0.47074829665E+03  0.47074829665E+03  0.00000000000E+00 0. -1.
         25    2    1    2    0    0 -0.12003913444E+02  0.18032174725E+02 -0.23355942273E+03  0.26583209433E+03  0.12508974845E+03 0.  0.
          5    1    3    3  502    0 -0.33698358770E+01  0.71330066000E+02 -0.15114948689E+03  0.16722133206E+03  0.41800000000E+01 0. -1.
         -5    1    3    3    0  502 -0.86340775669E+01 -0.53297891275E+02 -0.82409935839E+02  0.98610762267E+02  0.41800000000E+01 0. -1.
        -11    1    1    2    0    0  0.38134833901E+02 -0.64805261429E+01 -0.19244765906E+03  0.19629662314E+03  0.00000000000E+00 0. -1.
         11    1    1    2    0    0 -0.26130920457E+02 -0.11551648582E+02 -0.19031845273E+02  0.34328948767E+02  0.00000000000E+00 0.  1.
</event>
<event>
 7    1  0.2670433E-009  0.1429933E+03  0.7561462E-02  0.1209357E+00
          2   -1    0    0  501    0  0.00000000000E+00  0.00000000000E+00  0.72507069554E+03  0.72507069554E+03  0.00000000000E+00 0. -1.
         -2   -1    0    0    0  501 -0.00000000000E+00 -0.00000000000E+00 -0.50167952630E+02  0.50167952630E+02  0.00000000000E+00 0.  1.
         25    2    1    2    0    0 -0.10200541719E+03 -0.73642802216E-01  0.59212349591E+03  0.61372905438E+03  0.12509199504E+03 0.  0.
          5    1    3    3  502    0 -0.76448140512E+02 -0.53783790633E+02  0.26064195104E+03  0.27692727089E+03  0.41800000000E+01 0. -1.
         -5    1    3    3    0  502 -0.25557276677E+02  0.53710147830E+02  0.33148154487E+03  0.33680178349E+03  0.41800000000E+01 0. -1.
        -11    1    1    2    0    0  0.96925657560E+02 -0.30647423930E+02  0.81590026206E+02  0.13034868647E+03  0.00000000000E+00 0. -1.
         11    1    1    2    0    0  0.50797596290E+01  0.30721066732E+02  0.11892207922E+01  0.31160907322E+02  0.00000000000E+00 0.  1.
</event>
<event>
 7    1  0.2670433E-009  0.1521990E+03  0.7561462E-02  0.1197797E+00
          2   -1    0    0  501    0  0.00000000000E+00  0.00000000000E+00  0.12532636380E+04  0.12532636380E+04  0.00000000000E+00 0.  1.
         -2   -1    0    0    0  501 -0.00000000000E+00 -0.00000000000E+00 -0.23256307277E+02  0.23256307277E+02  0.00000000000E+00 0. -1.
         25    2    1    2    0    0  0.53986702569E+02  0.11731689213E+03  0.56159184797E+03  0.58966988013E+03  0.12508935444E+03 0.  0.
          5    1    3    3  502    0 -0.13970121919E+02  0.55721067726E+01  0.29235823599E+01  0.15881826537E+02  0.41800000000E+01 0.  1.
         -5    1    3    3    0  502  0.67956824488E+02  0.11174478536E+03  0.55866826561E+03  0.57378805359E+03  0.41800000000E+01 0.  1.
        -11    1    1    2    0    0 -0.51442857392E+02 -0.13271056664E+03  0.61020147352E+03  0.62658143953E+03  0.00000000000E+00 0.  1.
         11    1    1    2    0    0 -0.25438451773E+01  0.15393674508E+02  0.58214009262E+02  0.60268625648E+02  0.00000000000E+00 0. -1.
</event>
<event>
 7    1  0.2670433E-009  0.7994937E+02  0.7561462E-02  0.1329195E+00
          1   -1    0    0  501    0  0.00000000000E+00  0.00000000000E+00  0.17874186272E+03  0.17874186272E+03  0.00000000000E+00 0. -1.
         -1   -1    0    0    0  501 -0.00000000000E+00 -0.00000000000E+00 -0.88081775293E+02  0.88081775293E+02  0.00000000000E+00 0.  1.
         25    2    1    2    0    0  0.15578145911E+02  0.47096159110E+01 -0.17145952070E+02  0.12730369752E+03  0.12508952241E+03 0.  0.
          5    1    3    3  502    0  0.60944361946E+02 -0.17242719274E+02 -0.36423662891E+02  0.73182526872E+02  0.41800000000E+01 0.  1.
         -5    1    3    3    0  502 -0.45366216035E+02  0.21952335185E+02  0.19277710820E+02  0.54121170644E+02  0.41800000000E+01 0.  1.
        -11    1    1    2    0    0 -0.15194595886E+02  0.17764027730E+02  0.11386578759E+03  0.11624050073E+03  0.00000000000E+00 0. -1.
         11    1    1    2    0    0 -0.38355002489E+00 -0.22473643641E+02 -0.60597480926E+01  0.23279439772E+02  0.00000000000E+00 0.  1.
</event>
<event>
 7    1  0.2670433E-009  0.1863808E+03  0.7561462E-02  0.1161767E+00
         -1   -1    0    0    0  501 -0.00000000000E+00  0.00000000000E+00  0.52098933258E+03  0.52098933258E+03  0.00000000000E+00 0.  1.
          1   -1    0    0  501    0  0.00000000000E+00 -0.00000000000E+00 -0.90465034361E+02  0.90465034361E+02  0.00000000000E+00 0. -1.
         25    2    1    2    0    0  0.51253818751E+02  0.16068329131E+03  0.33920271781E+03  0.39893844821E+03  0.12508927871E+03 0.  0.
          5    1    3    3  502    0 -0.23781079968E+02  0.51554727962E+02  0.34235579392E+02  0.66430241878E+02  0.41800000000E+01 0.  1.
         -5    1    3    3    0  502  0.75034898718E+02  0.10912856335E+03  0.30496713842E+03  0.33250820633E+03  0.41800000000E+01 0.  1.
        -11    1    1    2    0    0  0.18362621145E+02 -0.39865080355E+02 -0.32808919843E+01  0.44013347285E+02  0.00000000000E+00 0.  1.
         11    1    1    2    0    0 -0.69616439895E+02 -0.12081821095E+03  0.94602472398E+02  0.16850257145E+03  0.00000000000E+00 0. -1.
</event>
<event>
 7    1  0.2670433E-009  0.1516480E+03  0.7561462E-02  0.1198462E+00
          2   -1    0    0  501    0  0.00000000000E+00  0.00000000000E+00  0.88102726687E+03  0.88102726687E+03  0.00000000000E+00 0. -1.
         -2   -1    0    0    0  501 -0.00000000000E+00 -0.00000000000E+00 -0.36078987114E+02  0.36078987114E+02  0.00000000000E+00 0.  1.
         25    2    1    2    0    0  0.84431229587E+02  0.73522049658E+02  0.67296047883E+03  0.69358235441E+03  0.12508617820E+03 0.  0.
          5    1    3    3  502    0  0.17369656772E+01 -0.28656815807E+02  0.22034970744E+03  0.22225142544E+03  0.41800000000E+01 0.  1.
         -5    1    3    3    0  502  0.82694263909E+02  0.10217886546E+03  0.45261077139E+03  0.47133092897E+03  0.41800000000E+01 0.  1.
        -11    1    1    2    0    0 -0.60084773330E+01 -0.63412653660E+02  0.76285139460E+02  0.99381532221E+02  0.00000000000E+00 0.  1.
         11    1    1    2    0    0 -0.78422752254E+02 -0.10109395998E+02  0.95702661467E+02  0.12414236735E+03  0.00000000000E+00 0. -1.
</event>
<event>
 7    1  0.2670433E-009  0.1376997E+03  0.7561462E-02  0.1216458E+00
         -2   -1    0    0    0  501 -0.00000000000E+00  0.00000000000E+00  0.18679469743E+02  0.18679469743E+02  0.00000000000E+00 0.  1.
          2   -1    0    0  501    0  0.00000000000E+00 -0.00000000000E+00 -0.12179968725E+04  0.12179968725E+04  0.00000000000E+00 0. -1.
         25    2    1    2    0    0  0.65775853198E+02 -0.75654034700E+02 -0.78614643779E+03  0.80232331018E+03  0.12508587684E+03 0.  0.
          5    1    3    3  502    0  0.52084664174E+02 -0.10931658996E+03 -0.65780921834E+03  0.66887470368E+03  0.41800000000E+01 0.  1.
         -5    1    3    3    0  502  0.13691189025E+02  0.33662555257E+02 -0.12833721945E+03  0.13344860651E+03  0.41800000000E+01 0.  1.
        -11    1    1    2    0    0  0.54821497960E+01  0.35385841444E+02 -0.46672729212E+02  0.58826485474E+02  0.00000000000E+00 0.  1.
         11    1    1    2    0    0 -0.71258002994E+02  0.40268193256E+02 -0.36649823576E+03  0.37552654659E+03  0.00000000000E+00 0. -1.
</event>
<event>
 7    1  0.2670433E-009  0.1259124E+03  0.7561462E-02  0.1233650E+00
         -2   -1    0    0    0  501 -0.00000000000E+00  0.00000000000E+00  0.25828647433E+03  0.25828647433E+03  0.00000000000E+00 0.  1.
          2   -1    0    0  501    0  0.00000000000E+00 -0.00000000000E+00 -0.77665640741E+02  0.77665640741E+02  0.00000000000E+00 0. -1.
         25    2    1    2    0    0 -0.76912383729E+02  0.36960672897E+02  0.13977678759E+03  0.20607290388E+03  0.12508751038E+03 0.  0.
          5    1    3    3  502    0 -0.70636724441E+02  0.79135037907E+02  0.11531423570E+03  0.15673782702E+03  0.41800000000E+01 0. -1.
         -5    1    3    3    0  502 -0.62756592882E+01 -0.42174365011E+02  0.24462551890E+02  0.49335076858E+02  0.41800000000E+01 0. -1.
        -11    1    1    2    0    0  0.23866771148E+02 -0.43259122955E+02 -0.15944005862E+02  0.51915178963E+02  0.00000000000E+00 0. -1.
         11    1    1    2    0    0  0.53045612581E+02  0.62984500581E+01  0.56788051860E+02  0.77964032228E+02  0.00000000000E+00 0.  1.
</event>
<event>
 7    1  0.2670433E-009  0.1253735E+03  0.7561462E-02  0.1234487E+00
         -2   -1    0    0    0  501 -0.00000000000E+00  0.00000000000E+00  0.46804009242E+02  0.46804009242E+02  0.00000000000E+00 0.  1.
          2   -1    0    0  501    0  0.00000000000E+00 -0.00000000000E+00 -0.35052928924E+03  0.35052928924E+03  0.00000000000E+00 0. -1.
         25    2    1    2    0    0  0.59314308731E+02 -0.29047349302E+02 -0.19426766151E+03  0.24031219855E+03  0.12509233686E+03 0.  0.
          5    1    3    3  502    0  0.67331886480E+01  0.46993372317E+02 -0.51436473432E+02  0.70120582358E+02  0.41800000000E+01 0.  1.
         -5    1    3    3    0  502  0.52581120083E+02 -0.76040721619E+02 -0.14283118808E+03  0.17019161619E+03  0.41800000000E+01 0.  1.
        -11    1    1    2    0    0  0.18192369831E+02 -0.13007964643E+02 -0.35371445093E+02  0.41848639072E+02  0.00000000000E+00 0. -1.
         11    1    1    2    0    0 -0.77506678561E+02  0.42055313945E+02 -0.74086173395E+02  0.11517246086E+03  0.00000000000E+00 0.  1.
</event>
<event>
 7    1  0.2670433E-009  0.1086188E+03  0.7561462E-02  0.1263149E+00
         -2   -1    0    0    0  501 -0.00000000000E+00  0.00000000000E+00  0.50975477153E+02  0.50975477153E+02  0.00000000000E+00 0.  1.
          2   -1    0    0  501    0  0.00000000000E+00 -0.00000000000E+00 -0.36965108966E+03  0.36965108966E+03  0.00000000000E+00 0. -1.
         25    2    1    2    0    0 -0.15907092049E+02  0.39223640837E+02 -0.28381614590E+03  0.31303600092E+03  0.12509357945E+03 0.  0.
          5    1    3    3  502    0 -0.56301279467E+02 -0.44456723917E+01 -0.21327688355E+03  0.22066739571E+03  0.41800000000E+01 0. -1.
         -5    1    3    3    0  502  0.40394187418E+02  0.43669313228E+02 -0.70539262348E+02  0.92368605205E+02  0.41800000000E+01 0. -1.
        -11    1    1    2    0    0  0.13013933474E+02 -0.69424539646E+02 -0.18040015364E+02  0.72901106465E+02  0.00000000000E+00 0.  1.
         11    1    1    2    0    0  0.28931585750E+01  0.30200898809E+02 -0.16819451242E+02  0.34689459429E+02  0.00000000000E+00 0. -1.
</event>
<event>
 7    1  0.2670433E-009  0.1875155E+03  0.7561462E-02  0.1160721E+00
         -2   -1    0    0    0  501 -0.00000000000E+00  0.00000000000E+00  0.23639380573E+03  0.23639380573E+03  0.00000000000E+00 0. -1.
          2   -1    0    0  501    0  0.00000000000E+00 -0.00000000000E+00 -0.19229051447E+03  0.19229051447E+03  0.00000000000E+00 0.  1.
         25    2    1    2    0    0 -0.81765948754E+01 -0.17863382548E+03 -0.17802719711E+02  0.21895573527E+03  0.12509107430E+03 0.  0.
          5    1    3    3  502    0 -0.40006196605E+01 -0.41602639273E+02 -0.61968095904E+02  0.74861885243E+02  0.41800000000E+01 0. -1.
         -5    1    3    3    0  502 -0.41759752148E+01 -0.13703118620E+03  0.44165376193E+02  0.14409385003E+03  0.41800000000E+01 0. -1.
        -11    1    1    2    0    0  0.44219605362E+02  0.94075388002E+02  0.10675517572E+02  0.10449650138E+03  0.00000000000E+00 0.  1.
         11    1    1    2    0    0 -0.36043010486E+02  0.84558437476E+02  0.51230493398E+02  0.10523208354E+03  0.00000000000E+00 0. -1.
</event>
<event>
 7    1  0.2670433E-009  0.7652490E+02  0.7561462E-02  0.1339213E+00
          3   -1    0    0  501    0  0.00000000000E+00  0.00000000000E+00  0.56774578036E+02  0.56774578036E+02  0.00000000000E+00 0. -1.
         -3   -1    0    0    0  501 -0.00000000000E+00 -0.00000000000E+00 -0.29401375757E+03  0.29401375757E+03  0.00000000000E+00 0.  1.
         25    2    1    2    0    0 -0.63231467235E+02  0.29273461145E+01 -0.17035057920E+03  0.22062039632E+03  0.12508897487E+03 0.  0.
          5    1    3    3  502    0 -0.54940126772E+01 -0.14022009516E+02 -0.15834986943E+03  0.15911930893E+03  0.41800000000E+01 0. -1.
         -5    1    3    3    0  502 -0.57737454558E+02  0.16949355631E+02 -0.12000709776E+02  0.61501087391E+02  0.41800000000E+01 0. -1.
        -11    1    1    2    0    0  0.57494734000E+02 -0.18586831500E+02 -0.85807510271E+02  0.10494781352E+03  0.00000000000E+00 0.  1.
         11    1    1    2    0    0  0.57367332349E+01  0.15659485386E+02  0.18918909938E+02  0.25220125773E+02  0.00000000000E+00 0. -1.
</event>
<event>
 7    1  0.2670433E-009  0.1996084E+03  0.7561462E-02  0.1150070E+00
         -2   -1    0    0    0  501 -0.00000000000E+00  0.00000000000E+00  0.10494806732E+03  0.10494806732E+03  0.00000000000E+00 0.  1.
          2   -1    0    0  501    0  0.00000000000E+00 -0.00000000000E+00 -0.52253432787E+03  0.52253432787E+03  0.00000000000E+00 0. -1.
         25    2    1    2    0    0 -0.17418012042E+03 -0.13065267116E+02 -0.66212838120E+02  0.22481418336E+03  0.12509141279E+03 0.  0.
          5    1    3    3  502    0 -0.19185207823E+03 -0.76774741248E+01 -0.46758174468E+02  0.19766123244E+03  0.41800000000E+01 0. -1.
         -5    1    3    3    0  502  0.17671957805E+02 -0.53877929916E+01 -0.19454663653E+02  0.27152950923E+02  0.41800000000E+01 0. -1.
        -11    1    1    2    0    0  0.73741922949E+01  0.19956542650E+02 -0.11931987524E+02  0.24392921777E+02  0.00000000000E+00 0.  1.
         11    1    1    2    0    0  0.16680592813E+03 -0.68912755332E+01 -0.33944143490E+03  0.37827529005E+03  0.00000000000E+00 0. -1.
</event>
<event>
 7    1  0.2670433E-009  0.1527592E+03  0.7561462E-02  0.1197123E+00
          1   -1    0    0  501    0  0.00000000000E+00  0.00000000000E+00  0.91496074974E+02  0.91496074974E+02  0.00000000000E+00 0. -1.
         -1   -1    0    0    0  501 -0.00000000000E+00 -0.00000000000E+00 -0.27451499614E+03  0.27451499614E+03  0.00000000000E+00 0.  1.
         25    2    1    2    0    0 -0.11017321681E+03 -0.55188193639E+02 -0.71141062874E+02  0.18945512245E+03  0.12509323793E+03 0.  0.
          5    1    3    3  502    0  0.34233202827E+01  0.31923500352E+02 -0.13064652111E+02  0.34913987616E+02  0.41800000000E+01 0. -1.
         -5    1    3    3    0  502 -0.11359653709E+03 -0.87111693991E+02 -0.58076410763E+02  0.15454113483E+03  0.41800000000E+01 0. -1.
        -11    1    1    2    0    0  0.11099594373E+03  0.45104485664E+02 -0.11489531954E+03  0.16599833916E+03  0.00000000000E+00 0.  1.
         11    1    1    2    0    0 -0.82272692015E+00  0.10083707976E+02  0.30174612486E+01  0.10557609507E+02  0.00000000000E+00 0. -1.
</event>
<event>
 7    1  0.2670433E-009  0.9994661E+02  0.7561462E-02  0.1280408E+00
         -2   -1    0    0    0  501 -0.00000000000E+00  0.00000000000E+00  0.86197207063E+02  0.86197207063E+02  0.00000000000E+00 0.  1.
          2   -1    0    0  501    0  0.00000000000E+00 -0.00000000000E+00 -0.19255875039E+03  0.19255875039E+03  0.00000000000E+00 0. -1.
         25    2    1    2    0    0 -0.34805057245E+02  0.50843297881E+02 -0.92049916399E+02  0.16708416042E+03  0.12508995405E+03 0.  0.
          5    1    3    3  502    0  0.25165367931E+02 -0.12251876667E+02 -0.72418369156E+02  0.77751506842E+02  0.41800000000E+01 0. -1.
         -5    1    3    3    0  502 -0.59970425177E+02  0.63095174549E+02 -0.19631547243E+02  0.89332653573E+02  0.41800000000E+01 0. -1.
        -11    1    1    2    0    0  0.35315242720E+02 -0.63028940970E+02  0.20240794415E+02  0.75030017505E+02  0.00000000000E+00 0. -1.
         11    1    1    2    0    0 -0.51018547461E+00  0.12185643089E+02 -0.34552421339E+02  0.36641779529E+02  0.00000000000E+00 0.  1.
</event>
<event>
 7    1  0.2670433E-009  0.1430959E+03  0.7561462E-02  0.1209223E+00
         -1   -1    0    0    0  501 -0.00000000000E+00  0.00000000000E+00  0.11558302571E+03  0.11558302571E+03  0.00000000000E+00 0.  1.
          1   -1    0    0  501    0  0.00000000000E+00 -0.00000000000E+00 -0.30478941516E+03  0.30478941516E+03  0.00000000000E+00 0. -1.
         25    2    1    2    0    0 -0.96721198187E+02 -0.68148298453E+02 -0.20998721555E+03  0.27155325786E+03  0.12508940962E+03 0.  0.
          5    1    3    3  502    0 -0.64834942974E+02  0.56241317070E+01 -0.25038795576E+02  0.69854236606E+02  0.41800000000E+01 0.  1.
         -5    1    3    3    0  502 -0.31886255213E+02 -0.73772430160E+02 -0.18494841998E+03  0.20169902125E+03  0.41800000000E+01 0.  1.
        -11    1    1    2    0    0  0.39562234612E+02  0.73110380921E+02 -0.99700937269E+01  0.83723956994E+02  0.00000000000E+00 0.  1.
         11    1    1    2    0    0  0.57158963575E+02 -0.49620824672E+01  0.30750919834E+02  0.65095226016E+02  0.00000000000E+00 0. -1.
</event>
<event>
 7    1  0.2670433E-009  0.1629248E+03  0.7561462E-02  0.1185434E+00
         -2   -1    0    0    0  501 -0.00000000000E+00  0.00000000000E+00  0.83922210912E+02  0.83922210912E+02  0.00000000000E+00 0.  1.
          2   -1    0    0  501    0  0.00000000000E+00 -0.00000000000E+00 -0.50649006076E+03  0.50649006076E+03  0.00000000000E+00 0. -1.
         25    2    1    2    0    0 -0.28415083038E+02 -0.14710467779E+03 -0.35029422344E+03  0.40100020872E+03  0.12509165139E+03 0.  0.
          5    1    3    3  502    0  0.28291055707E+02 -0.77231908556E+02 -0.75173589338E+02  0.11150646827E+03  0.41800000000E+01 0.  1.
         -5    1    3    3    0  502 -0.56706138745E+02 -0.69872769234E+02 -0.27512063410E+03  0.28949374045E+03  0.41800000000E+01 0.  1.
        -11    1    1    2    0    0  0.34331760749E+02  0.95849756009E+02 -0.14948512774E+01  0.10182376983E+03  0.00000000000E+00 0.  1.
         11    1    1    2    0    0 -0.59166777103E+01  0.51254921782E+02 -0.70778775129E+02  0.87588293114E+02  0.00000000000E+00 0. -1.
</event>
<event>
 7    1  0.2670433E-009  0.1399099E+03  0.7561462E-02  0.1213450E+00
          1   -1    0    0  501    0  0.00000000000E+00  0.00000000000E+00  0.15945004253E+03  0.15945004253E+03  0.00000000000E+00 0. -1.
         -1   -1    0    0    0  501 -0.00000000000E+00 -0.00000000000E+00 -0.14885626138E+03  0.14885626138E+03  0.00000000000E+00 0.  1.
         25    2    1    2    0    0  0.10639868356E+03 -0.20362524691E+02 -0.29566056393E+01  0.16550294365E+03  0.12508865082E+03 0.  0.
          5    1    3    3  502    0  0.50142427335E+02 -0.63664941101E+02 -0.33904419209E+02  0.87945834389E+02  0.41800000000E+01 0. -1.
         -5    1    3    3    0  502  0.56256256226E+02  0.43302416410E+02  0.30947813570E+02  0.77557109257E+02  0.41800000000E+01 0. -1.
        -11    1    1    2    0    0 -0.42539570993E+02 -0.24893360156E+02 -0.25322588408E+02  0.55412344869E+02  0.00000000000E+00 0.  1.
         11    1    1    2    0    0 -0.63859112569E+02  0.45255884847E+02  0.38872975202E+02  0.87391015398E+02  0.00000000000E+00 0. -1.
</event>
<event>
 7    1  0.2670433E-009  0.1550233E+03  0.7561462E-02  0.1194433E+00
         -1   -1    0    0    0  501 -0.00000000000E+00  0.00000000000E+00  0.22531409567E+03  0.22531409567E+03  0.00000000000E+00 0.  1.
          1   -1    0    0  501    0  0.00000000000E+00 -0.00000000000E+00 -0.11533041770E+03  0.11533041770E+03  0.00000000000E+00 0. -1.
         25    2    1    2    0    0  0.18155231807E+01 -0.11906439992E+03  0.49376401122E+02  0.17962511095E+03  0.12509006373E+03 0.  0.
          5    1    3    3  502    0 -0.39523698687E+02 -0.12182157962E+03  0.51085601680E+02  0.13794865392E+03  0.41800000000E+01 0. -1.
         -5    1    3    3    0  502  0.41339221868E+02  0.27571796991E+01 -0.17092005574E+01  0.41676457036E+02  0.41800000000E+01 0. -1.
        -11    1    1    2    0    0 -0.37313896999E+02  0.47721661933E+02 -0.53273301208E+00  0.60580258594E+02  0.00000000000E+00 0. -1.
         11    1    1    2    0    0  0.35498373818E+02  0.71342737987E+02  0.61140009855E+02  0.10043914382E+03  0.00000000000E+00 0.  1.
</event>
<event>
 7    1  0.2670433E-009  0.2054627E+03  0.7561462E-02  0.1145210E+00
          1   -1    0    0  501    0  0.00000000000E+00  0.00000000000E+00  0.73502990104E+03  0.73502990104E+03  0.00000000000E+00 0. -1.
         -1   -1    0    0    0  501 -0.00000000000E+00 -0.00000000000E+00 -0.95692548829E+02  0.95692548829E+02  0.00000000000E+00 0.  1.
         25    2    1    2    0    0 -0.17732874316E+03  0.42645143479E+02  0.58903640844E+03  0.62918613974E+03  0.12508883467E+03 0.  0.
          5    1    3    3  502    0 -0.19303821643E+03  0.54789069495E+02  0.52765362431E+03  0.56453646011E+03  0.41800000000E+01 0.  1.
         -5    1    3    3    0  502  0.15709473270E+02 -0.12143926016E+02  0.61382784126E+02  0.64649679633E+02  0.41800000000E+01 0.  1.
        -11    1    1    2    0    0  0.51002348728E+02  0.11830026897E+02  0.35310023177E+02  0.63150509490E+02  0.00000000000E+00 0. -1.
         11    1    1    2    0    0  0.12632639443E+03 -0.54475170376E+02  0.14990920591E+02  0.13838580064E+03  0.00000000000E+00 0.  1.
</event>
<event>
 7    1  0.2842171E-009  0.9111036E+02  0.7561462E-02  0.1300185E+00
          2   -1    0    0  501    0  0.00000000000E+00  0.00000000000E+00  0.38934332409E+03  0.38934332409E+03  0.00000000000E+00 0. -1.
         -2   -1    0    0    0  501 -0.00000000000E+00 -0.00000000000E+00 -0.50905221355E+02  0.50905221355E+02  0.00000000000E+00 0.  1.
         25    2    1    2    0    0  0.76995727748E+02  0.20481108661E+02  0.12210520272E+03  0.19210492629E+03  0.12508718667E+03 0.  0.
          5    1    3    3  502    0  0.38174482276E+02 -0.19242760710E+02  0.12901483454E+03  0.13597747926E+03  0.41800000000E+01 0. -1.
         -5    1    3    3    0  502  0.38821245472E+02  0.39723869370E+02 -0.69096318125E+01  0.56127447025E+02  0.41800000000E+01 0. -1.
        -11    1    1    2    0    0 -0.46616118538E+02 -0.24928187821E+02  0.21031401550E+03  0.21685585574E+03  0.00000000000E+00 0. -1.
         11    1    1    2    0    0 -0.30379609210E+02  0.44470791600E+01  0.60188845179E+01  0.31287763417E+02  0.00000000000E+00 0.  1.
</event>
<event>
 7    1  0.2670433E-009  0.1128672E+03  0.7561462E-02  0.1255351E+00
          2   -1    0    0  501    0  0.00000000000E+00  0.00000000000E+00  0.75452479862E+03  0.75452479862E+03  0.00000000000E+00 0. -1.
         -2   -1    0    0    0  501 -0.00000000000E+00 -0.00000000000E+00 -0.30011052737E+02  0.30011052737E+02  0.00000000000E+00 0.  1.
         25    2    1    2    0    0 -0.63021338717E+02 -0.46646323455E+02  0.57690632730E+03  0.59549664180E+03  0.12509105201E+03 0.  0.
          5    1    3    3  502    0  0.24290048440E+02 -0.22748904460E+02  0.46099533857E+02  0.57010161631E+02  0.41800000000E+01 0.  1.
         -5    1    3    3    0  502 -0.87311387157E+02 -0.23897418995E+02  0.53080679344E+03  0.53848648017E+03  0.41800000000E+01 0.  1.
        -11    1    1    2    0    0 -0.27666849428E+01  0.34578025455E+02  0.10289486440E+03  0.10858474806E+03  0.00000000000E+00 0. -1.
         11    1    1    2    0    0  0.65788023659E+02  0.12068298000E+02  0.44712554177E+02  0.80454461496E+02  0.00000000000E+00 0.  1.
</event>
<event>
 7    1  0.2670433E-009  0.1154922E+03  0.7561462E-02  0.1250724E+00
         -2   -1    0    0    0  501 -0.00000000000E+00  0.00000000000E+00  0.12789952906E+03  0.12789952906E+03  0.00000000000E+00 0.  1.
          2   -1    0    0  501    0  0.00000000000E+00 -0.00000000000E+00 -0.14165013731E+03  0.14165013731E+03  0.00000000000E+00 0. -1.
         25    2    1    2    0    0  0.22971603111E+02 -0.70667128766E+02  0.22930743903E+02  0.14729110105E+03  0.12508921535E+03 0.  0.
          5    1    3    3  502    0  0.66234254872E+02 -0.75178457383E+02  0.25648954446E+02  0.10350902491E+03  0.41800000000E+01 0.  1.
         -5    1    3    3    0  502 -0.43262651761E+02  0.45113286170E+01 -0.27182105422E+01  0.43782076148E+02  0.41800000000E+01 0.  1.
        -11    1    1    2    0    0  0.10874203227E+02  0.39591636248E+02 -0.58438263681E+02  0.71419721496E+02  0.00000000000E+00 0. -1.
         11    1    1    2    0    0 -0.33845806338E+02  0.31075492519E+02  0.21756911524E+02  0.50838843820E+02  0.00000000000E+00 0.  1.
</event>
<event>
 7    1  0.2670433E-009  0.9775904E+02  0.7561462E-02  0.1285080E+00
          2   -1    0    0  501    0  0.00000000000E+00  0.00000000000E+00  0.16384068035E+03  0.16384068035E+03  0.00000000000E+00 0.  1.
         -2   -1    0    0    0  501 -0.00000000000E+00 -0.00000000000E+00 -0.97460703623E+02  0.97460703623E+02  0.00000000000E+00 0. -1.
         25    2    1    2    0    0  0.36285965252E+02 -0.41993219621E+02  0.21862531158E+02  0.13857091571E+03  0.12507528391E+03 0.  0.
          5    1    3    3  502    0 -0.15782935948E+02 -0.16072186581E+02 -0.44607458263E+02  0.50146923947E+02  0.41800000000E+01 0.  1.
         -5    1    3    3    0  502  0.52068901200E+02 -0.25921033039E+02  0.66469989421E+02  0.88423991765E+02  0.41800000000E+01 0.  1.
        -11    1    1    2    0    0 -0.69058468027E+02  0.43272689705E+02  0.29671890515E+02  0.86729572622E+02  0.00000000000E+00 0.  1.
         11    1    1    2    0    0  0.32772502775E+02 -0.12794700840E+01  0.14845555050E+02  0.36000895636E+02  0.00000000000E+00 0. -1.
</event>
<event>
 7    1  0.2670433E-009  0.8875604E+02  0.7561462E-02  0.1305892E+00
         -1   -1    0    0    0  501 -0.00000000000E+00  0.00000000000E+00  0.13680492007E+03  0.13680492007E+03  0.00000000000E+00 0.  1.
          1   -1    0    0  501    0  0.00000000000E+00 -0.00000000000E+00 -0.10735954868E+03  0.10735954868E+03  0.00000000000E+00 0. -1.
         25    2    1    2    0    0  0.26785821025E+02 -0.46823057114E+02  0.11939427344E+02  0.13674768152E+03  0.12508996599E+03 0.  0.
          5    1    3    3  502    0  0.47011120576E+02  0.52763493834E+01  0.50033252419E+02  0.68983215845E+02  0.41800000000E+01 0. -1.
         -5    1    3    3    0  502 -0.20225299552E+02 -0.52099406497E+02 -0.38093825076E+02  0.67764465675E+02  0.41800000000E+01 0. -1.
        -11    1    1    2    0    0 -0.40893262574E+02  0.24805810053E+02  0.47648347573E+02  0.67512607435E+02  0.00000000000E+00 0.  1.
         11    1    1    2    0    0  0.14107441549E+02  0.22017247060E+02 -0.30142403522E+02  0.39904179797E+02  0.00000000000E+00 0. -1.
</event>
<event>
 7    1  0.2670433E-009  0.1363386E+03  0.7561462E-02  0.1218342E+00
         -2   -1    0    0    0  501 -0.00000000000E+00  0.00000000000E+00  0.46978373690E+02  0.46978373690E+02  0.00000000000E+00 0.  1.
          2   -1    0    0  501    0  0.00000000000E+00 -0.00000000000E+00 -0.47007482125E+03  0.47007482125E+03  0.00000000000E+00 0. -1.
         25    2    1    2    0    0  0.36041362210E+02 -0.85880788849E+02 -0.27613224102E+03  0.31712463659E+03  0.12507809929E+03 0.  0.
          5    1    3    3  502    0  0.76652769934E+02 -0.65336143159E+02 -0.13308614919E+03  0.16695464727E+03  0.41800000000E+01 0. -1.
         -5    1    3    3    0  502 -0.40611407724E+02 -0.20544645690E+02 -0.14304609183E+03  0.15016998932E+03  0.41800000000E+01 0. -1.
        -11    1    1    2    0    0  0.27700636787E+01 -0.16471743067E+02 -0.53318025471E+02  0.55873100975E+02  0.00000000000E+00 0. -1.
         11    1    1    2    0    0 -0.38811425889E+02  0.10235253192E+03 -0.93646181070E+02  0.14405545737E+03  0.00000000000E+00 0.  1.
</event>
<event>
 7    1  0.2670433E-009  0.8465325E+02  0.7561462E-02  0.1316342E+00
          1   -1    0    0  501    0  0.00000000000E+00  0.00000000000E+00  0.11534951250E+03  0.11534951250E+03  0.00000000000E+00 0. -1.
         -1   -1    0    0    0  501 -0.00000000000E+00 -0.00000000000E+00 -0.14356259638E+03  0.14356259638E+03  0.00000000000E+00 0.  1.
         25    2    1    2    0    0 -0.39783777825E+02 -0.35493631789E+02  0.28097390136E+02  0.13885004715E+03  0.12508926967E+03 0.  0.
          5    1    3    3  502    0 -0.92762691573E+01 -0.30693351536E+02 -0.47282430262E+02  0.57282035661E+02  0.41800000000E+01 0. -1.
         -5    1    3    3    0  502 -0.30507508668E+02 -0.48002802530E+01  0.75379820398E+02  0.81568011492E+02  0.41800000000E+01 0. -1.
        -11    1    1    2    0    0  0.68495414521E+02  0.13926972632E+02 -0.33403616599E+02  0.77468599955E+02  0.00000000000E+00 0. -1.
         11    1    1    2    0    0 -0.28711636696E+02  0.21566659157E+02 -0.22906857415E+02  0.42593461770E+02  0.00000000000E+00 0.  1.
</event>
<event>
 7    1  0.2670433E-009  0.8549272E+02  0.7561462E-02  0.1314149E+00
          2   -1    0    0  501    0  0.00000000000E+00  0.00000000000E+00  0.72242601294E+03  0.72242601294E+03  0.00000000000E+00 0. -1.
         -2   -1    0    0    0  501 -0.00000000000E+00 -0.00000000000E+00 -0.18129206516E+02  0.18129206516E+02  0.00000000000E+00 0.  1.
         25    2    1    2    0    0  0.34115404442E+02  0.29068877603E+01  0.34690431980E+03  0.37035436365E+03  0.12508971485E+03 0.  0.
          5    1    3    3  502    0 -0.99235435868E+01  0.24355241290E+02  0.78613447120E+01  0.27765583666E+02  0.41800000000E+01 0.  1.
         -5    1    3    3    0  502  0.44038948029E+02 -0.21448353530E+02  0.33904297509E+03  0.34258877998E+03  0.41800000000E+01 0.  1.
        -11    1    1    2    0    0  0.29633288822E+02 -0.94659453731E+01  0.14741729592E+03  0.15066384791E+03  0.00000000000E+00 0.  1.
         11    1    1    2    0    0 -0.63748693265E+02  0.65590576127E+01  0.20997519070E+03  0.21953700791E+03  0.00000000000E+00 0. -1.
</event>
<event>
 7    1  0.2670433E-009  0.1500045E+03  0.7561462E-02  0.1200467E+00
          2   -1    0    0  501    0  0.00000000000E+00  0.00000000000E+00  0.34120049358E+03  0.34120049358E+03  0.00000000000E+00 0.  1.
         -2   -1    0    0    0  501 -0.00000000000E+00 -0.00000000000E+00 -0.78894607380E+02  0.78894607380E+02  0.00000000000E+00 0. -1.
         25    2    1    2    0    0 -0.98909035619E+02 -0.36224508630E+02  0.21710722742E+03  0.27180421712E+03  0.12508705727E+03 0.  0.
          5    1    3    3  502    0 -0.68681075899E+00  0.38134180467E+02  0.35215698045E+02  0.52079796636E+02  0.41800000000E+01 0.  1.
         -5    1    3    3    0  502 -0.98222224860E+02 -0.74358689097E+02  0.18189152937E+03  0.21972442049E+03  0.41800000000E+01 0.  1.
        -11    1    1    2    0    0  0.10487427838E+03  0.33121723931E+01  0.46608523312E+02  0.11481262647E+03  0.00000000000E+00 0. -1.
         11    1    1    2    0    0 -0.59652427658E+01  0.32912336237E+02 -0.14098645329E+01  0.33478257360E+02  0.00000000000E+00 0.  1.
</event>
<event>
 7    1  0.2670433E-009  0.2655671E+03  0.7561462E-02  0.1103844E+00
         -2   -1    0    0    0  501 -0.00000000000E+00  0.00000000000E+00  0.13121991307E+03  0.13121991307E+03  0.00000000000E+00 0.  1.
          2   -1    0    0  501    0  0.00000000000E+00 -0.00000000000E+00 -0.57450317870E+03  0.57450317870E+03  0.00000000000E+00 0. -1.
         25    2    1    2    0    0  0.23876164331E+03  0.46578885687E+02 -0.31117781564E+03  0.41431357562E+03  0.12508953226E+03 0.  0.
          5    1    3    3  502    0  0.12789562463E+03 -0.38165396824E+02 -0.14097072487E+03  0.19417545156E+03  0.41800000000E+01 0.  1.
         -5    1    3    3    0  502  0.11086601868E+03  0.84744282511E+02 -0.17020709077E+03  0.22013812406E+03  0.41800000000E+01 0.  1.
        -11    1    1    2    0    0 -0.66097971271E+02  0.25555550100E+02 -0.21574906220E+02  0.74077692495E+02  0.00000000000E+00 0.  1.
         11    1    1    2    0    0 -0.17266367204E+03 -0.72134435787E+02 -0.11053054377E+03  0.21733182366E+03  0.00000000000E+00 0. -1.
</event>
<event>
 7    1  0.2670433E-009  0.1918346E+03  0.7561462E-02  0.1156817E+00
          2   -1    0    0  501    0  0.00000000000E+00  0.00000000000E+00  0.21754516133E+03  0.21754516133E+03  0.00000000000E+00 0. -1.
         -2   -1    0    0    0  501 -0.00000000000E+00 -0.00000000000E+00 -0.22071552725E+03  0.22071552725E+03  0.00000000000E+00 0.  1.
         25    2    1    2    0    0  0.13083626224E+03  0.11346746905E+03  0.71557032419E+02  0.22530279356E+03  0.12509174973E+03 0.  0.
          5    1    3    3  502    0  0.13912622386E+03  0.53388625203E+02  0.31120259292E+02  0.15229049349E+03  0.41800000000E+01 0.  1.
         -5    1    3    3    0  502 -0.82899616266E+01  0.60078843845E+02  0.40436773127E+02  0.73012300076E+02  0.41800000000E+01 0.  1.
        -11    1    1    2    0    0 -0.40739968291E+02 -0.26652586805E+02  0.23338756165E+02  0.53988914965E+02  0.00000000000E+00 0. -1.
         11    1    1    2    0    0 -0.90096293947E+02 -0.86814882243E+02 -0.98066154495E+02  0.15896898005E+03  0.00000000000E+00 0.  1.
</event>
<event>
 7    1  0.2670433E-009  0.9601341E+02  0.7561462E-02  0.1288910E+00
          1   -1    0    0  501    0  0.00000000000E+00  0.00000000000E+00  0.92172784141E+02  0.92172784141E+02  0.00000000000E+00 0. -1.
         -1   -1    0    0    0  501 -0.00000000000E+00 -0.00000000000E+00 -0.19052703054E+03  0.19052703054E+03  0.00000000000E+00 0.  1.
         25    2    1    2    0    0 -0.45318595265E+02 -0.96333393942E+01  0.13234074265E+02  0.13404959652E+03  0.12509027660E+03 0.  0.
          5    1    3    3  502    0 -0.47635427123E+02 -0.63337769462E+02  0.51304818148E+01  0.79527361337E+02  0.41800000000E+01 0.  1.
         -5    1    3    3    0  502  0.23168318581E+01  0.53704430067E+02  0.81035924497E+01  0.54522235183E+02  0.41800000000E+01 0.  1.
        -11    1    1    2    0    0  0.21427443246E+02  0.22948865402E+02 -0.11667877185E+03  0.12082930748E+03  0.00000000000E+00 0.  1.
         11    1    1    2    0    0  0.23891152019E+02 -0.13315526008E+02  0.50904511832E+01  0.27820910677E+02  0.00000000000E+00 0. -1.
</event>
<event>
 7    1  0.2670433E-009  0.2240526E+03  0.7561462E-02  0.1130897E+00
         -2   -1    0    0    0  501 -0.00000000000E+00  0.00000000000E+00  0.36380463118E+02  0.36380463118E+02  0.00000000000E+00 0.  1.
          2   -1    0    0  501    0  0.00000000000E+00 -0.00000000000E+00 -0.14599458819E+04  0.14599458819E+04  0.00000000000E+00 0. -1.
         25    2    1    2    0    0  0.19869512458E+03  0.28771674831E+02 -0.64574906603E+03  0.68771164075E+03  0.12509149751E+03 0.  0.
          5    1    3    3  502    0  0.21283900231E+03  0.26204220689E+02 -0.54214438547E+03  0.58303096761E+03  0.41800000000E+01 0.  1.
         -5    1    3    3    0  502 -0.14143877732E+02  0.25674541419E+01 -0.10360468055E+03  0.10468067315E+03  0.41800000000E+01 0.  1.
        -11    1    1    2    0    0 -0.15555624372E+03 -0.58570861422E+02 -0.63781426605E+03  0.65911708272E+03  0.00000000000E+00 0.  1.
         11    1    1    2    0    0 -0.43138880859E+02  0.29799186591E+02 -0.14000208672E+03  0.14949762155E+03  0.00000000000E+00 0. -1.
</event>
<event>
 7    1  0.2670433E-009  0.1037251E+03  0.7561462E-02  0.1272652E+00
          1   -1    0    0  501    0  0.00000000000E+00  0.00000000000E+00  0.21873202887E+03  0.21873202887E+03  0.00000000000E+00 0. -1.
         -1   -1    0    0    0  501 -0.00000000000E+00 -0.00000000000E+00 -0.86140103300E+02  0.86140103300E+02  0.00000000000E+00 0.  1.
         25    2    1    2    0    0 -0.81920851972E+02 -0.58608855369E+01  0.55178741359E+02  0.15947886153E+03  0.12507372949E+03 0.  0.
          5    1    3    3  502    0 -0.34091013115E+02 -0.36205593064E+02  0.82524824577E+02  0.96440972702E+02  0.41800000000E+01 0.  1.
         -5    1    3    3    0  502 -0.47829838857E+02  0.30344707527E+02 -0.27346083218E+02  0.63037888824E+02  0.41800000000E+01 0.  1.
        -11    1    1    2    0    0  0.37531911556E+02  0.31924108001E+02  0.79885642745E+02  0.93858984511E+02  0.00000000000E+00 0. -1.
         11    1    1    2    0    0  0.44388940416E+02 -0.26063222464E+02 -0.24724585292E+01  0.51534286137E+02  0.00000000000E+00 0.  1.
</event>
<event>
 7    1  0.2670433E-009  0.4914451E+02  0.7561462E-02  0.1450011E+00
         -3   -1    0    0    0  501 -0.00000000000E+00  0.00000000000E+00  0.38250046851E+03  0.38250046851E+03  0.00000000000E+00 0.  1.
          3   -1    0    0  501    0  0.00000000000E+00 -0.00000000000E+00 -0.31286455535E+02  0.31286455535E+02  0.00000000000E+00 0. -1.
         25    2    1    2    0    0  0.65434537542E+01 -0.28132922545E+02  0.24633731860E+03  0.27778731810E+03  0.12509772757E+03 0.  0.
          5    1    3    3  502    0 -0.50214973493E+01 -0.23823198286E+02 -0.57501505826E+01  0.25363297182E+02  0.41800000000E+01 0.  1.
         -5    1    3    3    0  502  0.11564951104E+02 -0.43097242589E+01  0.25208746919E+03  0.25242402092E+03  0.41800000000E+01 0.  1.
        -11    1    1    2    0    0 -0.27733848092E+02  0.27935336993E+02  0.12616150556E+02  0.41336625863E+02  0.00000000000E+00 0. -1.
         11    1    1    2    0    0  0.21190394338E+02  0.19758555177E+00  0.92260543819E+02  0.94662980082E+02  0.00000000000E+00 0.  1.
</event>
<event>
 7    1  0.2670433E-009  0.1116277E+03  0.7561462E-02  0.1257585E+00
          1   -1    0    0  501    0  0.00000000000E+00  0.00000000000E+00  0.74661691544E+03  0.74661691544E+03  0.00000000000E+00 0. -1.
         -1   -1    0    0    0  501 -0.00000000000E+00 -0.00000000000E+00 -0.18305018479E+02  0.18305018479E+02  0.00000000000E+00 0.  1.
         25    2    1    2    0    0 -0.27640673693E+02  0.33548358401E+02  0.40936897686E+03  0.43025566727E+03  0.12508989092E+03 0.  0.
          5    1    3    3  502    0  0.49738505157E+02  0.70801404800E+01  0.16520364424E+03  0.17272453143E+03  0.41800000000E+01 0. -1.
         -5    1    3    3    0  502 -0.77379178849E+02  0.26468217921E+02  0.24416533262E+03  0.25753113585E+03  0.41800000000E+01 0. -1.
        -11    1    1    2    0    0  0.52646477668E+02 -0.48188840660E+01  0.25343736261E+03  0.25889258395E+03  0.00000000000E+00 0. -1.
         11    1    1    2    0    0 -0.25005803976E+02 -0.28729474335E+02  0.65505557487E+02  0.75773682698E+02  0.00000000000E+00 0.  1.
</event>
<event>
 7    1  0.2670433E-009  0.2871783E+03  0.7561462E-02  0.1091832E+00
          1   -1    0    0  501    0  0.00000000000E+00  0.00000000000E+00  0.31352413994E+04  0.31352413994E+04  0.00000000000E+00 0. -1.
         -1   -1    0    0    0  501 -0.00000000000E+00 -0.00000000000E+00 -0.34110439567E+02  0.34110439567E+02  0.00000000000E+00 0.  1.
         25    2    1    2    0    0  0.20804251871E+03  0.19393985287E+03  0.21460523151E+04  0.21684284045E+04  0.12508737058E+03 0.  0.
          5    1    3    3  502    0  0.45855803403E+02  0.38434488503E+02  0.91979175978E+03  0.92174525677E+03  0.41800000000E+01 0.  1.
         -5    1    3    3    0  502  0.16218671531E+03  0.15550536437E+03  0.12262605553E+04  0.12466831477E+04  0.41800000000E+01 0.  1.
        -11    1    1    2    0    0 -0.13489419071E+03 -0.88556812101E+02  0.65481774290E+03  0.67440716787E+03  0.00000000000E+00 0. -1.
         11    1    1    2    0    0 -0.73148328001E+02 -0.10538304077E+03  0.30026090189E+03  0.32651626663E+03  0.00000000000E+00 0.  1.
</event>
<event>
 7    1  0.2670433E-009  0.6786673E+02  0.7561462E-02  0.1367501E+00
         -2   -1    0    0    0  501 -0.00000000000E+00  0.00000000000E+00  0.69194720823E+02  0.69194720823E+02  0.00000000000E+00 0.  1.
          2   -1    0    0  501    0  0.00000000000E+00 -0.00000000000E+00 -0.23796154323E+03  0.23796154323E+03  0.00000000000E+00 0. -1.
         25    2    1    2    0    0 -0.55745426481E+02  0.70417633314E+01 -0.10806347327E+03  0.17459403428E+03  0.12509285970E+03 0.  0.
          5    1    3    3  502    0 -0.44879700095E+02 -0.21041630591E+01  0.17324901695E+02  0.48334662526E+02  0.41800000000E+01 0.  1.
         -5    1    3    3    0  502 -0.10865726386E+02  0.91459263905E+01 -0.12538837497E+03  0.12625937176E+03  0.41800000000E+01 0.  1.
        -11    1    1    2    0    0  0.10170134575E+02 -0.24868596680E+02 -0.76545667264E+02  0.81124089610E+02  0.00000000000E+00 0. -1.
         11    1    1    2    0    0  0.45575291906E+02  0.17826833349E+02  0.15842318129E+02  0.51438140161E+02  0.00000000000E+00 0.  1.
</event>
<event>
 7    1  0.2670433E-009  0.1543249E+03  0.7561462E-02  0.1195257E+00
          2   -1    0    0  501    0  0.00000000000E+00  0.00000000000E+00  0.54978437033E+03  0.54978437033E+03  0.00000000000E+00 0. -1.
         -2   -1    0    0    0  501 -0.00000000000E+00 -0.00000000000E+00 -0.57995923954E+02  0.57995923954E+02  0.00000000000E+00 0.  1.
         25    2    1    2    0    0 -0.12865254166E+03 -0.63875339266E+00  0.16409665391E+03  0.24315936044E+03  0.12508748246E+03 0.  0.
          5    1    3    3  502    0 -0.33211001874E+02 -0.45280338759E+02  0.11240908224E+03  0.12572411818E+03  0.41800000000E+01 0. -1.
         -5    1    3    3    0  502 -0.95441539782E+02  0.44641585367E+02  0.51687571668E+02  0.11743524226E+03  0.41800000000E+01 0. -1.
        -11    1    1    2    0    0  0.26397283064E+02  0.30527548264E+02  0.35991117830E+02  0.54075024908E+02  0.00000000000E+00 0. -1.
         11    1    1    2    0    0  0.10225525859E+03 -0.29888794871E+02  0.29170067464E+03  0.31054590893E+03  0.00000000000E+00 0.  1.
</event>
<event>
 7    1  0.2670433E-009  0.1323345E+03  0.7561462E-02  0.1224032E+00
          2   -1    0    0  501    0  0.00000000000E+00  0.00000000000E+00  0.31198198318E+03  0.31198198318E+03  0.00000000000E+00 0. -1.
         -2   -1    0    0    0  501 -0.00000000000E+00 -0.00000000000E+00 -0.61982192388E+02  0.61982192388E+02  0.00000000000E+00 0.  1.
         25    2    1    2    0    0  0.33572523052E+02  0.74133272874E+02  0.17719888050E+03  0.23166417817E+03  0.12508393880E+03 0.  0.
          5    1    3    3  502    0  0.26699614295E+01 -0.34797256552E+02  0.52462023590E+02  0.63148349754E+02  0.41800000000E+01 0. -1.
         -5    1    3    3    0  502  0.30902561622E+02  0.10893052943E+03  0.12473685691E+03  0.16851582842E+03  0.41800000000E+01 0. -1.
        -11    1    1    2    0    0 -0.78780069416E+01  0.18486974056E+02  0.32205019713E+02  0.37960433320E+02  0.00000000000E+00 0. -1.
         11    1    1    2    0    0 -0.25694516110E+02 -0.92620246930E+02  0.40595890580E+02  0.10433956408E+03  0.00000000000E+00 0.  1.
</event>
<event>
 7    1  0.2670433E-009  0.7483042E+02  0.7561462E-02  0.1344397E+00
         -1   -1    0    0    0  501 -0.00000000000E+00  0.00000000000E+00  0.81791614610E+02  0.81791614610E+02  0.00000000000E+00 0.  1.
          1   -1    0    0  501    0  0.00000000000E+00 -0.00000000000E+00 -0.19602754889E+03  0.19602754889E+03  0.00000000000E+00 0. -1.
         25    2    1    2    0    0  0.31802365117E+02 -0.15643936822E+02 -0.48920593790E+01  0.13010900905E+03  0.12509316050E+03 0.  0.
          5    1    3    3  502    0  0.14134406810E+02 -0.59768823385E+02 -0.37716245199E+02  0.72194745353E+02  0.41800000000E+01 0.  1.
         -5    1    3    3    0  502  0.17667958307E+02  0.44124886563E+02  0.32824185820E+02  0.57914263698E+02  0.41800000000E+01 0.  1.
        -11    1    1    2    0    0 -0.16022837486E+02  0.18367883842E+02 -0.12377608847E+03  0.12615320271E+03  0.00000000000E+00 0. -1.
         11    1    1    2    0    0 -0.15779527631E+02 -0.27239470205E+01  0.14432213569E+02  0.21556951735E+02  0.00000000000E+00 0.  1.
</event>
<event>
 7    1  0.2670433E-009  0.1206042E+03  0.7561462E-02  0.1242104E+00
         -2   -1    0    0    0  501 -0.00000000000E+00  0.00000000000E+00  0.53300581525E+03  0.53300581525E+03  0.00000000000E+00 0.  1.
          2   -1    0    0  501    0  0.00000000000E+00 -0.00000000000E+00 -0.37371693753E+02  0.37371693753E+02  0.00000000000E+00 0. -1.
         25    2    1    2    0    0 -0.52506471492E+02 -0.36494309899E+02  0.15284328424E+03  0.20759959879E+03  0.12509100557E+03 0.  0.
          5    1    3    3  502    0  0.26797290245E+02  0.15452062393E+02  0.86100910317E+02  0.91584388157E+02  0.41800000000E+01 0.  1.
         -5    1    3    3    0  502 -0.79303761737E+02 -0.51946372292E+02  0.66742373927E+02  0.11601521063E+03  0.41800000000E+01 0.  1.
        -11    1    1    2    0    0 -0.23567207214E+02 -0.10371533092E+02  0.44719213042E+02  0.51602228340E+02  0.00000000000E+00 0. -1.
         11    1    1    2    0    0  0.76073678706E+02  0.46865842991E+02  0.29807162421E+03  0.31117568187E+03  0.00000000000E+00 0.  1.
</event>
<event>
 7    1  0.2670433E-009  0.8675417E+02  0.7561462E-02  0.1310908E+00
          1   -1    0    0  501    0  0.00000000000E+00  0.00000000000E+00  0.34683661658E+03  0.34683661658E+03  0.00000000000E+00 0. -1.
         -1   -1    0    0    0  501 -0.00000000000E+00 -0.00000000000E+00 -0.34278136876E+02  0.34278136876E+02  0.00000000000E+00 0.  1.
         25    2    1    2    0    0  0.89789985007E+01  0.24873925045E+00  0.15785408370E+03  0.20160855939E+03  0.12508962863E+03 0.  0.
          5    1    3    3  502    0  0.38685744726E+02 -0.24449265289E+02  0.15608583471E+03  0.16271021361E+03  0.41800000000E+01 0. -1.
         -5    1    3    3    0  502 -0.29706746225E+02  0.24698004539E+02  0.17682489961E+01  0.38898345775E+02  0.41800000000E+01 0. -1.
        -11    1    1    2    0    0  0.10795922816E+02  0.41296393548E+02  0.54357787625E+02  0.69113769576E+02  0.00000000000E+00 0.  1.
         11    1    1    2    0    0 -0.19774921317E+02 -0.41545132799E+02  0.10034660838E+03  0.11039242449E+03  0.00000000000E+00 0. -1.
</event>
<event>
 7    1  0.2670433E-009  0.8658215E+02  0.7561462E-02  0.1311346E+00
         -1   -1    0    0    0  501 -0.00000000000E+00  0.00000000000E+00  0.10400201102E+03  0.10400201102E+03  0.00000000000E+00 0.  1.
          1   -1    0    0  501    0  0.00000000000E+00 -0.00000000000E+00 -0.12130912608E+03  0.12130912608E+03  0.00000000000E+00 0. -1.
         25    2    1    2    0    0 -0.10304959636E+02  0.29762447607E+02 -0.16248640364E+01  0.12899492429E+03  0.12508019359E+03 0.  0.
          5    1    3    3  502    0  0.32967059483E+02 -0.14708518282E+02 -0.41466505297E+02  0.55137201439E+02  0.41800000000E+01 0. -1.
         -5    1    3    3    0  502 -0.43272019119E+02  0.44470965889E+02  0.39841641260E+02  0.73857722846E+02  0.41800000000E+01 0. -1.
        -11    1    1    2    0    0  0.39316741536E+02 -0.14990297370E+02 -0.38119812610E+02  0.56777066617E+02  0.00000000000E+00 0. -1.
         11    1    1    2    0    0 -0.29011781900E+02 -0.14772150237E+02  0.22437561584E+02  0.39539146191E+02  0.00000000000E+00 0.  1.
</event>
<event>
 7    1  0.2670433E-009  0.3424581E+03  0.7561462E-02  0.1065754E+00
         -1   -1    0    0    0  501 -0.00000000000E+00  0.00000000000E+00  0.63702944802E+02  0.63702944802E+02  0.00000000000E+00 0.  1.
          1   -1    0    0  501    0  0.00000000000E+00 -0.00000000000E+00 -0.19055942212E+04  0.19055942212E+04  0.00000000000E+00 0. -1.
         25    2    1    2    0    0  0.18246788083E+03 -0.27382819323E+03 -0.10297723371E+04  0.10882807569E+04  0.12509009766E+03 0.  0.
          5    1    3    3  502    0  0.18554421564E+03 -0.19645334540E+03 -0.86369365495E+03  0.90498882583E+03  0.41800000000E+01 0. -1.
         -5    1    3    3    0  502 -0.30763348123E+01 -0.77374847831E+02 -0.16607868216E+03  0.18329193103E+03  0.41800000000E+01 0. -1.
        -11    1    1    2    0    0 -0.13255454198E+03  0.13332400244E+03 -0.52198594838E+03  0.55481107283E+03  0.00000000000E+00 0. -1.
         11    1    1    2    0    0 -0.49913338846E+02  0.14050419079E+03 -0.29013299086E+03  0.32620533626E+03  0.00000000000E+00 0.  1.
</event>
<event>
 7    1  0.2670433E-009  0.6676008E+02  0.7561462E-02  0.1371470E+00
         -2   -1    0    0    0  501 -0.00000000000E+00  0.00000000000E+00  0.19595081756E+02  0.19595081756E+02  0.00000000000E+00 0.  1.
          2   -1    0    0  501    0  0.00000000000E+00 -0.00000000000E+00 -0.70507035966E+03  0.70507035966E+03  0.00000000000E+00 0. -1.
         25    2    1    2    0    0  0.32075216151E+02  0.16194520596E+02 -0.29685037472E+03  0.32412707709E+03  0.12508850923E+03 0.  0.
          5    1    3    3  502    0  0.21263113591E+02  0.14888738062E+02 -0.30732594200E+03  0.30844853954E+03  0.41800000000E+01 0.  1.
         -5    1    3    3    0  502  0.10812102560E+02  0.13057825338E+01  0.10475567278E+02  0.15678537546E+02  0.41800000000E+01 0.  1.
        -11    1    1    2    0    0 -0.17250619450E+02 -0.53078410764E+02 -0.25946408537E+03  0.26539878138E+03  0.00000000000E+00 0. -1.
         11    1    1    2    0    0 -0.14824596701E+02  0.36883890168E+02 -0.12916081781E+03  0.13513958295E+03  0.00000000000E+00 0.  1.
</event>
<event>
 7    1  0.2670433E-009  0.9449211E+02  0.7561462E-02  0.1292324E+00
          1   -1    0    0  501    0  0.00000000000E+00  0.00000000000E+00  0.15013293694E+04  0.15013293694E+04  0.00000000000E+00 0. -1.
         -1   -1    0    0    0  501 -0.00000000000E+00 -0.00000000000E+00 -0.12261901013E+02  0.12261901013E+02  0.00000000000E+00 0.  1.
         25    2    1    2    0    0 -0.57903560767E+01  0.66743074834E+02  0.10717763049E+04  0.10811294711E+04  0.12509324217E+03 0.  0.
          5    1    3    3  502    0  0.24698491086E+02  0.33503354324E+02  0.95438942110E+03  0.95530577812E+03  0.41800000000E+01 0.  1.
         -5    1    3    3    0  502 -0.30488847163E+02  0.33239720510E+02  0.11738688378E+03  0.12582369294E+03  0.41800000000E+01 0.  1.
        -11    1    1    2    0    0 -0.37790849926E+01  0.17076397855E+02  0.21186869700E+02  0.27473046696E+02  0.00000000000E+00 0.  1.
         11    1    1    2    0    0  0.95694410693E+01 -0.83819472688E+02  0.39610429383E+03  0.40498875268E+03  0.00000000000E+00 0. -1.
</event>
<event>
 7    1  0.2670433E-009  0.3218951E+03  0.7561462E-02  0.1074780E+00
          2   -1    0    0  501    0  0.00000000000E+00  0.00000000000E+00  0.26477994943E+03  0.26477994943E+03  0.00000000000E+00 0. -1.
         -2   -1    0    0    0  501 -0.00000000000E+00 -0.00000000000E+00 -0.42432899891E+03  0.42432899891E+03  0.00000000000E+00 0.  1.
         25    2    1    2    0    0  0.29986513727E+03  0.71875347682E+02 -0.83784409138E+01  0.33287254280E+03  0.12509502517E+03 0.  0.
          5    1    3    3  502    0  0.69951493278E+02  0.74038557874E+02  0.84700047457E+01  0.10229434415E+03  0.41800000000E+01 0.  1.
         -5    1    3    3    0  502  0.22991364399E+03 -0.21632101921E+01 -0.16848445659E+02  0.23057819865E+03  0.41800000000E+01 0.  1.
        -11    1    1    2    0    0 -0.13026519827E+03 -0.55164101839E+02 -0.11430618169E+03  0.18187359122E+03  0.00000000000E+00 0.  1.
         11    1    1    2    0    0 -0.16959993900E+03 -0.16711245843E+02 -0.36864426883E+02  0.17436281432E+03  0.00000000000E+00 0. -1.
</event>
<event>
 7    1  0.2670433E-009  0.6639762E+02  0.7561462E-02  0.1372790E+00
          2   -1    0    0  501    0  0.00000000000E+00  0.00000000000E+00  0.12851661561E+04  0.12851661561E+04  0.00000000000E+00 0. -1.
         -2   -1    0    0    0  501 -0.00000000000E+00 -0.00000000000E+00 -0.10924470471E+02  0.10924470471E+02  0.00000000000E+00 0.  1.
         25    2    1    2    0    0 -0.40886030147E+01  0.32553584888E+01  0.94492288782E+03  0.95317994625E+03  0.12508170118E+03 0.  0.
          5    1    3    3  502    0  0.13874101419E+02 -0.14210750912E+02  0.90876629229E+03  0.90899289465E+03  0.41800000000E+01 0.  1.
         -5    1    3    3    0  502 -0.17962704434E+02  0.17466109401E+02  0.36156595532E+02  0.44187051595E+02  0.41800000000E+01 0.  1.
        -11    1    1    2    0    0 -0.11257399395E+02  0.39815271855E+02  0.87276837669E+02  0.96587945974E+02  0.00000000000E+00 0.  1.
         11    1    1    2    0    0  0.15346002409E+02 -0.43070630344E+02  0.24204196009E+03  0.24632273430E+03  0.00000000000E+00 0. -1.
</event>
<event>
 7    1  0.2670433E-009  0.1525484E+03  0.7561462E-02  0.1197376E+00
          1   -1    0    0  501    0  0.00000000000E+00  0.00000000000E+00  0.45767123199E+03  0.45767123199E+03  0.00000000000E+00 0. -1.
         -1   -1    0    0    0  501 -0.00000000000E+00 -0.00000000000E+00 -0.73406828513E+02  0.73406828513E+02  0.00000000000E+00 0.  1.
         25    2    1    2    0    0 -0.12757139038E+03  0.64469854911E+02  0.26433774044E+03  0.32550363361E+03  0.12508937861E+03 0.  0.
          5    1    3    3  502    0 -0.10156098400E+03  0.19952597771E+02  0.71546261759E+02  0.12589312769E+03  0.41800000000E+01 0. -1.
         -5    1    3    3    0  502 -0.26010406386E+02  0.44517257140E+02  0.19279147868E+03  0.19961050592E+03  0.41800000000E+01 0. -1.
        -11    1    1    2    0    0  0.77249332964E+02 -0.13993328585E+02  0.16914593254E+02  0.80308008027E+02  0.00000000000E+00 0.  1.
         11    1    1    2    0    0  0.50322057420E+02 -0.50476526326E+02  0.10301206979E+03  0.12526641886E+03  0.00000000000E+00 0. -1.
</event>
<event>
 7    1  0.2670433E-009  0.1600213E+03  0.7561462E-02  0.1188673E+00
          1   -1    0    0  501    0  0.00000000000E+00  0.00000000000E+00  0.89768800119E+02  0.89768800119E+02  0.00000000000E+00 0. -1.
         -1   -1    0    0    0  501 -0.00000000000E+00 -0.00000000000E+00 -0.42120939077E+03  0.42120939077E+03  0.00000000000E+00 0.  1.
         25    2    1    2    0    0  0.14080082153E+03  0.21323553516E+02 -0.73683512833E+02  0.20335602524E+03  0.12507936545E+03 0.  0.
          5    1    3    3  502    0  0.11314601474E+03 -0.31531870718E+02 -0.13148300478E+02  0.11826508245E+03  0.41800000000E+01 0. -1.
         -5    1    3    3    0  502  0.27654806790E+02  0.52855424235E+02 -0.60535212356E+02  0.85090942788E+02  0.41800000000E+01 0. -1.
        -11    1    1    2    0    0 -0.16111769818E+02 -0.54879899751E+01  0.37931739196E+01  0.17438329307E+02  0.00000000000E+00 0. -1.
         11    1    1    2    0    0 -0.12468905171E+03 -0.15835563541E+02 -0.26155025174E+03  0.29018383634E+03  0.00000000000E+00 0.  1.
</event>
<event>
 7    1  0.2670433E-009  0.1105087E+03  0.7561462E-02  0.1259631E+00
          4   -1    0    0  501    0  0.00000000000E+00  0.00000000000E+00  0.20796924705E+03  0.20796924705E+03  0.00000000000E+00 0. -1.
         -4   -1    0    0    0  501 -0.00000000000E+00 -0.00000000000E+00 -0.89860003250E+02  0.89860003250E+02  0.00000000000E+00 0.  1.
         25    2    1    2    0    0 -0.62590843870E+01 -0.13776131750E+02 -0.21392977941E+02  0.12780033136E+03  0.12508519995E+03 0.  0.
          5    1    3    3  502    0 -0.17370506149E+02  0.53428698471E+02 -0.18995455863E+00  0.56337099561E+02  0.41800000000E+01 0. -1.
         -5    1    3    3    0  502  0.11111421762E+02 -0.67204830221E+02 -0.21203023383E+02  0.71463231799E+02  0.41800000000E+01 0. -1.
        -11    1    1    2    0    0  0.22043041935E+01  0.54984153836E+02  0.90024655551E+02  0.10551092236E+03  0.00000000000E+00 0. -1.
         11    1    1    2    0    0  0.40547801935E+01 -0.41208022086E+02  0.49477566192E+02  0.64517996582E+02  0.00000000000E+00 0.  1.
</event>
<event>
 7    1  0.3625792E-009  0.1059989E+03  0.7561462E-02  0.1268164E+00
          2   -1    0    0  501    0  0.00000000000E+00  0.00000000000E+00  0.59203841494E+03  0.59203841494E+03  0.00000000000E+00 0. -1.
         -2   -1    0    0    0  501 -0.00000000000E+00 -0.00000000000E+00 -0.25605615426E+02  0.25605615426E+02  0.00000000000E+00 0.  1.
         25    2    1    2    0    0  0.21389588402E+02 -0.48648124085E+02  0.25787478158E+03  0.29149765195E+03  0.12508926271E+03 0.  0.
          5    1    3    3  502    0  0.26500810124E+02  0.22863583881E+02  0.15142102245E+02  0.38363942257E+02  0.41800000000E+01 0.  1.
         -5    1    3    3    0  502 -0.51112217221E+01 -0.71511707966E+02  0.24273267934E+03  0.25313370969E+03  0.41800000000E+01 0.  1.
        -11    1    1    2    0    0  0.29241797522E+02  0.45650029469E+02  0.17839573671E+03  0.18645119143E+03  0.00000000000E+00 0.  1.
         11    1    1    2    0    0 -0.50631385924E+02  0.29980946161E+01  0.13016228122E+03  0.13969518698E+03  0.00000000000E+00 0. -1.
</event>
<event>
 7    1  0.2670433E-009  0.1034812E+03  0.7561462E-02  0.1273141E+00
          2   -1    0    0  501    0  0.00000000000E+00  0.00000000000E+00  0.16266922563E+03  0.16266922563E+03  0.00000000000E+00 0. -1.
         -2   -1    0    0    0  501 -0.00000000000E+00 -0.00000000000E+00 -0.10113546476E+03  0.10113546476E+03  0.00000000000E+00 0.  1.
         25    2    1    2    0    0  0.27255192755E+02 -0.58495527129E+02  0.48159693145E+02  0.14876758693E+03  0.12509143316E+03 0.  0.
          5    1    3    3  502    0  0.27311671806E+01 -0.77772125844E+02  0.74435577554E+02  0.10776868951E+03  0.41800000000E+01 0. -1.
         -5    1    3    3    0  502  0.24524025574E+02  0.19276598715E+02 -0.26275884409E+02  0.40998897422E+02  0.41800000000E+01 0. -1.
        -11    1    1    2    0    0 -0.44174418884E+01  0.71259031970E+02  0.36440954018E+02  0.80158009955E+02  0.00000000000E+00 0. -1.
         11    1    1    2    0    0 -0.22837750867E+02 -0.12763504842E+02 -0.23066886297E+02  0.34879093508E+02  0.00000000000E+00 0.  1.
</event>
<event>
 7    1  0.2670433E-009  0.1299883E+03  0.7561462E-02  0.1227473E+00
          1   -1    0    0  501    0  0.00000000000E+00  0.00000000000E+00  0.58344246109E+03  0.58344246109E+03  0.00000000000E+00 0. -1.
         -1   -1    0    0    0  501 -0.00000000000E+00 -0.00000000000E+00 -0.40477190370E+02  0.40477190370E+02  0.00000000000E+00 0.  1.
         25    2    1    2    0    0 -0.69238840641E+02 -0.22469749844E+02  0.42872637808E+03  0.45249616775E+03  0.12509023885E+03 0.  0.
          5    1    3    3  502    0 -0.95676038560E+02  0.50162043563E+01  0.37092521051E+03  0.38312145705E+03  0.41800000000E+01 0. -1.
         -5    1    3    3    0  502  0.26437197919E+02 -0.27485954201E+02  0.57801167574E+02  0.69374710703E+02  0.41800000000E+01 0. -1.
        -11    1    1    2    0    0  0.93163730368E+02  0.33975168276E+02  0.10176559243E+03  0.14209162015E+03  0.00000000000E+00 0. -1.
         11    1    1    2    0    0 -0.23924889727E+02 -0.11505418432E+02  0.12473300217E+02  0.29331863562E+02  0.00000000000E+00 0.  1.
</event>
<event>
 7    1  0.2670433E-009  0.1061082E+03  0.7561462E-02  0.1267951E+00
          2   -1    0    0  501    0  0.00000000000E+00  0.00000000000E+00  0.15893990247E+03  0.15893990247E+03  0.00000000000E+00 0. -1.
         -2   -1    0    0    0  501 -0.00000000000E+00 -0.00000000000E+00 -0.87697763741E+02  0.87697763741E+02  0.00000000000E+00 0.  1.
         25    2    1    2    0    0  0.43913367095E+02 -0.15688620214E+02  0.35939887482E+02  0.13825461017E+03  0.12509254617E+03 0.  0.
          5    1    3    3  502    0  0.18670842186E+02  0.42659950009E+02  0.54584324233E+02  0.71870665328E+02  0.41800000000E+01 0. -1.
         -5    1    3    3    0  502  0.25242524909E+02 -0.58348570223E+02 -0.18644436751E+02  0.66383944841E+02  0.41800000000E+01 0. -1.
        -11    1    1    2    0    0 -0.58217549032E+02  0.42010761576E+02  0.30669545473E+02  0.78069252097E+02  0.00000000000E+00 0.  1.
         11    1    1    2    0    0  0.14304181937E+02 -0.26322141362E+02  0.46327057713E+01  0.30313803943E+02  0.00000000000E+00 0. -1.
</event>
<event>
 7    1  0.2670433E-009  0.8868602E+02  0.7561462E-02  0.1306065E+00
         -1   -1    0    0    0  501 -0.00000000000E+00  0.00000000000E+00  0.56537152167E+02  0.56537152167E+02  0.00000000000E+00 0.  1.
          1   -1    0    0  501    0  0.00000000000E+00 -0.00000000000E+00 -0.24259543310E+03  0.24259543310E+03  0.00000000000E+00 0. -1.
         25    2    1    2    0    0  0.32811913840E+02 -0.18848131257E+02 -0.13385231660E+03  0.18707117669E+03  0.12508920317E+03 0.  0.
          5    1    3    3  502    0  0.60450409943E+02 -0.28408968477E+02 -0.14152303423E+03  0.15654891622E+03  0.41800000000E+01 0. -1.
         -5    1    3    3    0  502 -0.27638496104E+02  0.95608372209E+01  0.76707176331E+01  0.30522260471E+02  0.41800000000E+01 0. -1.
        -11    1    1    2    0    0 -0.41536037550E+02 -0.16353180056E+02  0.43773372108E+01  0.44853427899E+02  0.00000000000E+00 0.  1.
         11    1    1    2    0    0  0.87241237099E+01  0.35201311312E+02 -0.56583301548E+02  0.67207980677E+02  0.00000000000E+00 0. -1.
</event>
<event>
 7    1  0.2670433E-009  0.1086300E+03  0.7561462E-02  0.1263128E+00
         -1   -1    0    0    0  501 -0.00000000000E+00  0.00000000000E+00  0.98740825545E+02  0.98740825545E+02  0.00000000000E+00 0.  1.
          1   -1    0    0  501    0  0.00000000000E+00 -0.00000000000E+00 -0.14325648876E+03  0.14325648876E+03  0.00000000000E+00 0. -1.
         25    2    1    2    0    0  0.41516648616E+02 -0.64971493129E+01 -0.50629467522E+02  0.14133717213E+03  0.12508800176E+03 0.  0.
          5    1    3    3  502    0  0.71624398462E+02 -0.36998789619E+02 -0.86286492657E+01  0.81184301909E+02  0.41800000000E+01 0. -1.
         -5    1    3    3    0  502 -0.30107749846E+02  0.30501640306E+02 -0.42000818256E+02  0.60152870225E+02  0.41800000000E+01 0. -1.
        -11    1    1    2    0    0 -0.51232480953E+02  0.35866399248E+02 -0.13569245699E+02  0.63994453888E+02  0.00000000000E+00 0. -1.
         11    1    1    2    0    0  0.97158323370E+01 -0.29369249936E+02  0.19683050005E+02  0.36665688283E+02  0.00000000000E+00 0.  1.
</event>
<event>
 7    1  0.2670433E-009  0.1090702E+03  0.7561462E-02  0.1262301E+00
          2   -1    0    0  501    0  0.00000000000E+00  0.00000000000E+00  0.63723877032E+02  0.63723877032E+02  0.00000000000E+00 0. -1.
         -2   -1    0    0    0  501 -0.00000000000E+00 -0.00000000000E+00 -0.22038601469E+03  0.22038601469E+03  0.00000000000E+00 0.  1.
         25    2    1    2    0    0 -0.94247847256E+01 -0.19329989967E+02 -0.14056691301E+03  0.18938867281E+03  0.12508611945E+03 0.  0.
          5    1    3    3  502    0 -0.49379219398E+02  0.33845685364E+02 -0.72736082836E+02  0.94296595232E+02  0.41800000000E+01 0. -1.
         -5    1    3    3    0  502  0.39954434672E+02 -0.53175675331E+02 -0.67830830174E+02  0.95092077582E+02  0.41800000000E+01 0. -1.
        -11    1    1    2    0    0  0.41375781303E+02 -0.15533203048E+02 -0.17185152219E+02  0.47419037655E+02  0.00000000000E+00 0. -1.
         11    1    1    2    0    0 -0.31950996577E+02  0.34863193015E+02  0.10899275667E+01  0.47302181256E+02  0.00000000000E+00 0.  1.
</event>
<event>
 7    1  0.2670433E-009  0.9637177E+02  0.7561462E-02  0.1288116E+00
         -2   -1    0    0    0  501 -0.00000000000E+00  0.00000000000E+00  0.56916540723E+02  0.56916540723E+02  0.00000000000E+00 0. -1.
          2   -1    0    0  501    0  0.00000000000E+00 -0.00000000000E+00 -0.22183462230E+03  0.22183462230E+03  0.00000000000E+00 0.  1.
         25    2    1    2    0    0  0.18105979600E+02  0.24793040607E+02 -0.92909954790E+02  0.15881619111E+03  0.12509117275E+03 0.  0.
          5    1    3    3  502    0  0.32355069567E+02 -0.43876477103E+02 -0.21825708900E+02  0.58871298089E+02  0.41800000000E+01 0.  1.
         -5    1    3    3    0  502 -0.14249089967E+02  0.68669517710E+02 -0.71084245890E+02  0.99944893022E+02  0.41800000000E+01 0.  1.
        -11    1    1    2    0    0  0.19559536739E+02  0.45294458110E+01  0.11944054537E+02  0.23361331203E+02  0.00000000000E+00 0. -1.
         11    1    1    2    0    0 -0.37665516339E+02 -0.29322486418E+02 -0.83952181327E+02  0.96573640711E+02  0.00000000000E+00 0.  1.
</event>
<event>
 7    1  0.2670433E-009  0.1656451E+03  0.7561462E-02  0.1182467E+00
          2   -1    0    0  501    0  0.00000000000E+00  0.00000000000E+00  0.22979863789E+04  0.22979863789E+04  0.00000000000E+00 0. -1.
         -2   -1    0    0    0  501 -0.00000000000E+00 -0.00000000000E+00 -0.19653204789E+02  0.19653204789E+02  0.00000000000E+00 0.  1.
         25    2    1    2    0    0 -0.12582571643E+03 -0.65820174403E+02  0.18099418407E+04  0.18198080382E+04  0.12508966034E+03 0.  0.
          5    1    3    3  502    0 -0.14799151892E+03 -0.57798469933E+02  0.16928206724E+04  0.17002651129E+04  0.41800000000E+01 0. -1.
         -5    1    3    3    0  502  0.22165802488E+02 -0.80217044702E+01  0.11712116830E+03  0.11954292537E+03  0.41800000000E+01 0. -1.
        -11    1    1    2    0    0  0.87419906035E+02  0.21994107470E+02  0.38924552263E+03  0.39954731587E+03  0.00000000000E+00 0. -1.
         11    1    1    2    0    0  0.38405810399E+02  0.43826066933E+02  0.79145810786E+02  0.98284229560E+02  0.00000000000E+00 0.  1.
</event>
<event>
 7    1  0.2670433E-009  0.1711832E+03  0.7561462E-02  0.1176620E+00
         -1   -1    0    0    0  501 -0.00000000000E+00  0.00000000000E+00  0.40614294619E+02  0.40614294619E+02  0.00000000000E+00 0.  1.
          1   -1    0    0  501    0  0.00000000000E+00 -0.00000000000E+00 -0.75167095981E+03  0.75167095981E+03  0.00000000000E+00 0. -1.
         25    2    1    2    0    0  0.33497337367E+02 -0.13014747918E+03 -0.42377342836E+03  0.46183200534E+03  0.12507775432E+03 0.  0.
          5    1    3    3  502    0  0.75705982868E+02 -0.10850711830E+03 -0.26742981934E+03  0.29839800809E+03  0.41800000000E+01 0. -1.
         -5    1    3    3    0  502 -0.42208645501E+02 -0.21640360883E+02 -0.15634360902E+03  0.16343399725E+03  0.41800000000E+01 0. -1.
        -11    1    1    2    0    0 -0.65286567340E+02  0.89094420360E+02 -0.17843148231E+03  0.20985219917E+03  0.00000000000E+00 0.  1.
         11    1    1    2    0    0  0.31789229973E+02  0.41053058820E+02 -0.10885175452E+03  0.12060104992E+03  0.00000000000E+00 0. -1.
</event>
<event>
 7    1  0.2670433E-009  0.1020351E+03  0.7561462E-02  0.1276074E+00
          2   -1    0    0  501    0  0.00000000000E+00  0.00000000000E+00  0.69784458301E+03  0.69784458301E+03  0.00000000000E+00 0. -1.
         -2   -1    0    0    0  501 -0.00000000000E+00 -0.00000000000E+00 -0.35633839837E+02  0.35633839837E+02  0.00000000000E+00 0.  1.
         25    2    1    2    0    0  0.27834824123E+02  0.67053105020E+02  0.55652209642E+03  0.57500994352E+03  0.12509474416E+03 0.  0.
          5    1    3    3  502    0  0.72580592936E+01  0.70029625993E+02  0.54739900982E+03  0.55192388632E+03  0.41800000000E+01 0.  1.
         -5    1    3    3    0  502  0.20576764830E+02 -0.29765209732E+01  0.91230866061E+01  0.23086057203E+02  0.41800000000E+01 0.  1.
        -11    1    1    2    0    0  0.28358900700E+02 -0.53162061557E+01  0.51224199609E+02  0.58791223175E+02  0.00000000000E+00 0.  1.
         11    1    1    2    0    0 -0.56193724824E+02 -0.61736898864E+02  0.54464447140E+02  0.99677256148E+02  0.00000000000E+00 0. -1.
</event>
<event>
 7    1  0.2670433E-009  0.1277639E+03  0.7561462E-02  0.1230812E+00
         -2   -1    0    0    0  501 -0.00000000000E+00  0.00000000000E+00  0.79708732481E+02  0.79708732481E+02  0.00000000000E+00 0.  1.
          2   -1    0    0  501    0  0.00000000000E+00 -0.00000000000E+00 -0.29319056047E+03  0.29319056047E+03  0.00000000000E+00 0. -1.
         25    2    1    2    0    0  0.94681219770E+02  0.35267011297E+02 -0.16198271289E+03  0.22824085172E+03  0.12508873513E+03 0.  0.
          5    1    3    3  502    0  0.11966886863E+03  0.42487808016E+02 -0.10271481214E+03  0.16338193591E+03  0.41800000000E+01 0. -1.
         -5    1    3    3    0  502 -0.24987648860E+02 -0.72207967193E+01 -0.59267900754E+02  0.64858915814E+02  0.41800000000E+01 0. -1.
        -11    1    1    2    0    0 -0.33210956722E+02 -0.20078600344E+02 -0.68824348258E+02  0.79012079781E+02  0.00000000000E+00 0. -1.
         11    1    1    2    0    0 -0.61470263048E+02 -0.15188410953E+02  0.17325233164E+02  0.65646361443E+02  0.00000000000E+00 0.  1.
</event>
<event>
 7    1  0.2670433E-009  0.6263461E+02  0.7561462E-02  0.1387097E+00
         -1   -1    0    0    0  501 -0.00000000000E+00  0.00000000000E+00  0.30895903914E+02  0.30895903914E+02  0.00000000000E+00 0.  1.
          1   -1    0    0  501    0  0.00000000000E+00 -0.00000000000E+00 -0.41536653139E+03  0.41536653139E+03  0.00000000000E+00 0. -1.
         25    2    1    2    0    0 -0.35187652865E+01 -0.30308385923E+02 -0.23880393223E+03  0.27130026715E+03  0.12508212078E+03 0.  0.
          5    1    3    3  502    0  0.13983468142E+02  0.35769285140E+01 -0.23181565180E+03  0.23230217523E+03  0.41800000000E+01 0. -1.
         -5    1    3    3    0  502 -0.17502233429E+02 -0.33885314437E+02 -0.69882804327E+01  0.38998091914E+02  0.41800000000E+01 0. -1.
        -11    1    1    2    0    0 -0.29961181125E+02  0.22575137812E+02 -0.13324369731E+03  0.13842395780E+03  0.00000000000E+00 0. -1.
         11    1    1    2    0    0  0.33479946412E+02  0.77332481111E+01 -0.12422997934E+02  0.36538210352E+02  0.00000000000E+00 0.  1.
</event>
<event>
 7    1  0.2670433E-009  0.1343542E+03  0.7561462E-02  0.1221134E+00
         -3   -1    0    0    0  501 -0.00000000000E+00  0.00000000000E+00  0.40168150599E+03  0.40168150599E+03  0.00000000000E+00 0.  1.
          3   -1    0    0  501    0  0.00000000000E+00 -0.00000000000E+00 -0.64569791014E+02  0.64569791014E+02  0.00000000000E+00 0. -1.
         25    2    1    2    0    0  0.56950435826E+02  0.82109224943E+02  0.89707137981E+02  0.18352383589E+03  0.12509336823E+03 0.  0.
          5    1    3    3  502    0 -0.34688187684E+02  0.10377588252E+02  0.47030177592E+02  0.59500207622E+02  0.41800000000E+01 0.  1.
         -5    1    3    3    0  502  0.91638623510E+02  0.71731636691E+02  0.42676960389E+02  0.12402362827E+03  0.41800000000E+01 0.  1.
        -11    1    1    2    0    0  0.11259769277E+02 -0.22770526790E+02  0.77057158350E+01  0.26545382856E+02  0.00000000000E+00 0. -1.
         11    1    1    2    0    0 -0.68210205103E+02 -0.59338698153E+02  0.23969886116E+03  0.25618207826E+03  0.00000000000E+00 0.  1.
</event>
<event>
 7    1  0.2670433E-009  0.9324639E+02  0.7561462E-02  0.1295175E+00
          3   -1    0    0  501    0  0.00000000000E+00  0.00000000000E+00  0.90079989707E+02  0.90079989707E+02  0.00000000000E+00 0. -1.
         -3   -1    0    0    0  501 -0.00000000000E+00 -0.00000000000E+00 -0.17272861293E+03  0.17272861293E+03  0.00000000000E+00 0.  1.
         25    2    1    2    0    0 -0.19637941871E+02  0.45384141158E+02 -0.76117479629E+01  0.13472380822E+03  0.12508875555E+03 0.  0.
          5    1    3    3  502    0 -0.72697266732E+02  0.31941720409E+02 -0.19671580855E+01  0.79539350034E+02  0.41800000000E+01 0. -1.
         -5    1    3    3    0  502  0.53059324861E+02  0.13442420749E+02 -0.56445898773E+01  0.55184458185E+02  0.41800000000E+01 0. -1.
        -11    1    1    2    0    0  0.63835466285E+00 -0.21746305760E+02 -0.91172576430E+02  0.93732321020E+02  0.00000000000E+00 0.  1.
         11    1    1    2    0    0  0.18999587208E+02 -0.23637835398E+02  0.16135701169E+02  0.34352473398E+02  0.00000000000E+00 0. -1.
</event>
<event>
 7    1  0.2670433E-009  0.8599474E+02  0.7561462E-02  0.1312851E+00
         -1   -1    0    0    0  501 -0.00000000000E+00  0.00000000000E+00  0.85734715208E+02  0.85734715208E+02  0.00000000000E+00 0.  1.
          1   -1    0    0  501    0  0.00000000000E+00 -0.00000000000E+00 -0.20087790973E+03  0.20087790973E+03  0.00000000000E+00 0. -1.
         25    2    1    2    0    0  0.20924533977E+02 -0.68572716078E+02 -0.82912982119E+02  0.16631967623E+03  0.12509044162E+03 0.  0.
          5    1    3    3  502    0 -0.99067961443E+01 -0.13740922408E+02  0.31315723013E+02  0.35848353746E+02  0.41800000000E+01 0. -1.
         -5    1    3    3    0  502  0.30831330122E+02 -0.54831793669E+02 -0.11422870513E+03  0.13047132248E+03  0.41800000000E+01 0. -1.
        -11    1    1    2    0    0 -0.33885793568E+02  0.16226820483E+02  0.22226924863E+02  0.43653097228E+02  0.00000000000E+00 0.  1.
         11    1    1    2    0    0  0.12961259590E+02  0.52345895594E+02 -0.54457137263E+02  0.76639851478E+02  0.00000000000E+00 0. -1.
</event>
<event>
 7    1  0.2670433E-009  0.1295709E+03  0.7561462E-02  0.1228094E+00
         -1   -1    0    0    0  501 -0.00000000000E+00  0.00000000000E+00  0.24246191812E+03  0.24246191812E+03  0.00000000000E+00 0.  1.
          1   -1    0    0  501    0  0.00000000000E+00 -0.00000000000E+00 -0.74919939501E+02  0.74919939501E+02  0.00000000000E+00 0. -1.
         25    2    1    2    0    0  0.35507393558E+02  0.68950715294E+02  0.68697217838E+02  0.16243478651E+03  0.12510306149E+03 0.  0.
          5    1    3    3  502    0 -0.39751863397E+02  0.32989772401E+00  0.39978565677E+02  0.56533862327E+02  0.41800000000E+01 0. -1.
         -5    1    3    3    0  502  0.75259256955E+02  0.68620817570E+02  0.28718652162E+02  0.10590092419E+03  0.41800000000E+01 0. -1.
        -11    1    1    2    0    0  0.19201256807E+02  0.96351948264E+01  0.30491285365E+02  0.37299379693E+02  0.00000000000E+00 0.  1.
         11    1    1    2    0    0 -0.54708650365E+02 -0.78585910121E+02  0.68353475419E+02  0.11764769142E+03  0.00000000000E+00 0. -1.
</event>
<event>
 7    1  0.4309410E-009  0.1067006E+03  0.7561462E-02  0.1266805E+00
         -1   -1    0    0    0  501 -0.00000000000E+00  0.00000000000E+00  0.21449942678E+02  0.21449942678E+02  0.00000000000E+00 0.  1.
          1   -1    0    0  501    0  0.00000000000E+00 -0.00000000000E+00 -0.10437702670E+04  0.10437702670E+04  0.00000000000E+00 0. -1.
         25    2    1    2    0    0  0.10023210249E+03  0.20613797767E+02 -0.56441346580E+03  0.58709481852E+03  0.12508542094E+03 0.  0.
          5    1    3    3  502    0  0.26521799743E+01 -0.78392597516E+01 -0.34630056120E+03  0.34642465146E+03  0.41800000000E+01 0.  1.
         -5    1    3    3    0  502  0.97579922515E+02  0.28453057518E+02 -0.21811290459E+03  0.24067016705E+03  0.41800000000E+01 0.  1.
        -11    1    1    2    0    0 -0.22088256508E+02 -0.29434034177E+01 -0.12458818727E+02  0.25529920943E+02  0.00000000000E+00 0. -1.
         11    1    1    2    0    0 -0.78143845981E+02 -0.17670394349E+02 -0.44544803981E+03  0.45259547023E+03  0.00000000000E+00 0.  1.
</event>
<event>
 7    1  0.2670433E-009  0.1010955E+03  0.7561462E-02  0.1278009E+00
          1   -1    0    0  501    0  0.00000000000E+00  0.00000000000E+00  0.21143075673E+03  0.21143075673E+03  0.00000000000E+00 0. -1.
         -1   -1    0    0    0  501 -0.00000000000E+00 -0.00000000000E+00 -0.65199634109E+02  0.65199634109E+02  0.00000000000E+00 0.  1.
         25    2    1    2    0    0 -0.42957113988E+02  0.80476212694E+01  0.60964430111E+02  0.14585716796E+03  0.12509026284E+03 0.  0.
          5    1    3    3  502    0 -0.70465087841E+01 -0.53817492472E+02  0.44891575048E+01  0.54622346317E+02  0.41800000000E+01 0.  1.
         -5    1    3    3    0  502 -0.35910605204E+02  0.61865113742E+02  0.56475272607E+02  0.91234821644E+02  0.41800000000E+01 0.  1.
        -11    1    1    2    0    0 -0.37917684125E+01 -0.25811929025E+02  0.75417284993E+02  0.79802256004E+02  0.00000000000E+00 0. -1.
         11    1    1    2    0    0  0.46748882401E+02  0.17764307756E+02  0.98494075187E+01  0.50970966875E+02  0.00000000000E+00 0.  1.
</event>
<event>
 7    1  0.2670433E-009  0.2537408E+03  0.7561462E-02  0.1110963E+00
         -2   -1    0    0    0  501 -0.00000000000E+00  0.00000000000E+00  0.47747140109E+02  0.47747140109E+02  0.00000000000E+00 0.  1.
          2   -1    0    0  501    0  0.00000000000E+00 -0.00000000000E+00 -0.15254472852E+04  0.15254472852E+04  0.00000000000E+00 0. -1.
         25    2    1    2    0    0  0.50457656649E+02 -0.24077442251E+03 -0.69033311543E+03  0.74345624145E+03  0.12509626307E+03 0.  0.
          5    1    3    3  502    0  0.67498168894E+02 -0.16855973527E+03 -0.59776994306E+03  0.62475176221E+03  0.41800000000E+01 0. -1.
         -5    1    3    3    0  502 -0.17040512245E+02 -0.72214687247E+02 -0.92563172374E+02  0.11870447924E+03  0.41800000000E+01 0. -1.
        -11    1    1    2    0    0 -0.15010703320E+02  0.18402120034E+03 -0.66632619050E+03  0.69143308826E+03  0.00000000000E+00 0.  1.
         11    1    1    2    0    0 -0.35446953329E+02  0.56753222174E+02 -0.12104083919E+03  0.13830509564E+03  0.00000000000E+00 0. -1.
</event>
<event>
 7    1  0.2670433E-009  0.1026424E+03  0.7561462E-02  0.1274836E+00
          4   -1    0    0  501    0  0.00000000000E+00  0.00000000000E+00  0.50832878769E+03  0.50832878769E+03  0.00000000000E+00 0. -1.
         -4   -1    0    0    0  501 -0.00000000000E+00 -0.00000000000E+00 -0.28098159642E+02  0.28098159642E+02  0.00000000000E+00 0.  1.
         25    2    1    2    0    0 -0.27302092772E+02  0.11448016264E+02  0.18007028294E+03  0.22124610973E+03  0.12509225767E+03 0.  0.
          5    1    3    3  502    0 -0.48115429536E+02  0.49600293525E+02  0.15761572172E+03  0.17214956233E+03  0.41800000000E+01 0. -1.
         -5    1    3    3    0  502  0.20813336764E+02 -0.38152277261E+02  0.22454561221E+02  0.49096547405E+02  0.41800000000E+01 0. -1.
        -11    1    1    2    0    0  0.56901793603E+02 -0.21947118663E+02  0.15301700158E+03  0.16472307946E+03  0.00000000000E+00 0.  1.
         11    1    1    2    0    0 -0.29599700831E+02  0.10499102399E+02  0.14714334353E+03  0.15045775814E+03  0.00000000000E+00 0. -1.
</event>
<event>
 7    1  0.2670433E-009  0.9966164E+02  0.7561462E-02  0.1281009E+00
         -1   -1    0    0    0  501 -0.00000000000E+00  0.00000000000E+00  0.15165001407E+02  0.15165001407E+02  0.00000000000E+00 0.  1.
          1   -1    0    0  501    0  0.00000000000E+00 -0.00000000000E+00 -0.88512377261E+03  0.88512377261E+03  0.00000000000E+00 0. -1.
         25    2    1    2    0    0  0.15860240152E+02 -0.22790587380E+02 -0.61947212649E+03  0.63258661460E+03  0.12509656822E+03 0.  0.
          5    1    3    3  502    0 -0.30982515435E+02  0.23578984529E+02 -0.79815855634E+02  0.88904038067E+02  0.41800000000E+01 0.  1.
         -5    1    3    3    0  502  0.46842755586E+02 -0.46369571909E+02 -0.53965627085E+03  0.54368257653E+03  0.41800000000E+01 0.  1.
        -11    1    1    2    0    0  0.37284403818E+02  0.15893204458E+02 -0.96921058195E+02  0.10505432993E+03  0.00000000000E+00 0.  1.
         11    1    1    2    0    0 -0.53144643970E+02  0.68973829218E+01 -0.15356558652E+03  0.16264782949E+03  0.00000000000E+00 0. -1.
</event>
<event>
 7    1  0.2670433E-009  0.3617866E+03  0.7561462E-02  0.1057879E+00
         -1   -1    0    0    0  501 -0.00000000000E+00  0.00000000000E+00  0.18830765091E+03  0.18830765091E+03  0.00000000000E+00 0.  1.
          1   -1    0    0  501    0  0.00000000000E+00 -0.00000000000E+00 -0.85364542308E+03  0.85364542308E+03  0.00000000000E+00 0. -1.
         25    2    1    2    0    0  0.11878802819E+03 -0.33488475252E+03 -0.53197605425E+03  0.65184692549E+03  0.12508996305E+03 0.  0.
          5    1    3    3  502    0  0.13196216628E+03 -0.31668422856E+03 -0.44496444039E+03  0.56188409797E+03  0.41800000000E+01 0. -1.
         -5    1    3    3    0  502 -0.13174138081E+02 -0.18200523960E+02 -0.87011613867E+02  0.89962827514E+02  0.41800000000E+01 0. -1.
        -11    1    1    2    0    0 -0.96606250613E+02  0.21515446941E+03 -0.46129245724E+02  0.24031670910E+03  0.00000000000E+00 0.  1.
         11    1    1    2    0    0 -0.22181777581E+02  0.11973028312E+03 -0.87232472195E+02  0.14978943940E+03  0.00000000000E+00 0. -1.
</event>
<event>
 7    1  0.2670433E-009  0.1483700E+03  0.7561462E-02  0.1202490E+00
          2   -1    0    0  501    0  0.00000000000E+00  0.00000000000E+00  0.15446127731E+04  0.15446127731E+04  0.00000000000E+00 0. -1.
         -2   -1    0    0    0  501 -0.00000000000E+00 -0.00000000000E+00 -0.18973192991E+02  0.18973192991E+02  0.00000000000E+00 0.  1.
         25    2    1    2    0    0 -0.85037581182E+02  0.96073647599E+02  0.10900556077E+04  0.11046855357E+04  0.12508944373E+03 0.  0.
          5    1    3    3  502    0 -0.10535529910E+03  0.75157845787E+02  0.60326861830E+03  0.61700805429E+03  0.41800000000E+01 0.  1.
         -5    1    3    3    0  502  0.20317717918E+02  0.20915801812E+02  0.48678698943E+03  0.48767748145E+03  0.41800000000E+01 0.  1.
        -11    1    1    2    0    0 -0.64422669151E+00 -0.28945539170E+02  0.45629445009E+02  0.54039851200E+02  0.00000000000E+00 0.  1.
         11    1    1    2    0    0  0.85681807874E+02 -0.67128108430E+02  0.38995452736E+03  0.40486057915E+03  0.00000000000E+00 0. -1.
</event>
<event>
 7    1  0.2670433E-009  0.8858913E+02  0.7561462E-02  0.1306305E+00
          2   -1    0    0  501    0  0.00000000000E+00  0.00000000000E+00  0.17929374845E+03  0.17929374845E+03  0.00000000000E+00 0. -1.
         -2   -1    0    0    0  501 -0.00000000000E+00 -0.00000000000E+00 -0.86447341887E+02  0.86447341887E+02  0.00000000000E+00 0.  1.
         25    2    1    2    0    0 -0.53287244217E+02 -0.23215127094E+02  0.64303571165E+02  0.15218869721E+03  0.12509187732E+03 0.  0.
          5    1    3    3  502    0 -0.72483273704E+01  0.18227591333E+02  0.84541839079E+02  0.86888309284E+02  0.41800000000E+01 0.  1.
         -5    1    3    3    0  502 -0.46038916846E+02 -0.41442718427E+02 -0.20238267914E+02  0.65300387925E+02  0.41800000000E+01 0.  1.
        -11    1    1    2    0    0  0.40736286782E+02 -0.23251555311E+02 -0.14381983366E+02  0.49060384534E+02  0.00000000000E+00 0.  1.
         11    1    1    2    0    0  0.12550957435E+02  0.46466682405E+02  0.42924818761E+02  0.64492008589E+02  0.00000000000E+00 0. -1.
</event>
<event>
 7    1  0.2670433E-009  0.1262564E+03  0.7561462E-02  0.1233119E+00
          1   -1    0    0  501    0  0.00000000000E+00  0.00000000000E+00  0.14924298023E+02  0.14924298023E+02  0.00000000000E+00 0. -1.
         -1   -1    0    0    0  501 -0.00000000000E+00 -0.00000000000E+00 -0.11344958589E+04  0.11344958589E+04  0.00000000000E+00 0.  1.
         25    2    1    2    0    0  0.78821689890E+02 -0.15998345314E+02 -0.68992294833E+03  0.70576855316E+03  0.12508705024E+03 0.  0.
          5    1    3    3  502    0  0.64007358281E+02  0.46224512501E+02 -0.28335529102E+03  0.29417909650E+03  0.41800000000E+01 0. -1.
         -5    1    3    3    0  502  0.14814331609E+02 -0.62222857815E+02 -0.40656765732E+03  0.41158945666E+03  0.41800000000E+01 0. -1.
        -11    1    1    2    0    0 -0.58640118304E+02  0.45070596964E+02 -0.31988286960E+03  0.32832159912E+03  0.00000000000E+00 0. -1.
         11    1    1    2    0    0 -0.20181571586E+02 -0.29072251649E+02 -0.10976574295E+03  0.11533000465E+03  0.00000000000E+00 0.  1.
</event>
<event>
 7    1  0.3569291E-009  0.8602711E+02  0.7561462E-02  0.1312768E+00
          2   -1    0    0  501    0  0.00000000000E+00  0.00000000000E+00  0.15162467315E+03  0.15162467315E+03  0.00000000000E+00 0. -1.
         -2   -1    0    0    0  501 -0.00000000000E+00 -0.00000000000E+00 -0.10112625154E+03  0.10112625154E+03  0.00000000000E+00 0.  1.
         25    2    1    2    0    0 -0.32359735413E+01 -0.15901547769E+02 -0.29570277265E+02  0.12955616422E+03  0.12508823943E+03 0.  0.
          5    1    3    3  502    0  0.19812566253E+02 -0.57790291314E+02  0.16088701263E+02  0.63313302394E+02  0.41800000000E+01 0. -1.
         -5    1    3    3    0  502 -0.23048539794E+02  0.41888743545E+02 -0.45658978528E+02  0.66242861824E+02  0.41800000000E+01 0. -1.
        -11    1    1    2    0    0 -0.17936569747E+02  0.31690369673E+02 -0.25046761876E+01  0.36500321466E+02  0.00000000000E+00 0.  1.
         11    1    1    2    0    0  0.21172543289E+02 -0.15788821903E+02  0.82573375057E+02  0.86694439007E+02  0.00000000000E+00 0. -1.
</event>
<event>
 7    1  0.2670433E-009  0.1280465E+03  0.7561462E-02  0.1230383E+00
          4   -1    0    0  501    0  0.00000000000E+00  0.00000000000E+00  0.61476747751E+02  0.61476747751E+02  0.00000000000E+00 0. -1.
         -4   -1    0    0    0  501 -0.00000000000E+00 -0.00000000000E+00 -0.32287027997E+03  0.32287027997E+03  0.00000000000E+00 0.  1.
         25    2    1    2    0    0  0.43629762687E+01  0.86347860542E+02 -0.10712960439E+03  0.18600638534E+03  0.12508650874E+03 0.  0.
          5    1    3    3  502    0  0.13143317973E+02  0.11381104910E+03 -0.10707818507E+03  0.15687227869E+03  0.41800000000E+01 0.  1.
         -5    1    3    3    0  502 -0.87803417045E+01 -0.27463188556E+02 -0.51419318839E-01  0.29134106646E+02  0.41800000000E+01 0.  1.
        -11    1    1    2    0    0  0.20900619640E+02  0.14540099049E+01 -0.73397515592E+02  0.76329190624E+02  0.00000000000E+00 0.  1.
         11    1    1    2    0    0 -0.25263595909E+02 -0.87801870447E+02 -0.80866412235E+02  0.12201145176E+03  0.00000000000E+00 0. -1.
</event>
<event>
 7    1  0.2670433E-009  0.2033239E+03  0.7561462E-02  0.1146965E+00
          2   -1    0    0  501    0  0.00000000000E+00  0.00000000000E+00  0.27968064313E+03  0.27968064313E+03  0.00000000000E+00 0. -1.
         -2   -1    0    0    0  501 -0.00000000000E+00 -0.00000000000E+00 -0.19660877767E+03  0.19660877767E+03  0.00000000000E+00 0.  1.
         25    2    1    2    0    0  0.42772606752E+02  0.16745055438E+03 -0.37075174612E+02  0.21654510236E+03  0.12509208101E+03 0.  0.
          5    1    3    3  502    0  0.38426012290E+02  0.33665528621E+02 -0.61873570099E+02  0.80347603042E+02  0.41800000000E+01 0.  1.
         -5    1    3    3    0  502  0.43465944623E+01  0.13378502576E+03  0.24798395487E+02  0.13619749932E+03  0.41800000000E+01 0.  1.
        -11    1    1    2    0    0  0.50787478217E+02 -0.49532157314E+02  0.67070526330E+01  0.71258593214E+02  0.00000000000E+00 0.  1.
         11    1    1    2    0    0 -0.93560084970E+02 -0.11791839707E+03  0.11343998744E+03  0.18848572523E+03  0.00000000000E+00 0. -1.
</event>
<event>
 7    1  0.2670433E-009  0.1727262E+03  0.7561462E-02  0.1175034E+00
          2   -1    0    0  501    0  0.00000000000E+00  0.00000000000E+00  0.43542367221E+02  0.43542367221E+02  0.00000000000E+00 0. -1.
         -2   -1    0    0    0  501 -0.00000000000E+00 -0.00000000000E+00 -0.71324688330E+03  0.71324688330E+03  0.00000000000E+00 0.  1.
         25    2    1    2    0    0 -0.26622331755E+02  0.13616338479E+03 -0.33972277958E+03  0.38769469416E+03  0.12508554278E+03 0.  0.
          5    1    3    3  502    0  0.50388673431E+02  0.59074765317E+02 -0.14095357844E+03  0.16097897373E+03  0.41800000000E+01 0. -1.
         -5    1    3    3    0  502 -0.77011005186E+02  0.77088619469E+02 -0.19876920113E+03  0.22671572043E+03  0.41800000000E+01 0. -1.
        -11    1    1    2    0    0  0.53781277976E+02 -0.82090172185E+02 -0.25167634885E+03  0.27013368320E+03  0.00000000000E+00 0.  1.
         11    1    1    2    0    0 -0.27158946221E+02 -0.54073212601E+02 -0.78305387659E+02  0.98960873164E+02  0.00000000000E+00 0. -1.
</event>
<event>
 7    1  0.2670433E-009  0.1562201E+03  0.7561462E-02  0.1193032E+00
          2   -1    0    0  501    0  0.00000000000E+00  0.00000000000E+00  0.11656892514E+04  0.11656892514E+04  0.00000000000E+00 0. -1.
         -2   -1    0    0    0  501 -0.00000000000E+00 -0.00000000000E+00 -0.27732361981E+02  0.27732361981E+02  0.00000000000E+00 0.  1.
         25    2    1    2    0    0 -0.76952075104E+02  0.11806909964E+03  0.66159177707E+03  0.68790422937E+03  0.12508643066E+03 0.  0.
          5    1    3    3  502    0 -0.55295648976E+01  0.32829761693E+02  0.25480616263E+02  0.42131977712E+02  0.41800000000E+01 0.  1.
         -5    1    3    3    0  502 -0.71422510206E+02  0.85239337952E+02  0.63611116081E+03  0.64577225165E+03  0.41800000000E+01 0.  1.
        -11    1    1    2    0    0  0.55272014409E+02 -0.85165983170E+01  0.12783767606E+03  0.13953493987E+03  0.00000000000E+00 0.  1.
         11    1    1    2    0    0  0.21680060695E+02 -0.10955250133E+03  0.34852743626E+03  0.36598244412E+03  0.00000000000E+00 0. -1.
</event>
<event>
 7    1  0.2670433E-009  0.9368511E+02  0.7561462E-02  0.1294165E+00
         -2   -1    0    0    0  501 -0.00000000000E+00  0.00000000000E+00  0.15383399496E+03  0.15383399496E+03  0.00000000000E+00 0. -1.
          2   -1    0    0  501    0  0.00000000000E+00 -0.00000000000E+00 -0.92462233368E+02  0.92462233368E+02  0.00000000000E+00 0.  1.
         25    2    1    2    0    0  0.73084574607E+01  0.36257863344E+02  0.68739629682E+02  0.14744800716E+03  0.12509089464E+03 0.  0.
          5    1    3    3  502    0 -0.39057229013E+02  0.24875842642E+02 -0.16767967718E+02  0.49425821457E+02  0.41800000000E+01 0.  1.
         -5    1    3    3    0  502  0.46365686474E+02  0.11382020702E+02  0.85507597399E+02  0.98022185705E+02  0.41800000000E+01 0.  1.
        -11    1    1    2    0    0 -0.37660544592E+02 -0.47469296989E+02 -0.20443014192E+02  0.63949727168E+02  0.00000000000E+00 0.  1.
         11    1    1    2    0    0  0.30352087132E+02  0.11211433646E+02  0.13075146100E+02  0.34898493996E+02  0.00000000000E+00 0. -1.
</event>
<event>
 7    1  0.2670433E-009  0.1199594E+03  0.7561462E-02  0.1243164E+00
          2   -1    0    0  501    0  0.00000000000E+00  0.00000000000E+00  0.73234564673E+03  0.73234564673E+03  0.00000000000E+00 0. -1.
         -2   -1    0    0    0  501 -0.00000000000E+00 -0.00000000000E+00 -0.22469300713E+02  0.22469300713E+02  0.00000000000E+00 0.  1.
         25    2    1    2    0    0 -0.63586274175E+02  0.44837227655E+01  0.36242734839E+03  0.38867001543E+03  0.12508988769E+03 0.  0.
          5    1    3    3  502    0 -0.60772679731E+02  0.58007820483E+02  0.18392502017E+03  0.20224764840E+03  0.41800000000E+01 0.  1.
         -5    1    3    3    0  502 -0.28135944440E+01 -0.53524097717E+02  0.17850232822E+03  0.18642236703E+03  0.41800000000E+01 0.  1.
        -11    1    1    2    0    0  0.62967545807E+02  0.28453568367E+02  0.30323261935E+03  0.31100568936E+03  0.00000000000E+00 0. -1.
         11    1    1    2    0    0  0.61872836727E+00 -0.32937291132E+02  0.44216378279E+02  0.55139242650E+02  0.00000000000E+00 0.  1.
</event>
<event>
 7    1  0.2670433E-009  0.7916131E+02  0.7561462E-02  0.1331448E+00
         -2   -1    0    0    0  501 -0.00000000000E+00  0.00000000000E+00  0.15384215446E+03  0.15384215446E+03  0.00000000000E+00 0.  1.
          2   -1    0    0  501    0  0.00000000000E+00 -0.00000000000E+00 -0.10022913306E+03  0.10022913306E+03  0.00000000000E+00 0. -1.
         25    2    1    2    0    0 -0.49749321974E+02 -0.30772709208E+02  0.57721637925E+02  0.14967024999E+03  0.12508973411E+03 0.  0.
          5    1    3    3  502    0 -0.51673183178E+02 -0.20580254365E+02 -0.28561825276E+02  0.62665101871E+02  0.41800000000E+01 0.  1.
         -5    1    3    3    0  502  0.19238612037E+01 -0.10192454843E+02  0.86283463201E+02  0.87005148121E+02  0.41800000000E+01 0.  1.
        -11    1    1    2    0    0  0.65041070030E+02  0.37025438408E+02  0.17831707807E+02  0.76936296267E+02  0.00000000000E+00 0.  1.
         11    1    1    2    0    0 -0.15291748056E+02 -0.62527291999E+01 -0.21940324327E+02  0.27464741263E+02  0.00000000000E+00 0. -1.
</event>
<event>
 7    1  0.2670433E-009  0.1134890E+03  0.7561462E-02  0.1254242E+00
         -1   -1    0    0    0  501 -0.00000000000E+00  0.00000000000E+00  0.24708711203E+02  0.24708711203E+02  0.00000000000E+00 0. -1.
          1   -1    0    0  501    0  0.00000000000E+00 -0.00000000000E+00 -0.93747541053E+03  0.93747541053E+03  0.00000000000E+00 0.  1.
         25    2    1    2    0    0  0.28090159770E+02  0.10198144482E+03 -0.52373572888E+03  0.54875992775E+03  0.12509625267E+03 0.  0.
          5    1    3    3  502    0  0.11364540041E+01  0.31331981572E+02 -0.41526438633E+03  0.41646724667E+03  0.41800000000E+01 0.  1.
         -5    1    3    3    0  502  0.26953705766E+02  0.70649463246E+02 -0.10847134255E+03  0.13229268108E+03  0.41800000000E+01 0.  1.
        -11    1    1    2    0    0  0.32002214906E+01 -0.82910191066E+02 -0.35075503206E+03  0.36043506172E+03  0.00000000000E+00 0.  1.
         11    1    1    2    0    0 -0.31290381261E+02 -0.19071253752E+02 -0.38275938391E+02  0.52989132271E+02  0.00000000000E+00 0. -1.
</event>
<event>
 7    1  0.2670433E-009  0.1539326E+03  0.7561462E-02  0.1195722E+00
          1   -1    0    0  501    0  0.00000000000E+00  0.00000000000E+00  0.25956006661E+03  0.25956006661E+03  0.00000000000E+00 0. -1.
         -1   -1    0    0    0  501 -0.00000000000E+00 -0.00000000000E+00 -0.11167870140E+03  0.11167870140E+03  0.00000000000E+00 0.  1.
         25    2    1    2    0    0  0.53408671567E+02  0.10005719382E+03  0.15081385731E+03  0.22639900022E+03  0.12509100492E+03 0.  0.
          5    1    3    3  502    0  0.85172577238E+02  0.10548751374E+03  0.12951404123E+03  0.18754557511E+03  0.41800000000E+01 0.  1.
         -5    1    3    3    0  502 -0.31763905670E+02 -0.54303199205E+01  0.21299816078E+02  0.38853425110E+02  0.41800000000E+01 0.  1.
        -11    1    1    2    0    0 -0.68744668516E+02 -0.10326847892E+03 -0.15139075120E+02  0.12497759713E+03  0.00000000000E+00 0.  1.
         11    1    1    2    0    0  0.15335996948E+02  0.32112851024E+01  0.12206583021E+02  0.19862170663E+02  0.00000000000E+00 0. -1.
</event>
<event>
 7    1  0.2670433E-009  0.8637976E+02  0.7561462E-02  0.1311863E+00
         -1   -1    0    0    0  501 -0.00000000000E+00  0.00000000000E+00  0.98769406730E+02  0.98769406730E+02  0.00000000000E+00 0.  1.
          1   -1    0    0  501    0  0.00000000000E+00 -0.00000000000E+00 -0.15825151023E+03  0.15825151023E+03  0.00000000000E+00 0. -1.
         25    2    1    2    0    0  0.26202205495E+02 -0.31521157162E+02 -0.77095392723E+02  0.15254818718E+03  0.12508841238E+03 0.  0.
          5    1    3    3  502    0  0.44410526760E+02  0.38523234350E+02 -0.38775907728E+02  0.70550534313E+02  0.41800000000E+01 0. -1.
         -5    1    3    3    0  502 -0.18208321264E+02 -0.70044391512E+02 -0.38319484995E+02  0.81997652868E+02  0.41800000000E+01 0. -1.
        -11    1    1    2    0    0 -0.10315714538E+02  0.16528946555E+02  0.56558200426E+02  0.59820147743E+02  0.00000000000E+00 0.  1.
         11    1    1    2    0    0 -0.15886490958E+02  0.14992210607E+02 -0.38944911205E+02  0.44652582037E+02  0.00000000000E+00 0. -1.
</event>
<event>
 7    1  0.2670433E-009  0.1060104E+03  0.7561462E-02  0.1268142E+00
         -1   -1    0    0    0  501 -0.00000000000E+00  0.00000000000E+00  0.45671794876E+03  0.45671794876E+03  0.00000000000E+00 0.  1.
          1   -1    0    0  501    0  0.00000000000E+00 -0.00000000000E+00 -0.39950893001E+02  0.39950893001E+02  0.00000000000E+00 0. -1.
         25    2    1    2    0    0 -0.38447742595E+02 -0.33316900600E+02  0.36182892383E+03  0.38620758749E+03  0.12509150946E+03 0.  0.
          5    1    3    3  502    0 -0.75687186780E+02  0.33217165054E+00  0.14514210166E+03  0.16374480955E+03  0.41800000000E+01 0.  1.
         -5    1    3    3    0  502  0.37239444184E+02 -0.33649072251E+02  0.21668682216E+03  0.22246277793E+03  0.41800000000E+01 0.  1.
        -11    1    1    2    0    0 -0.17393182495E+02  0.23372799109E+02  0.43884091133E+02  0.52674699715E+02  0.00000000000E+00 0. -1.
         11    1    1    2    0    0  0.55840925091E+02  0.99441014908E+01  0.11054040796E+02  0.57786554555E+02  0.00000000000E+00 0.  1.
</event>
<event>
 7    1  0.2670433E-009  0.1412650E+03  0.7561462E-02  0.1211637E+00
          3   -1    0    0  501    0  0.00000000000E+00  0.00000000000E+00  0.69519602525E+02  0.69519602525E+02  0.00000000000E+00 0. -1.
         -3   -1    0    0    0  501 -0.00000000000E+00 -0.00000000000E+00 -0.66759128587E+03  0.66759128587E+03  0.00000000000E+00 0.  1.
         25    2    1    2    0    0  0.91002704857E+02  0.73764799995E+02 -0.55461499056E+03  0.58048984152E+03  0.12509168776E+03 0.  0.
          5    1    3    3  502    0  0.56800972732E+02 -0.10850070259E+02 -0.90580938847E+02  0.10754744725E+03  0.41800000000E+01 0. -1.
         -5    1    3    3    0  502  0.34201732124E+02  0.84614870254E+02 -0.46403405171E+03  0.47294239427E+03  0.41800000000E+01 0. -1.
        -11    1    1    2    0    0  0.96831954721E+01 -0.10472085837E+02 -0.34529785855E+02  0.37359536500E+02  0.00000000000E+00 0.  1.
         11    1    1    2    0    0 -0.10068590033E+03 -0.63292714158E+02 -0.89269069361E+01  0.11926151038E+03  0.00000000000E+00 0. -1.
</event>
<event>
 7    1  0.2670433E-009  0.1430826E+03  0.7561462E-02  0.1209240E+00
          2   -1    0    0  501    0  0.00000000000E+00  0.00000000000E+00  0.44720757199E+03  0.44720757199E+03  0.00000000000E+00 0. -1.
         -2   -1    0    0    0  501 -0.00000000000E+00 -0.00000000000E+00 -0.58705075766E+02  0.58705075766E+02  0.00000000000E+00 0.  1.
         25    2    1    2    0    0 -0.11718840671E+03  0.10922570847E+01  0.16075112817E+03  0.23499668558E+03  0.12509277089E+03 0.  0.
          5    1    3    3  502    0 -0.12316848878E+03  0.24364609135E+02  0.76042793561E+02  0.14684716428E+03  0.41800000000E+01 0.  1.
         -5    1    3    3    0  502  0.59800820623E+01 -0.23272352051E+02  0.84708334612E+02  0.88149521293E+02  0.41800000000E+01 0.  1.
        -11    1    1    2    0    0  0.76735448506E+02 -0.34070655217E+02  0.87488920759E+02  0.12125778268E+03  0.00000000000E+00 0.  1.
         11    1    1    2    0    0  0.40452958207E+02  0.32978398133E+02  0.14026244729E+03  0.14965817950E+03  0.00000000000E+00 0. -1.
</event>
<event>
 7    1  0.2670433E-009  0.1025026E+03  0.7561462E-02  0.1275120E+00
          2   -1    0    0  501    0  0.00000000000E+00  0.00000000000E+00  0.48332666890E+03  0.48332666890E+03  0.00000000000E+00 0. -1.
         -2   -1    0    0    0  501 -0.00000000000E+00 -0.00000000000E+00 -0.48112516342E+02  0.48112516342E+02  0.00000000000E+00 0.  1.
         25    2    1    2    0    0  0.61988365104E+02 -0.65520639716E+02  0.33668831010E+03  0.37032528224E+03  0.12508511051E+03 0.  0.
          5    1    3    3  502    0  0.77450592873E+02 -0.59128446818E+02  0.33915879031E+03  0.35290356332E+03  0.41800000000E+01 0. -1.
         -5    1    3    3    0  502 -0.15462227768E+02 -0.63921928983E+01 -0.24704802118E+01  0.17421718919E+02  0.41800000000E+01 0. -1.
        -11    1    1    2    0    0 -0.26662023797E+02  0.29911478515E+02 -0.10224455555E+02  0.41353349940E+02  0.00000000000E+00 0.  1.
         11    1    1    2    0    0 -0.35326341308E+02  0.35609161202E+02  0.10875029802E+03  0.11976055307E+03  0.00000000000E+00 0. -1.
</event>
<event>
 7    1  0.2670433E-009  0.8323600E+02  0.7561462E-02  0.1320111E+00
         -1   -1    0    0    0  501 -0.00000000000E+00  0.00000000000E+00  0.47267595163E+02  0.47267595163E+02  0.00000000000E+00 0.  1.
          1   -1    0    0  501    0  0.00000000000E+00 -0.00000000000E+00 -0.25318652650E+03  0.25318652650E+03  0.00000000000E+00 0. -1.
         25    2    1    2    0    0  0.77794671949E+01  0.73926572803E+01 -0.13713768647E+03  0.18592810631E+03  0.12508934477E+03 0.  0.
          5    1    3    3  502    0  0.54803746237E+02 -0.21596547409E+02 -0.10858242555E+03  0.12360209141E+03  0.41800000000E+01 0.  1.
         -5    1    3    3    0  502 -0.47024279042E+02  0.28989204690E+02 -0.28555260915E+02  0.62326014905E+02  0.41800000000E+01 0.  1.
        -11    1    1    2    0    0 -0.27905775704E+02  0.50466318373E+01 -0.82457402221E+02  0.87197614598E+02  0.00000000000E+00 0. -1.
         11    1    1    2    0    0  0.20126308509E+02 -0.12439289118E+02  0.13676157349E+02  0.27328400755E+02  0.00000000000E+00 0.  1.
</event>
<event>
 7    1  0.2670433E-009  0.1091847E+03  0.7561462E-02  0.1262087E+00
         -1   -1    0    0    0  501 -0.00000000000E+00  0.00000000000E+00  0.43186509054E+02  0.43186509054E+02  0.00000000000E+00 0.  1.
          1   -1    0    0  501    0  0.00000000000E+00 -0.00000000000E+00 -0.67662190447E+03  0.67662190447E+03  0.00000000000E+00 0. -1.
         25    2    1    2    0    0 -0.89896091655E+02 -0.61508374147E+02 -0.48829109278E+03  0.51569404793E+03  0.12509025697E+03 0.  0.
          5    1    3    3  502    0 -0.60458965053E+02 -0.41767454545E+02 -0.92091607606E+02  0.11789038683E+03  0.41800000000E+01 0. -1.
         -5    1    3    3    0  502 -0.29437126603E+02 -0.19740919602E+02 -0.39619948518E+03  0.39780366110E+03  0.41800000000E+01 0. -1.
        -11    1    1    2    0    0  0.35527923906E+02  0.20912111067E+02  0.28325292905E+01  0.41322790184E+02  0.00000000000E+00 0.  1.
         11    1    1    2    0    0  0.54368167749E+02  0.40596263080E+02 -0.14797683192E+03  0.16279157541E+03  0.00000000000E+00 0. -1.
</event>
<event>
 7    1  0.2670433E-009  0.7960080E+02  0.7561462E-02  0.1330188E+00
         -2   -1    0    0    0  501 -0.00000000000E+00  0.00000000000E+00  0.49964689427E+02  0.49964689427E+02  0.00000000000E+00 0. -1.
          2   -1    0    0  501    0  0.00000000000E+00 -0.00000000000E+00 -0.24006753749E+03  0.24006753749E+03  0.00000000000E+00 0.  1.
         25    2    1    2    0    0  0.27007213515E+01  0.30372454984E+02 -0.12323056320E+03  0.17822263885E+03  0.12509099638E+03 0.  0.
          5    1    3    3  502    0 -0.34744891085E+02  0.44580266737E+02 -0.12569276197E+03  0.13787947799E+03  0.41800000000E+01 0. -1.
         -5    1    3    3    0  502  0.37445612436E+02 -0.14207811753E+02  0.24621987702E+01  0.40343160862E+02  0.41800000000E+01 0. -1.
        -11    1    1    2    0    0  0.24693464366E+02 -0.55911063808E+01 -0.70291025798E+02  0.74711819418E+02  0.00000000000E+00 0.  1.
         11    1    1    2    0    0 -0.27394185717E+02 -0.24781348603E+02  0.34187409287E+01  0.37097768656E+02  0.00000000000E+00 0. -1.
</event>
<event>
 7    1  0.2670433E-009  0.3135947E+03  0.7561462E-02  0.1078636E+00
         -1   -1    0    0    0  501 -0.00000000000E+00  0.00000000000E+00  0.12122462390E+03  0.12122462390E+03  0.00000000000E+00 0.  1.
          1   -1    0    0  501    0  0.00000000000E+00 -0.00000000000E+00 -0.89806957627E+03  0.89806957627E+03  0.00000000000E+00 0. -1.
         25    2    1    2    0    0  0.13989805364E+03 -0.26185472355E+03 -0.54144827323E+03  0.63004257395E+03  0.12509216904E+03 0.  0.
          5    1    3    3  502    0  0.13393611125E+02 -0.15634024409E+03 -0.24834254300E+03  0.29379100021E+03  0.41800000000E+01 0.  1.
         -5    1    3    3    0  502  0.12650444252E+03 -0.10551447945E+03 -0.29310573023E+03  0.33625157374E+03  0.41800000000E+01 0.  1.
        -11    1    1    2    0    0 -0.14832498710E+03  0.24159437118E+03 -0.19765481180E+03  0.34559451183E+03  0.00000000000E+00 0.  1.
         11    1    1    2    0    0  0.84269334595E+01  0.20260352368E+02 -0.37741867344E+02  0.43657114383E+02  0.00000000000E+00 0. -1.
</event>
<event>
 7    1  0.2670433E-009  0.1122534E+03  0.7561462E-02  0.1256453E+00
          1   -1    0    0  501    0  0.00000000000E+00  0.00000000000E+00  0.91787369354E+02  0.91787369354E+02  0.00000000000E+00 0. -1.
         -1   -1    0    0    0  501 -0.00000000000E+00 -0.00000000000E+00 -0.15123669252E+03  0.15123669252E+03  0.00000000000E+00 0.  1.
         25    2    1    2    0    0  0.84677689603E+01 -0.12255061901E+02 -0.18149038891E+01  0.12598556762E+03  0.12508868741E+03 0.  0.
          5    1    3    3  502    0 -0.58148138580E+02 -0.15684863805E+01  0.10358871542E+01  0.58328480454E+02  0.41800000000E+01 0.  1.
         -5    1    3    3    0  502  0.66615907541E+02 -0.10686575521E+02 -0.28507910433E+01  0.67657087163E+02  0.41800000000E+01 0.  1.
        -11    1    1    2    0    0 -0.32817802382E+02  0.46289394857E+02 -0.47453212303E+02  0.73969747784E+02  0.00000000000E+00 0.  1.
         11    1    1    2    0    0  0.24350033421E+02 -0.34034332956E+02 -0.10181206974E+02  0.43068746473E+02  0.00000000000E+00 0. -1.
</event>
<event>
 7    1  0.2670433E-009  0.1084911E+03  0.7561462E-02  0.1263390E+00
          1   -1    0    0  501    0  0.00000000000E+00  0.00000000000E+00  0.56965704267E+03  0.56965704267E+03  0.00000000000E+00 0. -1.
         -1   -1    0    0    0  501 -0.00000000000E+00 -0.00000000000E+00 -0.22670681196E+02  0.22670681196E+02  0.00000000000E+00 0.  1.
         25    2    1    2    0    0  0.22958994803E+02  0.21404103651E+02  0.27794893292E+03  0.30641314627E+03  0.12509258891E+03 0.  0.
          5    1    3    3  502    0 -0.17762081395E+01  0.68948324871E+02  0.20101189332E+03  0.21255653383E+03  0.41800000000E+01 0.  1.
         -5    1    3    3    0  502  0.24735202943E+02 -0.47544221220E+02  0.76937039592E+02  0.93856612432E+02  0.41800000000E+01 0.  1.
        -11    1    1    2    0    0 -0.11709013294E+02 -0.56278676158E+02  0.13024600716E+03  0.14236717587E+03  0.00000000000E+00 0.  1.
         11    1    1    2    0    0 -0.11249981510E+02  0.34874572507E+02  0.13879142140E+03  0.14354740174E+03  0.00000000000E+00 0. -1.
</event>
<event>
 7    1  0.2670433E-009  0.1014483E+03  0.7561462E-02  0.1277280E+00
         -2   -1    0    0    0  501 -0.00000000000E+00  0.00000000000E+00  0.33859598966E+02  0.33859598966E+02  0.00000000000E+00 0.  1.
          2   -1    0    0  501    0  0.00000000000E+00 -0.00000000000E+00 -0.52443957074E+03  0.52443957074E+03  0.00000000000E+00 0. -1.
         25    2    1    2    0    0 -0.37598122171E+02  0.49017015263E+02 -0.36183104840E+03  0.38779571771E+03  0.12509006558E+03 0.  0.
          5    1    3    3  502    0 -0.65031563084E+02  0.17204427690E+02 -0.32455303803E+03  0.33147736487E+03  0.41800000000E+01 0.  1.
         -5    1    3    3    0  502  0.27433440913E+02  0.31812587573E+02 -0.37278010375E+02  0.56318352834E+02  0.41800000000E+01 0.  1.
        -11    1    1    2    0    0  0.36709994349E+01  0.17891521738E+02 -0.77567051794E+02  0.79688332339E+02  0.00000000000E+00 0. -1.
         11    1    1    2    0    0  0.33927122736E+02 -0.66908537001E+02 -0.51181871574E+02  0.90815119658E+02  0.00000000000E+00 0.  1.
</event>
<event>
 7    1  0.2670433E-009  0.1726296E+03  0.7561462E-02  0.1175133E+00
         -1   -1    0    0    0  501 -0.00000000000E+00  0.00000000000E+00  0.75951416380E+02  0.75951416380E+02  0.00000000000E+00 0.  1.
          1   -1    0    0  501    0  0.00000000000E+00 -0.00000000000E+00 -0.46245925862E+03  0.46245925862E+03  0.00000000000E+00 0. -1.
         25    2    1    2    0    0  0.10728413891E+02 -0.14944084912E+03 -0.16474620758E+03  0.25542278213E+03  0.12510722789E+03 0.  0.
          5    1    3    3  502    0 -0.30981385568E+02 -0.28396087375E+02  0.52589485560E+01  0.42559522669E+02  0.41800000000E+01 0.  1.
         -5    1    3    3    0  502  0.41709799459E+02 -0.12104476174E+03 -0.17000515614E+03  0.21286325946E+03  0.41800000000E+01 0.  1.
        -11    1    1    2    0    0 -0.36538093202E+02  0.17547450146E+02 -0.63837086150E+02  0.75618244026E+02  0.00000000000E+00 0. -1.
         11    1    1    2    0    0  0.25809679311E+02  0.13189339897E+03 -0.15792454850E+03  0.20736964884E+03  0.00000000000E+00 0.  1.
</event>
<event>
 7    1  0.2670433E-009  0.1163296E+03  0.7561462E-02  0.1249278E+00
         -2   -1    0    0    0  501 -0.00000000000E+00  0.00000000000E+00  0.29300304695E+03  0.29300304695E+03  0.00000000000E+00 0.  1.
          2   -1    0    0  501    0  0.00000000000E+00 -0.00000000000E+00 -0.49522059210E+02  0.49522059210E+02  0.00000000000E+00 0. -1.
         25    2    1    2    0    0 -0.31763131812E+02 -0.33013947202E+02  0.17122572009E+03  0.21694408746E+03  0.12509065756E+03 0.  0.
          5    1    3    3  502    0 -0.78126304226E+02 -0.40284231244E+01  0.10321417967E+03  0.12957849702E+03  0.41800000000E+01 0.  1.
         -5    1    3    3    0  502  0.46363172413E+02 -0.28985524077E+02  0.68011540421E+02  0.87365590439E+02  0.41800000000E+01 0.  1.
        -11    1    1    2    0    0  0.60541133004E+02  0.36180053173E+02  0.64581941781E+02  0.95629766481E+02  0.00000000000E+00 0.  1.
         11    1    1    2    0    0 -0.28778001192E+02 -0.31661059710E+01  0.76733258644E+01  0.29951252218E+02  0.00000000000E+00 0. -1.
</event>
<event>
 7    1  0.2670433E-009  0.1195440E+03  0.7561462E-02  0.1243851E+00
         -1   -1    0    0    0  501 -0.00000000000E+00  0.00000000000E+00  0.14875473225E+02  0.14875473225E+02  0.00000000000E+00 0.  1.
          1   -1    0    0  501    0  0.00000000000E+00 -0.00000000000E+00 -0.14527551939E+04  0.14527551939E+04  0.00000000000E+00 0. -1.
         25    2    1    2    0    0  0.47410007524E+02 -0.67727606710E+02 -0.10461878966E+04  0.10568785245E+04  0.12509341734E+03 0.  0.
          5    1    3    3  502    0  0.26256226343E+01 -0.75218348582E+02 -0.91289552505E+03  0.91600240497E+03  0.41800000000E+01 0.  1.
         -5    1    3    3    0  502  0.44784384890E+02  0.74907418717E+01 -0.13329237156E+03  0.14087611955E+03  0.41800000000E+01 0.  1.
        -11    1    1    2    0    0 -0.71112091333E+02  0.60398295181E+02 -0.24871724265E+03  0.26564101789E+03  0.00000000000E+00 0.  1.
         11    1    1    2    0    0  0.23702083808E+02  0.73293115295E+01 -0.14297458145E+03  0.14511112474E+03  0.00000000000E+00 0. -1.
</event>
<event>
 7    1  0.2670433E-009  0.1841535E+03  0.7561462E-02  0.1163843E+00
         -1   -1    0    0    0  501 -0.00000000000E+00  0.00000000000E+00  0.60232242753E+03  0.60232242753E+03  0.00000000000E+00 0.  1.
          1   -1    0    0  501    0  0.00000000000E+00 -0.00000000000E+00 -0.10833193769E+03  0.10833193769E+03  0.00000000000E+00 0. -1.
         25    2    1    2    0    0  0.14274113242E+03  0.83746860892E+02  0.47704446431E+03  0.52019970339E+03  0.12509093846E+03 0.  0.
          5    1    3    3  502    0  0.10451405083E+03 -0.52768445489E+01  0.30794901558E+03  0.32527081102E+03  0.41800000000E+01 0. -1.
         -5    1    3    3    0  502  0.38227081594E+02  0.89023705441E+02  0.16909544873E+03  0.19492889237E+03  0.41800000000E+01 0. -1.
        -11    1    1    2    0    0 -0.66027594082E+02 -0.27734061100E+02 -0.37635886116E+02  0.80902912489E+02  0.00000000000E+00 0. -1.
         11    1    1    2    0    0 -0.76713538339E+02 -0.56012799792E+02  0.54581911655E+02  0.10955174935E+03  0.00000000000E+00 0.  1.
</event>
<event>
 7    1  0.2670433E-009  0.2402612E+03  0.7561462E-02  0.1119619E+00
         -3   -1    0    0    0  501 -0.00000000000E+00  0.00000000000E+00  0.10215523697E+04  0.10215523697E+04  0.00000000000E+00 0.  1.
          3   -1    0    0  501    0  0.00000000000E+00 -0.00000000000E+00 -0.63082304978E+02  0.63082304978E+02  0.00000000000E+00 0. -1.
         25    2    1    2    0    0 -0.21813892238E+03  0.21732837352E+02  0.35119054914E+03  0.43248511878E+03  0.12510663648E+03 0.  0.
          5    1    3    3  502    0  0.12880026817E+01 -0.20514803655E+02  0.70290587097E+01  0.22122300654E+02  0.41800000000E+01 0. -1.
         -5    1    3    3    0  502 -0.21942692506E+03  0.42247641007E+02  0.34416149043E+03  0.41036281813E+03  0.41800000000E+01 0. -1.
        -11    1    1    2    0    0  0.15410407526E+03  0.25869637457E+02  0.43715283797E+03  0.46424121736E+03  0.00000000000E+00 0.  1.
         11    1    1    2    0    0  0.64034847117E+02 -0.47602474809E+02  0.17012667766E+03  0.18790833857E+03  0.00000000000E+00 0. -1.
</event>
<event>
 7    1  0.2670433E-009  0.1349434E+03  0.7561462E-02  0.1220300E+00
         -3   -1    0    0    0  501 -0.00000000000E+00  0.00000000000E+00  0.11917167322E+03  0.11917167322E+03  0.00000000000E+00 0.  1.
          3   -1    0    0  501    0  0.00000000000E+00 -0.00000000000E+00 -0.17100105730E+03  0.17100105730E+03  0.00000000000E+00 0. -1.
         25    2    1    2    0    0  0.57055602559E+02 -0.54348902923E+02 -0.74535524211E+02  0.16556642375E+03  0.12509017257E+03 0.  0.
          5    1    3    3  502    0  0.74837178552E+01 -0.87286134260E+02 -0.50795879100E+02  0.10135368272E+03  0.41800000000E+01 0.  1.
         -5    1    3    3    0  502  0.49571884704E+02  0.32937231337E+02 -0.23739645111E+02  0.64212741035E+02  0.41800000000E+01 0.  1.
        -11    1    1    2    0    0 -0.72510149971E+02  0.69812220269E+02  0.18341797191E+02  0.10231270435E+03  0.00000000000E+00 0.  1.
         11    1    1    2    0    0  0.15454547412E+02 -0.15463317345E+02  0.43643429390E+01  0.22293602408E+02  0.00000000000E+00 0. -1.
</event>
<event>
 7    1  0.2670433E-009  0.9197863E+02  0.7561462E-02  0.1298130E+00
          2   -1    0    0  501    0  0.00000000000E+00  0.00000000000E+00  0.86977024771E+02  0.86977024771E+02  0.00000000000E+00 0. -1.
         -2   -1    0    0    0  501 -0.00000000000E+00 -0.00000000000E+00 -0.20722844514E+03  0.20722844514E+03  0.00000000000E+00 0.  1.
         25    2    1    2    0    0 -0.15930853998E+02 -0.38174372597E+02  0.13479513435E+02  0.13244007722E+03  0.12509037509E+03 0.  0.
          5    1    3    3  502    0 -0.51531414458E+02 -0.16305307711E+02 -0.37855131029E+02  0.66119838784E+02  0.41800000000E+01 0.  1.
         -5    1    3    3    0  502  0.35600560459E+02 -0.21869064886E+02  0.51334644464E+02  0.66320238436E+02  0.41800000000E+01 0.  1.
        -11    1    1    2    0    0 -0.29210412324E+02  0.30017633039E+02 -0.85474078709E+02  0.95184686859E+02  0.00000000000E+00 0.  1.
         11    1    1    2    0    0  0.45141266322E+02  0.81567395574E+01 -0.48256855096E+02  0.66580705833E+02  0.00000000000E+00 0. -1.
</event>
<event>
 7    1  0.2670433E-009  0.1584279E+03  0.7561462E-02  0.1190483E+00
          2   -1    0    0  501    0  0.00000000000E+00  0.00000000000E+00  0.26839270504E+03  0.26839270504E+03  0.00000000000E+00 0. -1.
         -2   -1    0    0    0  501 -0.00000000000E+00 -0.00000000000E+00 -0.14692580621E+03  0.14692580621E+03  0.00000000000E+00 0.  1.
         25    2    1    2    0    0 -0.24947720818E+02  0.11553098940E+03  0.18511049266E+03  0.25275047689E+03  0.12508841188E+03 0.  0.
          5    1    3    3  502    0 -0.18302898497E+02 -0.23641568924E+02  0.51310316920E+02  0.59532687635E+02  0.41800000000E+01 0.  1.
         -5    1    3    3    0  502 -0.66448223215E+01  0.13917255832E+03  0.13380017574E+03  0.19321778925E+03  0.41800000000E+01 0.  1.
        -11    1    1    2    0    0  0.26939344588E+02 -0.12995201443E+03 -0.65311319460E+02  0.14791491740E+03  0.00000000000E+00 0.  1.
         11    1    1    2    0    0 -0.19916237697E+01  0.14421025027E+02  0.16677256295E+01  0.14653116967E+02  0.00000000000E+00 0. -1.
</event>
<event>
 7    1  0.2670433E-009  0.1512203E+03  0.7561462E-02  0.1198982E+00
          1   -1    0    0  501    0  0.00000000000E+00  0.00000000000E+00  0.57970138030E+03  0.57970138030E+03  0.00000000000E+00 0. -1.
         -1   -1    0    0    0  501 -0.00000000000E+00 -0.00000000000E+00 -0.41274583760E+02  0.41274583760E+02  0.00000000000E+00 0.  1.
         25    2    1    2    0    0 -0.74411106813E+02 -0.78407939516E+02  0.32901878034E+03  0.36821865533E+03  0.12508717969E+03 0.  0.
          5    1    3    3  502    0 -0.69770873647E+02  0.12598161715E+02  0.10967557053E+03  0.13066327586E+03  0.41800000000E+01 0.  1.
         -5    1    3    3    0  502 -0.46402331658E+01 -0.91006101231E+02  0.21934320981E+03  0.23755537947E+03  0.41800000000E+01 0.  1.
        -11    1    1    2    0    0 -0.96010987028E+00  0.63325340612E+02  0.11209162033E+03  0.12874607537E+03  0.00000000000E+00 0.  1.
         11    1    1    2    0    0  0.75371216684E+02  0.15082598904E+02  0.97316395860E+02  0.12401123335E+03  0.00000000000E+00 0. -1.
</event>
<event>
 7    1  0.2670433E-009  0.8577680E+02  0.7561462E-02  0.1313414E+00
         -3   -1    0    0    0  501 -0.00000000000E+00  0.00000000000E+00  0.27769691852E+03  0.27769691852E+03  0.00000000000E+00 0.  1.
          3   -1    0    0  501    0  0.00000000000E+00 -0.00000000000E+00 -0.39194457410E+02  0.39194457410E+02  0.00000000000E+00 0. -1.
         25    2    1    2    0    0  0.13620745142E+02 -0.26838449513E+01  0.13932734529E+03  0.18775522858E+03  0.12508872448E+03 0.  0.
          5    1    3    3  502    0 -0.53832396781E+02 -0.70868231152E+01  0.84923793912E+02  0.10088445459E+03  0.41800000000E+01 0.  1.
         -5    1    3    3    0  502  0.67453141922E+02  0.44029781639E+01  0.54403551379E+02  0.86870773995E+02  0.41800000000E+01 0.  1.
        -11    1    1    2    0    0 -0.15716480399E+02  0.23597293295E+02  0.10381078010E+03  0.10761281556E+03  0.00000000000E+00 0.  1.
         11    1    1    2    0    0  0.20957352576E+01 -0.20913448344E+02 -0.46356642833E+01  0.21523331788E+02  0.00000000000E+00 0. -1.
</event>
<event>
 7    1  0.2670433E-009  0.2031966E+03  0.7561462E-02  0.1147070E+00
         -2   -1    0    0    0  501 -0.00000000000E+00  0.00000000000E+00  0.82769623279E+02  0.82769623279E+02  0.00000000000E+00 0. -1.
          2   -1    0    0  501    0  0.00000000000E+00 -0.00000000000E+00 -0.67158143118E+03  0.67158143118E+03  0.00000000000E+00 0.  1.
         25    2    1    2    0    0  0.18164475617E+03  0.59106491650E+02 -0.16778016053E+03  0.28334625275E+03  0.12508605790E+03 0.  0.
          5    1    3    3  502    0  0.11888718199E+03 -0.10979690999E+02 -0.14228028702E+03  0.18578446687E+03  0.41800000000E+01 0.  1.
         -5    1    3    3    0  502  0.62757574179E+02  0.70086182649E+02 -0.25499873509E+02  0.97561785880E+02  0.41800000000E+01 0.  1.
        -11    1    1    2    0    0 -0.91125188280E+02 -0.43213569432E+02 -0.12264864622E+03  0.15878886278E+03  0.00000000000E+00 0. -1.
         11    1    1    2    0    0 -0.90519567889E+02 -0.15892922217E+02 -0.29838300115E+03  0.31221593893E+03  0.00000000000E+00 0.  1.
</event>
<event>
 7    1  0.2670433E-009  0.1109778E+03  0.7561462E-02  0.1258770E+00
         -2   -1    0    0    0  501 -0.00000000000E+00  0.00000000000E+00  0.11496972621E+03  0.11496972621E+03  0.00000000000E+00 0.  1.
          2   -1    0    0  501    0  0.00000000000E+00 -0.00000000000E+00 -0.27841899977E+03  0.27841899977E+03  0.00000000000E+00 0. -1.
         25    2    1    2    0    0 -0.96311170070E+01 -0.79083864767E+02  0.46830982438E+02  0.15552226516E+03  0.12508804085E+03 0.  0.
          5    1    3    3  502    0  0.51500078348E+02 -0.27857280316E+02 -0.71348323953E+01  0.59132599890E+02  0.41800000000E+01 0. -1.
         -5    1    3    3    0  502 -0.61131195355E+02 -0.51226584451E+02  0.53965814833E+02  0.96389665269E+02  0.41800000000E+01 0. -1.
        -11    1    1    2    0    0 -0.82342174331E+01  0.19066114390E+02 -0.25754186058E+01  0.20927298814E+02  0.00000000000E+00 0.  1.
         11    1    1    2    0    0  0.17865334440E+02  0.60017750377E+02 -0.20770483739E+03  0.21693916200E+03  0.00000000000E+00 0. -1.
</event>
<event>
 7    1  0.2670433E-009  0.1837100E+03  0.7561462E-02  0.1164260E+00
         -1   -1    0    0    0  501 -0.00000000000E+00  0.00000000000E+00  0.44652368877E+02  0.44652368877E+02  0.00000000000E+00 0.  1.
          1   -1    0    0  501    0  0.00000000000E+00 -0.00000000000E+00 -0.92090985616E+03  0.92090985616E+03  0.00000000000E+00 0. -1.
         25    2    1    2    0    0 -0.15423005545E+02  0.16173191562E+03 -0.32802689925E+03  0.38683884138E+03  0.12509021122E+03 0.  0.
          5    1    3    3  502    0 -0.51201888635E+02  0.58230382808E+02 -0.21854651783E+03  0.23193202396E+03  0.41800000000E+01 0. -1.
         -5    1    3    3    0  502  0.35778883090E+02  0.10350153281E+03 -0.10948038141E+03  0.15490681742E+03  0.41800000000E+01 0. -1.
        -11    1    1    2    0    0 -0.31621271168E+02 -0.53211815835E+02 -0.25790646293E+03  0.26523036356E+03  0.00000000000E+00 0. -1.
         11    1    1    2    0    0  0.47044276713E+02 -0.10852009978E+03 -0.29032412510E+03  0.31349302009E+03  0.00000000000E+00 0.  1.
</event>
<event>
 7    1  0.2670433E-009  0.1817543E+03  0.7561462E-02  0.1166116E+00
          2   -1    0    0  501    0  0.00000000000E+00  0.00000000000E+00  0.48003736170E+03  0.48003736170E+03  0.00000000000E+00 0. -1.
         -2   -1    0    0    0  501 -0.00000000000E+00 -0.00000000000E+00 -0.80513291294E+02  0.80513291294E+02  0.00000000000E+00 0.  1.
         25    2    1    2    0    0 -0.89094813485E+02 -0.13153214746E+03  0.24552006350E+03  0.31806953043E+03  0.12509809351E+03 0.  0.
          5    1    3    3  502    0 -0.40406577704E+02  0.15601333414E+02  0.81394734794E+02  0.92296632540E+02  0.41800000000E+01 0.  1.
         -5    1    3    3    0  502 -0.48688235782E+02 -0.14713348087E+03  0.16412532871E+03  0.22577289789E+03  0.41800000000E+01 0.  1.
        -11    1    1    2    0    0  0.40983899864E+02  0.24852189731E+02  0.10535466494E+03  0.11574505089E+03  0.00000000000E+00 0. -1.
         11    1    1    2    0    0  0.48110913621E+02  0.10667995773E+03  0.48649341973E+02  0.12673607168E+03  0.00000000000E+00 0.  1.
</event>
<event>
 7    1  0.2670433E-009  0.2304896E+03  0.7561462E-02  0.1126296E+00
         -2   -1    0    0    0  501 -0.00000000000E+00  0.00000000000E+00  0.34473141754E+02  0.34473141754E+02  0.00000000000E+00 0.  1.
          2   -1    0    0  501    0  0.00000000000E+00 -0.00000000000E+00 -0.18105671728E+04  0.18105671728E+04  0.00000000000E+00 0. -1.
         25    2    1    2    0    0  0.18826658707E+02 -0.22096415828E+03 -0.77720274773E+03  0.81784484922E+03  0.12508590647E+03 0.  0.
          5    1    3    3  502    0  0.11078071898E+02 -0.15182205958E+03 -0.30904683285E+03  0.34452877781E+03  0.41800000000E+01 0.  1.
         -5    1    3    3    0  502  0.77485868091E+01 -0.69142098700E+02 -0.46815591489E+03  0.47331607141E+03  0.41800000000E+01 0.  1.
        -11    1    1    2    0    0  0.33644392405E+02  0.12692528213E+03 -0.51640660475E+03  0.53283933209E+03  0.00000000000E+00 0.  1.
         11    1    1    2    0    0 -0.52471051113E+02  0.94038876143E+02 -0.48248467856E+03  0.49435613325E+03  0.00000000000E+00 0. -1.
</event>
<event>
 7    1  0.2670433E-009  0.5132755E+02  0.7561462E-02  0.1438310E+00
         -2   -1    0    0    0  501 -0.00000000000E+00  0.00000000000E+00  0.15438592376E+02  0.15438592376E+02  0.00000000000E+00 0.  1.
          2   -1    0    0  501    0  0.00000000000E+00 -0.00000000000E+00 -0.78461238455E+03  0.78461238455E+03  0.00000000000E+00 0. -1.
         25    2    1    2    0    0  0.15124106260E+02  0.99789118229E+01 -0.63806841527E+03  0.65046753987E+03  0.12509356736E+03 0.  0.
          5    1    3    3  502    0 -0.63766272792E+01 -0.98538090671E+00 -0.61995674199E+03  0.62000440860E+03  0.41800000000E+01 0.  1.
         -5    1    3    3    0  502  0.21500733539E+02  0.10964292730E+02 -0.18111673280E+02  0.30463131270E+02  0.41800000000E+01 0.  1.
        -11    1    1    2    0    0 -0.33979414680E+02 -0.28271213950E+02 -0.66600865062E+02  0.79934581923E+02  0.00000000000E+00 0.  1.
         11    1    1    2    0    0  0.18855308420E+02  0.18292302127E+02 -0.64504511851E+02  0.69648855137E+02  0.00000000000E+00 0. -1.
</event>
<event>
 7    1  0.2670433E-009  0.9622600E+02  0.7561462E-02  0.1288438E+00
          4   -1    0    0  501    0  0.00000000000E+00  0.00000000000E+00  0.38797450812E+03  0.38797450812E+03  0.00000000000E+00 0. -1.
         -4   -1    0    0    0  501 -0.00000000000E+00 -0.00000000000E+00 -0.31649503550E+02  0.31649503550E+02  0.00000000000E+00 0.  1.
         25    2    1    2    0    0 -0.69510174934E+01  0.41456969542E+01  0.25381093303E+03  0.28307818451E+03  0.12509102836E+03 0.  0.
          5    1    3    3  502    0  0.54613602246E+02  0.24994776970E+02  0.12390762537E+03  0.13776050396E+03  0.41800000000E+01 0.  1.
         -5    1    3    3    0  502 -0.61564619739E+02 -0.20849080016E+02  0.12990330765E+03  0.14531768055E+03  0.41800000000E+01 0.  1.
        -11    1    1    2    0    0  0.35910280195E+02 -0.10599936681E+02  0.90984294588E+01  0.38531653221E+02  0.00000000000E+00 0.  1.
         11    1    1    2    0    0 -0.28959262702E+02  0.64542397263E+01  0.93415642085E+02  0.98014173938E+02  0.00000000000E+00 0. -1.
</event>
<event>
 7    1  0.2670433E-009  0.1771889E+03  0.7561462E-02  0.1170552E+00
          2   -1    0    0  501    0  0.00000000000E+00  0.00000000000E+00  0.16801935637E+04  0.16801935637E+04  0.00000000000E+00 0. -1.
         -2   -1    0    0    0  501 -0.00000000000E+00 -0.00000000000E+00 -0.22176437101E+02  0.22176437101E+02  0.00000000000E+00 0.  1.
         25    2    1    2    0    0  0.91819189824E+02 -0.12696124345E+03  0.98901387059E+03  0.10091311556E+04  0.12508929655E+03 0.  0.
          5    1    3    3  502    0 -0.89117775982E+01  0.63864045778E+01  0.85505716017E+01  0.14518630035E+02  0.41800000000E+01 0. -1.
         -5    1    3    3    0  502  0.10073096742E+03 -0.13334764803E+03  0.98046329899E+03  0.99461252561E+03  0.41800000000E+01 0. -1.
        -11    1    1    2    0    0  0.44398568255E+01  0.55278762857E+02  0.30380469725E+03  0.30882478531E+03  0.00000000000E+00 0. -1.
         11    1    1    2    0    0 -0.96259046649E+02  0.71682480597E+02  0.36519855874E+03  0.38441405982E+03  0.00000000000E+00 0.  1.
</event>
<event>
 7    1  0.2670433E-009  0.8728486E+02  0.7561462E-02  0.1309563E+00
          2   -1    0    0  501    0  0.00000000000E+00  0.00000000000E+00  0.11306842889E+04  0.11306842889E+04  0.00000000000E+00 0. -1.
         -2   -1    0    0    0  501 -0.00000000000E+00 -0.00000000000E+00 -0.12084449041E+02  0.12084449041E+02  0.00000000000E+00 0.  1.
         25    2    1    2    0    0  0.44882509334E+02  0.37158361655E+02  0.79935210067E+03  0.81117724976E+03  0.12509822617E+03 0.  0.
          5    1    3    3  502    0  0.38857582437E+02 -0.14051496851E+02  0.67784261806E+03  0.67911371915E+03  0.41800000000E+01 0. -1.
         -5    1    3    3    0  502  0.60249268972E+01  0.51209858506E+02  0.12150948261E+03  0.13206353061E+03  0.41800000000E+01 0. -1.
        -11    1    1    2    0    0 -0.44048817437E+01 -0.40455644774E+02  0.22953691085E+03  0.23311639929E+03  0.00000000000E+00 0. -1.
         11    1    1    2    0    0 -0.40477627590E+02  0.32972831189E+01  0.89710828354E+02  0.98475088907E+02  0.00000000000E+00 0.  1.
</event>
<event>
 7    1  0.2670433E-009  0.4958726E+03  0.7561462E-02  0.1014862E+00
         -2   -1    0    0    0  501 -0.00000000000E+00  0.00000000000E+00  0.10118619751E+04  0.10118619751E+04  0.00000000000E+00 0.  1.
          2   -1    0    0  501    0  0.00000000000E+00 -0.00000000000E+00 -0.24816421597E+03  0.24816421597E+03  0.00000000000E+00 0. -1.
         25    2    1    2    0    0  0.12193537202E+03  0.47348894108E+03  0.37930951983E+03  0.63133440648E+03  0.12508960266E+03 0.  0.
          5    1    3    3  502    0  0.15507493901E+02  0.20411858371E+03  0.95931906294E+02  0.22610900386E+03  0.41800000000E+01 0. -1.
         -5    1    3    3    0  502  0.10642787811E+03  0.26937035737E+03  0.28337761354E+03  0.40522540262E+03  0.41800000000E+01 0. -1.
        -11    1    1    2    0    0 -0.72651134991E+02 -0.11893046631E+03  0.10060367746E+03  0.17188293443E+03  0.00000000000E+00 0. -1.
         11    1    1    2    0    0 -0.49284237024E+02 -0.35455847477E+03  0.28378456183E+03  0.45680885016E+03  0.00000000000E+00 0.  1.
</event>
<event>
 7    1  0.2670433E-009  0.8574656E+02  0.7561462E-02  0.1313492E+00
         -2   -1    0    0    0  501 -0.00000000000E+00  0.00000000000E+00  0.72999786308E+02  0.72999786308E+02  0.00000000000E+00 0.  1.
          2   -1    0    0  501    0  0.00000000000E+00 -0.00000000000E+00 -0.20371453875E+03  0.20371453875E+03  0.00000000000E+00 0. -1.
         25    2    1    2    0    0  0.18788070122E+02 -0.17269578136E+02 -0.17197863276E+02  0.12881963009E+03  0.12508997037E+03 0.  0.
          5    1    3    3  502    0  0.52587032320E+02  0.18298120494E+02  0.27566834590E+02  0.62270538389E+02  0.41800000000E+01 0. -1.
         -5    1    3    3    0  502 -0.33798962199E+02 -0.35567698631E+02 -0.44764697866E+02  0.66549091704E+02  0.41800000000E+01 0. -1.
        -11    1    1    2    0    0 -0.40196913177E+02  0.19883352569E+02 -0.15370803154E+02  0.47406762471E+02  0.00000000000E+00 0.  1.
         11    1    1    2    0    0  0.21408843056E+02 -0.26137744333E+01 -0.98146086016E+02  0.10048793250E+03  0.00000000000E+00 0. -1.
</event>
<event>
 7    1  0.2670433E-009  0.6690078E+02  0.7561462E-02  0.1370961E+00
          2   -1    0    0  501    0  0.00000000000E+00  0.00000000000E+00  0.15065692326E+04  0.15065692326E+04  0.00000000000E+00 0. -1.
         -2   -1    0    0    0  501 -0.00000000000E+00 -0.00000000000E+00 -0.11735738249E+02  0.11735738249E+02  0.00000000000E+00 0.  1.
         25    2    1    2    0    0  0.22136166977E+02  0.32868051057E+02  0.12031744650E+04  0.12103084577E+04  0.12508977181E+03 0.  0.
          5    1    3    3  502    0  0.13569906879E+01  0.20134111307E+02  0.27454440707E+02  0.34328451413E+02  0.41800000000E+01 0. -1.
         -5    1    3    3    0  502  0.20779176289E+02  0.12733939750E+02  0.11757200243E+04  0.11759800063E+04  0.41800000000E+01 0. -1.
        -11    1    1    2    0    0 -0.24167367098E+02 -0.58218424131E+02  0.25923471771E+03  0.26678846566E+03  0.00000000000E+00 0. -1.
         11    1    1    2    0    0  0.20312001217E+01  0.25350373074E+02  0.32424311671E+02  0.41208047470E+02  0.00000000000E+00 0.  1.
</event>
<event>
 7    1  0.2670433E-009  0.1263859E+03  0.7561462E-02  0.1232919E+00
          2   -1    0    0  501    0  0.00000000000E+00  0.00000000000E+00  0.62365849257E+03  0.62365849257E+03  0.00000000000E+00 0. -1.
         -2   -1    0    0    0  501 -0.00000000000E+00 -0.00000000000E+00 -0.37539645259E+02  0.37539645259E+02  0.00000000000E+00 0.  1.
         25    2    1    2    0    0  0.12216342912E+02  0.81973635216E+02  0.16872555543E+03  0.22579376177E+03  0.12508234847E+03 0.  0.
          5    1    3    3  502    0 -0.36385589068E+02  0.30436075412E+01  0.43103453024E+01  0.37003055486E+02  0.41800000000E+01 0. -1.
         -5    1    3    3    0  502  0.48601931980E+02  0.78930027675E+02  0.16441521012E+03  0.18879070629E+03  0.41800000000E+01 0. -1.
        -11    1    1    2    0    0 -0.17093348540E+02  0.17018472514E+02  0.10155073668E+03  0.10437606570E+03  0.00000000000E+00 0. -1.
         11    1    1    2    0    0  0.48770056277E+01 -0.98992107730E+02  0.31584255520E+03  0.33102831035E+03  0.00000000000E+00 0.  1.
</event>
<event>
 7    1  0.2670433E-009  0.1245175E+03  0.7561462E-02  0.1235825E+00
         -2   -1    0    0    0  501 -0.00000000000E+00  0.00000000000E+00  0.31012527174E+02  0.31012527174E+02  0.00000000000E+00 0.  1.
          2   -1    0    0  501    0  0.00000000000E+00 -0.00000000000E+00 -0.65781323550E+03  0.65781323550E+03  0.00000000000E+00 0. -1.
         25    2    1    2    0    0  0.45051388553E+02 -0.81609391056E+02 -0.31134342336E+03  0.34824449946E+03  0.12509909598E+03 0.  0.
          5    1    3    3  502    0  0.42812372212E+02 -0.11459726390E+03 -0.25295089529E+03  0.28101078260E+03  0.41800000000E+01 0. -1.
         -5    1    3    3    0  502  0.22390163409E+01  0.32987872841E+02 -0.58392528069E+02  0.67233716862E+02  0.41800000000E+01 0. -1.
        -11    1    1    2    0    0 -0.19642151101E+02  0.31555641649E+02 -0.25107115166E+02  0.44854652509E+02  0.00000000000E+00 0.  1.
         11    1    1    2    0    0 -0.25409237451E+02  0.50053749407E+02 -0.29035016980E+03  0.29572661071E+03  0.00000000000E+00 0. -1.
</event>
<event>
 7    1  0.2670433E-009  0.9803263E+02  0.7561462E-02  0.1284488E+00
          2   -1    0    0  501    0  0.00000000000E+00  0.00000000000E+00  0.67229978827E+02  0.67229978827E+02  0.00000000000E+00 0. -1.
         -2   -1    0    0    0  501 -0.00000000000E+00 -0.00000000000E+00 -0.45811564786E+03  0.45811564786E+03  0.00000000000E+00 0.  1.
         25    2    1    2    0    0 -0.70543154087E+02 -0.23433059022E+02 -0.34294901341E+02  0.14949631094E+03  0.12509021498E+03 0.  0.
          5    1    3    3  502    0 -0.62687425285E+02 -0.45444001533E+01 -0.78476109244E+02  0.10062970229E+03  0.41800000000E+01 0.  1.
         -5    1    3    3    0  502 -0.78557288025E+01 -0.18888658869E+02  0.44181207903E+02  0.48866608647E+02  0.41800000000E+01 0.  1.
        -11    1    1    2    0    0  0.72745924742E+02 -0.14517406228E+02 -0.28830584512E+03  0.29769612859E+03  0.00000000000E+00 0.  1.
         11    1    1    2    0    0 -0.22027706546E+01  0.37950465250E+02 -0.68284922577E+02  0.78153187156E+02  0.00000000000E+00 0. -1.
</event>
<event>
 7    1  0.2670433E-009  0.8486605E+02  0.7561462E-02  0.1315783E+00
         -1   -1    0    0    0  501 -0.00000000000E+00  0.00000000000E+00  0.42382671588E+02  0.42382671588E+02  0.00000000000E+00 0.  1.
          1   -1    0    0  501    0  0.00000000000E+00 -0.00000000000E+00 -0.35175316993E+03  0.35175316993E+03  0.00000000000E+00 0. -1.
         25    2    1    2    0    0 -0.50183391138E+02 -0.18000294189E+02 -0.19814710633E+03  0.24031127360E+03  0.12507937135E+03 0.  0.
          5    1    3    3  502    0 -0.36186325676E+02  0.82172245176E+01  0.25057869981E+01  0.37426251658E+02  0.41800000000E+01 0.  1.
         -5    1    3    3    0  502 -0.13997065463E+02 -0.26217518706E+02 -0.20065289333E+03  0.20288502195E+03  0.41800000000E+01 0.  1.
        -11    1    1    2    0    0  0.17770437186E+02 -0.35571425136E+02 -0.64210535092E+02  0.75525542307E+02  0.00000000000E+00 0.  1.
         11    1    1    2    0    0  0.32412953952E+02  0.53571719324E+02 -0.47012856919E+02  0.78299025607E+02  0.00000000000E+00 0. -1.
</event>
<event>
 7    1  0.2670433E-009  0.1063267E+03  0.7561462E-02  0.1267528E+00
         -2   -1    0    0    0  501 -0.00000000000E+00  0.00000000000E+00  0.57420562832E+03  0.57420562832E+03  0.00000000000E+00 0. -1.
          2   -1    0    0  501    0  0.00000000000E+00 -0.00000000000E+00 -0.23433500500E+02  0.23433500500E+02  0.00000000000E+00 0.  1.
         25    2    1    2    0    0 -0.20061229697E+02 -0.27060206614E+02  0.37226423414E+03  0.39416104981E+03  0.12509022924E+03 0.  0.
          5    1    3    3  502    0  0.40251863478E+02 -0.49732672473E+02  0.16281683199E+03  0.17498669779E+03  0.41800000000E+01 0. -1.
         -5    1    3    3    0  502 -0.60313093175E+02  0.22672465859E+02  0.20944740215E+03  0.21917435202E+03  0.41800000000E+01 0. -1.
        -11    1    1    2    0    0 -0.12607757898E+02  0.44974725564E+02  0.14839433655E+03  0.15557172178E+03  0.00000000000E+00 0. -1.
         11    1    1    2    0    0  0.32668987594E+02 -0.17914518950E+02  0.30113557141E+02  0.47906357233E+02  0.00000000000E+00 0.  1.
</event>
<event>
 7    1  0.2670433E-009  0.1010872E+03  0.7561462E-02  0.1278026E+00
         -1   -1    0    0    0  501 -0.00000000000E+00  0.00000000000E+00  0.11252683379E+03  0.11252683379E+03  0.00000000000E+00 0.  1.
          1   -1    0    0  501    0  0.00000000000E+00 -0.00000000000E+00 -0.12348508224E+03  0.12348508224E+03  0.00000000000E+00 0. -1.
         25    2    1    2    0    0 -0.29861486158E+02  0.18113818423E+02  0.24027297854E+02  0.13208156435E+03  0.12509360425E+03 0.  0.
          5    1    3    3  502    0 -0.58556299645E+02  0.54407893593E+02  0.57738108391E+00  0.80042894015E+02  0.41800000000E+01 0.  1.
         -5    1    3    3    0  502  0.28694813487E+02 -0.36294075171E+02  0.23449916770E+02  0.52038670333E+02  0.41800000000E+01 0.  1.
        -11    1    1    2    0    0  0.40901784400E+02 -0.36112893454E+02  0.88485527451E+01  0.55275617829E+02  0.00000000000E+00 0.  1.
         11    1    1    2    0    0 -0.11040298242E+02  0.17999075031E+02 -0.43834099042E+02  0.48654733851E+02  0.00000000000E+00 0. -1.
</event>
<event>
 7    1  0.2670433E-009  0.1281984E+03  0.7561462E-02  0.1230154E+00
          2   -1    0    0  501    0  0.00000000000E+00  0.00000000000E+00  0.24260157567E+03  0.24260157567E+03  0.00000000000E+00 0. -1.
         -2   -1    0    0    0  501 -0.00000000000E+00 -0.00000000000E+00 -0.98495985662E+02  0.98495985662E+02  0.00000000000E+00 0.  1.
         25    2    1    2    0    0  0.66398593292E+02 -0.19706981690E+02 -0.16713492311E+02  0.14396208228E+03  0.12509437233E+03 0.  0.
          5    1    3    3  502    0  0.65342809757E+02 -0.68026418821E+02 -0.90760793251E+01  0.94853171061E+02  0.41800000000E+01 0. -1.
         -5    1    3    3    0  502  0.10557835354E+01  0.48319437131E+02 -0.76374129859E+01  0.49108911214E+02  0.41800000000E+01 0. -1.
        -11    1    1    2    0    0 -0.13451668334E+02  0.50470357675E+02  0.64465278225E+02  0.82969732321E+02  0.00000000000E+00 0. -1.
         11    1    1    2    0    0 -0.52946924958E+02 -0.30763375985E+02  0.96353804098E+02  0.11416574674E+03  0.00000000000E+00 0.  1.
</event>
<event>
 7    1  0.2670433E-009  0.9184934E+02  0.7561462E-02  0.1298434E+00
          1   -1    0    0  501    0  0.00000000000E+00  0.00000000000E+00  0.39419029540E+03  0.39419029540E+03  0.00000000000E+00 0. -1.
         -1   -1    0    0    0  501 -0.00000000000E+00 -0.00000000000E+00 -0.31168956102E+02  0.31168956102E+02  0.00000000000E+00 0.  1.
         25    2    1    2    0    0 -0.11045871729E+02  0.13189283144E+02  0.18067797657E+03  0.22042715691E+03  0.12509049450E+03 0.  0.
          5    1    3    3  502    0 -0.61232632856E+02  0.29518099202E+01  0.14607559772E+03  0.15847302975E+03  0.41800000000E+01 0. -1.
         -5    1    3    3    0  502  0.50186761127E+02  0.10237473224E+02  0.34602378848E+02  0.61954127162E+02  0.41800000000E+01 0. -1.
        -11    1    1    2    0    0  0.36925795193E+02  0.75593745778E+01  0.27711006911E+02  0.46782030724E+02  0.00000000000E+00 0.  1.
         11    1    1    2    0    0 -0.25879923464E+02 -0.20748657722E+02  0.15463235582E+03  0.15815006387E+03  0.00000000000E+00 0. -1.
</event>
<event>
 7    1  0.2670433E-009  0.9767007E+02  0.7561462E-02  0.1285273E+00
         -1   -1    0    0    0  501 -0.00000000000E+00  0.00000000000E+00  0.14852827212E+02  0.14852827212E+02  0.00000000000E+00 0.  1.
          1   -1    0    0  501    0  0.00000000000E+00 -0.00000000000E+00 -0.12042878335E+04  0.12042878335E+04  0.00000000000E+00 0. -1.
         25    2    1    2    0    0  0.23946058783E+02 -0.31988954888E+02 -0.96324271490E+03  0.97215370933E+03  0.12509836047E+03 0.  0.
          5    1    3    3  502    0 -0.37873685457E+02 -0.26236613692E+02 -0.70512480193E+03  0.70664081020E+03  0.41800000000E+01 0. -1.
         -5    1    3    3    0  502  0.61819744239E+02 -0.57523411952E+01 -0.25811791297E+03  0.26551289913E+03  0.41800000000E+01 0. -1.
        -11    1    1    2    0    0 -0.27472293738E+02 -0.20477925220E+02 -0.36171008600E+02  0.49823831725E+02  0.00000000000E+00 0.  1.
         11    1    1    2    0    0  0.35262349553E+01  0.52466880108E+02 -0.19002128283E+03  0.19716311970E+03  0.00000000000E+00 0. -1.
</event>
<event>
 7    1  0.2670433E-009  0.1123007E+03  0.7561462E-02  0.1256368E+00
          2   -1    0    0  501    0  0.00000000000E+00  0.00000000000E+00  0.29432426080E+03  0.29432426080E+03  0.00000000000E+00 0. -1.
         -2   -1    0    0    0  501 -0.00000000000E+00 -0.00000000000E+00 -0.91187477159E+02  0.91187477159E+02  0.00000000000E+00 0.  1.
         25    2    1    2    0    0 -0.93603414239E+02 -0.27083209019E+02  0.19483693306E+03  0.25120220923E+03  0.12508405203E+03 0.  0.
          5    1    3    3  502    0 -0.66785760564E+02  0.16260660339E+02  0.24081418334E+02  0.72952957430E+02  0.41800000000E+01 0. -1.
         -5    1    3    3    0  502 -0.26817653675E+02 -0.43343869358E+02  0.17075551472E+03  0.17824925180E+03  0.41800000000E+01 0. -1.
        -11    1    1    2    0    0  0.45125318611E+02 -0.65447843750E+01 -0.37964966739E+02  0.59333525782E+02  0.00000000000E+00 0.  1.
         11    1    1    2    0    0  0.48478095628E+02  0.33627993394E+02  0.46264817323E+02  0.74976002943E+02  0.00000000000E+00 0. -1.
</event>
<event>
 7    1  0.2670433E-009  0.1384877E+03  0.7561462E-02  0.1215378E+00
         -2   -1    0    0    0  501 -0.00000000000E+00  0.00000000000E+00  0.22597095167E+03  0.22597095167E+03  0.00000000000E+00 0.  1.
          2   -1    0    0  501    0  0.00000000000E+00 -0.00000000000E+00 -0.10557393768E+03  0.10557393768E+03  0.00000000000E+00 0. -1.
         25    2    1    2    0    0 -0.73168178307E+02  0.65795226748E+02  0.12670075449E+03  0.20341668450E+03  0.12507066868E+03 0.  0.
          5    1    3    3  502    0 -0.45195326297E+02  0.10268406268E+03  0.95932097245E+02  0.14767218401E+03  0.41800000000E+01 0.  1.
         -5    1    3    3    0  502 -0.27972852011E+02 -0.36888835935E+02  0.30768657246E+02  0.55744500491E+02  0.41800000000E+01 0.  1.
        -11    1    1    2    0    0  0.66997164517E+02 -0.79038504390E+02 -0.22799885239E+02  0.10609212976E+03  0.00000000000E+00 0. -1.
         11    1    1    2    0    0  0.61710137904E+01  0.13243277642E+02  0.16496144744E+02  0.22036075089E+02  0.00000000000E+00 0.  1.
</event>
<event>
 7    1  0.2670433E-009  0.8747096E+02  0.7561462E-02  0.1309094E+00
         -1   -1    0    0    0  501 -0.00000000000E+00  0.00000000000E+00  0.39551489056E+02  0.39551489056E+02  0.00000000000E+00 0.  1.
          1   -1    0    0  501    0  0.00000000000E+00 -0.00000000000E+00 -0.52699341387E+03  0.52699341387E+03  0.00000000000E+00 0. -1.
         25    2    1    2    0    0 -0.74775177466E+02  0.15601095671E+02 -0.39348717190E+03  0.41989780855E+03  0.12508914350E+03 0.  0.
          5    1    3    3  502    0 -0.53818236470E+02  0.37241298482E+02 -0.73642291779E+02  0.98610224763E+02  0.41800000000E+01 0.  1.
         -5    1    3    3    0  502 -0.20956940996E+02 -0.21640202811E+02 -0.31984488012E+03  0.32128758379E+03  0.41800000000E+01 0.  1.
        -11    1    1    2    0    0  0.24027835645E+02 -0.14749721774E+02  0.10842020969E+02  0.30206631670E+02  0.00000000000E+00 0.  1.
         11    1    1    2    0    0  0.50747341822E+02 -0.85137389673E+00 -0.10479677388E+03  0.11644046271E+03  0.00000000000E+00 0. -1.
</event>
<event>
 7    1  0.2670433E-009  0.9574813E+02  0.7561462E-02  0.1289500E+00
          1   -1    0    0  501    0  0.00000000000E+00  0.00000000000E+00  0.73572423897E+02  0.73572423897E+02  0.00000000000E+00 0. -1.
         -1   -1    0    0    0  501 -0.00000000000E+00 -0.00000000000E+00 -0.26374450872E+03  0.26374450872E+03  0.00000000000E+00 0.  1.
         25    2    1    2    0    0  0.34661743913E+02 -0.69294546294E+02 -0.60926328046E+02  0.15925609042E+03  0.12508922515E+03 0.  0.
          5    1    3    3  502    0  0.53426893101E+02 -0.71905065833E+02 -0.88201423197E+02  0.12578447779E+03  0.41800000000E+01 0.  1.
         -5    1    3    3    0  502 -0.18765149188E+02  0.26105195389E+01  0.27275095150E+02  0.33471612626E+02  0.41800000000E+01 0.  1.
        -11    1    1    2    0    0 -0.15714740768E+02  0.68183416001E+01  0.13029060690E+02  0.21522065005E+02  0.00000000000E+00 0. -1.
         11    1    1    2    0    0 -0.18947003145E+02  0.62476204693E+02 -0.14227481747E+03  0.15653877720E+03  0.00000000000E+00 0.  1.
</event>
<event>
 7    1  0.2670433E-009  0.1093170E+03  0.7561462E-02  0.1261840E+00
         -1   -1    0    0    0  501 -0.00000000000E+00  0.00000000000E+00  0.25526208433E+02  0.25526208433E+02  0.00000000000E+00 0.  1.
          1   -1    0    0  501    0  0.00000000000E+00 -0.00000000000E+00 -0.70871487033E+03  0.70871487033E+03  0.00000000000E+00 0. -1.
         25    2    1    2    0    0  0.46734832881E+02  0.59667932124E+02 -0.29214769063E+03  0.32671421869E+03  0.12508997092E+03 0.  0.
          5    1    3    3  502    0  0.61771632311E+02  0.63639115682E+02 -0.99339654131E+02  0.13323479608E+03  0.41800000000E+01 0.  1.
         -5    1    3    3    0  502 -0.15036799430E+02 -0.39711835579E+01 -0.19280803650E+03  0.19347942261E+03  0.41800000000E+01 0.  1.
        -11    1    1    2    0    0 -0.70133485890E+02 -0.30842341187E+02 -0.23706462833E+03  0.24913770060E+03  0.00000000000E+00 0.  1.
         11    1    1    2    0    0  0.23398653009E+02 -0.28825590937E+02 -0.15397634294E+03  0.15838915948E+03  0.00000000000E+00 0. -1.
</event>
<event>
 7    1  0.2670433E-009  0.6515909E+02  0.7561462E-02  0.1377374E+00
         -1   -1    0    0    0  501 -0.00000000000E+00  0.00000000000E+00  0.45269182080E+02  0.45269182080E+02  0.00000000000E+00 0.  1.
          1   -1    0    0  501    0  0.00000000000E+00 -0.00000000000E+00 -0.42846887370E+03  0.42846887370E+03  0.00000000000E+00 0. -1.
         25    2    1    2    0    0  0.24905613946E+02  0.11542178293E+01 -0.35065484771E+03  0.37313107879E+03  0.12508540249E+03 0.  0.
          5    1    3    3  502    0  0.10449727291E+02  0.35110924826E+02 -0.23169391411E+02  0.43546147258E+02  0.41800000000E+01 0. -1.
         -5    1    3    3    0  502  0.14455886655E+02 -0.33956706997E+02 -0.32748545630E+03  0.32958493153E+03  0.41800000000E+01 0. -1.
        -11    1    1    2    0    0  0.27741944049E+01  0.20795264295E+02 -0.54920019930E+02  0.58790711519E+02  0.00000000000E+00 0. -1.
         11    1    1    2    0    0 -0.27679808351E+02 -0.21949482124E+02  0.22375176019E+02  0.41816265469E+02  0.00000000000E+00 0.  1.
</event>
<event>
 7    1  0.2670433E-009  0.1423394E+03  0.7561462E-02  0.1210215E+00
          1   -1    0    0  501    0  0.00000000000E+00  0.00000000000E+00  0.36110173211E+03  0.36110173211E+03  0.00000000000E+00 0. -1.
         -1   -1    0    0    0  501 -0.00000000000E+00 -0.00000000000E+00 -0.10132435618E+03  0.10132435618E+03  0.00000000000E+00 0.  1.
         25    2    1    2    0    0 -0.90762486392E+02 -0.56546489574E+02  0.27637843194E+03  0.32166472131E+03  0.12509125019E+03 0.  0.
          5    1    3    3  502    0 -0.26266512032E+02  0.31038155390E+02  0.14705329786E+03  0.15262844282E+03  0.41800000000E+01 0.  1.
         -5    1    3    3    0  502 -0.64495974360E+02 -0.87584644964E+02  0.12932513408E+03  0.16903627849E+03  0.41800000000E+01 0.  1.
        -11    1    1    2    0    0  0.98354908432E+02  0.23603608104E+02 -0.28225948524E+02  0.10501201121E+03  0.00000000000E+00 0. -1.
         11    1    1    2    0    0 -0.75924220403E+01  0.32942881470E+02  0.11624892517E+02  0.35749355771E+02  0.00000000000E+00 0.  1.
</event>
<event>
 7    1  0.2670433E-009  0.1125897E+03  0.7561462E-02  0.1255848E+00
          2   -1    0    0  501    0  0.00000000000E+00  0.00000000000E+00  0.18630671386E+04  0.18630671386E+04  0.00000000000E+00 0. -1.
         -2   -1    0    0    0  501 -0.00000000000E+00 -0.00000000000E+00 -0.11147533983E+02  0.11147533983E+02  0.00000000000E+00 0.  1.
         25    2    1    2    0    0  0.33272747323E+02 -0.62876998065E+02  0.14358962106E+04  0.14430889526E+04  0.12508878770E+03 0.  0.
          5    1    3    3  502    0  0.29387639883E+02  0.15644990620E+02  0.97055278187E+03  0.97113262426E+03  0.41800000000E+01 0.  1.
         -5    1    3    3    0  502  0.38851074400E+01 -0.78521988685E+02  0.46534342877E+03  0.47195632835E+03  0.41800000000E+01 0.  1.
        -11    1    1    2    0    0 -0.48169942351E+02 -0.11165635208E+00  0.16451634260E+03  0.17142340213E+03  0.00000000000E+00 0.  1.
         11    1    1    2    0    0  0.14897195028E+02  0.62988654417E+02  0.25150705137E+03  0.25970231784E+03  0.00000000000E+00 0. -1.
</event>
<event>
 7    1  0.2670433E-009  0.9973399E+02  0.7561462E-02  0.1280856E+00
         -1   -1    0    0    0  501 -0.00000000000E+00  0.00000000000E+00  0.60396436931E+02  0.60396436931E+02  0.00000000000E+00 0.  1.
          1   -1    0    0  501    0  0.00000000000E+00 -0.00000000000E+00 -0.19536285104E+03  0.19536285104E+03  0.00000000000E+00 0. -1.
         25    2    1    2    0    0  0.19513241825E+02 -0.61509216362E+01 -0.70310702803E+02  0.14493589657E+03  0.12507685135E+03 0.  0.
          5    1    3    3  502    0 -0.53092063427E+02 -0.55039836069E+01 -0.23684314379E+02  0.58544685345E+02  0.41800000000E+01 0. -1.
         -5    1    3    3    0  502  0.72605305253E+02 -0.64693802925E+00 -0.46626388424E+02  0.86391211226E+02  0.41800000000E+01 0. -1.
        -11    1    1    2    0    0 -0.40983755861E+02  0.21997823353E+02 -0.66674437786E+01  0.46989650810E+02  0.00000000000E+00 0.  1.
         11    1    1    2    0    0  0.21470514035E+02 -0.15846901717E+02 -0.57988267527E+02  0.63833740590E+02  0.00000000000E+00 0. -1.
</event>
<event>
 7    1  0.2670433E-009  0.8646562E+02  0.7561462E-02  0.1311644E+00
         -1   -1    0    0    0  501 -0.00000000000E+00  0.00000000000E+00  0.48740268115E+03  0.48740268115E+03  0.00000000000E+00 0.  1.
          1   -1    0    0  501    0  0.00000000000E+00 -0.00000000000E+00 -0.27296371073E+02  0.27296371073E+02  0.00000000000E+00 0. -1.
         25    2    1    2    0    0 -0.41348436600E+02  0.51223871141E+01  0.23420350792E+03  0.26876329790E+03  0.12508595091E+03 0.  0.
          5    1    3    3  502    0 -0.43457699989E+01 -0.27181786227E+02  0.21347869325E+03  0.21528669279E+03  0.41800000000E+01 0.  1.
         -5    1    3    3    0  502 -0.37002666601E+02  0.32304173341E+02  0.20724814670E+02  0.53476605109E+02  0.41800000000E+01 0.  1.
        -11    1    1    2    0    0  0.71472748383E+01  0.39178160365E+02  0.73740869576E+02  0.83807682423E+02  0.00000000000E+00 0. -1.
         11    1    1    2    0    0  0.34201161762E+02 -0.44300547479E+02  0.15216193258E+03  0.16212807191E+03  0.00000000000E+00 0.  1.
</event>
<event>
 7    1  0.2670433E-009  0.1119167E+03  0.7561462E-02  0.1257061E+00
         -2   -1    0    0    0  501 -0.00000000000E+00  0.00000000000E+00  0.23530028103E+02  0.23530028103E+02  0.00000000000E+00 0.  1.
          2   -1    0    0  501    0  0.00000000000E+00 -0.00000000000E+00 -0.61730208200E+03  0.61730208200E+03  0.00000000000E+00 0. -1.
         25    2    1    2    0    0  0.41229034329E+02 -0.16968833517E+02 -0.39031093346E+03  0.41228147474E+03  0.12508243302E+03 0.  0.
          5    1    3    3  502    0  0.43408456853E+02 -0.68084025481E+02 -0.21916825722E+03  0.23360634843E+03  0.41800000000E+01 0.  1.
         -5    1    3    3    0  502 -0.21794225239E+01  0.51115191965E+02 -0.17114267624E+03  0.17867512631E+03  0.41800000000E+01 0.  1.
        -11    1    1    2    0    0 -0.29892290318E+02 -0.30582116782E+02 -0.42346590211E+02  0.60183457775E+02  0.00000000000E+00 0.  1.
         11    1    1    2    0    0 -0.11336744010E+02  0.47550950298E+02 -0.16111453022E+03  0.16836717759E+03  0.00000000000E+00 0. -1.
</event>
<event>
 7    1  0.3586127E-009  0.1184260E+03  0.7561462E-02  0.1245716E+00
          1   -1    0    0  501    0  0.00000000000E+00  0.00000000000E+00  0.71205958694E+03  0.71205958694E+03  0.00000000000E+00 0. -1.
         -1   -1    0    0    0  501 -0.00000000000E+00 -0.00000000000E+00 -0.27394158103E+02  0.27394158103E+02  0.00000000000E+00 0.  1.
         25    2    1    2    0    0 -0.82362775788E+02 -0.79848448198E+01  0.29566137975E+03  0.33152806049E+03  0.12509124206E+03 0.  0.
          5    1    3    3  502    0 -0.85596988008E+02  0.19622003140E+02  0.97102138021E+02  0.13098917883E+03  0.41800000000E+01 0.  1.
         -5    1    3    3    0  502  0.32342122205E+01 -0.27606847960E+02  0.19855924173E+03  0.20053888166E+03  0.41800000000E+01 0.  1.
        -11    1    1    2    0    0  0.14044264576E+02 -0.36630783067E+02  0.16263046448E+03  0.16729531856E+03  0.00000000000E+00 0.  1.
         11    1    1    2    0    0  0.68318511212E+02  0.44615627887E+02  0.22637358461E+03  0.24063036599E+03  0.00000000000E+00 0. -1.
</event>
<event>
 7    1  0.2670433E-009  0.9112070E+02  0.7561462E-02  0.1300160E+00
          2   -1    0    0  501    0  0.00000000000E+00  0.00000000000E+00  0.23401917845E+03  0.23401917845E+03  0.00000000000E+00 0. -1.
         -2   -1    0    0    0  501 -0.00000000000E+00 -0.00000000000E+00 -0.50055346305E+02  0.50055346305E+02  0.00000000000E+00 0.  1.
         25    2    1    2    0    0  0.24865724938E+02  0.12999981876E+02  0.84272111690E+02  0.15341594194E+03  0.12508940253E+03 0.  0.
          5    1    3    3  502    0 -0.43511005750E+02  0.16902017156E+02  0.28703075491E+01  0.46953134834E+02  0.41800000000E+01 0.  1.
         -5    1    3    3    0  502  0.68376730688E+02 -0.39020352796E+01  0.81401804140E+02  0.10646280710E+03  0.41800000000E+01 0.  1.
        -11    1    1    2    0    0  0.16319766598E+02 -0.19103619066E+02  0.81387189969E+02  0.85177213703E+02  0.00000000000E+00 0. -1.
         11    1    1    2    0    0 -0.41185491536E+02  0.61036371900E+01  0.18304530482E+02  0.45481369111E+02  0.00000000000E+00 0.  1.
</event>
<event>
 7    1  0.2670433E-009  0.1444082E+03  0.7561462E-02  0.1207517E+00
          1   -1    0    0  501    0  0.00000000000E+00  0.00000000000E+00  0.37184088753E+04  0.37184088753E+04  0.00000000000E+00 0. -1.
         -1   -1    0    0    0  501 -0.00000000000E+00 -0.00000000000E+00 -0.17781255195E+02  0.17781255195E+02  0.00000000000E+00 0.  1.
         25    2    1    2    0    0  0.43827688660E+02  0.11114278152E+03  0.33390127706E+04  0.33434903039E+04  0.12509015291E+03 0.  0.
          5    1    3    3  502    0 -0.54651155766E+01  0.10456051401E+03  0.14337773492E+04  0.14376013800E+04  0.41800000000E+01 0.  1.
         -5    1    3    3    0  502  0.49292804237E+02  0.65822675110E+01  0.19052354214E+04  0.19058889239E+04  0.41800000000E+01 0.  1.
        -11    1    1    2    0    0 -0.57008536257E+02 -0.66575613407E+02  0.31463825103E+03  0.32661830096E+03  0.00000000000E+00 0. -1.
         11    1    1    2    0    0  0.13180847597E+02 -0.44567168116E+02  0.46976598476E+02  0.66081525570E+02  0.00000000000E+00 0.  1.
</event>
<event>
 7    1  0.2670433E-009  0.1068393E+03  0.7561462E-02  0.1266538E+00
         -1   -1    0    0    0  501 -0.00000000000E+00  0.00000000000E+00  0.16182122332E+03  0.16182122332E+03  0.00000000000E+00 0.  1.
          1   -1    0    0  501    0  0.00000000000E+00 -0.00000000000E+00 -0.11071934960E+03  0.11071934960E+03  0.00000000000E+00 0. -1.
         25    2    1    2    0    0 -0.56983517317E+02 -0.35839260328E+02 -0.15450888689E+02  0.14289342695E+03  0.12509287620E+03 0.  0.
          5    1    3    3  502    0  0.18891958351E+02 -0.12872204726E+02  0.39859646637E+02  0.46139609609E+02  0.41800000000E+01 0. -1.
         -5    1    3    3    0  502 -0.75875475668E+02 -0.22967055602E+02 -0.55310535327E+02  0.96753817336E+02  0.41800000000E+01 0. -1.
        -11    1    1    2    0    0  0.70044893148E+02  0.54168573001E+02  0.49804009592E+02  0.10159212926E+03  0.00000000000E+00 0. -1.
         11    1    1    2    0    0 -0.13061375830E+02 -0.18329312672E+02  0.16748752820E+02  0.28055016711E+02  0.00000000000E+00 0.  1.
</event>
<event>
 7    1  0.2670433E-009  0.9029870E+02  0.7561462E-02  0.1302130E+00
          2   -1    0    0  501    0  0.00000000000E+00  0.00000000000E+00  0.30612541380E+03  0.30612541380E+03  0.00000000000E+00 0. -1.
         -2   -1    0    0    0  501 -0.00000000000E+00 -0.00000000000E+00 -0.58104834739E+02  0.58104834739E+02  0.00000000000E+00 0.  1.
         25    2    1    2    0    0  0.59164362961E+01 -0.65710380656E+02  0.77897721436E+02  0.16145875725E+03  0.12509203389E+03 0.  0.
          5    1    3    3  502    0  0.43227948253E+02 -0.61628973939E+02  0.56405141123E+00  0.75396130491E+02  0.41800000000E+01 0. -1.
         -5    1    3    3    0  502 -0.37311511957E+02 -0.40814067171E+01  0.77333670025E+02  0.86062626760E+02  0.41800000000E+01 0. -1.
        -11    1    1    2    0    0 -0.86094401967E+01  0.21713552262E+02 -0.35194589797E+01  0.23621757002E+02  0.00000000000E+00 0.  1.
         11    1    1    2    0    0  0.26930039005E+01  0.43996828394E+02  0.17364231660E+03  0.17914973428E+03  0.00000000000E+00 0. -1.
</event>
<event>
 7    1  0.2670433E-009  0.1601852E+03  0.7561462E-02  0.1188488E+00
         -2   -1    0    0    0  501 -0.00000000000E+00  0.00000000000E+00  0.34882860356E+02  0.34882860356E+02  0.00000000000E+00 0.  1.
          2   -1    0    0  501    0  0.00000000000E+00 -0.00000000000E+00 -0.78149125236E+03  0.78149125236E+03  0.00000000000E+00 0. -1.
         25    2    1    2    0    0 -0.11214893843E+03  0.49769028396E+02 -0.44136505340E+03  0.47487356646E+03  0.12508978047E+03 0.  0.
          5    1    3    3  502    0 -0.10097480382E+03  0.85175772554E+02 -0.28574112708E+03  0.31482739293E+03  0.41800000000E+01 0.  1.
         -5    1    3    3    0  502 -0.11174134611E+02 -0.35406744158E+02 -0.15562392632E+03  0.16004617352E+03  0.41800000000E+01 0.  1.
        -11    1    1    2    0    0  0.11493767909E+03 -0.67231063974E+02 -0.24666206315E+03  0.28030850760E+03  0.00000000000E+00 0. -1.
         11    1    1    2    0    0 -0.27887406578E+01  0.17462035579E+02 -0.58581275455E+02  0.61192038657E+02  0.00000000000E+00 0.  1.
</event>
<event>
 7    1  0.2670433E-009  0.1431364E+03  0.7561462E-02  0.1209170E+00
         -2   -1    0    0    0  501 -0.00000000000E+00  0.00000000000E+00  0.12556149315E+04  0.12556149315E+04  0.00000000000E+00 0.  1.
          2   -1    0    0  501    0  0.00000000000E+00 -0.00000000000E+00 -0.21631885943E+02  0.21631885943E+02  0.00000000000E+00 0. -1.
         25    2    1    2    0    0  0.66690505516E+02  0.99380273880E+02  0.80380273072E+03  0.82223448547E+03  0.12508659731E+03 0.  0.
          5    1    3    3  502    0  0.31958827481E+02  0.99938518257E+02  0.75454073640E+03  0.76181248964E+03  0.41800000000E+01 0.  1.
         -5    1    3    3    0  502  0.34731678035E+02 -0.55824437732E+00  0.49261994315E+02  0.60421995828E+02  0.41800000000E+01 0.  1.
        -11    1    1    2    0    0  0.15210335711E+02 -0.46168585137E+02  0.10988327487E+03  0.12015501097E+03  0.00000000000E+00 0. -1.
         11    1    1    2    0    0 -0.81900841227E+02 -0.53211688743E+02  0.32029703994E+03  0.33485732097E+03  0.00000000000E+00 0.  1.
</event>
<event>
 7    1  0.2670433E-009  0.1334892E+03  0.7561462E-02  0.1222368E+00
         -1   -1    0    0    0  501 -0.00000000000E+00  0.00000000000E+00  0.86428285580E+02  0.86428285580E+02  0.00000000000E+00 0. -1.
          1   -1    0    0  501    0  0.00000000000E+00 -0.00000000000E+00 -0.25404902832E+03  0.25404902832E+03  0.00000000000E+00 0.  1.
         25    2    1    2    0    0  0.30153598530E+02  0.90977907085E+02 -0.12612564738E+03  0.20184805971E+03  0.12509492875E+03 0.  0.
          5    1    3    3  502    0  0.56630830460E+02  0.17472432617E+02 -0.76976757659E+01  0.59908792946E+02  0.41800000000E+01 0.  1.
         -5    1    3    3    0  502 -0.26477231929E+02  0.73505474468E+02 -0.11842797162E+03  0.14193926676E+03  0.41800000000E+01 0.  1.
        -11    1    1    2    0    0 -0.52138905064E+02 -0.21404921262E+02 -0.37651247507E+01  0.56487275026E+02  0.00000000000E+00 0.  1.
         11    1    1    2    0    0  0.21985306534E+02 -0.69572985823E+02 -0.37729970610E+02  0.82141979169E+02  0.00000000000E+00 0. -1.
</event>
<event>
 7    1  0.2670433E-009  0.1337485E+03  0.7561462E-02  0.1221997E+00
         -3   -1    0    0    0  501 -0.00000000000E+00  0.00000000000E+00  0.32847165828E+03  0.32847165828E+03  0.00000000000E+00 0.  1.
          3   -1    0    0  501    0  0.00000000000E+00 -0.00000000000E+00 -0.89479859199E+02  0.89479859199E+02  0.00000000000E+00 0. -1.
         25    2    1    2    0    0 -0.92103808332E+02  0.68144002379E+01  0.11385582378E+02  0.15590577923E+03  0.12508969962E+03 0.  0.
          5    1    3    3  502    0 -0.59457057892E+02  0.56832740391E+02  0.37611314534E+02  0.90538309541E+02  0.41800000000E+01 0.  1.
         -5    1    3    3    0  502 -0.32646750440E+02 -0.50018340153E+02 -0.26225732155E+02  0.65367469686E+02  0.41800000000E+01 0.  1.
        -11    1    1    2    0    0 -0.15975894362E+02  0.44914451187E+01  0.11608743129E+02  0.20252535569E+02  0.00000000000E+00 0.  1.
         11    1    1    2    0    0  0.10807970269E+03 -0.11305845357E+02  0.21599747357E+03  0.24179320268E+03  0.00000000000E+00 0. -1.
</event>
<event>
 7    1  0.2670433E-009  0.1572770E+03  0.7561462E-02  0.1191806E+00
         -2   -1    0    0    0  501 -0.00000000000E+00  0.00000000000E+00  0.15821354920E+02  0.15821354920E+02  0.00000000000E+00 0.  1.
          2   -1    0    0  501    0  0.00000000000E+00 -0.00000000000E+00 -0.17348308628E+04  0.17348308628E+04  0.00000000000E+00 0. -1.
         25    2    1    2    0    0 -0.11844046630E+03 -0.26086552072E+02 -0.10699870385E+04  0.10840786814E+04  0.12508266354E+03 0.  0.
          5    1    3    3  502    0 -0.60646692953E+02 -0.74787235791E+02 -0.51333777062E+03  0.52230670218E+03  0.41800000000E+01 0. -1.
         -5    1    3    3    0  502 -0.57793773351E+02  0.48700683720E+02 -0.55664926788E+03  0.56177197925E+03  0.41800000000E+01 0. -1.
        -11    1    1    2    0    0  0.16159078314E+02  0.36260338700E+02 -0.92812091710E+02  0.10094559100E+03  0.00000000000E+00 0.  1.
         11    1    1    2    0    0  0.10228138799E+03 -0.10173786629E+02 -0.55621037764E+03  0.56562794526E+03  0.00000000000E+00 0. -1.
</event>
<event>
 7    1  0.2670433E-009  0.1206067E+03  0.7561462E-02  0.1242100E+00
          2   -1    0    0  501    0  0.00000000000E+00  0.00000000000E+00  0.52429933828E+02  0.52429933828E+02  0.00000000000E+00 0. -1.
         -2   -1    0    0    0  501 -0.00000000000E+00 -0.00000000000E+00 -0.51654054556E+03  0.51654054556E+03  0.00000000000E+00 0.  1.
         25    2    1    2    0    0  0.68683759295E+02  0.59721514807E+02 -0.38742291846E+03  0.41716837974E+03  0.12509524843E+03 0.  0.
          5    1    3    3  502    0  0.94997244391E+02  0.69196321338E+02 -0.24248661064E+03  0.26949923204E+03  0.41800000000E+01 0.  1.
         -5    1    3    3    0  502 -0.26313485096E+02 -0.94748065317E+01 -0.14493630782E+03  0.14766914769E+03  0.41800000000E+01 0.  1.
        -11    1    1    2    0    0 -0.38516125908E+02 -0.51040342529E+02  0.51508926682E+01  0.64149358654E+02  0.00000000000E+00 0. -1.
         11    1    1    2    0    0 -0.30167633387E+02 -0.86811722778E+01 -0.81838585933E+02  0.87652740994E+02  0.00000000000E+00 0.  1.
</event>
<event>
 7    1  0.2670433E-009  0.1990352E+03  0.7561462E-02  0.1150556E+00
          1   -1    0    0  501    0  0.00000000000E+00  0.00000000000E+00  0.36510265171E+02  0.36510265171E+02  0.00000000000E+00 0. -1.
         -1   -1    0    0    0  501 -0.00000000000E+00 -0.00000000000E+00 -0.12454465072E+04  0.12454465072E+04  0.00000000000E+00 0.  1.
         25    2    1    2    0    0  0.17477120612E+03 -0.50453656523E+02 -0.69197584720E+03  0.72633971985E+03  0.12509304368E+03 0.  0.
          5    1    3    3  502    0 -0.13140033590E+02  0.95665634865E+01 -0.12265458179E+03  0.12379740892E+03  0.41800000000E+01 0.  1.
         -5    1    3    3    0  502  0.18791123971E+03 -0.60020220010E+02 -0.56932126540E+03  0.60254231093E+03  0.41800000000E+01 0.  1.
        -11    1    1    2    0    0 -0.13472377234E+03  0.26469387807E+02 -0.46902402563E+03  0.48870713106E+03  0.00000000000E+00 0.  1.
         11    1    1    2    0    0 -0.40047433775E+02  0.23984268716E+02 -0.47936369162E+02  0.66909921434E+02  0.00000000000E+00 0. -1.
</event>
<event>
 7    1  0.2670433E-009  0.4359138E+02  0.7561462E-02  0.1483332E+00
          2   -1    0    0  501    0  0.00000000000E+00  0.00000000000E+00  0.33314921882E+03  0.33314921882E+03  0.00000000000E+00 0. -1.
         -2   -1    0    0    0  501 -0.00000000000E+00 -0.00000000000E+00 -0.36924058759E+02  0.36924058759E+02  0.00000000000E+00 0.  1.
         25    2    1    2    0    0 -0.92823511943E+01  0.11123891782E+02  0.13907607591E+03  0.18761156128E+03  0.12508413178E+03 0.  0.
          5    1    3    3  502    0 -0.18458049246E+01  0.27856217496E+02 -0.15292490487E+02  0.32104649419E+02  0.41800000000E+01 0.  1.
         -5    1    3    3    0  502 -0.74365462697E+01 -0.16732325715E+02  0.15436856640E+03  0.15550691186E+03  0.41800000000E+01 0.  1.
        -11    1    1    2    0    0 -0.74160066681E+01  0.10498169200E+02 -0.79528503842E+01  0.15114778883E+02  0.00000000000E+00 0.  1.
         11    1    1    2    0    0  0.16698357862E+02 -0.21622060982E+02  0.16510193454E+03  0.16734693742E+03  0.00000000000E+00 0. -1.
</event>
<event>
 7    1  0.2670433E-009  0.1500195E+03  0.7561462E-02  0.1200449E+00
         -1   -1    0    0    0  501 -0.00000000000E+00  0.00000000000E+00  0.15476576570E+02  0.15476576570E+02  0.00000000000E+00 0.  1.
          1   -1    0    0  501    0  0.00000000000E+00 -0.00000000000E+00 -0.24743681301E+04  0.24743681301E+04  0.00000000000E+00 0. -1.
         25    2    1    2    0    0  0.69294049026E+02  0.90828054008E+02 -0.19999459153E+04  0.20071078914E+04  0.12508806057E+03 0.  0.
          5    1    3    3  502    0  0.85237755364E+02  0.30211968484E+02 -0.15687914051E+04  0.15714013437E+04  0.41800000000E+01 0. -1.
         -5    1    3    3    0  502 -0.15943706338E+02  0.60616085524E+02 -0.43115451024E+03  0.43570654769E+03  0.41800000000E+01 0. -1.
        -11    1    1    2    0    0 -0.60317137591E+02 -0.51409930035E+01 -0.14370746226E+03  0.15593723611E+03  0.00000000000E+00 0.  1.
         11    1    1    2    0    0 -0.89769114357E+01 -0.85687061004E+02 -0.31523817598E+03  0.32679957919E+03  0.00000000000E+00 0. -1.
</event>
<event>
 7    1  0.2707112E-009  0.1040628E+03  0.7561462E-02  0.1271977E+00
          1   -1    0    0  501    0  0.00000000000E+00  0.00000000000E+00  0.10771950189E+04  0.10771950189E+04  0.00000000000E+00 0. -1.
         -1   -1    0    0    0  501 -0.00000000000E+00 -0.00000000000E+00 -0.22933766038E+02  0.22933766038E+02  0.00000000000E+00 0.  1.
         25    2    1    2    0    0  0.75934137151E+02  0.36866273071E+02  0.83153500944E+03  0.84511861573E+03  0.12509951022E+03 0.  0.
          5    1    3    3  502    0 -0.12059911287E+02  0.24375355359E+01  0.62283741784E+01  0.14409999468E+02  0.41800000000E+01 0. -1.
         -5    1    3    3    0  502  0.87994048439E+02  0.34428737536E+02  0.82530663526E+03  0.83070861626E+03  0.41800000000E+01 0. -1.
        -11    1    1    2    0    0 -0.57028457651E+02 -0.51344454422E+02  0.21748748468E+03  0.23062806415E+03  0.00000000000E+00 0. -1.
         11    1    1    2    0    0 -0.18905679500E+02  0.14478181350E+02  0.52387587119E+01  0.24382105024E+02  0.00000000000E+00 0.  1.
</event>
<event>
 7    1  0.2670433E-009  0.1076775E+03  0.7561462E-02  0.1264932E+00
          1   -1    0    0  501    0  0.00000000000E+00  0.00000000000E+00  0.60518612463E+02  0.60518612463E+02  0.00000000000E+00 0. -1.
         -1   -1    0    0    0  501 -0.00000000000E+00 -0.00000000000E+00 -0.35456463921E+03  0.35456463921E+03  0.00000000000E+00 0.  1.
         25    2    1    2    0    0  0.78534719542E+02 -0.52043116736E+02 -0.19769385957E+03  0.25220244950E+03  0.12508806998E+03 0.  0.
          5    1    3    3  502    0  0.40208706678E+02 -0.48200695392E+02 -0.20352149011E+03  0.21302233795E+03  0.41800000000E+01 0.  1.
         -5    1    3    3    0  502  0.38326012864E+02 -0.38424213436E+01  0.58276305409E+01  0.39180111556E+02  0.41800000000E+01 0.  1.
        -11    1    1    2    0    0 -0.56299296163E+02  0.66537177123E+02 -0.31278255492E+02  0.92602029970E+02  0.00000000000E+00 0.  1.
         11    1    1    2    0    0 -0.22235423379E+02 -0.14494060387E+02 -0.65073911686E+02  0.70278772197E+02  0.00000000000E+00 0. -1.
</event>
<event>
 7    1  0.2670433E-009  0.7979729E+02  0.7561462E-02  0.1329628E+00
         -3   -1    0    0    0  501 -0.00000000000E+00  0.00000000000E+00  0.10027831135E+03  0.10027831135E+03  0.00000000000E+00 0.  1.
          3   -1    0    0  501    0  0.00000000000E+00 -0.00000000000E+00 -0.15689593459E+03  0.15689593459E+03  0.00000000000E+00 0. -1.
         25    2    1    2    0    0  0.47850620959E+02 -0.36131985860E+02 -0.52006618218E+02  0.14814510127E+03  0.12508829027E+03 0.  0.
          5    1    3    3  502    0  0.16782425947E+02  0.40547439602E+01  0.39551088940E+02  0.43357257819E+02  0.41800000000E+01 0.  1.
         -5    1    3    3    0  502  0.31068195013E+02 -0.40186729821E+02 -0.91557707158E+02  0.10478784345E+03  0.41800000000E+01 0.  1.
        -11    1    1    2    0    0  0.16104486564E+02 -0.22710047953E+01 -0.26669134386E+02  0.31237072193E+02  0.00000000000E+00 0. -1.
         11    1    1    2    0    0 -0.63955107523E+02  0.38402990656E+02  0.22058129361E+02  0.77792072479E+02  0.00000000000E+00 0.  1.
</event>
<event>
 7    1  0.2670433E-009  0.1461036E+03  0.7561462E-02  0.1205344E+00
          1   -1    0    0  501    0  0.00000000000E+00  0.00000000000E+00  0.11103850339E+03  0.11103850339E+03  0.00000000000E+00 0. -1.
         -1   -1    0    0    0  501 -0.00000000000E+00 -0.00000000000E+00 -0.23496598110E+03  0.23496598110E+03  0.00000000000E+00 0.  1.
         25    2    1    2    0    0 -0.10137784318E+02  0.11750263860E+03 -0.70337816281E+02  0.18575297373E+03  0.12508842513E+03 0.  0.
          5    1    3    3  502    0  0.39000652171E+01 -0.24438742000E+02  0.30656492738E+01  0.25285039544E+02  0.41800000000E+01 0. -1.
         -5    1    3    3    0  502 -0.14037849535E+02  0.14194138060E+03 -0.73403465555E+02  0.16046793418E+03  0.41800000000E+01 0. -1.
        -11    1    1    2    0    0 -0.11672321820E+02 -0.81413004913E+02 -0.76446584455E+02  0.11228713524E+03  0.00000000000E+00 0. -1.
         11    1    1    2    0    0  0.21810106138E+02 -0.36089633686E+02  0.22856923026E+02  0.47964375526E+02  0.00000000000E+00 0.  1.
</event>
<event>
 7    1  0.2670433E-009  0.9619145E+02  0.7561462E-02  0.1288515E+00
          2   -1    0    0  501    0  0.00000000000E+00  0.00000000000E+00  0.26824064036E+03  0.26824064036E+03  0.00000000000E+00 0. -1.
         -2   -1    0    0    0  501 -0.00000000000E+00 -0.00000000000E+00 -0.13541382710E+03  0.13541382710E+03  0.00000000000E+00 0.  1.
         25    2    1    2    0    0  0.53082999476E+02  0.17405994734E+02  0.22488057255E+03  0.26332561592E+03  0.12509330360E+03 0.  0.
          5    1    3    3  502    0  0.48058730656E+02 -0.17412046544E+02  0.22192767809E+03  0.22777661789E+03  0.41800000000E+01 0. -1.
         -5    1    3    3    0  502  0.50242688208E+01  0.34818041277E+02  0.29528944649E+01  0.35548998035E+02  0.41800000000E+01 0. -1.
        -11    1    1    2    0    0 -0.46698571172E+02  0.31512877240E+02 -0.44293554812E+02  0.71664056398E+02  0.00000000000E+00 0. -1.
         11    1    1    2    0    0 -0.63844283044E+01 -0.48918871974E+02 -0.47760204479E+02  0.68664795141E+02  0.00000000000E+00 0.  1.
</event>
<event>
 7    1  0.2670433E-009  0.1132427E+03  0.7561462E-02  0.1254680E+00
         -1   -1    0    0    0  501 -0.00000000000E+00  0.00000000000E+00  0.26908211137E+03  0.26908211137E+03  0.00000000000E+00 0.  1.
          1   -1    0    0  501    0  0.00000000000E+00 -0.00000000000E+00 -0.96480447091E+02  0.96480447091E+02  0.00000000000E+00 0. -1.
         25    2    1    2    0    0  0.86268003170E+02 -0.19968510803E+02  0.18264442658E+03  0.23842999657E+03  0.12509583090E+03 0.  0.
          5    1    3    3  502    0 -0.16983965863E+02 -0.36843154661E+01 -0.90602836905E+01  0.20039720992E+02  0.41800000000E+01 0. -1.
         -5    1    3    3    0  502  0.10325196903E+03 -0.16284195337E+02  0.19170471027E+03  0.21839027558E+03  0.41800000000E+01 0. -1.
        -11    1    1    2    0    0 -0.51909239195E+00  0.18224941055E+02  0.27915124529E+02  0.33341747267E+02  0.00000000000E+00 0.  1.
         11    1    1    2    0    0 -0.85748910778E+02  0.17435697479E+01 -0.37957886832E+02  0.93790814624E+02  0.00000000000E+00 0. -1.
</event>
<event>
 7    1  0.2670433E-009  0.1307028E+03  0.7561462E-02  0.1226417E+00
          1   -1    0    0  501    0  0.00000000000E+00  0.00000000000E+00  0.22744690243E+04  0.22744690243E+04  0.00000000000E+00 0. -1.
         -1   -1    0    0    0  501 -0.00000000000E+00 -0.00000000000E+00 -0.15967050144E+02  0.15967050144E+02  0.00000000000E+00 0.  1.
         25    2    1    2    0    0  0.72732716654E+02  0.86147454740E+01  0.19522820008E+04  0.19576559707E+04  0.12509047529E+03 0.  0.
          5    1    3    3  502    0  0.94103423603E+02  0.42624278282E+02  0.15092380899E+04  0.15127753858E+04  0.41800000000E+01 0.  1.
         -5    1    3    3    0  502 -0.21370706949E+02 -0.34009532808E+02  0.44304391088E+03  0.44488058488E+03  0.41800000000E+01 0.  1.
        -11    1    1    2    0    0 -0.56308883812E+01  0.36397300775E+02  0.17376383237E+03  0.17762415333E+03  0.00000000000E+00 0.  1.
         11    1    1    2    0    0 -0.67101828273E+02 -0.45012046249E+02  0.13245614095E+03  0.15515595039E+03  0.00000000000E+00 0. -1.
</event>
<event>
 7    1  0.2670433E-009  0.9073846E+02  0.7561462E-02  0.1301073E+00
         -1   -1    0    0    0  501 -0.00000000000E+00  0.00000000000E+00  0.22903985407E+02  0.22903985407E+02  0.00000000000E+00 0.  1.
          1   -1    0    0  501    0  0.00000000000E+00 -0.00000000000E+00 -0.65101704361E+03  0.65101704361E+03  0.00000000000E+00 0. -1.
         25    2    1    2    0    0  0.43970291867E+02 -0.30215527275E+02 -0.32488415601E+03  0.35219471759E+03  0.12508013279E+03 0.  0.
          5    1    3    3  502    0 -0.16569984547E+02 -0.65254772819E+01 -0.25863833326E+03  0.25928441156E+03  0.41800000000E+01 0.  1.
         -5    1    3    3    0  502  0.60540276414E+02 -0.23690049993E+02 -0.66245822742E+02  0.92910306036E+02  0.41800000000E+01 0.  1.
        -11    1    1    2    0    0 -0.37532060968E+02  0.58239570844E+02 -0.26489787150E+03  0.27380903114E+03  0.00000000000E+00 0. -1.
         11    1    1    2    0    0 -0.64382308986E+01 -0.28024043569E+02 -0.38331030702E+02  0.47917280283E+02  0.00000000000E+00 0.  1.
</event>
<event>
 7    1  0.2670433E-009  0.1840349E+03  0.7561462E-02  0.1163954E+00
          2   -1    0    0  501    0  0.00000000000E+00  0.00000000000E+00  0.61813365062E+02  0.61813365062E+02  0.00000000000E+00 0. -1.
         -2   -1    0    0    0  501 -0.00000000000E+00 -0.00000000000E+00 -0.73126002383E+03  0.73126002383E+03  0.00000000000E+00 0.  1.
         25    2    1    2    0    0  0.15418312935E+03 -0.79108616510E+02 -0.42966476371E+03  0.47988556784E+03  0.12509092079E+03 0.  0.
          5    1    3    3  502    0  0.10452262890E+02 -0.17733686372E+02 -0.20558648858E+03  0.20665674468E+03  0.41800000000E+01 0.  1.
         -5    1    3    3    0  502  0.14373086646E+03 -0.61374930138E+02 -0.22407827513E+03  0.27322882317E+03  0.41800000000E+01 0.  1.
        -11    1    1    2    0    0 -0.10780490071E+03  0.92928480273E+02 -0.12816027001E+03  0.19152716223E+03  0.00000000000E+00 0. -1.
         11    1    1    2    0    0 -0.46378228640E+02 -0.13819863763E+02 -0.11162162504E+03  0.12166065882E+03  0.00000000000E+00 0.  1.
</event>
<event>
 7    1  0.2670433E-009  0.1380044E+03  0.7561462E-02  0.1216040E+00
         -1   -1    0    0    0  501 -0.00000000000E+00  0.00000000000E+00  0.28766777798E+03  0.28766777798E+03  0.00000000000E+00 0.  1.
          1   -1    0    0  501    0  0.00000000000E+00 -0.00000000000E+00 -0.78822719073E+02  0.78822719073E+02  0.00000000000E+00 0. -1.
         25    2    1    2    0    0  0.75035828610E+02  0.72973876055E+02  0.11492846276E+03  0.19952619907E+03  0.12508633180E+03 0.  0.
          5    1    3    3  502    0 -0.10562587316E+02  0.55383991178E+02  0.18658357712E+01  0.56567733494E+02  0.41800000000E+01 0. -1.
         -5    1    3    3    0  502  0.85598415926E+02  0.17589884878E+02  0.11306262699E+03  0.14295846558E+03  0.41800000000E+01 0. -1.
        -11    1    1    2    0    0 -0.39921521791E+02 -0.85774865828E+02  0.43308892960E+02  0.10405150513E+03  0.00000000000E+00 0. -1.
         11    1    1    2    0    0 -0.35114306819E+02  0.12800989773E+02  0.50607703186E+02  0.62912792852E+02  0.00000000000E+00 0.  1.
</event>
<event>
 7    1  0.2670433E-009  0.2105474E+03  0.7561462E-02  0.1141133E+00
          4   -1    0    0  501    0  0.00000000000E+00  0.00000000000E+00  0.60687235678E+03  0.60687235678E+03  0.00000000000E+00 0. -1.
         -4   -1    0    0    0  501 -0.00000000000E+00 -0.00000000000E+00 -0.99939510521E+02  0.99939510521E+02  0.00000000000E+00 0.  1.
         25    2    1    2    0    0 -0.19576439158E+03  0.28036700288E+02  0.12107783796E+03  0.26347446108E+03  0.12509674345E+03 0.  0.
          5    1    3    3  502    0 -0.13053624678E+02  0.34948812536E+02  0.59772873478E+02  0.70583889229E+02  0.41800000000E+01 0.  1.
         -5    1    3    3    0  502 -0.18271076690E+03 -0.69121122482E+01  0.61304964485E+02  0.19289057185E+03  0.41800000000E+01 0.  1.
        -11    1    1    2    0    0  0.17632466354E+03 -0.35462401106E+02  0.26228447455E+03  0.31802690838E+03  0.00000000000E+00 0.  1.
         11    1    1    2    0    0  0.19439728042E+02  0.74257008174E+01  0.12357053375E+03  0.12531049785E+03  0.00000000000E+00 0. -1.
</event>
<event>
 7    1  0.2670433E-009  0.2313717E+03  0.7561462E-02  0.1125678E+00
         -1   -1    0    0    0  501 -0.00000000000E+00  0.00000000000E+00  0.22237513988E+03  0.22237513988E+03  0.00000000000E+00 0.  1.
          1   -1    0    0  501    0  0.00000000000E+00 -0.00000000000E+00 -0.29837381165E+03  0.29837381165E+03  0.00000000000E+00 0. -1.
         25    2    1    2    0    0  0.43992968768E+00  0.22832072207E+03  0.83180450701E+01  0.26047410214E+03  0.12508805838E+03 0.  0.
          5    1    3    3  502    0 -0.16679977463E+02  0.42210498248E+02  0.51331739788E+02  0.68646687613E+02  0.41800000000E+01 0. -1.
         -5    1    3    3    0  502  0.17119907151E+02  0.18611022382E+03 -0.43013694718E+02  0.19182741453E+03  0.41800000000E+01 0. -1.
        -11    1    1    2    0    0 -0.10253608586E+02 -0.19974773566E+03 -0.35902196115E+02  0.20320743607E+03  0.00000000000E+00 0.  1.
         11    1    1    2    0    0  0.98136788982E+01 -0.28572986409E+02 -0.48414520725E+02  0.57067413318E+02  0.00000000000E+00 0. -1.
</event>
<event>
 7    1  0.2670433E-009  0.1043388E+03  0.7561462E-02  0.1271428E+00
          1   -1    0    0  501    0  0.00000000000E+00  0.00000000000E+00  0.11123826771E+04  0.11123826771E+04  0.00000000000E+00 0. -1.
         -1   -1    0    0    0  501 -0.00000000000E+00 -0.00000000000E+00 -0.17880851227E+02  0.17880851227E+02  0.00000000000E+00 0.  1.
         25    2    1    2    0    0  0.12588309853E+02  0.39881298328E+02  0.91544923093E+03  0.92490197968E+03  0.12508954436E+03 0.  0.
          5    1    3    3  502    0 -0.32562551998E+02 -0.22608119997E+02  0.13838427355E+03  0.14401085532E+03  0.41800000000E+01 0. -1.
         -5    1    3    3    0  502  0.45150861851E+02  0.62489418325E+02  0.77706495737E+03  0.78089112436E+03  0.41800000000E+01 0. -1.
        -11    1    1    2    0    0  0.34471951474E+02 -0.23746557135E+02  0.12535925681E+03  0.13216337497E+03  0.00000000000E+00 0. -1.
         11    1    1    2    0    0 -0.47060261327E+02 -0.16134741194E+02  0.53693338112E+02  0.73198173660E+02  0.00000000000E+00 0.  1.
</event>
<event>
 7    1  0.3970467E-009  0.1198726E+03  0.7561462E-02  0.1243307E+00
         -2   -1    0    0    0  501 -0.00000000000E+00  0.00000000000E+00  0.32353694099E+02  0.32353694099E+02  0.00000000000E+00 0.  1.
          2   -1    0    0  501    0  0.00000000000E+00 -0.00000000000E+00 -0.54241711517E+03  0.54241711517E+03  0.00000000000E+00 0. -1.
         25    2    1    2    0    0 -0.47535448572E+02  0.55559738884E+02 -0.23543038021E+03  0.27644329678E+03  0.12508768504E+03 0.  0.
          5    1    3    3  502    0 -0.43678292577E+02  0.86137651026E+02 -0.22281167336E+03  0.24287857533E+03  0.41800000000E+01 0. -1.
         -5    1    3    3    0  502 -0.38571559945E+01 -0.30577912142E+02 -0.12618706851E+02  0.33564721449E+02  0.41800000000E+01 0. -1.
        -11    1    1    2    0    0 -0.78946625108E+01 -0.55987839573E+02 -0.17981601292E+03  0.18849605401E+03  0.00000000000E+00 0.  1.
         11    1    1    2    0    0  0.55430111083E+02  0.42810068866E+00 -0.94817027938E+02  0.10983145848E+03  0.00000000000E+00 0. -1.
</event>
<event>
 7    1  0.2670433E-009  0.2061906E+03  0.7561462E-02  0.1144619E+00
          1   -1    0    0  501    0  0.00000000000E+00  0.00000000000E+00  0.18490737646E+03  0.18490737646E+03  0.00000000000E+00 0.  1.
         -1   -1    0    0    0  501 -0.00000000000E+00 -0.00000000000E+00 -0.30139840551E+03  0.30139840551E+03  0.00000000000E+00 0. -1.
         25    2    1    2    0    0 -0.23313826855E+02 -0.19555054160E+03  0.13009412931E+02  0.23366716038E+03  0.12509016019E+03 0.  0.
          5    1    3    3  502    0 -0.44697442378E+01 -0.11779579694E+03  0.68322023379E+02  0.13631287419E+03  0.41800000000E+01 0.  1.
         -5    1    3    3    0  502 -0.18844082617E+02 -0.77754744654E+02 -0.55312610448E+02  0.97354286194E+02  0.41800000000E+01 0.  1.
        -11    1    1    2    0    0  0.52309223820E+02  0.16057395001E+03 -0.11722514464E+03  0.20557719439E+03  0.00000000000E+00 0. -1.
         11    1    1    2    0    0 -0.28995396965E+02  0.34976591586E+02 -0.12275297345E+02  0.47061427189E+02  0.00000000000E+00 0.  1.
</event>
<event>
 7    1  0.2670433E-009  0.2293962E+03  0.7561462E-02  0.1127065E+00
         -1   -1    0    0    0  501 -0.00000000000E+00  0.00000000000E+00  0.90916789512E+02  0.90916789512E+02  0.00000000000E+00 0.  1.
          1   -1    0    0  501    0  0.00000000000E+00 -0.00000000000E+00 -0.63922999208E+03  0.63922999208E+03  0.00000000000E+00 0. -1.
         25    2    1    2    0    0 -0.14028300719E+03 -0.16896994021E+03 -0.32994909104E+03  0.41562483250E+03  0.12508971144E+03 0.  0.
          5    1    3    3  502    0 -0.51527846458E+02 -0.13215636345E+03 -0.12451119837E+03  0.18878806710E+03  0.41800000000E+01 0. -1.
         -5    1    3    3    0  502 -0.88755160731E+02 -0.36813576764E+02 -0.20543789267E+03  0.22683676540E+03  0.41800000000E+01 0. -1.
        -11    1    1    2    0    0  0.62686328044E+02  0.92674196482E+02 -0.14556143984E+03  0.18359252487E+03  0.00000000000E+00 0. -1.
         11    1    1    2    0    0  0.77596679144E+02  0.76295743728E+02 -0.72802671686E+02  0.13092942423E+03  0.00000000000E+00 0.  1.
</event>
<event>
 7    1  0.2670433E-009  0.1275983E+03  0.7561462E-02  0.1231064E+00
         -2   -1    0    0    0  501 -0.00000000000E+00  0.00000000000E+00  0.46108469492E+02  0.46108469492E+02  0.00000000000E+00 0.  1.
          2   -1    0    0  501    0  0.00000000000E+00 -0.00000000000E+00 -0.46901165154E+03  0.46901165154E+03  0.00000000000E+00 0. -1.
         25    2    1    2    0    0 -0.88481880371E+02  0.45167140598E+02 -0.18844246495E+03  0.24704071451E+03  0.12509771495E+03 0.  0.
          5    1    3    3  502    0 -0.89937896822E+02 -0.38389499299E+01 -0.17368138871E+03  0.19566875072E+03  0.41800000000E+01 0.  1.
         -5    1    3    3    0  502  0.14560164510E+01  0.49006090528E+02 -0.14761076239E+02  0.51371963798E+02  0.41800000000E+01 0.  1.
        -11    1    1    2    0    0  0.83710390430E+01  0.13979940585E+02 -0.96889816576E+02  0.98250443203E+02  0.00000000000E+00 0. -1.
         11    1    1    2    0    0  0.80110841328E+02 -0.59147081183E+02 -0.13757090052E+03  0.16982896331E+03  0.00000000000E+00 0.  1.
</event>
<event>
 7    1  0.2670433E-009  0.1560091E+03  0.7561462E-02  0.1193278E+00
         -1   -1    0    0    0  501 -0.00000000000E+00  0.00000000000E+00  0.53142622869E+02  0.53142622869E+02  0.00000000000E+00 0.  1.
          1   -1    0    0  501    0  0.00000000000E+00 -0.00000000000E+00 -0.53938862167E+03  0.53938862167E+03  0.00000000000E+00 0. -1.
         25    2    1    2    0    0 -0.32268247023E+02 -0.12590068649E+03 -0.27905709415E+03  0.33228357715E+03  0.12508913311E+03 0.  0.
          5    1    3    3  502    0  0.75027676850E+01 -0.12605689790E+03 -0.25755873756E+03  0.28688082669E+03  0.41800000000E+01 0.  1.
         -5    1    3    3    0  502 -0.39771014708E+02  0.15621141092E+00 -0.21498356597E+02  0.45402750459E+02  0.41800000000E+01 0.  1.
        -11    1    1    2    0    0 -0.20504585208E+02  0.34066365847E+02 -0.18479249284E+02  0.43845614954E+02  0.00000000000E+00 0.  1.
         11    1    1    2    0    0  0.52772832231E+02  0.91834320644E+02 -0.18870965536E+03  0.21640205243E+03  0.00000000000E+00 0. -1.
</event>
<event>
 7    1  0.2670433E-009  0.5487152E+02  0.7561462E-02  0.1420707E+00
         -1   -1    0    0    0  501 -0.00000000000E+00  0.00000000000E+00  0.18429882566E+02  0.18429882566E+02  0.00000000000E+00 0.  1.
          1   -1    0    0  501    0  0.00000000000E+00 -0.00000000000E+00 -0.70043666041E+03  0.70043666041E+03  0.00000000000E+00 0. -1.
         25    2    1    2    0    0 -0.29222102714E+01  0.51992357434E+01 -0.27254117492E+03  0.29993658934E+03  0.12509074399E+03 0.  0.
          5    1    3    3  502    0 -0.80761775550E+01 -0.52696331254E+01 -0.28331735922E+03  0.28351224332E+03  0.41800000000E+01 0. -1.
         -5    1    3    3    0  502  0.51539672836E+01  0.10468868869E+02  0.10776184297E+02  0.16424346019E+02  0.41800000000E+01 0. -1.
        -11    1    1    2    0    0 -0.40403461228E+02  0.87150757076E+01 -0.23615923018E+03  0.23974898169E+03  0.00000000000E+00 0.  1.
         11    1    1    2    0    0  0.43325671499E+02 -0.13914311451E+02 -0.17330637274E+03  0.17918097195E+03  0.00000000000E+00 0. -1.
</event>
<event>
 7    1  0.2670433E-009  0.1141254E+03  0.7561462E-02  0.1253116E+00
         -2   -1    0    0    0  501 -0.00000000000E+00  0.00000000000E+00  0.22179704166E+03  0.22179704166E+03  0.00000000000E+00 0.  1.
          2   -1    0    0  501    0  0.00000000000E+00 -0.00000000000E+00 -0.69928926373E+02  0.69928926373E+02  0.00000000000E+00 0. -1.
         25    2    1    2    0    0 -0.44218863715E+02 -0.35436589511E+01  0.13558782199E+03  0.18973469562E+03  0.12508929541E+03 0.  0.
          5    1    3    3  502    0 -0.27543505228E+02 -0.62418757048E+02  0.51154319399E+02  0.85375539265E+02  0.41800000000E+01 0.  1.
         -5    1    3    3    0  502 -0.16675358488E+02  0.58875098097E+02  0.84433502588E+02  0.10435915636E+03  0.41800000000E+01 0.  1.
        -11    1    1    2    0    0  0.68800265981E+02  0.16536325015E+02  0.21251434953E+01  0.70791545250E+02  0.00000000000E+00 0.  1.
         11    1    1    2    0    0 -0.24581402265E+02 -0.12992666064E+02  0.14155149805E+02  0.31199727159E+02  0.00000000000E+00 0. -1.
</event>
<event>
 7    1  0.2670433E-009  0.4983939E+02  0.7561462E-02  0.1446210E+00
         -4   -1    0    0    0  501 -0.00000000000E+00  0.00000000000E+00  0.10152101555E+03  0.10152101555E+03  0.00000000000E+00 0.  1.
          4   -1    0    0  501    0  0.00000000000E+00 -0.00000000000E+00 -0.14198727596E+03  0.14198727596E+03  0.00000000000E+00 0. -1.
         25    2    1    2    0    0  0.14700413377E+01 -0.20445725896E+02 -0.67390407525E+02  0.14355825010E+03  0.12508922982E+03 0.  0.
          5    1    3    3  502    0  0.19062778127E+02  0.84138740221E+01 -0.96465406735E+02  0.98778691439E+02  0.41800000000E+01 0. -1.
         -5    1    3    3    0  502 -0.17592736789E+02 -0.28859599918E+02  0.29074999209E+02  0.44779558664E+02  0.41800000000E+01 0. -1.
        -11    1    1    2    0    0 -0.18971141438E+02  0.22175078329E+01 -0.31193327535E+02  0.36576566694E+02  0.00000000000E+00 0. -1.
         11    1    1    2    0    0  0.17501100100E+02  0.18228218063E+02  0.58117474649E+02  0.63373474720E+02  0.00000000000E+00 0.  1.
</event>
<event>
 7    1  0.2670433E-009  0.7737644E+02  0.7561462E-02  0.1336666E+00
          3   -1    0    0  501    0  0.00000000000E+00  0.00000000000E+00  0.21550992122E+02  0.21550992122E+02  0.00000000000E+00 0. -1.
         -3   -1    0    0    0  501 -0.00000000000E+00 -0.00000000000E+00 -0.68612374609E+03  0.68612374609E+03  0.00000000000E+00 0.  1.
         25    2    1    2    0    0  0.37932722184E+02  0.22581666847E+02 -0.44896546219E+03  0.46815025882E+03  0.12508339419E+03 0.  0.
          5    1    3    3  502    0  0.32753134471E+01  0.13344416880E+02  0.30601468398E+01  0.14684619121E+02  0.41800000000E+01 0.  1.
         -5    1    3    3    0  502  0.34657408737E+02  0.92372499666E+01 -0.45202560903E+03  0.45346563970E+03  0.41800000000E+01 0.  1.
        -11    1    1    2    0    0 -0.52573738844E+02 -0.50409513120E+02 -0.15404959182E+03  0.17040068594E+03  0.00000000000E+00 0. -1.
         11    1    1    2    0    0  0.14641016660E+02  0.27827846273E+02 -0.61557699949E+02  0.69123793443E+02  0.00000000000E+00 0.  1.
</event>
<event>
 7    1  0.2670433E-009  0.9642011E+02  0.7561462E-02  0.1288009E+00
          2   -1    0    0  501    0  0.00000000000E+00  0.00000000000E+00  0.67150789404E+02  0.67150789404E+02  0.00000000000E+00 0. -1.
         -2   -1    0    0    0  501 -0.00000000000E+00 -0.00000000000E+00 -0.28926667860E+03  0.28926667860E+03  0.00000000000E+00 0.  1.
         25    2    1    2    0    0  0.82494181933E+02 -0.19904874985E+02 -0.96028441053E+02  0.17908263545E+03  0.12509050615E+03 0.  0.
          5    1    3    3  502    0  0.34841285944E+02 -0.17756321142E+02 -0.11946418529E+03  0.12577108616E+03  0.41800000000E+01 0. -1.
         -5    1    3    3    0  502  0.47652895989E+02 -0.21485538431E+01  0.23435744238E+02  0.53311549290E+02  0.41800000000E+01 0. -1.
        -11    1    1    2    0    0 -0.44757085056E+02 -0.21460045134E+02 -0.10738494196E+03  0.11830154673E+03  0.00000000000E+00 0.  1.
         11    1    1    2    0    0 -0.37737096876E+02  0.41364920119E+02 -0.18702506182E+02  0.59033285819E+02  0.00000000000E+00 0. -1.
</event>
<event>
 7    1  0.2670433E-009  0.1053122E+03  0.7561462E-02  0.1269506E+00
         -1   -1    0    0    0  501 -0.00000000000E+00  0.00000000000E+00  0.18285588562E+03  0.18285588562E+03  0.00000000000E+00 0.  1.
          1   -1    0    0  501    0  0.00000000000E+00 -0.00000000000E+00 -0.83618256437E+02  0.83618256437E+02  0.00000000000E+00 0. -1.
         25    2    1    2    0    0  0.56214901412E+02  0.16842045253E+02  0.41854075913E+02  0.14437156648E+03  0.12509043092E+03 0.  0.
          5    1    3    3  502    0 -0.65383333912E+00  0.49263033890E+02  0.58600449562E+02  0.76673066295E+02  0.41800000000E+01 0.  1.
         -5    1    3    3    0  502  0.56868734751E+02 -0.32420988638E+02 -0.16746373650E+02  0.67698500182E+02  0.41800000000E+01 0.  1.
        -11    1    1    2    0    0 -0.27241942452E+02  0.29990018454E+02  0.53204052110E+02  0.66874477915E+02  0.00000000000E+00 0.  1.
         11    1    1    2    0    0 -0.28972958960E+02 -0.46832063707E+02  0.41795011613E+01  0.55228097667E+02  0.00000000000E+00 0. -1.
</event>
<event>
 7    1  0.2670433E-009  0.7540946E+02  0.7561462E-02  0.1342608E+00
          1   -1    0    0  501    0  0.00000000000E+00  0.00000000000E+00  0.71134872843E+02  0.71134872843E+02  0.00000000000E+00 0. -1.
         -1   -1    0    0    0  501 -0.00000000000E+00 -0.00000000000E+00 -0.17091805167E+03  0.17091805167E+03  0.00000000000E+00 0.  1.
         25    2    1    2    0    0 -0.20745694858E+02 -0.25056745432E+01 -0.62122588502E+02  0.14121705997E+03  0.12508548982E+03 0.  0.
          5    1    3    3  502    0  0.40602770648E+01 -0.35809665354E+02 -0.85853994913E+02  0.93205143769E+02  0.41800000000E+01 0. -1.
         -5    1    3    3    0  502 -0.24805971922E+02  0.33303990810E+02  0.23731406411E+02  0.48011916200E+02  0.41800000000E+01 0. -1.
        -11    1    1    2    0    0  0.32969244990E+02 -0.25868351119E+02  0.10881443022E+02  0.43296056483E+02  0.00000000000E+00 0. -1.
         11    1    1    2    0    0 -0.12223550132E+02  0.28374025662E+02 -0.48542033351E+02  0.57539808063E+02  0.00000000000E+00 0.  1.
</event>
<event>
 7    1  0.2670433E-009  0.1147613E+03  0.7561462E-02  0.1251998E+00
          1   -1    0    0  501    0  0.00000000000E+00  0.00000000000E+00  0.25802329878E+03  0.25802329878E+03  0.00000000000E+00 0. -1.
         -1   -1    0    0    0  501 -0.00000000000E+00 -0.00000000000E+00 -0.74045644695E+02  0.74045644695E+02  0.00000000000E+00 0.  1.
         25    2    1    2    0    0  0.70833602837E+02  0.26219221699E+02  0.14952263471E+03  0.20906601795E+03  0.12508690856E+03 0.  0.
          5    1    3    3  502    0  0.12478017429E+02  0.63577992985E+02  0.11375051666E+03  0.13097524404E+03  0.41800000000E+01 0. -1.
         -5    1    3    3    0  502  0.58355585407E+02 -0.37358771286E+02  0.35772118057E+02  0.78090773914E+02  0.41800000000E+01 0. -1.
        -11    1    1    2    0    0 -0.34619123815E+02 -0.43053243895E+02  0.55117409075E+02  0.78038415712E+02  0.00000000000E+00 0. -1.
         11    1    1    2    0    0 -0.36214479021E+02  0.16834022197E+02 -0.20662389706E+02  0.44964509810E+02  0.00000000000E+00 0.  1.
</event>
<event>
 7    1  0.2670433E-009  0.1299965E+03  0.7561462E-02  0.1227461E+00
          1   -1    0    0  501    0  0.00000000000E+00  0.00000000000E+00  0.41241783845E+03  0.41241783845E+03  0.00000000000E+00 0. -1.
         -1   -1    0    0    0  501 -0.00000000000E+00 -0.00000000000E+00 -0.53155044526E+02  0.53155044526E+02  0.00000000000E+00 0.  1.
         25    2    1    2    0    0 -0.36266010121E+02 -0.89765330211E+02  0.23976315114E+03  0.28724021132E+03  0.12509009696E+03 0.  0.
          5    1    3    3  502    0 -0.81562043139E+02 -0.67002032640E+02  0.18051336150E+03  0.20915110647E+03  0.41800000000E+01 0. -1.
         -5    1    3    3    0  502  0.45296033018E+02 -0.22763297571E+02  0.59249789646E+02  0.78089104852E+02  0.41800000000E+01 0. -1.
        -11    1    1    2    0    0  0.38617052187E+02  0.47759525895E+02  0.11577879622E+02  0.62500370638E+02  0.00000000000E+00 0.  1.
         11    1    1    2    0    0 -0.23510420657E+01  0.42005804316E+02  0.10792176316E+03  0.11583230102E+03  0.00000000000E+00 0. -1.
</event>
<event>
 7    1  0.2670433E-009  0.1013659E+03  0.7561462E-02  0.1277450E+00
          2   -1    0    0  501    0  0.00000000000E+00  0.00000000000E+00  0.87981867265E+03  0.87981867265E+03  0.00000000000E+00 0. -1.
         -2   -1    0    0    0  501 -0.00000000000E+00 -0.00000000000E+00 -0.21516358913E+02  0.21516358913E+02  0.00000000000E+00 0.  1.
         25    2    1    2    0    0  0.12807217074E+02 -0.38084663059E+02  0.71271502869E+03  0.72472430547E+03  0.12509252754E+03 0.  0.
          5    1    3    3  502    0  0.48893106857E+01  0.44566550042E+02  0.17918630449E+03  0.18475737294E+03  0.41800000000E+01 0.  1.
         -5    1    3    3    0  502  0.79179063881E+01 -0.82651213101E+02  0.53352872421E+03  0.53996693253E+03  0.41800000000E+01 0.  1.
        -11    1    1    2    0    0  0.78074698821E+01 -0.15390541307E+02 -0.28522385689E+01  0.17491729832E+02  0.00000000000E+00 0.  1.
         11    1    1    2    0    0 -0.20614686956E+02  0.53475204365E+02  0.14843952361E+03  0.15911899626E+03  0.00000000000E+00 0. -1.
</event>
<event>
 7    1  0.2670433E-009  0.9141110E+02  0.7561462E-02  0.1299470E+00
          2   -1    0    0  501    0  0.00000000000E+00  0.00000000000E+00  0.61494575315E+03  0.61494575315E+03  0.00000000000E+00 0. -1.
         -2   -1    0    0    0  501 -0.00000000000E+00 -0.00000000000E+00 -0.22106892040E+02  0.22106892040E+02  0.00000000000E+00 0.  1.
         25    2    1    2    0    0 -0.11360382299E+02  0.37941260004E+02  0.36384889055E+03  0.38678246642E+03  0.12508422634E+03 0.  0.
          5    1    3    3  502    0  0.42086739391E+02  0.45870556768E+02  0.28056432915E+03  0.28741819149E+03  0.41800000000E+01 0. -1.
         -5    1    3    3    0  502 -0.53447121690E+02 -0.79292967642E+01  0.83284561400E+02  0.99364274927E+02  0.41800000000E+01 0. -1.
        -11    1    1    2    0    0 -0.11167883799E+02  0.88856352423E+01 -0.11677546488E+01  0.14319210632E+02  0.00000000000E+00 0.  1.
         11    1    1    2    0    0  0.22528266098E+02 -0.46826895246E+02  0.23015772521E+03  0.23595096814E+03  0.00000000000E+00 0. -1.
</event>
<event>
 7    1  0.2670433E-009  0.5413180E+02  0.7561462E-02  0.1424250E+00
         -1   -1    0    0    0  501 -0.00000000000E+00  0.00000000000E+00  0.46168789417E+02  0.46168789417E+02  0.00000000000E+00 0.  1.
          1   -1    0    0  501    0  0.00000000000E+00 -0.00000000000E+00 -0.26018626638E+03  0.26018626638E+03  0.00000000000E+00 0. -1.
         25    2    1    2    0    0  0.87457490398E+01 -0.11666693024E+02 -0.13015715235E+03  0.18110965305E+03  0.12508885749E+03 0.  0.
          5    1    3    3  502    0  0.11528202688E+01 -0.23694493240E+02  0.19332594913E+02  0.30886560678E+02  0.41800000000E+01 0. -1.
         -5    1    3    3    0  502  0.75929287710E+01  0.12027800216E+02 -0.14948974727E+03  0.15022309238E+03  0.41800000000E+01 0. -1.
        -11    1    1    2    0    0  0.26643770956E+02  0.19607318639E+02  0.85571798541E+00  0.33091837789E+02  0.00000000000E+00 0.  1.
         11    1    1    2    0    0 -0.35389519996E+02 -0.79406256153E+01 -0.84716042593E+02  0.92153564952E+02  0.00000000000E+00 0. -1.
</event>
<event>
 7    1  0.2837510E-009  0.1128316E+03  0.7561462E-02  0.1255414E+00
          2   -1    0    0  501    0  0.00000000000E+00  0.00000000000E+00  0.59811495910E+03  0.59811495910E+03  0.00000000000E+00 0. -1.
         -2   -1    0    0    0  501 -0.00000000000E+00 -0.00000000000E+00 -0.45167979104E+02  0.45167979104E+02  0.00000000000E+00 0.  1.
         25    2    1    2    0    0  0.21480238977E+02 -0.73185965399E+02  0.48390385554E+03  0.50559656159E+03  0.12508939000E+03 0.  0.
          5    1    3    3  502    0 -0.49751021048E+02 -0.48838345318E+02  0.26610897768E+03  0.27512144313E+03  0.41800000000E+01 0.  1.
         -5    1    3    3    0  502  0.71231260024E+02 -0.24347620081E+02  0.21779487786E+03  0.23047511846E+03  0.41800000000E+01 0.  1.
        -11    1    1    2    0    0 -0.28351034985E+01  0.52512346519E+02 -0.10311332565E+02  0.53590184997E+02  0.00000000000E+00 0.  1.
         11    1    1    2    0    0 -0.18645135478E+02  0.20673618880E+02  0.79354457024E+02  0.84096191615E+02  0.00000000000E+00 0. -1.
</event>
<event>
 7    1  0.2670433E-009  0.1655357E+03  0.7561462E-02  0.1182585E+00
         -1   -1    0    0    0  501 -0.00000000000E+00  0.00000000000E+00  0.33160503429E+03  0.33160503429E+03  0.00000000000E+00 0.  1.
          1   -1    0    0  501    0  0.00000000000E+00 -0.00000000000E+00 -0.13358584849E+03  0.13358584849E+03  0.00000000000E+00 0. -1.
         25    2    1    2    0    0  0.30254611738E+02 -0.13121831256E+03 -0.26873526883E+02  0.18574858311E+03  0.12508702010E+03 0.  0.
          5    1    3    3  502    0 -0.48736319119E+02 -0.41200631881E+02 -0.10039212181E+02  0.64737771431E+02  0.41800000000E+01 0.  1.
         -5    1    3    3    0  502  0.78990930856E+02 -0.90017680676E+02 -0.16834314702E+02  0.12101081168E+03  0.41800000000E+01 0.  1.
        -11    1    1    2    0    0 -0.37236330202E+02  0.35948840492E+02  0.14808059295E+03  0.15686530983E+03  0.00000000000E+00 0.  1.
         11    1    1    2    0    0  0.69817184641E+01  0.95269472065E+02  0.76812119741E+02  0.12257698984E+03  0.00000000000E+00 0. -1.
</event>
<event>
 7    1  0.2670433E-009  0.2186665E+03  0.7561462E-02  0.1134881E+00
         -2   -1    0    0    0  501 -0.00000000000E+00  0.00000000000E+00  0.17579011827E+03  0.17579011827E+03  0.00000000000E+00 0.  1.
          2   -1    0    0  501    0  0.00000000000E+00 -0.00000000000E+00 -0.30549754175E+03  0.30549754175E+03  0.00000000000E+00 0. -1.
         25    2    1    2    0    0  0.51222756573E+02  0.18955898140E+03 -0.12565327883E+03  0.26456108992E+03  0.12508975016E+03 0.  0.
          5    1    3    3  502    0 -0.41713027044E+02  0.65137401409E+02 -0.41905451575E+02  0.88070409101E+02  0.41800000000E+01 0. -1.
         -5    1    3    3    0  502  0.92935783617E+02  0.12442157999E+03 -0.83747827260E+02  0.17649068081E+03  0.41800000000E+01 0. -1.
        -11    1    1    2    0    0  0.11581633823E+02 -0.52357258466E+02 -0.33166206679E+02  0.63050884384E+02  0.00000000000E+00 0.  1.
         11    1    1    2    0    0 -0.62804390395E+02 -0.13720172293E+03  0.29112062035E+02  0.15367568573E+03  0.00000000000E+00 0. -1.
</event>
<event>
 7    1  0.2670433E-009  0.1428127E+03  0.7561462E-02  0.1209594E+00
         -2   -1    0    0    0  501 -0.00000000000E+00  0.00000000000E+00  0.36501087021E+03  0.36501087021E+03  0.00000000000E+00 0.  1.
          2   -1    0    0  501    0  0.00000000000E+00 -0.00000000000E+00 -0.73304964280E+02  0.73304964280E+02  0.00000000000E+00 0. -1.
         25    2    1    2    0    0  0.12497935197E+03  0.20338240359E+02  0.14003932503E+03  0.22647520117E+03  0.12508605738E+03 0.  0.
          5    1    3    3  502    0  0.90353363455E+02  0.53546659393E+02  0.14385618540E+03  0.17816579216E+03  0.41800000000E+01 0.  1.
         -5    1    3    3    0  502  0.34625988517E+02 -0.33208419033E+02 -0.38168603708E+01  0.48309409006E+02  0.41800000000E+01 0.  1.
        -11    1    1    2    0    0 -0.17668560799E+02  0.10687551702E+02 -0.31945640821E+01  0.20895143976E+02  0.00000000000E+00 0. -1.
         11    1    1    2    0    0 -0.10731079117E+03 -0.31025792062E+02  0.15486114498E+03  0.19094548934E+03  0.00000000000E+00 0.  1.
</event>
<event>
 7    1  0.2670433E-009  0.3062908E+03  0.7561462E-02  0.1082138E+00
         -2   -1    0    0    0  501 -0.00000000000E+00  0.00000000000E+00  0.55229139156E+03  0.55229139156E+03  0.00000000000E+00 0.  1.
          2   -1    0    0  501    0  0.00000000000E+00 -0.00000000000E+00 -0.18399796447E+03  0.18399796447E+03  0.00000000000E+00 0. -1.
         25    2    1    2    0    0  0.25482690781E+03 -0.15247237146E+03  0.23393908725E+03  0.39819596995E+03  0.12509179403E+03 0.  0.
          5    1    3    3  502    0  0.18995260171E+02 -0.32888754234E+02 -0.88225410402E+01  0.39214789231E+02  0.41800000000E+01 0.  1.
         -5    1    3    3    0  502  0.23583164764E+03 -0.11958361723E+03  0.24276162829E+03  0.35898118072E+03  0.41800000000E+01 0.  1.
        -11    1    1    2    0    0 -0.39972488277E+02  0.68360258601E+02  0.41205032303E+02  0.89268020378E+02  0.00000000000E+00 0.  1.
         11    1    1    2    0    0 -0.21485441954E+03  0.84112112863E+02  0.93149307536E+02  0.24882536571E+03  0.00000000000E+00 0. -1.
</event>
<event>
 7    1  0.2670433E-009  0.1175043E+03  0.7561462E-02  0.1247272E+00
          1   -1    0    0  501    0  0.00000000000E+00  0.00000000000E+00  0.21523432410E+02  0.21523432410E+02  0.00000000000E+00 0. -1.
         -1   -1    0    0    0  501 -0.00000000000E+00 -0.00000000000E+00 -0.69592507183E+03  0.69592507183E+03  0.00000000000E+00 0.  1.
         25    2    1    2    0    0 -0.45754575682E+02 -0.21659629179E+02 -0.30480299665E+03  0.33333950403E+03  0.12509091673E+03 0.  0.
          5    1    3    3  502    0 -0.72230845162E+02  0.25059285471E+02 -0.13504362391E+03  0.15524018662E+03  0.41800000000E+01 0.  1.
         -5    1    3    3    0  502  0.26476269480E+02 -0.46718914650E+02 -0.16975937274E+03  0.17809931741E+03  0.41800000000E+01 0.  1.
        -11    1    1    2    0    0  0.66619943478E+02  0.39219287731E+02 -0.27345539572E+03  0.28417287494E+03  0.00000000000E+00 0. -1.
         11    1    1    2    0    0 -0.20865367795E+02 -0.17559658551E+02 -0.96143247049E+02  0.99936125274E+02  0.00000000000E+00 0.  1.
</event>
<event>
 7    1  0.2670433E-009  0.1832399E+03  0.7561462E-02  0.1164704E+00
         -2   -1    0    0    0  501 -0.00000000000E+00  0.00000000000E+00  0.13513151637E+03  0.13513151637E+03  0.00000000000E+00 0.  1.
          2   -1    0    0  501    0  0.00000000000E+00 -0.00000000000E+00 -0.47787036967E+03  0.47787036967E+03  0.00000000000E+00 0. -1.
         25    2    1    2    0    0  0.11049593766E+03  0.12027553888E+03 -0.37034171466E+03  0.42364614300E+03  0.12509001306E+03 0.  0.
          5    1    3    3  502    0  0.11768675856E+03  0.13924699105E+03 -0.30785823516E+03  0.35781847774E+03  0.41800000000E+01 0.  1.
         -5    1    3    3    0  502 -0.71908209007E+01 -0.18971452171E+02 -0.62483479507E+02  0.65827665263E+02  0.41800000000E+01 0.  1.
        -11    1    1    2    0    0 -0.71332740903E+02 -0.81053478854E+02 -0.27268229343E+02  0.11136239352E+03  0.00000000000E+00 0. -1.
         11    1    1    2    0    0 -0.39163196757E+02 -0.39222060023E+02  0.54871090707E+02  0.77993349511E+02  0.00000000000E+00 0.  1.
</event>
<event>
 7    1  0.2670433E-009  0.1185323E+03  0.7561462E-02  0.1245538E+00
          2   -1    0    0  501    0  0.00000000000E+00  0.00000000000E+00  0.57337733617E+03  0.57337733617E+03  0.00000000000E+00 0. -1.
         -2   -1    0    0    0  501 -0.00000000000E+00 -0.00000000000E+00 -0.30863472262E+02  0.30863472262E+02  0.00000000000E+00 0.  1.
         25    2    1    2    0    0 -0.59134797671E+02  0.20056525947E+02  0.40295267321E+03  0.42651819322E+03  0.12509086207E+03 0.  0.
          5    1    3    3  502    0 -0.48747389362E+02 -0.46171553585E+02  0.14308537085E+03  0.15811077155E+03  0.41800000000E+01 0.  1.
         -5    1    3    3    0  502 -0.10387408308E+02  0.66228079532E+02  0.25986730236E+03  0.26840742167E+03  0.41800000000E+01 0.  1.
        -11    1    1    2    0    0 -0.16668155687E+02  0.11776332716E+02  0.66989627417E+01  0.21479886593E+02  0.00000000000E+00 0.  1.
         11    1    1    2    0    0  0.75802953357E+02 -0.31832858662E+02  0.13286222795E+03  0.15624272862E+03  0.00000000000E+00 0. -1.
</event>
<event>
 7    1  0.2670433E-009  0.1014756E+03  0.7561462E-02  0.1277223E+00
         -1   -1    0    0    0  501 -0.00000000000E+00  0.00000000000E+00  0.18534817173E+02  0.18534817173E+02  0.00000000000E+00 0.  1.
          1   -1    0    0  501    0  0.00000000000E+00 -0.00000000000E+00 -0.66185317050E+03  0.66185317050E+03  0.00000000000E+00 0. -1.
         25    2    1    2    0    0 -0.14999428232E+02 -0.18678689104E+02 -0.39384696490E+03  0.41392769877E+03  0.12508729662E+03 0.  0.
          5    1    3    3  502    0  0.33407546682E+02 -0.45385094818E+02 -0.99700289722E+02  0.11460144492E+03  0.41800000000E+01 0.  1.
         -5    1    3    3    0  502 -0.48406974914E+02  0.26706405715E+02 -0.29414667518E+03  0.29932625385E+03  0.41800000000E+01 0.  1.
        -11    1    1    2    0    0 -0.13867612700E+02  0.47933421197E+02 -0.10494947446E+03  0.11620807089E+03  0.00000000000E+00 0.  1.
         11    1    1    2    0    0  0.28867040932E+02 -0.29254732094E+02 -0.14452191397E+03  0.15025221802E+03  0.00000000000E+00 0. -1.
</event>
<event>
 7    1  0.2670433E-009  0.1681077E+03  0.7561462E-02  0.1179836E+00
          1   -1    0    0  501    0  0.00000000000E+00  0.00000000000E+00  0.70728342399E+03  0.70728342399E+03  0.00000000000E+00 0. -1.
         -1   -1    0    0    0  501 -0.00000000000E+00 -0.00000000000E+00 -0.54694047348E+02  0.54694047348E+02  0.00000000000E+00 0.  1.
         25    2    1    2    0    0  0.11426282139E+03 -0.99928490953E+02  0.45453120601E+03  0.49526509258E+03  0.12508876462E+03 0.  0.
          5    1    3    3  502    0  0.68326509869E+02  0.35071611679E+01  0.87459694925E+02  0.11111922771E+03  0.41800000000E+01 0. -1.
         -5    1    3    3    0  502  0.45936311517E+02 -0.10343565212E+03  0.36707151108E+03  0.38414586487E+03  0.41800000000E+01 0. -1.
        -11    1    1    2    0    0 -0.56351931040E+02  0.67903950797E+02  0.43077324170E+02  0.98194411875E+02  0.00000000000E+00 0.  1.
         11    1    1    2    0    0 -0.57910890346E+02  0.32024540156E+02  0.15498084647E+03  0.16851796689E+03  0.00000000000E+00 0. -1.
</event>
<event>
 7    1  0.2670433E-009  0.1446417E+03  0.7561462E-02  0.1207216E+00
          1   -1    0    0  501    0  0.00000000000E+00  0.00000000000E+00  0.88137361613E+03  0.88137361613E+03  0.00000000000E+00 0. -1.
         -1   -1    0    0    0  501 -0.00000000000E+00 -0.00000000000E+00 -0.39501885042E+02  0.39501885042E+02  0.00000000000E+00 0.  1.
         25    2    1    2    0    0 -0.10642599771E+03 -0.51745922066E+02  0.67675336190E+03  0.69831727856E+03  0.12509106786E+03 0.  0.
          5    1    3    3  502    0  0.10587772388E+02 -0.24685589671E+02  0.29959866960E+02  0.40454236983E+02  0.41800000000E+01 0. -1.
         -5    1    3    3    0  502 -0.11701377010E+03 -0.27060332395E+02  0.64679349494E+03  0.65786304158E+03  0.41800000000E+01 0. -1.
        -11    1    1    2    0    0  0.26554074690E+02 -0.21027762945E+02  0.13695588580E+02  0.36535665365E+02  0.00000000000E+00 0.  1.
         11    1    1    2    0    0  0.79871923018E+02  0.72773685011E+02  0.15142278061E+03  0.18602255725E+03  0.00000000000E+00 0. -1.
</event>
<event>
 7    1  0.2670433E-009  0.1492101E+03  0.7561462E-02  0.1201447E+00
         -4   -1    0    0    0  501 -0.00000000000E+00  0.00000000000E+00  0.93652172430E+02  0.93652172430E+02  0.00000000000E+00 0.  1.
          4   -1    0    0  501    0  0.00000000000E+00 -0.00000000000E+00 -0.26666480932E+03  0.26666480932E+03  0.00000000000E+00 0. -1.
         25    2    1    2    0    0  0.10521082446E+03 -0.26920002283E+02 -0.13547745349E+03  0.21399883145E+03  0.12508938944E+03 0.  0.
          5    1    3    3  502    0  0.57009771388E+01 -0.57570058772E+02 -0.28391830533E+02  0.64578489053E+02  0.41800000000E+01 0.  1.
         -5    1    3    3    0  502  0.99509847322E+02  0.30650056488E+02 -0.10708562296E+03  0.14942034239E+03  0.41800000000E+01 0.  1.
        -11    1    1    2    0    0 -0.68448986121E+02  0.56713782925E+02 -0.42888371956E+02  0.98697159654E+02  0.00000000000E+00 0.  1.
         11    1    1    2    0    0 -0.36761838339E+02 -0.29793780641E+02  0.53531885553E+01  0.47620990652E+02  0.00000000000E+00 0. -1.
</event>
<event>
 7    1  0.2670433E-009  0.1367662E+03  0.7561462E-02  0.1217748E+00
          2   -1    0    0  501    0  0.00000000000E+00  0.00000000000E+00  0.14287382021E+03  0.14287382021E+03  0.00000000000E+00 0. -1.
         -2   -1    0    0    0  501 -0.00000000000E+00 -0.00000000000E+00 -0.19726855531E+03  0.19726855531E+03  0.00000000000E+00 0.  1.
         25    2    1    2    0    0  0.11805688194E+03  0.47044641845E+02 -0.17197505783E+02  0.17914906945E+03  0.12509200285E+03 0.  0.
          5    1    3    3  502    0  0.61977208251E+01  0.11859072968E+02 -0.54304264122E+02  0.56084533135E+02  0.41800000000E+01 0.  1.
         -5    1    3    3    0  502  0.11185916112E+03  0.35185568876E+02  0.37106758339E+02  0.12306453631E+03  0.41800000000E+01 0.  1.
        -11    1    1    2    0    0 -0.68529164640E+02 -0.59889067694E+02 -0.55562707439E+02  0.10663095842E+03  0.00000000000E+00 0.  1.
         11    1    1    2    0    0 -0.49527717303E+02  0.12844425849E+02  0.18365478119E+02  0.54362347661E+02  0.00000000000E+00 0. -1.
</event>
<event>
 7    1  0.2670433E-009  0.2007849E+03  0.7561462E-02  0.1149078E+00
          1   -1    0    0  501    0  0.00000000000E+00  0.00000000000E+00  0.13808130492E+03  0.13808130492E+03  0.00000000000E+00 0. -1.
         -1   -1    0    0    0  501 -0.00000000000E+00 -0.00000000000E+00 -0.31567062788E+03  0.31567062788E+03  0.00000000000E+00 0.  1.
         25    2    1    2    0    0  0.54846154779E+01 -0.17761037590E+03 -0.88551740722E+02  0.23465948235E+03  0.12509250672E+03 0.  0.
          5    1    3    3  502    0 -0.12143233818E+02  0.10335672855E+02 -0.34534846918E+02  0.38267640541E+02  0.41800000000E+01 0.  1.
         -5    1    3    3    0  502  0.17627849296E+02 -0.18794604875E+03 -0.54016893804E+02  0.19639184181E+03  0.41800000000E+01 0.  1.
        -11    1    1    2    0    0  0.79811280671E+01  0.18194610868E+03 -0.92873916420E+02  0.20443495107E+03  0.00000000000E+00 0. -1.
         11    1    1    2    0    0 -0.13465743545E+02 -0.43357327845E+01  0.38363341799E+01  0.14657499375E+02  0.00000000000E+00 0.  1.
</event>
<event>
 7    1  0.2670433E-009  0.1107476E+03  0.7561462E-02  0.1259192E+00
          2   -1    0    0  501    0  0.00000000000E+00  0.00000000000E+00  0.24355382616E+03  0.24355382616E+03  0.00000000000E+00 0.  1.
         -2   -1    0    0    0  501 -0.00000000000E+00 -0.00000000000E+00 -0.90503063688E+02  0.90503063688E+02  0.00000000000E+00 0. -1.
         25    2    1    2    0    0  0.67637023003E+02 -0.73127097255E+02  0.96618371119E+02  0.18682193051E+03  0.12507991385E+03 0.  0.
          5    1    3    3  502    0  0.53534114597E+02 -0.31304188261E+02 -0.17351958248E+02  0.64532290239E+02  0.41800000000E+01 0.  1.
         -5    1    3    3    0  502  0.14102908405E+02 -0.41822908994E+02  0.11397032937E+03  0.12228964027E+03  0.41800000000E+01 0.  1.
        -11    1    1    2    0    0 -0.43908321936E+02  0.79159737206E+02  0.74148775617E+02  0.11701386950E+03  0.00000000000E+00 0.  1.
         11    1    1    2    0    0 -0.23728701067E+02 -0.60326399515E+01 -0.17716384268E+02  0.30221089832E+02  0.00000000000E+00 0. -1.
</event>
<event>
 7    1  0.2670433E-009  0.8180937E+02  0.7561462E-02  0.1323994E+00
          4   -1    0    0  501    0  0.00000000000E+00  0.00000000000E+00  0.12908315115E+03  0.12908315115E+03  0.00000000000E+00 0. -1.
         -4   -1    0    0    0  501 -0.00000000000E+00 -0.00000000000E+00 -0.12797346850E+03  0.12797346850E+03  0.00000000000E+00 0.  1.
         25    2    1    2    0    0 -0.21556353686E+02 -0.41085431130E+02 -0.48937928917E+02  0.14210669072E+03  0.12508677638E+03 0.  0.
          5    1    3    3  502    0 -0.30068620550E+02 -0.11062687710E+02 -0.86943801839E+02  0.92753447803E+02  0.41800000000E+01 0. -1.
         -5    1    3    3    0  502  0.85122668637E+01 -0.30022743420E+02  0.38005872922E+02  0.49353242914E+02  0.41800000000E+01 0. -1.
        -11    1    1    2    0    0  0.52583238135E+02  0.44130042200E+02  0.19642775694E+02  0.71402354263E+02  0.00000000000E+00 0.  1.
         11    1    1    2    0    0 -0.31026884448E+02 -0.30446110694E+01  0.30404835869E+02  0.43547574667E+02  0.00000000000E+00 0. -1.
</event>
<event>
 7    1  0.2670433E-009  0.7948619E+02  0.7561462E-02  0.1330516E+00
         -2   -1    0    0    0  501 -0.00000000000E+00  0.00000000000E+00  0.31682669162E+02  0.31682669162E+02  0.00000000000E+00 0.  1.
          2   -1    0    0  501    0  0.00000000000E+00 -0.00000000000E+00 -0.50974247304E+03  0.50974247304E+03  0.00000000000E+00 0. -1.
         25    2    1    2    0    0  0.63454296002E+02  0.24799039637E+02 -0.29471056714E+03  0.32732716377E+03  0.12508922299E+03 0.  0.
          5    1    3    3  502    0  0.20178246635E+01 -0.11221744795E+02  0.91495418778E+01  0.15204791652E+02  0.41800000000E+01 0.  1.
         -5    1    3    3    0  502  0.61436471339E+02  0.36020784432E+02 -0.30386010902E+03  0.31212237212E+03  0.41800000000E+01 0.  1.
        -11    1    1    2    0    0 -0.26343300848E+02 -0.27747133466E+02 -0.14057575322E+02  0.40761358406E+02  0.00000000000E+00 0.  1.
         11    1    1    2    0    0 -0.37110995154E+02  0.29480938292E+01 -0.16929166141E+03  0.17333662003E+03  0.00000000000E+00 0. -1.
</event>
<event>
 7    1  0.2670433E-009  0.8190707E+02  0.7561462E-02  0.1323725E+00
         -1   -1    0    0    0  501 -0.00000000000E+00  0.00000000000E+00  0.52985583872E+02  0.52985583872E+02  0.00000000000E+00 0. -1.
          1   -1    0    0  501    0  0.00000000000E+00 -0.00000000000E+00 -0.31144729863E+03  0.31144729863E+03  0.00000000000E+00 0.  1.
         25    2    1    2    0    0 -0.27626634892E+02 -0.13416617867E+02 -0.56912481414E+02  0.14081783094E+03  0.12508954544E+03 0.  0.
          5    1    3    3  502    0  0.15610621787E+02 -0.40359885981E+02  0.20488667108E+02  0.48061104740E+02  0.41800000000E+01 0. -1.
         -5    1    3    3    0  502 -0.43237256679E+02  0.26943268114E+02 -0.77401148522E+02  0.92756726195E+02  0.41800000000E+01 0. -1.
        -11    1    1    2    0    0  0.30497609158E+02  0.35587014117E+02 -0.19465937831E+03  0.20022191015E+03  0.00000000000E+00 0.  1.
         11    1    1    2    0    0 -0.28709742662E+01 -0.22170396250E+02 -0.68898550331E+01  0.23393141420E+02  0.00000000000E+00 0. -1.
</event>
<event>
 7    1  0.2670433E-009  0.1126635E+03  0.7561462E-02  0.1255715E+00
         -1   -1    0    0    0  501 -0.00000000000E+00  0.00000000000E+00  0.10315192079E+02  0.10315192079E+02  0.00000000000E+00 0. -1.
          1   -1    0    0  501    0  0.00000000000E+00 -0.00000000000E+00 -0.13943778998E+04  0.13943778998E+04  0.00000000000E+00 0.  1.
         25    2    1    2    0    0 -0.25983651000E+02 -0.30519470870E+02 -0.96425310907E+03  0.97315874986E+03  0.12508919163E+03 0.  0.
          5    1    3    3  502    0  0.44068421202E+02 -0.34578482550E+02 -0.30146199201E+03  0.30665045610E+03  0.41800000000E+01 0. -1.
         -5    1    3    3    0  502 -0.70052072202E+02  0.40590116803E+01 -0.66279111706E+03  0.66650829376E+03  0.41800000000E+01 0. -1.
        -11    1    1    2    0    0  0.59895890904E+02  0.22753147548E+02 -0.30056341631E+03  0.30731675954E+03  0.00000000000E+00 0.  1.
         11    1    1    2    0    0 -0.33912239904E+02  0.77663233215E+01 -0.11924618237E+03  0.12421758251E+03  0.00000000000E+00 0. -1.
</event>
<event>
 7    1  0.2670433E-009  0.7961756E+02  0.7561462E-02  0.1330140E+00
          2   -1    0    0  501    0  0.00000000000E+00  0.00000000000E+00  0.87484910043E+02  0.87484910043E+02  0.00000000000E+00 0. -1.
         -2   -1    0    0    0  501 -0.00000000000E+00 -0.00000000000E+00 -0.17953411026E+03  0.17953411026E+03  0.00000000000E+00 0.  1.
         25    2    1    2    0    0 -0.54210777373E+02 -0.30558519587E+02 -0.47525343576E+02  0.14757838549E+03  0.12509232622E+03 0.  0.
          5    1    3    3  502    0 -0.63374628856E+00 -0.33327085549E+02 -0.78572547472E+02  0.85452992234E+02  0.41800000000E+01 0. -1.
         -5    1    3    3    0  502 -0.53577031084E+02  0.27685659616E+01  0.31047203895E+02  0.62125393254E+02  0.41800000000E+01 0. -1.
        -11    1    1    2    0    0  0.33236022001E+02  0.37146584821E+02 -0.69908780185E+02  0.85858834544E+02  0.00000000000E+00 0.  1.
         11    1    1    2    0    0  0.20974755372E+02 -0.65880652337E+01  0.25384923541E+02  0.33581800274E+02  0.00000000000E+00 0. -1.
</event>
<event>
 7    1  0.2670433E-009  0.6695309E+02  0.7561462E-02  0.1370772E+00
         -3   -1    0    0    0  501 -0.00000000000E+00  0.00000000000E+00  0.17386101344E+03  0.17386101344E+03  0.00000000000E+00 0.  1.
          3   -1    0    0  501    0  0.00000000000E+00 -0.00000000000E+00 -0.73204116130E+02  0.73204116130E+02  0.00000000000E+00 0. -1.
         25    2    1    2    0    0 -0.15204451587E+02 -0.30229811759E+02  0.67014862365E+02  0.14588841095E+03  0.12508964707E+03 0.  0.
          5    1    3    3  502    0  0.61537563029E+01  0.52105709001E+01  0.95210301839E+02  0.95642525803E+02  0.41800000000E+01 0.  1.
         -5    1    3    3    0  502 -0.21358207890E+02 -0.35440382659E+02 -0.28195439474E+02  0.50245885149E+02  0.41800000000E+01 0.  1.
        -11    1    1    2    0    0 -0.27806486991E+02  0.29041541238E+02  0.41113013696E+02  0.57505580003E+02  0.00000000000E+00 0.  1.
         11    1    1    2    0    0  0.43010938578E+02  0.11882705207E+01 -0.74709787532E+01  0.43671138613E+02  0.00000000000E+00 0. -1.
</event>
<event>
 7    1  0.2670433E-009  0.1256077E+03  0.7561462E-02  0.1234123E+00
          1   -1    0    0  501    0  0.00000000000E+00  0.00000000000E+00  0.48385527970E+03  0.48385527970E+03  0.00000000000E+00 0. -1.
         -1   -1    0    0    0  501 -0.00000000000E+00 -0.00000000000E+00 -0.46696236190E+02  0.46696236190E+02  0.00000000000E+00 0.  1.
         25    2    1    2    0    0  0.90152226130E+02  0.19192861635E+02  0.15611640793E+03  0.22026424993E+03  0.12509283417E+03 0.  0.
          5    1    3    3  502    0  0.42653430807E+02 -0.51831611765E+02  0.88877727290E+02  0.11145651146E+03  0.41800000000E+01 0. -1.
         -5    1    3    3    0  502  0.47498795323E+02  0.71024473401E+02  0.67238680636E+02  0.10880773848E+03  0.41800000000E+01 0. -1.
        -11    1    1    2    0    0 -0.83241924709E+02 -0.27445983494E+02  0.28548894220E+03  0.29864098205E+03  0.00000000000E+00 0. -1.
         11    1    1    2    0    0 -0.69103014211E+01  0.82531218583E+01 -0.44463066231E+01  0.11646283902E+02  0.00000000000E+00 0.  1.
</event>
<event>
 7    1  0.2670433E-009  0.8469320E+02  0.7561462E-02  0.1316237E+00
          3   -1    0    0  501    0  0.00000000000E+00  0.00000000000E+00  0.17001307129E+03  0.17001307129E+03  0.00000000000E+00 0. -1.
         -3   -1    0    0    0  501 -0.00000000000E+00 -0.00000000000E+00 -0.72977778409E+02  0.72977778409E+02  0.00000000000E+00 0.  1.
         25    2    1    2    0    0 -0.21331779389E+02 -0.43507545746E+01  0.31970566110E+02  0.13093303273E+03  0.12508944034E+03 0.  0.
          5    1    3    3  502    0 -0.21432405180E+02 -0.43670910332E+02  0.63682261030E+02  0.80245867002E+02  0.41800000000E+01 0. -1.
         -5    1    3    3    0  502  0.10062579131E+00  0.39320155758E+02 -0.31711694920E+02  0.50687165723E+02  0.41800000000E+01 0. -1.
        -11    1    1    2    0    0 -0.14039508279E+02 -0.29116030251E+02  0.20061077431E+01  0.32386347101E+02  0.00000000000E+00 0.  1.
         11    1    1    2    0    0  0.35371287668E+02  0.33466784825E+02  0.63058619030E+02  0.79671469873E+02  0.00000000000E+00 0. -1.
</event>
<event>
 7    1  0.2670433E-009  0.9211723E+02  0.7561462E-02  0.1297804E+00
         -2   -1    0    0    0  501 -0.00000000000E+00  0.00000000000E+00  0.19764995491E+02  0.19764995491E+02  0.00000000000E+00 0.  1.
          2   -1    0    0  501    0  0.00000000000E+00 -0.00000000000E+00 -0.11287516748E+04  0.11287516748E+04  0.00000000000E+00 0. -1.
         25    2    1    2    0    0  0.33634417794E+02 -0.11028760928E+02 -0.96950817154E+03  0.97818532973E+03  0.12509011548E+03 0.  0.
          5    1    3    3  502    0 -0.27370436302E+02  0.46847063352E+01 -0.57461705631E+02  0.63956291878E+02  0.41800000000E+01 0.  1.
         -5    1    3    3    0  502  0.61004854097E+02 -0.15713467263E+02 -0.91204646591E+03  0.91422903785E+03  0.41800000000E+01 0.  1.
        -11    1    1    2    0    0 -0.44868551953E+02 -0.27675177587E+02 -0.10417405506E+03  0.11675331326E+03  0.00000000000E+00 0.  1.
         11    1    1    2    0    0  0.11234134159E+02  0.38703938515E+02 -0.35304452665E+02  0.53578027258E+02  0.00000000000E+00 0. -1.
</event>
<event>
 7    1  0.2670433E-009  0.8087744E+02  0.7561462E-02  0.1326580E+00
          1   -1    0    0  501    0  0.00000000000E+00  0.00000000000E+00  0.52818263925E+02  0.52818263925E+02  0.00000000000E+00 0. -1.
         -1   -1    0    0    0  501 -0.00000000000E+00 -0.00000000000E+00 -0.27186263475E+03  0.27186263475E+03  0.00000000000E+00 0.  1.
         25    2    1    2    0    0 -0.43848295380E+02 -0.10029065332E+02 -0.15336069535E+03  0.20295726154E+03  0.12509553140E+03 0.  0.
          5    1    3    3  502    0  0.21381469473E+00 -0.19113741476E+02  0.17483250972E+02  0.26239613078E+02  0.41800000000E+01 0. -1.
         -5    1    3    3    0  502 -0.44062110075E+02  0.90846761439E+01 -0.17084394632E+03  0.17671764846E+03  0.41800000000E+01 0. -1.
        -11    1    1    2    0    0  0.65752223227E+02 -0.10970923938E+02 -0.25505060588E+02  0.71373833769E+02  0.00000000000E+00 0.  1.
         11    1    1    2    0    0 -0.21903927846E+02  0.20999989270E+02 -0.40178614893E+02  0.50349803368E+02  0.00000000000E+00 0. -1.
</event>
<event>
 7    1  0.2670433E-009  0.5613161E+02  0.7561462E-02  0.1414822E+00
         -1   -1    0    0    0  501 -0.00000000000E+00  0.00000000000E+00  0.13388826547E+03  0.13388826547E+03  0.00000000000E+00 0. -1.
          1   -1    0    0  501    0  0.00000000000E+00 -0.00000000000E+00 -0.23999365808E+03  0.23999365808E+03  0.00000000000E+00 0.  1.
         25    2    1    2    0    0 -0.28420787268E+02 -0.78943491932E+01 -0.20059592331E+03  0.23823498356E+03  0.12508845289E+03 0.  0.
          5    1    3    3  502    0  0.16827316586E+02  0.39747787756E+01  0.11380941938E+02  0.21117662967E+02  0.41800000000E+01 0. -1.
         -5    1    3    3    0  502 -0.45248103854E+02 -0.11869127969E+02 -0.21197686525E+03  0.21711732060E+03  0.41800000000E+01 0. -1.
        -11    1    1    2    0    0  0.17224753793E+02 -0.14472000308E+02  0.10582254254E+03  0.10818752907E+03  0.00000000000E+00 0. -1.
         11    1    1    2    0    0  0.11196033475E+02  0.22366349501E+02 -0.11332011833E+02  0.27459410914E+02  0.00000000000E+00 0.  1.
</event>
<event>
 7    1  0.2670433E-009  0.9988979E+02  0.7561462E-02  0.1280528E+00
          2   -1    0    0  501    0  0.00000000000E+00  0.00000000000E+00  0.12054645072E+03  0.12054645072E+03  0.00000000000E+00 0. -1.
         -2   -1    0    0    0  501 -0.00000000000E+00 -0.00000000000E+00 -0.16881985329E+03  0.16881985329E+03  0.00000000000E+00 0.  1.
         25    2    1    2    0    0  0.84177086813E+01  0.71330569334E+02  0.51192738100E+02  0.15305707845E+03  0.12508742898E+03 0.  0.
          5    1    3    3  502    0  0.12647495674E+02  0.96519571684E+02  0.70922286262E+02  0.12051319411E+03  0.41800000000E+01 0. -1.
         -5    1    3    3    0  502 -0.42297869931E+01 -0.25189002350E+02 -0.19729548162E+02  0.32543884342E+02  0.41800000000E+01 0. -1.
        -11    1    1    2    0    0 -0.17980188984E+02 -0.46255310465E+02 -0.97496622231E+02  0.10940033039E+03  0.00000000000E+00 0.  1.
         11    1    1    2    0    0  0.95624803022E+01 -0.25075258870E+02 -0.19695184324E+01  0.26908895179E+02  0.00000000000E+00 0. -1.
</event>
<event>
 7    1  0.2670433E-009  0.1112890E+03  0.7561462E-02  0.1258201E+00
         -3   -1    0    0    0  501 -0.00000000000E+00  0.00000000000E+00  0.48517379115E+02  0.48517379115E+02  0.00000000000E+00 0.  1.
          3   -1    0    0  501    0  0.00000000000E+00 -0.00000000000E+00 -0.30031131677E+03  0.30031131677E+03  0.00000000000E+00 0. -1.
         25    2    1    2    0    0  0.38313135829E+02 -0.38282853718E-01 -0.87421169345E+02  0.15734556102E+03  0.12508903581E+03 0.  0.
          5    1    3    3  502    0  0.40658817496E+02  0.56858543304E+02 -0.66398398298E+02  0.96500015976E+02  0.41800000000E+01 0. -1.
         -5    1    3    3    0  502 -0.23456816674E+01 -0.56896826158E+02 -0.21022771047E+02  0.60845545045E+02  0.41800000000E+01 0. -1.
        -11    1    1    2    0    0  0.21745516839E+02  0.22539443768E+02 -0.34234363004E+02  0.46399198681E+02  0.00000000000E+00 0.  1.
         11    1    1    2    0    0 -0.60058652668E+02 -0.22501160914E+02 -0.13013840531E+03  0.14508393618E+03  0.00000000000E+00 0. -1.
</event>
<event>
 7    1  0.2670433E-009  0.2815927E+03  0.7561462E-02  0.1094822E+00
          1   -1    0    0  501    0  0.00000000000E+00  0.00000000000E+00  0.65318614551E+03  0.65318614551E+03  0.00000000000E+00 0. -1.
         -1   -1    0    0    0  501 -0.00000000000E+00 -0.00000000000E+00 -0.13590552333E+03  0.13590552333E+03  0.00000000000E+00 0.  1.
         25    2    1    2    0    0 -0.20838504004E+03  0.17100263167E+03  0.17584819552E+03  0.34530645308E+03  0.12509090183E+03 0.  0.
          5    1    3    3  502    0 -0.21972143468E+03  0.14352697114E+03  0.17463781642E+03  0.31526709252E+03  0.41800000000E+01 0. -1.
         -5    1    3    3    0  502  0.11336394645E+02  0.27475660525E+02  0.12103790945E+01  0.30039360553E+02  0.41800000000E+01 0. -1.
        -11    1    1    2    0    0  0.14877524345E+03 -0.10718551200E+03  0.28796814547E+03  0.34139194462E+03  0.00000000000E+00 0. -1.
         11    1    1    2    0    0  0.59609796586E+02 -0.63817119662E+02  0.53464281201E+02  0.10239327114E+03  0.00000000000E+00 0.  1.
</event>
<event>
 7    1  0.2670433E-009  0.1289844E+03  0.7561462E-02  0.1228970E+00
         -1   -1    0    0    0  501 -0.00000000000E+00  0.00000000000E+00  0.37945053460E+02  0.37945053460E+02  0.00000000000E+00 0.  1.
          1   -1    0    0  501    0  0.00000000000E+00 -0.00000000000E+00 -0.66405923309E+03  0.66405923309E+03  0.00000000000E+00 0. -1.
         25    2    1    2    0    0 -0.46353977954E+02 -0.10457326628E+03 -0.32483772082E+03  0.36640321617E+03  0.12509001822E+03 0.  0.
          5    1    3    3  502    0  0.21830695855E+01 -0.10629197770E+02 -0.20969432147E+03  0.21001649101E+03  0.41800000000E+01 0. -1.
         -5    1    3    3    0  502 -0.48537047540E+02 -0.93944068515E+02 -0.11514339934E+03  0.15638672516E+03  0.41800000000E+01 0. -1.
        -11    1    1    2    0    0 -0.20473661914E+02  0.50699203615E+02 -0.69433973808E+02  0.88377920309E+02  0.00000000000E+00 0.  1.
         11    1    1    2    0    0  0.66827639868E+02  0.53874062670E+02 -0.23184248500E+03  0.24722315007E+03  0.00000000000E+00 0. -1.
</event>
<event>
 7    1  0.2670433E-009  0.2439485E+03  0.7561462E-02  0.1117190E+00
         -2   -1    0    0    0  501 -0.00000000000E+00  0.00000000000E+00  0.17424822626E+03  0.17424822626E+03  0.00000000000E+00 0.  1.
          2   -1    0    0  501    0  0.00000000000E+00 -0.00000000000E+00 -0.43553329875E+03  0.43553329875E+03  0.00000000000E+00 0. -1.
         25    2    1    2    0    0  0.18066384461E+03 -0.14922342141E+03 -0.28781038988E+02  0.26717681927E+03  0.12509216723E+03 0.  0.
          5    1    3    3  502    0  0.88952676449E+02 -0.11206377033E+03 -0.70680105852E+02  0.15963714176E+03  0.41800000000E+01 0. -1.
         -5    1    3    3    0  502  0.91711168158E+02 -0.37159651087E+02  0.41899066864E+02  0.10753967750E+03  0.41800000000E+01 0. -1.
        -11    1    1    2    0    0  0.57782220968E+01  0.14746179914E+02 -0.39109310735E+02  0.42194500339E+02  0.00000000000E+00 0. -1.
         11    1    1    2    0    0 -0.18644206670E+03  0.13447724150E+03 -0.19339472276E+03  0.30041020540E+03  0.00000000000E+00 0.  1.
</event>
<event>
 7    1  0.2670433E-009  0.1265379E+03  0.7561462E-02  0.1232685E+00
         -1   -1    0    0    0  501 -0.00000000000E+00  0.00000000000E+00  0.68181906605E+02  0.68181906605E+02  0.00000000000E+00 0.  1.
          1   -1    0    0  501    0  0.00000000000E+00 -0.00000000000E+00 -0.30540622301E+03  0.30540622301E+03  0.00000000000E+00 0. -1.
         25    2    1    2    0    0 -0.52423452547E+01 -0.94490037353E+02 -0.12071487036E+03  0.19793068915E+03  0.12509447804E+03 0.  0.
          5    1    3    3  502    0 -0.44382091685E+02 -0.39553078996E+02 -0.12708037756E-01  0.59596045858E+02  0.41800000000E+01 0.  1.
         -5    1    3    3    0  502  0.39139746431E+02 -0.54936958357E+02 -0.12070216232E+03  0.13833464329E+03  0.41800000000E+01 0.  1.
        -11    1    1    2    0    0  0.28601991528E+02  0.98167528294E+02 -0.71354441680E+02  0.12468517906E+03  0.00000000000E+00 0. -1.
         11    1    1    2    0    0 -0.23359646273E+02 -0.36774909414E+01 -0.45155004366E+02  0.50972261407E+02  0.00000000000E+00 0.  1.
</event>
<event>
 7    1  0.2670433E-009  0.2021374E+03  0.7561462E-02  0.1147948E+00
          3   -1    0    0  501    0  0.00000000000E+00  0.00000000000E+00  0.18638577858E+04  0.18638577858E+04  0.00000000000E+00 0. -1.
         -3   -1    0    0    0  501 -0.00000000000E+00 -0.00000000000E+00 -0.24515535432E+02  0.24515535432E+02  0.00000000000E+00 0.  1.
         25    2    1    2    0    0 -0.68239884693E+02 -0.16599666045E+03  0.11356662957E+04  0.11565454902E+04  0.12509181688E+03 0.  0.
          5    1    3    3  502    0  0.93421199443E+01 -0.12401498536E+03  0.79189645252E+03  0.80161365738E+03  0.41800000000E+01 0. -1.
         -5    1    3    3    0  502 -0.77582004638E+02 -0.41981675090E+02  0.34376984318E+03  0.35493183284E+03  0.41800000000E+01 0. -1.
        -11    1    1    2    0    0  0.43897313849E+02  0.29528534201E+02  0.10835653467E+03  0.12058211766E+03  0.00000000000E+00 0.  1.
         11    1    1    2    0    0  0.24342570845E+02  0.13646812625E+03  0.59531941999E+03  0.61124571333E+03  0.00000000000E+00 0. -1.
</event>
<event>
 7    1  0.2670433E-009  0.1226349E+03  0.7561462E-02  0.1238813E+00
          2   -1    0    0  501    0  0.00000000000E+00  0.00000000000E+00  0.25958299093E+03  0.25958299093E+03  0.00000000000E+00 0.  1.
         -2   -1    0    0    0  501 -0.00000000000E+00 -0.00000000000E+00 -0.10965893798E+03  0.10965893798E+03  0.00000000000E+00 0. -1.
         25    2    1    2    0    0 -0.64907764741E+02  0.99454676776E+02  0.13956985032E+03  0.22188103995E+03  0.12508877693E+03 0.  0.
          5    1    3    3  502    0  0.18609940976E+01  0.53472055760E+01  0.99371512074E+02  0.99620408142E+02  0.41800000000E+01 0. -1.
         -5    1    3    3    0  502 -0.66768758838E+02  0.94107471200E+02  0.40198338249E+02  0.12226063181E+03  0.41800000000E+01 0. -1.
        -11    1    1    2    0    0  0.66733299912E+02 -0.84357523656E+02  0.39419671429E+02  0.11455756461E+03  0.00000000000E+00 0.  1.
         11    1    1    2    0    0 -0.18255351717E+01 -0.15097153120E+02 -0.29065468801E+02  0.32803324337E+02  0.00000000000E+00 0. -1.
</event>
<event>
 7    1  0.2670433E-009  0.1233861E+03  0.7561462E-02  0.1237613E+00
          2   -1    0    0  501    0  0.00000000000E+00  0.00000000000E+00  0.60111788621E+02  0.60111788621E+02  0.00000000000E+00 0. -1.
         -2   -1    0    0    0  501 -0.00000000000E+00 -0.00000000000E+00 -0.37209140473E+03  0.37209140473E+03  0.00000000000E+00 0.  1.
         25    2    1    2    0    0 -0.88096389841E+02 -0.98170841429E+01 -0.23969308740E+03  0.28452406724E+03  0.12507525592E+03 0.  0.
          5    1    3    3  502    0 -0.29905800792E+02  0.55338383607E+02 -0.74376542739E+02  0.97498903230E+02  0.41800000000E+01 0.  1.
         -5    1    3    3    0  502 -0.58190589049E+02 -0.65155467750E+02 -0.16531654466E+03  0.18702516401E+03  0.41800000000E+01 0.  1.
        -11    1    1    2    0    0  0.33928238924E+02 -0.14500730459E+02 -0.79714885251E+02  0.87839965340E+02  0.00000000000E+00 0.  1.
         11    1    1    2    0    0  0.54168150917E+02  0.24317814602E+02  0.74283565496E+01  0.59839160771E+02  0.00000000000E+00 0. -1.
</event>
<event>
 7    1  0.2670433E-009  0.8260343E+02  0.7561462E-02  0.1321822E+00
         -1   -1    0    0    0  501 -0.00000000000E+00  0.00000000000E+00  0.13380793355E+03  0.13380793355E+03  0.00000000000E+00 0.  1.
          1   -1    0    0  501    0  0.00000000000E+00 -0.00000000000E+00 -0.13491932998E+03  0.13491932998E+03  0.00000000000E+00 0. -1.
         25    2    1    2    0    0 -0.25407477173E+02  0.22709951060E+02 -0.69197977661E+02  0.14696042699E+03  0.12509086783E+03 0.  0.
          5    1    3    3  502    0 -0.42319977781E+02  0.13764418565E+02 -0.10052570972E+03  0.11001513738E+03  0.41800000000E+01 0.  1.
         -5    1    3    3    0  502  0.16912500608E+02  0.89455324948E+01  0.31327732060E+02  0.36945289611E+02  0.41800000000E+01 0.  1.
        -11    1    1    2    0    0  0.18839823186E+02  0.36646843707E+02  0.26408073053E+02  0.48941969860E+02  0.00000000000E+00 0. -1.
         11    1    1    2    0    0  0.65676539865E+01 -0.59356794767E+02  0.41678508174E+02  0.72824866684E+02  0.00000000000E+00 0.  1.
</event>
<event>
 7    1  0.2670433E-009  0.6144231E+02  0.7561462E-02  0.1391877E+00
          1   -1    0    0  501    0  0.00000000000E+00  0.00000000000E+00  0.16079435251E+02  0.16079435251E+02  0.00000000000E+00 0. -1.
         -1   -1    0    0    0  501 -0.00000000000E+00 -0.00000000000E+00 -0.75933897923E+03  0.75933897923E+03  0.00000000000E+00 0.  1.
         25    2    1    2    0    0 -0.39537115311E+01  0.26907711803E+02 -0.38648414264E+03  0.40713333494E+03  0.12509157891E+03 0.  0.
          5    1    3    3  502    0 -0.17316051684E+00  0.27935621387E+02 -0.39546947079E+03  0.39647699007E+03  0.41800000000E+01 0. -1.
         -5    1    3    3    0  502 -0.37805510142E+01 -0.10279095838E+01  0.89853281474E+01  0.10656344871E+02  0.41800000000E+01 0. -1.
        -11    1    1    2    0    0 -0.30887144518E+02  0.15060212769E+02 -0.18129236902E+03  0.18452032075E+03  0.00000000000E+00 0.  1.
         11    1    1    2    0    0  0.34840856049E+02 -0.41967924572E+02 -0.17548303232E+03  0.18376475880E+03  0.00000000000E+00 0. -1.
</event>
<event>
 7    1  0.3642751E-009  0.1274186E+03  0.7561462E-02  0.1231337E+00
         -2   -1    0    0    0  501 -0.00000000000E+00  0.00000000000E+00  0.24336411354E+02  0.24336411354E+02  0.00000000000E+00 0.  1.
          2   -1    0    0  501    0  0.00000000000E+00 -0.00000000000E+00 -0.93851677480E+03  0.93851677480E+03  0.00000000000E+00 0. -1.
         25    2    1    2    0    0 -0.93868756407E+00 -0.10156251678E+03 -0.57995218169E+03  0.60192106111E+03  0.12509438365E+03 0.  0.
          5    1    3    3  502    0 -0.35751490467E+02  0.90249124943E+01 -0.73323911615E+02  0.82179599237E+02  0.41800000000E+01 0. -1.
         -5    1    3    3    0  502  0.34812802903E+02 -0.11058742927E+03 -0.50662827007E+03  0.51974146188E+03  0.41800000000E+01 0. -1.
        -11    1    1    2    0    0  0.29029493860E+01  0.82635584907E+02 -0.33156293875E+03  0.34171779199E+03  0.00000000000E+00 0. -1.
         11    1    1    2    0    0 -0.19642618219E+01  0.18926931872E+02 -0.26652430180E+01  0.19214333060E+02  0.00000000000E+00 0.  1.
</event>
<event>
 7    1  0.2828438E-009  0.2031236E+03  0.7561462E-02  0.1147130E+00
          2   -1    0    0  501    0  0.00000000000E+00  0.00000000000E+00  0.83353963566E+03  0.83353963566E+03  0.00000000000E+00 0. -1.
         -2   -1    0    0    0  501 -0.00000000000E+00 -0.00000000000E+00 -0.63948917917E+02  0.63948917917E+02  0.00000000000E+00 0.  1.
         25    2    1    2    0    0  0.12256957776E+03  0.15220968652E+03  0.50850388102E+03  0.55894320188E+03  0.12510082278E+03 0.  0.
          5    1    3    3  502    0  0.12098165299E+03  0.10461441097E+03  0.47319758839E+03  0.49951392913E+03  0.41800000000E+01 0. -1.
         -5    1    3    3    0  502  0.15879247730E+01  0.47595275559E+02  0.35306292629E+02  0.59429272752E+02  0.41800000000E+01 0. -1.
        -11    1    1    2    0    0 -0.89711279438E+02 -0.84755438427E+02  0.22186382897E+03  0.25388020129E+03  0.00000000000E+00 0. -1.
         11    1    1    2    0    0 -0.32858298326E+02 -0.67454248097E+02  0.39223007753E+02  0.84665150401E+02  0.00000000000E+00 0.  1.
</event>
<event>
 7    1  0.2670433E-009  0.8777690E+02  0.7561462E-02  0.1308326E+00
          1   -1    0    0  501    0  0.00000000000E+00  0.00000000000E+00  0.46231840908E+02  0.46231840908E+02  0.00000000000E+00 0. -1.
         -1   -1    0    0    0  501 -0.00000000000E+00 -0.00000000000E+00 -0.34982764182E+03  0.34982764182E+03  0.00000000000E+00 0.  1.
         25    2    1    2    0    0 -0.64569226013E+02 -0.93694996191E+01 -0.17348235170E+03  0.22360706482E+03  0.12508805145E+03 0.  0.
          5    1    3    3  502    0 -0.19958193612E+02  0.15571115024E+02 -0.17030699436E+03  0.17222872537E+03  0.41800000000E+01 0. -1.
         -5    1    3    3    0  502 -0.44611032401E+02 -0.24940614643E+02 -0.31753573439E+01  0.51378339453E+02  0.41800000000E+01 0. -1.
        -11    1    1    2    0    0 -0.34647916472E+01  0.27892270118E+02 -0.45875694664E+01  0.28478576283E+02  0.00000000000E+00 0. -1.
         11    1    1    2    0    0  0.68034017661E+02 -0.18522770499E+02 -0.12552587974E+03  0.14397384162E+03  0.00000000000E+00 0.  1.
</event>
<event>
 7    1  0.2670433E-009  0.2688487E+03  0.7561462E-02  0.1101940E+00
          1   -1    0    0  501    0  0.00000000000E+00  0.00000000000E+00  0.19797061515E+03  0.19797061515E+03  0.00000000000E+00 0. -1.
         -1   -1    0    0    0  501 -0.00000000000E+00 -0.00000000000E+00 -0.59485590119E+03  0.59485590119E+03  0.00000000000E+00 0.  1.
         25    2    1    2    0    0 -0.22164362383E+03  0.11047795701E+03  0.42068165360E+02  0.28062688317E+03  0.12510172681E+03 0.  0.
          5    1    3    3  502    0 -0.74348576625E+02 -0.21380135062E+02 -0.40604726826E+01  0.77580802134E+02  0.41800000000E+01 0. -1.
         -5    1    3    3    0  502 -0.14729504721E+03  0.13185809207E+03  0.46128638043E+02  0.20304608104E+03  0.41800000000E+01 0. -1.
        -11    1    1    2    0    0  0.12001811332E+03 -0.10701777368E+03 -0.24213118673E+03  0.29066245543E+03  0.00000000000E+00 0.  1.
         11    1    1    2    0    0  0.10162551051E+03 -0.34601833264E+01 -0.19682226467E+03  0.22153717775E+03  0.00000000000E+00 0. -1.
</event>
<event>
 7    1  0.2670433E-009  0.1688048E+03  0.7561462E-02  0.1179100E+00
         -4   -1    0    0    0  501 -0.00000000000E+00  0.00000000000E+00  0.79741560363E+02  0.79741560363E+02  0.00000000000E+00 0.  1.
          4   -1    0    0  501    0  0.00000000000E+00 -0.00000000000E+00 -0.58220444228E+03  0.58220444228E+03  0.00000000000E+00 0. -1.
         25    2    1    2    0    0  0.98342089073E+02  0.12494833342E+03 -0.11349115765E+03  0.23197181095E+03  0.12508967065E+03 0.  0.
          5    1    3    3  502    0  0.84051771729E+02  0.10449955581E+03 -0.20657485597E+02  0.13575367990E+03  0.41800000000E+01 0.  1.
         -5    1    3    3    0  502  0.14290317344E+02  0.20448777605E+02 -0.92833672050E+02  0.96218131044E+02  0.41800000000E+01 0.  1.
        -11    1    1    2    0    0 -0.89365336022E+02 -0.13672149372E+03 -0.37724601913E+03  0.41108817676E+03  0.00000000000E+00 0. -1.
         11    1    1    2    0    0 -0.89767530507E+01  0.11773160307E+02 -0.11725705143E+02  0.18886014933E+02  0.00000000000E+00 0.  1.
</event>
<event>
 7    1  0.2670433E-009  0.7107083E+02  0.7561462E-02  0.1356489E+00
          1   -1    0    0  501    0  0.00000000000E+00  0.00000000000E+00  0.30733956828E+02  0.30733956828E+02  0.00000000000E+00 0.  1.
         -1   -1    0    0    0  501 -0.00000000000E+00 -0.00000000000E+00 -0.42163590389E+03  0.42163590389E+03  0.00000000000E+00 0. -1.
         25    2    1    2    0    0 -0.83838196259E+01  0.14311942974E+02 -0.27651451995E+03  0.30394597263E+03  0.12509098445E+03 0.  0.
          5    1    3    3  502    0 -0.50215167018E+01  0.40882145951E+02 -0.19956106374E+02  0.45959591699E+02  0.41800000000E+01 0.  1.
         -5    1    3    3    0  502 -0.33623029241E+01 -0.26570202977E+02 -0.25655841358E+03  0.25798638093E+03  0.41800000000E+01 0.  1.
        -11    1    1    2    0    0  0.34816094922E+02 -0.27243617755E+02 -0.18151502547E+02  0.47789666443E+02  0.00000000000E+00 0.  1.
         11    1    1    2    0    0 -0.26432275296E+02  0.12931674781E+02 -0.96235924560E+02  0.10063422164E+03  0.00000000000E+00 0. -1.
</event>
<event>
 7    1  0.2670433E-009  0.1138023E+03  0.7561462E-02  0.1253686E+00
          2   -1    0    0  501    0  0.00000000000E+00  0.00000000000E+00  0.14197223390E+04  0.14197223390E+04  0.00000000000E+00 0. -1.
         -2   -1    0    0    0  501 -0.00000000000E+00 -0.00000000000E+00 -0.12274002627E+02  0.12274002627E+02  0.00000000000E+00 0.  1.
         25    2    1    2    0    0  0.29739319612E+02  0.34899161494E+02  0.10881822463E+04  0.10963076665E+04  0.12509004744E+03 0.  0.
          5    1    3    3  502    0  0.61080110239E+02 -0.22740079721E+02  0.64104470957E+03  0.64436300574E+03  0.41800000000E+01 0. -1.
         -5    1    3    3    0  502 -0.31340790627E+02  0.57639241215E+02  0.44713753670E+03  0.45194466078E+03  0.41800000000E+01 0. -1.
        -11    1    1    2    0    0  0.15855346613E+01 -0.57754638291E+02  0.12662006429E+03  0.13917885200E+03  0.00000000000E+00 0.  1.
         11    1    1    2    0    0 -0.31324854273E+02  0.22855476796E+02  0.19264602581E+03  0.19650982310E+03  0.00000000000E+00 0. -1.
</event>
<event>
 7    1  0.2670433E-009  0.1176464E+03  0.7561462E-02  0.1247031E+00
         -1   -1    0    0    0  501 -0.00000000000E+00  0.00000000000E+00  0.63201753570E+03  0.63201753570E+03  0.00000000000E+00 0.  1.
          1   -1    0    0  501    0  0.00000000000E+00 -0.00000000000E+00 -0.29122280323E+02  0.29122280323E+02  0.00000000000E+00 0. -1.
         25    2    1    2    0    0 -0.23246109785E+02  0.78091046816E+02  0.36929255351E+03  0.39832533737E+03  0.12508993203E+03 0.  0.
          5    1    3    3  502    0  0.30557432414E+02  0.13501193893E+02  0.25041513529E+03  0.25266826333E+03  0.41800000000E+01 0. -1.
         -5    1    3    3    0  502 -0.53803542199E+02  0.64589852923E+02  0.11887741822E+03  0.14565707404E+03  0.41800000000E+01 0. -1.
        -11    1    1    2    0    0  0.32765779682E+02  0.55881070358E+01  0.42322776996E+02  0.53814874441E+02  0.00000000000E+00 0. -1.
         11    1    1    2    0    0 -0.95196698973E+01 -0.83679153852E+02  0.19127992486E+03  0.20899960421E+03  0.00000000000E+00 0.  1.
</event>
<event>
 7    1  0.2670433E-009  0.1142741E+03  0.7561462E-02  0.1252853E+00
          2   -1    0    0  501    0  0.00000000000E+00  0.00000000000E+00  0.16376844057E+04  0.16376844057E+04  0.00000000000E+00 0. -1.
         -2   -1    0    0    0  501 -0.00000000000E+00 -0.00000000000E+00 -0.10582008534E+02  0.10582008534E+02  0.00000000000E+00 0.  1.
         25    2    1    2    0    0  0.44061526949E+02 -0.50061665423E+01  0.10799192359E+04  0.10880436590E+04  0.12508784092E+03 0.  0.
          5    1    3    3  502    0  0.21015272945E+02 -0.53049796087E+02  0.25254182602E+03  0.25894163214E+03  0.41800000000E+01 0. -1.
         -5    1    3    3    0  502  0.23046254004E+02  0.48043629545E+02  0.82737740986E+03  0.82910202684E+03  0.41800000000E+01 0. -1.
        -11    1    1    2    0    0  0.14127678563E+02  0.45073722028E+02  0.27457711192E+03  0.27861052046E+03  0.00000000000E+00 0.  1.
         11    1    1    2    0    0 -0.58189205511E+02 -0.40067555486E+02  0.27260604937E+03  0.28161223481E+03  0.00000000000E+00 0. -1.
</event>
<event>
 7    1  0.2670433E-009  0.7619445E+02  0.7561462E-02  0.1340212E+00
          2   -1    0    0  501    0  0.00000000000E+00  0.00000000000E+00  0.60680789308E+03  0.60680789308E+03  0.00000000000E+00 0. -1.
         -2   -1    0    0    0  501 -0.00000000000E+00 -0.00000000000E+00 -0.26603241921E+02  0.26603241921E+02  0.00000000000E+00 0.  1.
         25    2    1    2    0    0  0.28262343731E+02 -0.52729057425E+02  0.40020118631E+03  0.42354347261E+03  0.12509584365E+03 0.  0.
          5    1    3    3  502    0  0.12793174973E+02  0.50344383341E+01  0.33371267455E+03  0.33402190414E+03  0.41800000000E+01 0.  1.
         -5    1    3    3    0  502  0.15469168758E+02 -0.57763495759E+02  0.66488511765E+02  0.89521568469E+02  0.41800000000E+01 0.  1.
        -11    1    1    2    0    0  0.56722697747E+01  0.42148766252E+02  0.16649626816E+03  0.17184207998E+03  0.00000000000E+00 0. -1.
         11    1    1    2    0    0 -0.33934613506E+02  0.10580291173E+02  0.13507196689E+02  0.38025582409E+02  0.00000000000E+00 0.  1.
</event>
<event>
 7    1  0.3050720E-009  0.1424686E+03  0.7561462E-02  0.1210045E+00
          1   -1    0    0  501    0  0.00000000000E+00  0.00000000000E+00  0.40626662794E+03  0.40626662794E+03  0.00000000000E+00 0. -1.
         -1   -1    0    0    0  501 -0.00000000000E+00 -0.00000000000E+00 -0.72614489847E+02  0.72614489847E+02  0.00000000000E+00 0.  1.
         25    2    1    2    0    0  0.73391388082E+02  0.10385218880E+03  0.12316761774E+03  0.21676918515E+03  0.12508814735E+03 0.  0.
          5    1    3    3  502    0 -0.54609445421E+00  0.16258104936E+02 -0.24550645154E+02  0.29746105169E+02  0.41800000000E+01 0.  1.
         -5    1    3    3    0  502  0.73937482536E+02  0.87594083869E+02  0.14771826290E+03  0.18702307998E+03  0.41800000000E+01 0.  1.
        -11    1    1    2    0    0  0.84701065608E+01 -0.59953031503E+02  0.59825288942E+02  0.85118587210E+02  0.00000000000E+00 0.  1.
         11    1    1    2    0    0 -0.81861494642E+02 -0.43899157302E+02  0.15065923141E+03  0.17699334543E+03  0.00000000000E+00 0. -1.
</event>
<event>
 7    1  0.2670433E-009  0.1321722E+03  0.7561462E-02  0.1224268E+00
          4   -1    0    0  501    0  0.00000000000E+00  0.00000000000E+00  0.14340264568E+03  0.14340264568E+03  0.00000000000E+00 0. -1.
         -4   -1    0    0    0  501 -0.00000000000E+00 -0.00000000000E+00 -0.15893183266E+03  0.15893183266E+03  0.00000000000E+00 0.  1.
         25    2    1    2    0    0 -0.88995381523E+02 -0.24620609494E+02 -0.58894032277E+02  0.16625972140E+03  0.12508971012E+03 0.  0.
          5    1    3    3  502    0 -0.27919836461E+01 -0.60663229936E+02 -0.32866280260E+02  0.69177217471E+02  0.41800000000E+01 0. -1.
         -5    1    3    3    0  502 -0.86203397877E+02  0.36042620442E+02 -0.26027752018E+02  0.97082503928E+02  0.41800000000E+01 0. -1.
        -11    1    1    2    0    0  0.17045318499E+02 -0.19220619280E+02 -0.18405285906E+02  0.31602684024E+02  0.00000000000E+00 0.  1.
         11    1    1    2    0    0  0.71950063024E+02  0.43841228774E+02  0.61770131211E+02  0.10447207292E+03  0.00000000000E+00 0. -1.
</event>
<event>
 7    1  0.2670433E-009  0.1316714E+03  0.7561462E-02  0.1224996E+00
          2   -1    0    0  501    0  0.00000000000E+00  0.00000000000E+00  0.13756949621E+04  0.13756949621E+04  0.00000000000E+00 0. -1.
         -2   -1    0    0    0  501 -0.00000000000E+00 -0.00000000000E+00 -0.14090905680E+02  0.14090905680E+02  0.00000000000E+00 0.  1.
         25    2    1    2    0    0  0.22949088455E+02 -0.80689401732E+02  0.87938584511E+03  0.89219035400E+03  0.12508686168E+03 0.  0.
          5    1    3    3  502    0  0.65499427033E+02 -0.77830547972E+01  0.38372945347E+03  0.38937965631E+03  0.41800000000E+01 0. -1.
         -5    1    3    3    0  502 -0.42550338577E+02 -0.72906346935E+02  0.49565639164E+03  0.50281069769E+03  0.41800000000E+01 0. -1.
        -11    1    1    2    0    0 -0.49473054199E+02  0.37625252935E+02  0.35998982943E+03  0.36531619187E+03  0.00000000000E+00 0. -1.
         11    1    1    2    0    0  0.26523965743E+02  0.43064148797E+02  0.12222838192E+03  0.13227932195E+03  0.00000000000E+00 0.  1.
</event>
<event>
 7    1  0.2670433E-009  0.1912919E+03  0.7561462E-02  0.1157301E+00
          1   -1    0    0  501    0  0.00000000000E+00  0.00000000000E+00  0.15502098369E+04  0.15502098369E+04  0.00000000000E+00 0. -1.
         -1   -1    0    0    0  501 -0.00000000000E+00 -0.00000000000E+00 -0.25462143693E+02  0.25462143693E+02  0.00000000000E+00 0.  1.
         25    2    1    2    0    0 -0.12974099827E+03 -0.93940684267E+02  0.96122144220E+03  0.98247203353E+03  0.12508819662E+03 0.  0.
          5    1    3    3  502    0 -0.33225506985E+02 -0.95288560151E+02  0.37601544054E+03  0.38934422808E+03  0.41800000000E+01 0. -1.
         -5    1    3    3    0  502 -0.96515491283E+02  0.13478758840E+01  0.58520600165E+03  0.59312780545E+03  0.41800000000E+01 0. -1.
        -11    1    1    2    0    0  0.13801815855E+03  0.60814999851E+02  0.47206183701E+03  0.49557023141E+03  0.00000000000E+00 0. -1.
         11    1    1    2    0    0 -0.82771602864E+01  0.33125684416E+02  0.91464413966E+02  0.97629715623E+02  0.00000000000E+00 0.  1.
</event>
<event>
 7    1  0.2670433E-009  0.8004975E+02  0.7561462E-02  0.1328910E+00
          3   -1    0    0  501    0  0.00000000000E+00  0.00000000000E+00  0.78713195031E+03  0.78713195031E+03  0.00000000000E+00 0. -1.
         -3   -1    0    0    0  501 -0.00000000000E+00 -0.00000000000E+00 -0.19953414897E+02  0.19953414897E+02  0.00000000000E+00 0.  1.
         25    2    1    2    0    0 -0.19923800102E+01  0.29199039194E+02  0.57740238894E+03  0.59152117618E+03  0.12508888699E+03 0.  0.
          5    1    3    3  502    0  0.33650477236E+02  0.25466960316E+02  0.63529539681E+02  0.76383214766E+02  0.41800000000E+01 0. -1.
         -5    1    3    3    0  502 -0.35642857246E+02  0.37320788777E+01  0.51387284926E+03  0.51513796141E+03  0.41800000000E+01 0. -1.
        -11    1    1    2    0    0 -0.36735762808E+02 -0.19912228598E+02  0.31429581440E+02  0.52286056520E+02  0.00000000000E+00 0.  1.
         11    1    1    2    0    0  0.38728142819E+02 -0.92868105954E+01  0.15834656503E+03  0.16327813251E+03  0.00000000000E+00 0. -1.
</event>
<event>
 7    1  0.2670433E-009  0.1014969E+03  0.7561462E-02  0.1277179E+00
         -3   -1    0    0    0  501 -0.00000000000E+00  0.00000000000E+00  0.23876774114E+02  0.23876774114E+02  0.00000000000E+00 0.  1.
          3   -1    0    0  501    0  0.00000000000E+00 -0.00000000000E+00 -0.65957051446E+03  0.65957051446E+03  0.00000000000E+00 0. -1.
         25    2    1    2    0    0  0.33235846338E+02  0.19661037346E+02 -0.48743077741E+03  0.50470546427E+03  0.12509062725E+03 0.  0.
          5    1    3    3  502    0  0.59436798591E+02  0.54784286543E+02 -0.38151912413E+03  0.39001072492E+03  0.41800000000E+01 0.  1.
         -5    1    3    3    0  502 -0.26200952252E+02 -0.35123249197E+02 -0.10591165328E+03  0.11469473935E+03  0.41800000000E+01 0.  1.
        -11    1    1    2    0    0 -0.34001411692E+02  0.19278820839E+02 -0.18469294102E+02  0.43230588183E+02  0.00000000000E+00 0.  1.
         11    1    1    2    0    0  0.76556535391E+00 -0.38939858185E+02 -0.12979366883E+03  0.13551123612E+03  0.00000000000E+00 0. -1.
</event>
<event>
 7    1  0.2670433E-009  0.1669208E+03  0.7561462E-02  0.1181098E+00
         -1   -1    0    0    0  501 -0.00000000000E+00  0.00000000000E+00  0.11489808403E+03  0.11489808403E+03  0.00000000000E+00 0.  1.
          1   -1    0    0  501    0  0.00000000000E+00 -0.00000000000E+00 -0.32316978770E+03  0.32316978770E+03  0.00000000000E+00 0. -1.
         25    2    1    2    0    0  0.12968204014E+03 -0.30187809571E+02 -0.20668725730E+03  0.27585596623E+03  0.12509259128E+03 0.  0.
          5    1    3    3  502    0  0.44400890229E+02 -0.72696176487E+02 -0.77234399295E+02  0.11505997551E+03  0.41800000000E+01 0.  1.
         -5    1    3    3    0  502  0.85281149910E+02  0.42508366915E+02 -0.12945285800E+03  0.16079599073E+03  0.41800000000E+01 0.  1.
        -11    1    1    2    0    0 -0.18583515136E+02  0.37484572489E+02  0.23636222871E+02  0.48053212600E+02  0.00000000000E+00 0.  1.
         11    1    1    2    0    0 -0.11109852500E+03 -0.72967629177E+01 -0.25220669245E+02  0.11415869290E+03  0.00000000000E+00 0. -1.
</event>
<event>
 7    1  0.2670433E-009  0.9826153E+02  0.7561462E-02  0.1283995E+00
         -3   -1    0    0    0  501 -0.00000000000E+00  0.00000000000E+00  0.42394636597E+02  0.42394636597E+02  0.00000000000E+00 0.  1.
          3   -1    0    0  501    0  0.00000000000E+00 -0.00000000000E+00 -0.33175990183E+03  0.33175990183E+03  0.00000000000E+00 0. -1.
         25    2    1    2    0    0 -0.34528088019E+01 -0.44794976501E+02 -0.13598484141E+03  0.19015040238E+03  0.12508711614E+03 0.  0.
          5    1    3    3  502    0 -0.39308237210E+02 -0.45665257444E+02 -0.14128623136E+03  0.15365456330E+03  0.41800000000E+01 0. -1.
         -5    1    3    3    0  502  0.35855428408E+02  0.87028094233E+00  0.53013899465E+01  0.36495839086E+02  0.41800000000E+01 0. -1.
        -11    1    1    2    0    0 -0.33728830819E+02  0.52157072189E+02 -0.78724622270E+02  0.10027741700E+03  0.00000000000E+00 0.  1.
         11    1    1    2    0    0  0.37181639621E+02 -0.73620956876E+01 -0.74655801553E+02  0.83726719053E+02  0.00000000000E+00 0. -1.
</event>
<event>
 7    1  0.2670433E-009  0.1466100E+03  0.7561462E-02  0.1204702E+00
          1   -1    0    0  501    0  0.00000000000E+00  0.00000000000E+00  0.10823036505E+04  0.10823036505E+04  0.00000000000E+00 0. -1.
         -1   -1    0    0    0  501 -0.00000000000E+00 -0.00000000000E+00 -0.26443760804E+02  0.26443760804E+02  0.00000000000E+00 0.  1.
         25    2    1    2    0    0 -0.12324922184E+03 -0.34218895720E+02  0.48909911621E+03  0.52079546098E+03  0.12509461693E+03 0.  0.
          5    1    3    3  502    0 -0.12291464858E+03 -0.47924159998E+02  0.48896002672E+03  0.50646235405E+03  0.41800000000E+01 0. -1.
         -5    1    3    3    0  502 -0.33457326318E+00  0.13705264278E+02  0.13908949687E+00  0.14333106924E+02  0.41800000000E+01 0. -1.
        -11    1    1    2    0    0  0.19389623380E+02 -0.21566352584E+02  0.49003440926E+02  0.56942095862E+02  0.00000000000E+00 0.  1.
         11    1    1    2    0    0  0.10385959847E+03  0.55785248304E+02  0.51775733252E+03  0.53100985443E+03  0.00000000000E+00 0. -1.
</event>
<event>
 7    1  0.2670433E-009  0.9450407E+02  0.7561462E-02  0.1292297E+00
          2   -1    0    0  501    0  0.00000000000E+00  0.00000000000E+00  0.18527209379E+03  0.18527209379E+03  0.00000000000E+00 0. -1.
         -2   -1    0    0    0  501 -0.00000000000E+00 -0.00000000000E+00 -0.72946772754E+02  0.72946772754E+02  0.00000000000E+00 0.  1.
         25    2    1    2    0    0 -0.50832468729E+01 -0.40324445896E+02  0.74977678902E+02  0.15139487842E+03  0.12508739562E+03 0.  0.
          5    1    3    3  502    0  0.21057497114E+02 -0.67181648524E+02  0.35432428686E+01  0.70617413243E+02  0.41800000000E+01 0. -1.
         -5    1    3    3    0  502 -0.26140743987E+02  0.26857202628E+02  0.71434436033E+02  0.80777465178E+02  0.41800000000E+01 0. -1.
        -11    1    1    2    0    0 -0.32174618052E+02  0.13670457367E+02  0.48394843032E+02  0.59700488134E+02  0.00000000000E+00 0. -1.
         11    1    1    2    0    0  0.37257864924E+02  0.26653988529E+02 -0.11047200900E+02  0.47123499986E+02  0.00000000000E+00 0.  1.
</event>
<event>
 7    1  0.2670433E-009  0.1077686E+03  0.7561462E-02  0.1264759E+00
         -2   -1    0    0    0  501 -0.00000000000E+00  0.00000000000E+00  0.18224080383E+02  0.18224080383E+02  0.00000000000E+00 0.  1.
          2   -1    0    0  501    0  0.00000000000E+00 -0.00000000000E+00 -0.72927668758E+03  0.72927668758E+03  0.00000000000E+00 0. -1.
         25    2    1    2    0    0  0.11222005312E+02  0.33030993814E+02 -0.33480077128E+03  0.35910440335E+03  0.12508971218E+03 0.  0.
          5    1    3    3  502    0 -0.52970870766E+02  0.29916971204E+01 -0.93604425456E+02  0.10767601528E+03  0.41800000000E+01 0. -1.
         -5    1    3    3    0  502  0.64192876078E+02  0.30039296694E+02 -0.24119634583E+03  0.25142838807E+03  0.41800000000E+01 0. -1.
        -11    1    1    2    0    0  0.17738593738E+02  0.22523986669E+02 -0.67235881638E+02  0.73093443365E+02  0.00000000000E+00 0.  1.
         11    1    1    2    0    0 -0.28960599050E+02 -0.55554980484E+02 -0.30901595428E+03  0.31530292126E+03  0.00000000000E+00 0. -1.
</event>
<event>
 7    1  0.2670433E-009  0.1410689E+03  0.7561462E-02  0.1211898E+00
         -2   -1    0    0    0  501 -0.00000000000E+00  0.00000000000E+00  0.48031132877E+03  0.48031132877E+03  0.00000000000E+00 0.  1.
          2   -1    0    0  501    0  0.00000000000E+00 -0.00000000000E+00 -0.53888866634E+02  0.53888866634E+02  0.00000000000E+00 0. -1.
         25    2    1    2    0    0 -0.10958915734E+03 -0.17246930231E+02  0.29481992628E+03  0.33892941553E+03  0.12508844781E+03 0.  0.
          5    1    3    3  502    0 -0.87411217306E+02 -0.51672604842E+02  0.11074794975E+03  0.15031087710E+03  0.41800000000E+01 0.  1.
         -5    1    3    3    0  502 -0.22177940031E+02  0.34425674611E+02  0.18407197653E+03  0.18861853843E+03  0.41800000000E+01 0.  1.
        -11    1    1    2    0    0  0.45604692666E+02 -0.34395242200E+02  0.79625844534E+02  0.97995386610E+02  0.00000000000E+00 0.  1.
         11    1    1    2    0    0  0.63984464670E+02  0.51642172431E+02  0.51976691322E+02  0.97275393257E+02  0.00000000000E+00 0. -1.
</event>
<event>
 7    1  0.2670433E-009  0.9560317E+02  0.7561462E-02  0.1289823E+00
          3   -1    0    0  501    0  0.00000000000E+00  0.00000000000E+00  0.15433561119E+04  0.15433561119E+04  0.00000000000E+00 0. -1.
         -3   -1    0    0    0  501 -0.00000000000E+00 -0.00000000000E+00 -0.13548098432E+02  0.13548098432E+02  0.00000000000E+00 0.  1.
         25    2    1    2    0    0  0.30699688630E+02 -0.67293072201E+01  0.13180874204E+04  0.13243829389E+04  0.12509183191E+03 0.  0.
          5    1    3    3  502    0  0.33644254771E+02 -0.53558702617E+02  0.39145355122E+03  0.39655242487E+03  0.41800000000E+01 0.  1.
         -5    1    3    3    0  502 -0.29445661409E+01  0.46829395397E+02  0.92663386923E+03  0.92783051402E+03  0.41800000000E+01 0.  1.
        -11    1    1    2    0    0  0.57798699957E+01 -0.29046937797E+02  0.24448393549E+02  0.38403846678E+02  0.00000000000E+00 0.  1.
         11    1    1    2    0    0 -0.36479558626E+02  0.35776245017E+02  0.18727219950E+03  0.19411742480E+03  0.00000000000E+00 0. -1.
</event>
<event>
 7    1  0.2670433E-009  0.1228843E+03  0.7561462E-02  0.1238413E+00
          1   -1    0    0  501    0  0.00000000000E+00  0.00000000000E+00  0.31148596701E+03  0.31148596701E+03  0.00000000000E+00 0. -1.
         -1   -1    0    0    0  501 -0.00000000000E+00 -0.00000000000E+00 -0.51614042571E+02  0.51614042571E+02  0.00000000000E+00 0.  1.
         25    2    1    2    0    0  0.16253712694E+02 -0.60469395306E+02  0.11627745843E+03  0.18190242392E+03  0.12508922233E+03 0.  0.
          5    1    3    3  502    0  0.69929196536E+02 -0.41206874583E+02  0.80832300133E+02  0.11462736229E+03  0.41800000000E+01 0. -1.
         -5    1    3    3    0  502 -0.53675483842E+02 -0.19262520723E+02  0.35445158292E+02  0.67275061625E+02  0.41800000000E+01 0. -1.
        -11    1    1    2    0    0  0.31287803668E+01  0.79845733589E+02  0.12396246018E+03  0.14748498897E+03  0.00000000000E+00 0. -1.
         11    1    1    2    0    0 -0.19382493060E+02 -0.19376338283E+02  0.19632005830E+02  0.33712596687E+02  0.00000000000E+00 0.  1.
</event>
<event>
 7    1  0.3624696E-009  0.1300750E+03  0.7561462E-02  0.1227344E+00
         -1   -1    0    0    0  501 -0.00000000000E+00  0.00000000000E+00  0.40353113774E+03  0.40353113774E+03  0.00000000000E+00 0.  1.
          1   -1    0    0  501    0  0.00000000000E+00 -0.00000000000E+00 -0.77232300067E+02  0.77232300067E+02  0.00000000000E+00 0. -1.
         25    2    1    2    0    0 -0.12010190104E+03 -0.49243444661E+02  0.24131397108E+03  0.30121434470E+03  0.12509302675E+03 0.  0.
          5    1    3    3  502    0 -0.92059662477E+02 -0.40472194616E+02  0.25064936954E+03  0.27010286715E+03  0.41800000000E+01 0.  1.
         -5    1    3    3    0  502 -0.28042238566E+02 -0.87712500445E+01 -0.93353984594E+01  0.31111477553E+02  0.41800000000E+01 0.  1.
        -11    1    1    2    0    0  0.80643330771E+02  0.34125268344E+02  0.33548668190E+01  0.87630678810E+02  0.00000000000E+00 0.  1.
         11    1    1    2    0    0  0.39458570272E+02  0.15118176316E+02  0.81629999773E+02  0.91918414292E+02  0.00000000000E+00 0. -1.
</event>
<event>
 7    1  0.2987394E-009  0.1041600E+03  0.7561462E-02  0.1271784E+00
          2   -1    0    0  501    0  0.00000000000E+00  0.00000000000E+00  0.10483038682E+04  0.10483038682E+04  0.00000000000E+00 0. -1.
         -2   -1    0    0    0  501 -0.00000000000E+00 -0.00000000000E+00 -0.14292428799E+02  0.14292428799E+02  0.00000000000E+00 0.  1.
         25    2    1    2    0    0 -0.35402790606E+01  0.29639241709E+02  0.78929129882E+03  0.79969978581E+03  0.12509186547E+03 0.  0.
          5    1    3    3  502    0 -0.34702064109E+02 -0.29771456700E+02  0.52466256174E+03  0.52666768363E+03  0.41800000000E+01 0. -1.
         -5    1    3    3    0  502  0.31161785048E+02  0.59410698409E+02  0.26462873708E+03  0.27303210218E+03  0.41800000000E+01 0. -1.
        -11    1    1    2    0    0 -0.13938153635E+02 -0.59215871417E+02  0.17271609526E+03  0.18311646871E+03  0.00000000000E+00 0. -1.
         11    1    1    2    0    0  0.17478432696E+02  0.29576629707E+02  0.72004045352E+02  0.79780042501E+02  0.00000000000E+00 0.  1.
</event>
<event>
 7    1  0.2670433E-009  0.1092406E+03  0.7561462E-02  0.1261983E+00
          2   -1    0    0  501    0  0.00000000000E+00  0.00000000000E+00  0.13682512559E+04  0.13682512559E+04  0.00000000000E+00 0. -1.
         -2   -1    0    0    0  501 -0.00000000000E+00 -0.00000000000E+00 -0.10866332054E+02  0.10866332054E+02  0.00000000000E+00 0.  1.
         25    2    1    2    0    0  0.13854003668E+02 -0.28838953198E+02  0.10415206874E+04  0.10494932922E+04  0.12508880695E+03 0.  0.
          5    1    3    3  502    0  0.30799095439E+02  0.43774176035E+02  0.49222303041E+03  0.49514214811E+03  0.41800000000E+01 0. -1.
         -5    1    3    3    0  502 -0.16945091770E+02 -0.72613129233E+02  0.54929765695E+03  0.55435114413E+03  0.41800000000E+01 0. -1.
        -11    1    1    2    0    0  0.32154415071E+02  0.30160860128E+02  0.10657314798E+03  0.11533178123E+03  0.00000000000E+00 0.  1.
         11    1    1    2    0    0 -0.46008418739E+02 -0.13219069300E+01  0.20929108850E+03  0.21429251447E+03  0.00000000000E+00 0. -1.
</event>
<event>
 7    1  0.2670433E-009  0.7563049E+02  0.7561462E-02  0.1341930E+00
         -2   -1    0    0    0  501 -0.00000000000E+00  0.00000000000E+00  0.69642746171E+02  0.69642746171E+02  0.00000000000E+00 0.  1.
          2   -1    0    0  501    0  0.00000000000E+00 -0.00000000000E+00 -0.21894504638E+03  0.21894504638E+03  0.00000000000E+00 0. -1.
         25    2    1    2    0    0  0.59987060761E+01  0.77313828972E+01 -0.15585253225E+03  0.20009295718E+03  0.12510563915E+03 0.  0.
          5    1    3    3  502    0  0.40244275583E+02  0.11041550128E+01 -0.15970273543E+03  0.16475210766E+03  0.41800000000E+01 0. -1.
         -5    1    3    3    0  502 -0.34245569507E+02  0.66272278844E+01  0.38502031774E+01  0.35340849520E+02  0.41800000000E+01 0. -1.
        -11    1    1    2    0    0  0.14499265173E+02 -0.37104256453E+02  0.26161886848E+02  0.47659194926E+02  0.00000000000E+00 0.  1.
         11    1    1    2    0    0 -0.20497971249E+02  0.29372873556E+02 -0.19611654806E+02  0.40835640444E+02  0.00000000000E+00 0. -1.
</event>
<event>
 7    1  0.2670433E-009  0.1163308E+03  0.7561462E-02  0.1249276E+00
         -2   -1    0    0    0  501 -0.00000000000E+00  0.00000000000E+00  0.25322184919E+02  0.25322184919E+02  0.00000000000E+00 0.  1.
          2   -1    0    0  501    0  0.00000000000E+00 -0.00000000000E+00 -0.68644615866E+03  0.68644615866E+03  0.00000000000E+00 0. -1.
         25    2    1    2    0    0  0.37936139746E+02 -0.28863824605E+02 -0.21030668023E+03  0.24929593994E+03  0.12508914763E+03 0.  0.
          5    1    3    3  502    0  0.70692798279E+01 -0.74107285186E+02 -0.88809552403E+02  0.11595892994E+03  0.41800000000E+01 0. -1.
         -5    1    3    3    0  502  0.30866859918E+02  0.45243460581E+02 -0.12149712782E+03  0.13333701000E+03  0.41800000000E+01 0. -1.
        -11    1    1    2    0    0 -0.17040011427E+02  0.61833068182E+02 -0.27954023464E+03  0.28680382336E+03  0.00000000000E+00 0. -1.
         11    1    1    2    0    0 -0.20896128319E+02 -0.32969243577E+02 -0.17127705888E+03  0.17566858028E+03  0.00000000000E+00 0.  1.
</event>
<event>
 7    1  0.2670433E-009  0.1238561E+03  0.7561462E-02  0.1236868E+00
          3   -1    0    0  501    0  0.00000000000E+00  0.00000000000E+00  0.52810328184E+03  0.52810328184E+03  0.00000000000E+00 0. -1.
         -3   -1    0    0    0  501 -0.00000000000E+00 -0.00000000000E+00 -0.34527654853E+02  0.34527654853E+02  0.00000000000E+00 0.  1.
         25    2    1    2    0    0 -0.51283726426E+02  0.35561550905E+02  0.37342160030E+03  0.39873018068E+03  0.12508965152E+03 0.  0.
          5    1    3    3  502    0  0.10543470298E+02  0.67027943086E+02  0.14860524038E+03  0.16341633880E+03  0.41800000000E+01 0. -1.
         -5    1    3    3    0  502 -0.61827196724E+02 -0.31466392181E+02  0.22481635992E+03  0.23531384188E+03  0.41800000000E+01 0. -1.
        -11    1    1    2    0    0  0.17258364035E+02  0.30998576094E+02  0.50565056792E+02  0.61770444530E+02  0.00000000000E+00 0.  1.
         11    1    1    2    0    0  0.34025362392E+02 -0.66560126999E+02  0.69588969900E+02  0.10213031148E+03  0.00000000000E+00 0. -1.
</event>
<event>
 7    1  0.2670433E-009  0.1419701E+03  0.7561462E-02  0.1210702E+00
          2   -1    0    0  501    0  0.00000000000E+00  0.00000000000E+00  0.31585355841E+03  0.31585355841E+03  0.00000000000E+00 0. -1.
         -2   -1    0    0    0  501 -0.00000000000E+00 -0.00000000000E+00 -0.76303200173E+02  0.76303200173E+02  0.00000000000E+00 0.  1.
         25    2    1    2    0    0 -0.99713055958E+02  0.29969427127E+02  0.81192866969E+02  0.18188588423E+03  0.12509729471E+03 0.  0.
          5    1    3    3  502    0 -0.21675274456E+02  0.58444445513E+02  0.76233306425E+02  0.98562468225E+02  0.41800000000E+01 0. -1.
         -5    1    3    3    0  502 -0.78037781501E+02 -0.28475018386E+02  0.49595605434E+01  0.83323416004E+02  0.41800000000E+01 0. -1.
        -11    1    1    2    0    0  0.12985847438E+02 -0.47985324858E+02  0.59528839935E+02  0.77555827760E+02  0.00000000000E+00 0.  1.
         11    1    1    2    0    0  0.86727208520E+02  0.18015897732E+02  0.98828651335E+02  0.13271504660E+03  0.00000000000E+00 0. -1.
</event>
<event>
 7    1  0.2670433E-009  0.9095198E+02  0.7561462E-02  0.1300563E+00
         -2   -1    0    0    0  501 -0.00000000000E+00  0.00000000000E+00  0.97119430617E+02  0.97119430617E+02  0.00000000000E+00 0.  1.
          2   -1    0    0  501    0  0.00000000000E+00 -0.00000000000E+00 -0.18000559169E+03  0.18000559169E+03  0.00000000000E+00 0. -1.
         25    2    1    2    0    0  0.34419889032E+02 -0.64575334844E+02 -0.54542620422E+02  0.15484515344E+03  0.12508965373E+03 0.  0.
          5    1    3    3  502    0  0.96292104501E+01 -0.74059668606E+02  0.18468792282E+02  0.77046251669E+02  0.41800000000E+01 0. -1.
         -5    1    3    3    0  502  0.24790678582E+02  0.94843337620E+01 -0.73011412704E+02  0.77798901769E+02  0.41800000000E+01 0. -1.
        -11    1    1    2    0    0  0.60774453761E+01  0.15232727448E+02 -0.51752814835E+02  0.54289273076E+02  0.00000000000E+00 0. -1.
         11    1    1    2    0    0 -0.40497334408E+02  0.49342607396E+02  0.23409274181E+02  0.67990595795E+02  0.00000000000E+00 0.  1.
</event>
<event>
 7    1  0.2670433E-009  0.1392207E+03  0.7561462E-02  0.1214381E+00
         -3   -1    0    0    0  501 -0.00000000000E+00  0.00000000000E+00  0.15305087365E+03  0.15305087365E+03  0.00000000000E+00 0.  1.
          3   -1    0    0  501    0  0.00000000000E+00 -0.00000000000E+00 -0.14171982953E+03  0.14171982953E+03  0.00000000000E+00 0. -1.
         25    2    1    2    0    0 -0.66966168272E+02 -0.74700915177E+02 -0.24674603272E+02  0.16223786295E+03  0.12509034218E+03 0.  0.
          5    1    3    3  502    0 -0.10105296001E+03 -0.59142264593E+02 -0.36514408640E+02  0.12272034316E+03  0.41800000000E+01 0. -1.
         -5    1    3    3    0  502  0.34086791739E+02 -0.15558650584E+02  0.11839805368E+02  0.39517519788E+02  0.41800000000E+01 0. -1.
        -11    1    1    2    0    0 -0.10601743433E+02  0.34738308575E+02 -0.40044258236E+01  0.36540148777E+02  0.00000000000E+00 0.  1.
         11    1    1    2    0    0  0.77567911705E+02  0.39962606602E+02  0.40010073223E+02  0.95992691451E+02  0.00000000000E+00 0. -1.
</event>
<event>
 7    1  0.2670433E-009  0.7904398E+02  0.7561462E-02  0.1331787E+00
          1   -1    0    0  501    0  0.00000000000E+00  0.00000000000E+00  0.93566727235E+03  0.93566727235E+03  0.00000000000E+00 0. -1.
         -1   -1    0    0    0  501 -0.00000000000E+00 -0.00000000000E+00 -0.20323636529E+02  0.20323636529E+02  0.00000000000E+00 0.  1.
         25    2    1    2    0    0  0.91796101814E+01 -0.46231163487E+02  0.74366718704E+03  0.75558598874E+03  0.12509082933E+03 0.  0.
          5    1    3    3  502    0 -0.60341168944E+01 -0.37467170779E+02  0.56549758662E+02  0.68231569362E+02  0.41800000000E+01 0. -1.
         -5    1    3    3    0  502  0.15213727076E+02 -0.87639927079E+01  0.68711742838E+03  0.68735441938E+03  0.41800000000E+01 0. -1.
        -11    1    1    2    0    0  0.40680211019E+02  0.17222035586E+02  0.57766686852E+02  0.72721854956E+02  0.00000000000E+00 0.  1.
         11    1    1    2    0    0 -0.49859821201E+02  0.29009127900E+02  0.11390976193E+03  0.12768306518E+03  0.00000000000E+00 0. -1.
</event>
<event>
 7    1  0.2670433E-009  0.1127174E+03  0.7561462E-02  0.1255619E+00
         -1   -1    0    0    0  501 -0.00000000000E+00  0.00000000000E+00  0.22352788835E+03  0.22352788835E+03  0.00000000000E+00 0.  1.
          1   -1    0    0  501    0  0.00000000000E+00 -0.00000000000E+00 -0.10057814574E+03  0.10057814574E+03  0.00000000000E+00 0. -1.
         25    2    1    2    0    0 -0.39330467612E+02  0.12020182698E+02 -0.27426011816E+02  0.13450603851E+03  0.12509323641E+03 0.  0.
          5    1    3    3  502    0 -0.84190265545E+02  0.68823679139E+01 -0.28203907424E+02  0.89153242199E+02  0.41800000000E+01 0. -1.
         -5    1    3    3    0  502  0.44859797934E+02  0.51378147845E+01  0.77789560792E+00  0.45352796308E+02  0.41800000000E+01 0. -1.
        -11    1    1    2    0    0 -0.27691352790E+02 -0.22282354407E+01  0.10366220132E+03  0.10732021261E+03  0.00000000000E+00 0.  1.
         11    1    1    2    0    0  0.67021820402E+02 -0.97919472576E+01  0.46713553112E+02  0.82279782969E+02  0.00000000000E+00 0. -1.
</event>
<event>
 7    1  0.2670433E-009  0.1037759E+03  0.7561462E-02  0.1272550E+00
          2   -1    0    0  501    0  0.00000000000E+00  0.00000000000E+00  0.76173846381E+02  0.76173846381E+02  0.00000000000E+00 0. -1.
         -2   -1    0    0    0  501 -0.00000000000E+00 -0.00000000000E+00 -0.29042162794E+03  0.29042162794E+03  0.00000000000E+00 0.  1.
         25    2    1    2    0    0  0.96371882478E+02  0.12803658676E+02 -0.15046049563E+03  0.21848758893E+03  0.12508793851E+03 0.  0.
          5    1    3    3  502    0  0.96077197281E+02 -0.16051349156E+00 -0.35174153445E+02  0.10239896031E+03  0.41800000000E+01 0. -1.
         -5    1    3    3    0  502  0.29468519683E+00  0.12964172168E+02 -0.11528634219E+03  0.11608862862E+03  0.41800000000E+01 0. -1.
        -11    1    1    2    0    0 -0.55721126304E+02 -0.12505321951E+02 -0.84885413890E+02  0.10230718687E+03  0.00000000000E+00 0.  1.
         11    1    1    2    0    0 -0.40650756174E+02 -0.29833672578E+00  0.21098127960E+02  0.45800698529E+02  0.00000000000E+00 0. -1.
</event>
<event>
 7    1  0.2670433E-009  0.1304468E+03  0.7561462E-02  0.1226794E+00
         -2   -1    0    0    0  501 -0.00000000000E+00  0.00000000000E+00  0.28469114367E+03  0.28469114367E+03  0.00000000000E+00 0.  1.
          2   -1    0    0  501    0  0.00000000000E+00 -0.00000000000E+00 -0.76906995809E+02  0.76906995809E+02  0.00000000000E+00 0. -1.
         25    2    1    2    0    0  0.75991043901E+02  0.52342802564E+02  0.14161400634E+03  0.21027723725E+03  0.12509029530E+03 0.  0.
          5    1    3    3  502    0 -0.29968140653E+02  0.71326542946E+01  0.49365827118E+01  0.31477078332E+02  0.41800000000E+01 0.  1.
         -5    1    3    3    0  502  0.10595918455E+03  0.45210148270E+02  0.13667742363E+03  0.17880015892E+03  0.41800000000E+01 0.  1.
        -11    1    1    2    0    0 -0.82029054897E+01 -0.45684078118E+02 -0.11697385807E+02  0.47865974206E+02  0.00000000000E+00 0. -1.
         11    1    1    2    0    0 -0.67788138412E+02 -0.66587244469E+01  0.77867527321E+02  0.10345492802E+03  0.00000000000E+00 0.  1.
</event>
<event>
 7    1  0.2670433E-009  0.1044116E+03  0.7561462E-02  0.1271283E+00
          4   -1    0    0  501    0  0.00000000000E+00  0.00000000000E+00  0.61723994356E+03  0.61723994356E+03  0.00000000000E+00 0.  1.
         -4   -1    0    0    0  501 -0.00000000000E+00 -0.00000000000E+00 -0.20522645509E+02  0.20522645509E+02  0.00000000000E+00 0. -1.
         25    2    1    2    0    0 -0.25071980152E+02  0.47150785830E+01  0.29411491892E+03  0.32062756218E+03  0.12509041509E+03 0.  0.
          5    1    3    3  502    0 -0.28444184649E+02 -0.51497909468E+02  0.81249964709E+02  0.10039987791E+03  0.41800000000E+01 0. -1.
         -5    1    3    3    0  502  0.33722044968E+01  0.56212988051E+02  0.21286495421E+03  0.22022768427E+03  0.41800000000E+01 0. -1.
        -11    1    1    2    0    0  0.22264231013E+01  0.41638090312E+02  0.16382398300E+03  0.16904728608E+03  0.00000000000E+00 0.  1.
         11    1    1    2    0    0  0.22845557051E+02 -0.46353168895E+02  0.13877839614E+03  0.14808774081E+03  0.00000000000E+00 0. -1.
</event>
<event>
 7    1  0.3292237E-009  0.1398098E+03  0.7561462E-02  0.1213585E+00
          1   -1    0    0  501    0  0.00000000000E+00  0.00000000000E+00  0.79208143927E+03  0.79208143927E+03  0.00000000000E+00 0. -1.
         -1   -1    0    0    0  501 -0.00000000000E+00 -0.00000000000E+00 -0.34499483165E+02  0.34499483165E+02  0.00000000000E+00 0.  1.
         25    2    1    2    0    0 -0.61915836312E+02 -0.90433126065E+02  0.55257948558E+03  0.57706611681E+03  0.12509793844E+03 0.  0.
          5    1    3    3  502    0 -0.70786973058E+02 -0.11585827116E+03  0.41030924313E+03  0.43220953478E+03  0.41800000000E+01 0. -1.
         -5    1    3    3    0  502  0.88711367458E+01  0.25425145095E+02  0.14227024245E+03  0.14485658203E+03  0.41800000000E+01 0. -1.
        -11    1    1    2    0    0  0.25105791710E+02  0.81569794469E+01  0.91973167622E+00  0.26413689584E+02  0.00000000000E+00 0.  1.
         11    1    1    2    0    0  0.36810044602E+02  0.82276146619E+02  0.20408273885E+03  0.22310111605E+03  0.00000000000E+00 0. -1.
</event>
<event>
 7    1  0.2670433E-009  0.1251649E+03  0.7561462E-02  0.1234812E+00
          1   -1    0    0  501    0  0.00000000000E+00  0.00000000000E+00  0.10641496568E+03  0.10641496568E+03  0.00000000000E+00 0. -1.
         -1   -1    0    0    0  501 -0.00000000000E+00 -0.00000000000E+00 -0.25654660939E+03  0.25654660939E+03  0.00000000000E+00 0.  1.
         25    2    1    2    0    0  0.98409435055E+02  0.25998240190E+02 -0.15617104065E+03  0.22449244866E+03  0.12508852931E+03 0.  0.
          5    1    3    3  502    0  0.68739555696E+02 -0.10115131523E+02 -0.91984452439E+01  0.70210584657E+02  0.41800000000E+01 0. -1.
         -5    1    3    3    0  502  0.29669879359E+02  0.36113371714E+02 -0.14697259541E+03  0.15428186400E+03  0.41800000000E+01 0. -1.
        -11    1    1    2    0    0 -0.20256036625E+02  0.31026550460E+02  0.17625556755E+02  0.41031866934E+02  0.00000000000E+00 0.  1.
         11    1    1    2    0    0 -0.78153398430E+02 -0.57024790650E+02 -0.11586159812E+02  0.97437259475E+02  0.00000000000E+00 0. -1.
</event>
<event>
 7    1  0.2670433E-009  0.1142649E+03  0.7561462E-02  0.1252870E+00
          1   -1    0    0  501    0  0.00000000000E+00  0.00000000000E+00  0.22981081006E+03  0.22981081006E+03  0.00000000000E+00 0. -1.
         -1   -1    0    0    0  501 -0.00000000000E+00 -0.00000000000E+00 -0.74271519221E+02  0.74271519221E+02  0.00000000000E+00 0.  1.
         25    2    1    2    0    0  0.40764728335E+02 -0.56061354060E+02  0.60711852377E+02  0.15536513119E+03  0.12509099279E+03 0.  0.
          5    1    3    3  502    0  0.88088437643E+01 -0.91528984472E+02  0.24362597311E+02  0.95216381336E+02  0.41800000000E+01 0. -1.
         -5    1    3    3    0  502  0.31955884570E+02  0.35467630412E+02  0.36349255066E+02  0.60148749858E+02  0.41800000000E+01 0. -1.
        -11    1    1    2    0    0 -0.27060638754E+02  0.66197374230E+02  0.23342153120E+02  0.75227831532E+02  0.00000000000E+00 0.  1.
         11    1    1    2    0    0 -0.13704089581E+02 -0.10136020170E+02  0.71485285341E+02  0.73489366554E+02  0.00000000000E+00 0. -1.
</event>
<event>
 7    1  0.2670433E-009  0.1118409E+03  0.7561462E-02  0.1257198E+00
          2   -1    0    0  501    0  0.00000000000E+00  0.00000000000E+00  0.62642908091E+02  0.62642908091E+02  0.00000000000E+00 0. -1.
         -2   -1    0    0    0  501 -0.00000000000E+00 -0.00000000000E+00 -0.42526494609E+03  0.42526494609E+03  0.00000000000E+00 0.  1.
         25    2    1    2    0    0  0.36705615979E+01 -0.71306572808E+02 -0.46664542589E+02  0.15140693339E+03  0.12509348342E+03 0.  0.
          5    1    3    3  502    0 -0.24129840977E+02  0.11267451401E+02  0.26317910967E+02  0.37673724588E+02  0.41800000000E+01 0.  1.
         -5    1    3    3    0  502  0.27800402575E+02 -0.82574024208E+02 -0.72982453556E+02  0.11373320880E+03  0.41800000000E+01 0.  1.
        -11    1    1    2    0    0 -0.24486826775E+02 -0.93392453249E+01 -0.36764460370E+02  0.45149216328E+02  0.00000000000E+00 0. -1.
         11    1    1    2    0    0  0.20816265177E+02  0.80645818133E+02 -0.27919303504E+03  0.29135170446E+03  0.00000000000E+00 0.  1.
</event>
<event>
 7    1  0.2670433E-009  0.1186045E+03  0.7561462E-02  0.1245417E+00
          2   -1    0    0  501    0  0.00000000000E+00  0.00000000000E+00  0.22750466123E+03  0.22750466123E+03  0.00000000000E+00 0. -1.
         -2   -1    0    0    0  501 -0.00000000000E+00 -0.00000000000E+00 -0.11886675704E+03  0.11886675704E+03  0.00000000000E+00 0.  1.
         25    2    1    2    0    0  0.10772847710E+03  0.10206901511E+02 -0.42939764793E+01  0.16545598019E+03  0.12509051734E+03 0.  0.
          5    1    3    3  502    0  0.78932825707E+02 -0.43690149314E+01 -0.61091404128E+02  0.99995556520E+02  0.41800000000E+01 0. -1.
         -5    1    3    3    0  502  0.28795651397E+02  0.14575916443E+02  0.56797427648E+02  0.65460423669E+02  0.41800000000E+01 0. -1.
        -11    1    1    2    0    0 -0.10660765919E+03 -0.25947797004E+02  0.12087701946E+03  0.16324746552E+03  0.00000000000E+00 0. -1.
         11    1    1    2    0    0 -0.11208179132E+01  0.15740895493E+02 -0.79451387960E+01  0.17667972555E+02  0.00000000000E+00 0.  1.
</event>
<event>
 7    1  0.2670433E-009  0.1567171E+03  0.7561462E-02  0.1192454E+00
         -2   -1    0    0    0  501 -0.00000000000E+00  0.00000000000E+00  0.72409101155E+02  0.72409101155E+02  0.00000000000E+00 0.  1.
          2   -1    0    0  501    0  0.00000000000E+00 -0.00000000000E+00 -0.48735156293E+03  0.48735156293E+03  0.00000000000E+00 0. -1.
         25    2    1    2    0    0  0.13105028039E+03  0.73781836158E+01 -0.33622409916E+03  0.38199938191E+03  0.12509304272E+03 0.  0.
          5    1    3    3  502    0 -0.15759370802E+02  0.25471946424E+02 -0.34083540572E+02  0.45566851555E+02  0.41800000000E+01 0. -1.
         -5    1    3    3    0  502  0.14680965119E+03 -0.18093762808E+02 -0.30214055859E+03  0.33643253035E+03  0.41800000000E+01 0. -1.
        -11    1    1    2    0    0 -0.10534716519E+03  0.73224256545E+01 -0.96642870420E+02  0.14314848073E+03  0.00000000000E+00 0. -1.
         11    1    1    2    0    0 -0.25703115199E+02 -0.14700609270E+02  0.17924507808E+02  0.34612801447E+02  0.00000000000E+00 0.  1.
</event>
<event>
 7    1  0.2670433E-009  0.1154537E+03  0.7561462E-02  0.1250791E+00
          1   -1    0    0  501    0  0.00000000000E+00  0.00000000000E+00  0.46051141420E+03  0.46051141420E+03  0.00000000000E+00 0. -1.
         -1   -1    0    0    0  501 -0.00000000000E+00 -0.00000000000E+00 -0.36676748473E+02  0.36676748473E+02  0.00000000000E+00 0.  1.
         25    2    1    2    0    0 -0.51144724158E+02 -0.31913423090E+02  0.29603028944E+03  0.32697664136E+03  0.12508214239E+03 0.  0.
          5    1    3    3  502    0 -0.24483829487E+02 -0.79920205478E+02  0.17278406344E+03  0.19198568210E+03  0.41800000000E+01 0.  1.
         -5    1    3    3    0  502 -0.26660894671E+02  0.48006782388E+02  0.12324622600E+03  0.13499095926E+03  0.41800000000E+01 0.  1.
        -11    1    1    2    0    0  0.65981780562E+02  0.37960748635E+02  0.13310548592E+03  0.15333520204E+03  0.00000000000E+00 0. -1.
         11    1    1    2    0    0 -0.14837056403E+02 -0.60473255452E+01 -0.53011096321E+01  0.16876319276E+02  0.00000000000E+00 0.  1.
</event>
<event>
 7    1  0.2670433E-009  0.9934487E+02  0.7561462E-02  0.1281680E+00
          2   -1    0    0  501    0  0.00000000000E+00  0.00000000000E+00  0.85584890619E+02  0.85584890619E+02  0.00000000000E+00 0. -1.
         -2   -1    0    0    0  501 -0.00000000000E+00 -0.00000000000E+00 -0.17964064850E+03  0.17964064850E+03  0.00000000000E+00 0.  1.
         25    2    1    2    0    0 -0.42685074963E+02  0.69333210359E+01 -0.70561914163E+01  0.13253835171E+03  0.12508612342E+03 0.  0.
          5    1    3    3  502    0  0.14656320144E+02  0.34887413679E+02  0.38417231302E+02  0.54086000169E+02  0.41800000000E+01 0. -1.
         -5    1    3    3    0  502 -0.57341395107E+02 -0.27954092643E+02 -0.45473422718E+02  0.78452351540E+02  0.41800000000E+01 0. -1.
        -11    1    1    2    0    0  0.51807609367E+02 -0.38039532720E+02 -0.73318888251E+02  0.97502275933E+02  0.00000000000E+00 0.  1.
         11    1    1    2    0    0 -0.91225344036E+01  0.31106211684E+02 -0.13680678216E+02  0.35184911478E+02  0.00000000000E+00 0. -1.
</event>
<event>
 7    1  0.2670433E-009  0.1068632E+03  0.7561462E-02  0.1266491E+00
          2   -1    0    0  501    0  0.00000000000E+00  0.00000000000E+00  0.13890411358E+03  0.13890411358E+03  0.00000000000E+00 0.  1.
         -2   -1    0    0    0  501 -0.00000000000E+00 -0.00000000000E+00 -0.12924575819E+03  0.12924575819E+03  0.00000000000E+00 0. -1.
         25    2    1    2    0    0  0.46236720804E+02  0.61484676765E+02  0.24741332582E+02  0.14892306569E+03  0.12509095143E+03 0.  0.
          5    1    3    3  502    0  0.79296047471E+02  0.21318943317E+02  0.44052183903E+02  0.93276083726E+02  0.41800000000E+01 0. -1.
         -5    1    3    3    0  502 -0.33059326667E+02  0.40165733448E+02 -0.19310851321E+02  0.55646981965E+02  0.41800000000E+01 0. -1.
        -11    1    1    2    0    0 -0.27617271203E+02 -0.20791690475E+02 -0.51160528482E+02  0.61744698040E+02  0.00000000000E+00 0. -1.
         11    1    1    2    0    0 -0.18619449601E+02 -0.40692986289E+02  0.36077551295E+02  0.57482108034E+02  0.00000000000E+00 0.  1.
</event>
<event>
 7    1  0.2670433E-009  0.9582071E+02  0.7561462E-02  0.1289338E+00
          2   -1    0    0  501    0  0.00000000000E+00  0.00000000000E+00  0.34512177699E+03  0.34512177699E+03  0.00000000000E+00 0. -1.
         -2   -1    0    0    0  501 -0.00000000000E+00 -0.00000000000E+00 -0.37521346442E+02  0.37521346442E+02  0.00000000000E+00 0.  1.
         25    2    1    2    0    0  0.11424190279E+02  0.33258058339E+02  0.19210348968E+03  0.23192159416E+03  0.12508902639E+03 0.  0.
          5    1    3    3  502    0 -0.27503875519E+02  0.49152923404E+02  0.17897274805E+03  0.18767309342E+03  0.41800000000E+01 0.  1.
         -5    1    3    3    0  502  0.38928065798E+02 -0.15894865065E+02  0.13130741626E+02  0.44248500742E+02  0.41800000000E+01 0.  1.
        -11    1    1    2    0    0 -0.35779528261E+02  0.15042321324E+02  0.28019098363E+02  0.47869781140E+02  0.00000000000E+00 0.  1.
         11    1    1    2    0    0  0.24355337982E+02 -0.48300379663E+02  0.87477842507E+02  0.10285174813E+03  0.00000000000E+00 0. -1.
</event>
<event>
 7    1  0.2670433E-009  0.1336282E+03  0.7561462E-02  0.1222169E+00
          2   -1    0    0  501    0  0.00000000000E+00  0.00000000000E+00  0.13584711257E+04  0.13584711257E+04  0.00000000000E+00 0. -1.
         -2   -1    0    0    0  501 -0.00000000000E+00 -0.00000000000E+00 -0.28454526669E+02  0.28454526669E+02  0.00000000000E+00 0.  1.
         25    2    1    2    0    0 -0.11539619083E+03  0.24891052502E+02  0.10962447336E+04  0.11096553388E+04  0.12508640884E+03 0.  0.
          5    1    3    3  502    0 -0.69799598078E+01  0.32025007519E+01  0.95966051489E+00  0.87959762556E+01  0.41800000000E+01 0. -1.
         -5    1    3    3    0  502 -0.10841623102E+03  0.21688551750E+02  0.10952850731E+04  0.11008593626E+04  0.41800000000E+01 0. -1.
        -11    1    1    2    0    0  0.67720339940E+02 -0.58539922300E+02  0.15846571889E+03  0.18200096430E+03  0.00000000000E+00 0.  1.
         11    1    1    2    0    0  0.47675850887E+02  0.33648869799E+02  0.75306146494E+02  0.95269349197E+02  0.00000000000E+00 0. -1.
</event>
<event>
 7    1  0.3923397E-009  0.1432539E+03  0.7561462E-02  0.1209017E+00
          1   -1    0    0  501    0  0.00000000000E+00  0.00000000000E+00  0.74901623868E+03  0.74901623868E+03  0.00000000000E+00 0. -1.
         -1   -1    0    0    0  501 -0.00000000000E+00 -0.00000000000E+00 -0.34260537040E+02  0.34260537040E+02  0.00000000000E+00 0.  1.
         25    2    1    2    0    0  0.42081533794E+02 -0.11006070680E+03  0.36607734385E+03  0.40440694260E+03  0.12509252125E+03 0.  0.
          5    1    3    3  502    0 -0.16925775937E+02 -0.10769504967E+03  0.19595664826E+03  0.22427925898E+03  0.41800000000E+01 0. -1.
         -5    1    3    3    0  502  0.59007309731E+02 -0.23656571361E+01  0.17012069559E+03  0.18012768362E+03  0.41800000000E+01 0. -1.
        -11    1    1    2    0    0 -0.28809905589E+02  0.62319895546E+02  0.78948161170E+02  0.10462596328E+03  0.00000000000E+00 0.  1.
         11    1    1    2    0    0 -0.13271628205E+02  0.47740811258E+02  0.26973019662E+03  0.27424386983E+03  0.00000000000E+00 0. -1.
</event>
<event>
 7    1  0.3835649E-009  0.1384628E+03  0.7561462E-02  0.1215412E+00
          1   -1    0    0  501    0  0.00000000000E+00  0.00000000000E+00  0.34331605100E+03  0.34331605100E+03  0.00000000000E+00 0. -1.
         -1   -1    0    0    0  501 -0.00000000000E+00 -0.00000000000E+00 -0.68599877385E+02  0.68599877385E+02  0.00000000000E+00 0.  1.
         25    2    1    2    0    0  0.98548787901E+02 -0.25231392601E+02  0.98833615357E+02  0.18911628306E+03  0.12509355789E+03 0.  0.
          5    1    3    3  502    0 -0.29027241802E+02 -0.12525191183E+02  0.11350323906E+02  0.33849127516E+02  0.41800000000E+01 0. -1.
         -5    1    3    3    0  502  0.12757602970E+03 -0.12706201418E+02  0.87483291450E+02  0.15526715555E+03  0.41800000000E+01 0. -1.
        -11    1    1    2    0    0 -0.54396696689E+02  0.42826209448E+02  0.42581938250E+02  0.81279187320E+02  0.00000000000E+00 0.  1.
         11    1    1    2    0    0 -0.44152091212E+02 -0.17594816847E+02  0.13330062001E+03  0.14152045800E+03  0.00000000000E+00 0. -1.
</event>
<event>
 7    1  0.2670433E-009  0.9811198E+02  0.7561462E-02  0.1284317E+00
         -3   -1    0    0    0  501 -0.00000000000E+00  0.00000000000E+00  0.90700253820E+02  0.90700253820E+02  0.00000000000E+00 0.  1.
          3   -1    0    0  501    0  0.00000000000E+00 -0.00000000000E+00 -0.18621353330E+03  0.18621353330E+03  0.00000000000E+00 0. -1.
         25    2    1    2    0    0  0.50748346480E+02  0.47689653660E+02 -0.68298088795E+02  0.15862327700E+03  0.12508803834E+03 0.  0.
          5    1    3    3  502    0  0.16765610582E+02  0.56958517690E+02  0.20539541918E+02  0.62965892496E+02  0.41800000000E+01 0. -1.
         -5    1    3    3    0  502  0.33982735898E+02 -0.92688640299E+01 -0.88837630713E+02  0.95657384504E+02  0.41800000000E+01 0. -1.
        -11    1    1    2    0    0 -0.68196637264E+02 -0.25058798510E+02 -0.44204290702E+02  0.85045540937E+02  0.00000000000E+00 0. -1.
         11    1    1    2    0    0  0.17448290784E+02 -0.22630855150E+02  0.16989100021E+02  0.33244969178E+02  0.00000000000E+00 0.  1.
</event>
<event>
 7    1  0.2670433E-009  0.1293157E+03  0.7561462E-02  0.1228475E+00
         -1   -1    0    0    0  501 -0.00000000000E+00  0.00000000000E+00  0.11474071288E+03  0.11474071288E+03  0.00000000000E+00 0.  1.
          1   -1    0    0  501    0  0.00000000000E+00 -0.00000000000E+00 -0.19511150766E+03  0.19511150766E+03  0.00000000000E+00 0. -1.
         25    2    1    2    0    0 -0.44948156271E+02  0.91787032647E+02 -0.53088454243E+02  0.17003216856E+03  0.12508940106E+03 0.  0.
          5    1    3    3  502    0 -0.21019580334E+02 -0.27357053968E+02  0.52846557843E+01  0.35151545428E+02  0.41800000000E+01 0. -1.
         -5    1    3    3    0  502 -0.23928575937E+02  0.11914408662E+03 -0.58373110027E+02  0.13488062313E+03  0.41800000000E+01 0. -1.
        -11    1    1    2    0    0  0.23017171615E+02 -0.42337257180E+02  0.33319484199E+02  0.58586871925E+02  0.00000000000E+00 0.  1.
         11    1    1    2    0    0  0.21930984656E+02 -0.49449775467E+02 -0.60601824734E+02  0.81233180061E+02  0.00000000000E+00 0. -1.
</event>
<event>
 7    1  0.2670433E-009  0.1213101E+03  0.7561462E-02  0.1240951E+00
         -1   -1    0    0    0  501 -0.00000000000E+00  0.00000000000E+00  0.25983642146E+03  0.25983642146E+03  0.00000000000E+00 0.  1.
          1   -1    0    0  501    0  0.00000000000E+00 -0.00000000000E+00 -0.81899589267E+02  0.81899589267E+02  0.00000000000E+00 0. -1.
         25    2    1    2    0    0 -0.30350025959E+02 -0.70268980552E+02  0.16658598685E+03  0.22194018831E+03  0.12509077692E+03 0.  0.
          5    1    3    3  502    0 -0.54082832371E+02 -0.90222134829E+02  0.87496039602E+02  0.13688687197E+03  0.41800000000E+01 0.  1.
         -5    1    3    3    0  502  0.23732806412E+02  0.19953154277E+02  0.79089947249E+02  0.85053316347E+02  0.41800000000E+01 0.  1.
        -11    1    1    2    0    0 -0.18673852802E+02  0.49340909508E+02  0.33039486569E+02  0.62248259432E+02  0.00000000000E+00 0.  1.
         11    1    1    2    0    0  0.49023878760E+02  0.20928071044E+02 -0.21688641231E+02  0.57547562979E+02  0.00000000000E+00 0. -1.
</event>
<event>
 7    1  0.2670433E-009  0.3029292E+03  0.7561462E-02  0.1083785E+00
          1   -1    0    0  501    0  0.00000000000E+00  0.00000000000E+00  0.47108877529E+03  0.47108877529E+03  0.00000000000E+00 0. -1.
         -1   -1    0    0    0  501 -0.00000000000E+00 -0.00000000000E+00 -0.20748126266E+03  0.20748126266E+03  0.00000000000E+00 0.  1.
         25    2    1    2    0    0 -0.25381542283E+02  0.29035170723E+03  0.16669916944E+03  0.35830759456E+03  0.12508949856E+03 0.  0.
          5    1    3    3  502    0  0.92366353643E+01  0.23520845186E+03  0.77622422658E+02  0.24789321120E+03  0.41800000000E+01 0.  1.
         -5    1    3    3    0  502 -0.34618177647E+02  0.55143255369E+02  0.89076746782E+02  0.11041438336E+03  0.41800000000E+01 0.  1.
        -11    1    1    2    0    0  0.47572342055E+02 -0.27274116308E+03  0.86049426135E+02  0.28992304756E+03  0.00000000000E+00 0.  1.
         11    1    1    2    0    0 -0.22190799772E+02 -0.17610544148E+02  0.10858917056E+02  0.30339395830E+02  0.00000000000E+00 0. -1.
</event>
<event>
 7    1  0.2670433E-009  0.1567706E+03  0.7561462E-02  0.1192392E+00
         -2   -1    0    0    0  501 -0.00000000000E+00  0.00000000000E+00  0.23456873621E+02  0.23456873621E+02  0.00000000000E+00 0.  1.
          2   -1    0    0  501    0  0.00000000000E+00 -0.00000000000E+00 -0.10690020375E+04  0.10690020375E+04  0.00000000000E+00 0. -1.
         25    2    1    2    0    0 -0.18052139463E+02  0.11174773493E+03 -0.49731696860E+03  0.52515216869E+03  0.12508875657E+03 0.  0.
          5    1    3    3  502    0 -0.71626604882E+02  0.53840658850E+02 -0.26415832343E+03  0.27897361759E+03  0.41800000000E+01 0. -1.
         -5    1    3    3    0  502  0.53574465419E+02  0.57907076079E+02 -0.23315864517E+03  0.24617855110E+03  0.41800000000E+01 0. -1.
        -11    1    1    2    0    0  0.54593518722E+02 -0.77185476397E+02 -0.32431533224E+03  0.33781427557E+03  0.00000000000E+00 0.  1.
         11    1    1    2    0    0 -0.36541379259E+02 -0.34562258532E+02 -0.22391286307E+03  0.22949246690E+03  0.00000000000E+00 0. -1.
</event>
<event>
 7    1  0.3236714E-009  0.1067861E+03  0.7561462E-02  0.1266640E+00
          2   -1    0    0  501    0  0.00000000000E+00  0.00000000000E+00  0.69244070400E+03  0.69244070400E+03  0.00000000000E+00 0. -1.
         -2   -1    0    0    0  501 -0.00000000000E+00 -0.00000000000E+00 -0.24281158542E+02  0.24281158542E+02  0.00000000000E+00 0.  1.
         25    2    1    2    0    0 -0.63630341385E+02 -0.20773926224E+02  0.30427802093E+03  0.33572922518E+03  0.12509445337E+03 0.  0.
          5    1    3    3  502    0 -0.80723233667E+02 -0.22307647123E+02  0.99201106557E+02  0.12989304645E+03  0.41800000000E+01 0.  1.
         -5    1    3    3    0  502  0.17092892282E+02  0.15337208989E+01  0.20507691437E+03  0.20583617873E+03  0.41800000000E+01 0.  1.
        -11    1    1    2    0    0  0.32207280841E+02 -0.35295397368E+02  0.13260311185E+03  0.14094913723E+03  0.00000000000E+00 0.  1.
         11    1    1    2    0    0  0.31423060544E+02  0.56069323592E+02  0.23127841268E+03  0.24004350013E+03  0.00000000000E+00 0. -1.
</event>
<event>
 7    1  0.2670433E-009  0.8757241E+02  0.7561462E-02  0.1308839E+00
         -4   -1    0    0    0  501 -0.00000000000E+00  0.00000000000E+00  0.43339746147E+02  0.43339746147E+02  0.00000000000E+00 0.  1.
          4   -1    0    0  501    0  0.00000000000E+00 -0.00000000000E+00 -0.30559499902E+03  0.30559499902E+03  0.00000000000E+00 0. -1.
         25    2    1    2    0    0  0.91477772421E+01  0.55598821112E+01 -0.82222320198E+02  0.15007736925E+03  0.12509241666E+03 0.  0.
          5    1    3    3  502    0  0.48495953846E+02 -0.17526540707E+02  0.45699977225E+01  0.51936446238E+02  0.41800000000E+01 0.  1.
         -5    1    3    3    0  502 -0.39348176604E+02  0.23086422818E+02 -0.86792317920E+02  0.98140923017E+02  0.41800000000E+01 0.  1.
        -11    1    1    2    0    0 -0.41680741992E+02  0.78429963669E+01 -0.57996304704E+02  0.71849622159E+02  0.00000000000E+00 0.  1.
         11    1    1    2    0    0  0.32532964750E+02 -0.13402878478E+02 -0.12203662797E+03  0.12700775376E+03  0.00000000000E+00 0. -1.
</event>
<event>
 7    1  0.2670433E-009  0.1530051E+03  0.7561462E-02  0.1196828E+00
          4   -1    0    0  501    0  0.00000000000E+00  0.00000000000E+00  0.18716962958E+03  0.18716962958E+03  0.00000000000E+00 0. -1.
         -4   -1    0    0    0  501 -0.00000000000E+00 -0.00000000000E+00 -0.17610716878E+03  0.17610716878E+03  0.00000000000E+00 0.  1.
         25    2    1    2    0    0 -0.82031081220E+02  0.78310582420E+02  0.10034251715E+03  0.19641550094E+03  0.12509509445E+03 0.  0.
          5    1    3    3  502    0  0.32787143033E+02  0.15860563552E+02  0.11891897626E+02  0.38541456298E+02  0.41800000000E+01 0. -1.
         -5    1    3    3    0  502 -0.11481822425E+03  0.62450018868E+02  0.88450619525E+02  0.15787404464E+03  0.41800000000E+01 0. -1.
        -11    1    1    2    0    0  0.60443784590E+02 -0.33103522937E+01 -0.24016567797E+02  0.65124534982E+02  0.00000000000E+00 0. -1.
         11    1    1    2    0    0  0.21587296630E+02 -0.75000230126E+02 -0.65263488555E+02  0.10173676245E+03  0.00000000000E+00 0.  1.
</event>
<event>
 7    1  0.2670433E-009  0.8019281E+02  0.7561462E-02  0.1328505E+00
          1   -1    0    0  501    0  0.00000000000E+00  0.00000000000E+00  0.47390102356E+03  0.47390102356E+03  0.00000000000E+00 0. -1.
         -1   -1    0    0    0  501 -0.00000000000E+00 -0.00000000000E+00 -0.26816744049E+02  0.26816744049E+02  0.00000000000E+00 0.  1.
         25    2    1    2    0    0 -0.13459783983E+02 -0.19224575138E+02  0.29884808946E+03  0.32481862904E+03  0.12508481573E+03 0.  0.
          5    1    3    3  502    0 -0.30747460536E+01  0.28337843777E+02  0.80061910845E+01  0.29900818533E+02  0.41800000000E+01 0.  1.
         -5    1    3    3    0  502 -0.10385037930E+02 -0.47562418915E+02  0.29084189838E+03  0.29491781051E+03  0.41800000000E+01 0.  1.
        -11    1    1    2    0    0 -0.18458861118E+02  0.40395380789E+02  0.12102141927E+03  0.12891353794E+03  0.00000000000E+00 0. -1.
         11    1    1    2    0    0  0.31918645101E+02 -0.21170805651E+02  0.27214770776E+02  0.46985600618E+02  0.00000000000E+00 0.  1.
</event>
<event>
 7    1  0.2670433E-009  0.1742434E+03  0.7561462E-02  0.1173494E+00
         -2   -1    0    0    0  501 -0.00000000000E+00  0.00000000000E+00  0.34543475025E+02  0.34543475025E+02  0.00000000000E+00 0.  1.
          2   -1    0    0  501    0  0.00000000000E+00 -0.00000000000E+00 -0.14643844182E+04  0.14643844182E+04  0.00000000000E+00 0. -1.
         25    2    1    2    0    0 -0.14594896227E+03  0.56060715848E+02 -0.11399446805E+04  0.11573960422E+04  0.12509124879E+03 0.  0.
          5    1    3    3  502    0 -0.10107775740E+03  0.90247896996E+02 -0.93543885247E+03  0.94521146579E+03  0.41800000000E+01 0.  1.
         -5    1    3    3    0  502 -0.44871204867E+02 -0.34187181148E+02 -0.20450582805E+03  0.21218457646E+03  0.41800000000E+01 0.  1.
        -11    1    1    2    0    0  0.86765316410E+02 -0.32541999043E+02 -0.80781097106E+02  0.12293407779E+03  0.00000000000E+00 0.  1.
         11    1    1    2    0    0  0.59183645855E+02 -0.23518716805E+02 -0.20911516556E+03  0.21859777319E+03  0.00000000000E+00 0. -1.
</event>
<event>
 7    1  0.2670433E-009  0.1191919E+03  0.7561462E-02  0.1244436E+00
          2   -1    0    0  501    0  0.00000000000E+00  0.00000000000E+00  0.23161405610E+03  0.23161405610E+03  0.00000000000E+00 0. -1.
         -2   -1    0    0    0  501 -0.00000000000E+00 -0.00000000000E+00 -0.10138183841E+03  0.10138183841E+03  0.00000000000E+00 0.  1.
         25    2    1    2    0    0  0.10520503416E+02 -0.99327517491E+02  0.17907748721E+02  0.16107261039E+03  0.12508821539E+03 0.  0.
          5    1    3    3  502    0  0.24861198038E+02 -0.11380104436E+03  0.46688452505E+02  0.12556289604E+03  0.41800000000E+01 0.  1.
         -5    1    3    3    0  502 -0.14340694622E+02  0.14473526870E+02 -0.28780703785E+02  0.35509714342E+02  0.41800000000E+01 0.  1.
        -11    1    1    2    0    0 -0.10563343321E+02  0.32026779805E+02 -0.74489576939E+01  0.34536731425E+02  0.00000000000E+00 0.  1.
         11    1    1    2    0    0  0.42839905531E-01  0.67300737686E+02  0.11977342667E+03  0.13738655270E+03  0.00000000000E+00 0. -1.
</event>
<event>
 7    1  0.2670433E-009  0.9827808E+02  0.7561462E-02  0.1283959E+00
          2   -1    0    0  501    0  0.00000000000E+00  0.00000000000E+00  0.10730845453E+03  0.10730845453E+03  0.00000000000E+00 0. -1.
         -2   -1    0    0    0  501 -0.00000000000E+00 -0.00000000000E+00 -0.12364994597E+03  0.12364994597E+03  0.00000000000E+00 0.  1.
         25    2    1    2    0    0  0.33442093175E+02  0.42336137445E+01  0.11133476303E+02  0.13004118689E+03  0.12510179420E+03 0.  0.
          5    1    3    3  502    0 -0.70285398725E+01  0.56665387846E+02  0.24615265219E+02  0.62319741931E+02  0.41800000000E+01 0.  1.
         -5    1    3    3    0  502  0.40470633048E+02 -0.52431774102E+02 -0.13481788916E+02  0.67721444957E+02  0.41800000000E+01 0.  1.
        -11    1    1    2    0    0  0.19574553171E+02 -0.36846808975E+01  0.21095721702E+02  0.29013263851E+02  0.00000000000E+00 0. -1.
         11    1    1    2    0    0 -0.53016646347E+02 -0.54893284703E+00 -0.48570689445E+02  0.71903949754E+02  0.00000000000E+00 0.  1.
</event>
<event>
 7    1  0.2670433E-009  0.1022814E+03  0.7561462E-02  0.1275570E+00
          2   -1    0    0  501    0  0.00000000000E+00  0.00000000000E+00  0.15152181746E+03  0.15152181746E+03  0.00000000000E+00 0. -1.
         -2   -1    0    0    0  501 -0.00000000000E+00 -0.00000000000E+00 -0.11930398553E+03  0.11930398553E+03  0.00000000000E+00 0.  1.
         25    2    1    2    0    0  0.46704026242E+02  0.30412649912E+02 -0.38392478182E+02  0.14222509575E+03  0.12509116731E+03 0.  0.
          5    1    3    3  502    0  0.61253859082E+02  0.47642359909E+02 -0.69036414678E+02  0.10394868283E+03  0.41800000000E+01 0. -1.
         -5    1    3    3    0  502 -0.14549832839E+02 -0.17229709997E+02  0.30643936495E+02  0.38276412922E+02  0.41800000000E+01 0. -1.
        -11    1    1    2    0    0  0.24924519279E+02  0.25705071793E+01  0.39971658433E+01  0.25373539431E+02  0.00000000000E+00 0.  1.
         11    1    1    2    0    0 -0.71628545521E+02 -0.32983157092E+02  0.66613144269E+02  0.10322716781E+03  0.00000000000E+00 0. -1.
</event>
<event>
 7    1  0.2670433E-009  0.1259004E+03  0.7561462E-02  0.1233669E+00
         -2   -1    0    0    0  501 -0.00000000000E+00  0.00000000000E+00  0.11516870949E+03  0.11516870949E+03  0.00000000000E+00 0.  1.
          2   -1    0    0  501    0  0.00000000000E+00 -0.00000000000E+00 -0.17475901773E+03  0.17475901773E+03  0.00000000000E+00 0. -1.
         25    2    1    2    0    0 -0.44626360629E+02 -0.68742833631E+02  0.82933673934E+01  0.14978046284E+03  0.12509323670E+03 0.  0.
          5    1    3    3  502    0 -0.80796745233E+02 -0.57979898939E+02 -0.21120668954E+02  0.10175135271E+03  0.41800000000E+01 0.  1.
         -5    1    3    3    0  502  0.36170384605E+02 -0.10762934692E+02  0.29414036347E+02  0.48029110130E+02  0.41800000000E+01 0.  1.
        -11    1    1    2    0    0  0.59182089525E+02  0.77344815792E+02 -0.35578189664E+02  0.10368484860E+03  0.00000000000E+00 0. -1.
         11    1    1    2    0    0 -0.14555728896E+02 -0.86019821611E+01 -0.32305485967E+02  0.36462415778E+02  0.00000000000E+00 0.  1.
</event>
<event>
 7    1  0.2670433E-009  0.8388779E+02  0.7561462E-02  0.1318367E+00
         -1   -1    0    0    0  501 -0.00000000000E+00  0.00000000000E+00  0.55678550855E+03  0.55678550855E+03  0.00000000000E+00 0.  1.
          1   -1    0    0  501    0  0.00000000000E+00 -0.00000000000E+00 -0.21964765102E+02  0.21964765102E+02  0.00000000000E+00 0. -1.
         25    2    1    2    0    0  0.18702129751E+02 -0.68744172090E+01  0.27845780243E+03  0.30591964892E+03  0.12510418294E+03 0.  0.
          5    1    3    3  502    0 -0.19672614551E+02 -0.24892345562E+02  0.91791492512E+01  0.33292188450E+02  0.41800000000E+01 0. -1.
         -5    1    3    3    0  502  0.38374744301E+02  0.18017928353E+02  0.26927865318E+03  0.27262746046E+03  0.41800000000E+01 0. -1.
        -11    1    1    2    0    0 -0.49683181500E+02  0.26689587127E+02  0.16330367640E+03  0.17276817794E+03  0.00000000000E+00 0.  1.
         11    1    1    2    0    0  0.30981051749E+02 -0.19815169918E+02  0.93059264618E+02  0.10006244679E+03  0.00000000000E+00 0. -1.
</event>
<event>
 7    1  0.2670433E-009  0.5906958E+02  0.7561462E-02  0.1401778E+00
          4   -1    0    0  501    0  0.00000000000E+00  0.00000000000E+00  0.18639582544E+02  0.18639582544E+02  0.00000000000E+00 0.  1.
         -4   -1    0    0    0  501 -0.00000000000E+00 -0.00000000000E+00 -0.84986261622E+03  0.84986261622E+03  0.00000000000E+00 0. -1.
         25    2    1    2    0    0 -0.83627829827E+01  0.39590679881E+02 -0.63497631216E+03  0.64844451678E+03  0.12509203119E+03 0.  0.
          5    1    3    3  502    0  0.10027665416E+02  0.72598896785E+01 -0.58906237802E+03  0.58920727903E+03  0.41800000000E+01 0. -1.
         -5    1    3    3    0  502 -0.18390448399E+02  0.32330790203E+02 -0.45913934139E+02  0.59237237744E+02  0.41800000000E+01 0. -1.
        -11    1    1    2    0    0  0.31201352021E+02 -0.17056106958E+02 -0.19764203405E+02  0.40682414981E+02  0.00000000000E+00 0.  1.
         11    1    1    2    0    0 -0.22838569038E+02 -0.22534572923E+02 -0.17648251811E+03  0.17937526700E+03  0.00000000000E+00 0. -1.
</event>
<event>
 7    1  0.2670433E-009  0.1801337E+03  0.7561462E-02  0.1167674E+00
          1   -1    0    0  501    0  0.00000000000E+00  0.00000000000E+00  0.60732713135E+03  0.60732713135E+03  0.00000000000E+00 0. -1.
         -1   -1    0    0    0  501 -0.00000000000E+00 -0.00000000000E+00 -0.84821930899E+02  0.84821930899E+02  0.00000000000E+00 0.  1.
         25    2    1    2    0    0  0.13935686888E+03  0.10881652948E+03  0.13132280758E+03  0.25328443918E+03  0.12508378532E+03 0.  0.
          5    1    3    3  502    0  0.10315708918E+03  0.10417797825E+03  0.15192199584E+03  0.21116865634E+03  0.41800000000E+01 0.  1.
         -5    1    3    3    0  502  0.36199779699E+02  0.46385512288E+01 -0.20599188258E+02  0.42115782845E+02  0.41800000000E+01 0.  1.
        -11    1    1    2    0    0 -0.11009456682E+03 -0.88209529137E+02  0.20236187848E+03  0.24668211232E+03  0.00000000000E+00 0.  1.
         11    1    1    2    0    0 -0.29262302055E+02 -0.20607000341E+02  0.18882051438E+03  0.19218251074E+03  0.00000000000E+00 0. -1.
</event>
<event>
 7    1  0.2670433E-009  0.9903365E+02  0.7561462E-02  0.1282341E+00
          1   -1    0    0  501    0  0.00000000000E+00  0.00000000000E+00  0.17732248682E+03  0.17732248682E+03  0.00000000000E+00 0. -1.
         -1   -1    0    0    0  501 -0.00000000000E+00 -0.00000000000E+00 -0.13173006011E+03  0.13173006011E+03  0.00000000000E+00 0.  1.
         25    2    1    2    0    0  0.62608563826E+02 -0.23516249052E+02 -0.61285470395E+02  0.15451821439E+03  0.12508846255E+03 0.  0.
          5    1    3    3  502    0  0.15468469789E+02  0.21732734104E+02  0.31161894901E+02  0.41232528215E+02  0.41800000000E+01 0.  1.
         -5    1    3    3    0  502  0.47140094037E+02 -0.45248983156E+02 -0.92447365295E+02  0.11328568618E+03  0.41800000000E+01 0.  1.
        -11    1    1    2    0    0 -0.42555128274E+00  0.40994997329E+02  0.18274254221E+02  0.44885624282E+02  0.00000000000E+00 0.  1.
         11    1    1    2    0    0 -0.62183012543E+02 -0.17478748276E+02  0.88603642887E+02  0.10964870826E+03  0.00000000000E+00 0. -1.
</event>
<event>
 7    1  0.4495310E-009  0.1486974E+03  0.7561462E-02  0.1202083E+00
         -2   -1    0    0    0  501 -0.00000000000E+00  0.00000000000E+00  0.28751246526E+02  0.28751246526E+02  0.00000000000E+00 0.  1.
          2   -1    0    0  501    0  0.00000000000E+00 -0.00000000000E+00 -0.98604815312E+03  0.98604815312E+03  0.00000000000E+00 0. -1.
         25    2    1    2    0    0 -0.57166962349E+02 -0.10621879108E+03 -0.64122881256E+03  0.66435829416E+03  0.12508820807E+03 0.  0.
          5    1    3    3  502    0 -0.49143904798E+02  0.16508954525E+01 -0.35373361113E+03  0.35715933262E+03  0.41800000000E+01 0.  1.
         -5    1    3    3    0  502 -0.80230575509E+01 -0.10786968653E+03 -0.28749520143E+03  0.30719896154E+03  0.41800000000E+01 0.  1.
        -11    1    1    2    0    0  0.72608184991E+02  0.71991964681E+02 -0.15970287532E+03  0.18963069344E+03  0.00000000000E+00 0. -1.
         11    1    1    2    0    0 -0.15441222642E+02  0.34226826398E+02 -0.15636521871E+03  0.16081041205E+03  0.00000000000E+00 0.  1.
</event>
<event>
 7    1  0.2670433E-009  0.9605947E+02  0.7561462E-02  0.1288808E+00
          2   -1    0    0  501    0  0.00000000000E+00  0.00000000000E+00  0.27134390631E+03  0.27134390631E+03  0.00000000000E+00 0. -1.
         -2   -1    0    0    0  501 -0.00000000000E+00 -0.00000000000E+00 -0.47554695702E+02  0.47554695702E+02  0.00000000000E+00 0.  1.
         25    2    1    2    0    0  0.40306220888E+02 -0.36020352583E+00  0.14404124940E+03  0.19498843478E+03  0.12509151443E+03 0.  0.
          5    1    3    3  502    0 -0.20070428898E+02  0.26375137940E+02 -0.32061539937E+01  0.33559228849E+02  0.41800000000E+01 0.  1.
         -5    1    3    3    0  502  0.60376649786E+02 -0.26735341466E+02  0.14724740339E+03  0.16142920593E+03  0.41800000000E+01 0.  1.
        -11    1    1    2    0    0 -0.60526268887E+02  0.20604465069E+02  0.41817838334E+02  0.76398329884E+02  0.00000000000E+00 0.  1.
         11    1    1    2    0    0  0.20220047999E+02 -0.20244261543E+02  0.37930122876E+02  0.47511837345E+02  0.00000000000E+00 0. -1.
</event>
<event>
 7    1  0.2670433E-009  0.9844687E+02  0.7561462E-02  0.1283596E+00
          1   -1    0    0  501    0  0.00000000000E+00  0.00000000000E+00  0.26643540769E+03  0.26643540769E+03  0.00000000000E+00 0. -1.
         -1   -1    0    0    0  501 -0.00000000000E+00 -0.00000000000E+00 -0.49222217790E+02  0.49222217790E+02  0.00000000000E+00 0.  1.
         25    2    1    2    0    0 -0.43478875195E+01  0.24466413532E+02  0.85913665466E+02  0.15377116370E+03  0.12508758274E+03 0.  0.
          5    1    3    3  502    0 -0.56067931726E+02  0.25682142448E+02  0.80635010563E+02  0.10160050560E+03  0.41800000000E+01 0. -1.
         -5    1    3    3    0  502  0.51720044207E+02 -0.12157289163E+01  0.52786549023E+01  0.52170658105E+02  0.41800000000E+01 0. -1.
        -11    1    1    2    0    0  0.36668215811E+02  0.78229283734E+01  0.99205820579E+02  0.10605447231E+03  0.00000000000E+00 0. -1.
         11    1    1    2    0    0 -0.32320328292E+02 -0.32289341905E+02  0.32093703858E+02  0.55831989476E+02  0.00000000000E+00 0.  1.
</event>
<event>
 7    1  0.2670433E-009  0.8553390E+02  0.7561462E-02  0.1314042E+00
         -1   -1    0    0    0  501 -0.00000000000E+00  0.00000000000E+00  0.34280789115E+03  0.34280789115E+03  0.00000000000E+00 0.  1.
          1   -1    0    0  501    0  0.00000000000E+00 -0.00000000000E+00 -0.56452923990E+02  0.56452923990E+02  0.00000000000E+00 0. -1.
         25    2    1    2    0    0  0.19856386176E+02  0.10798225067E+02  0.27702699116E+03  0.30479915543E+03  0.12509074138E+03 0.  0.
          5    1    3    3  502    0 -0.99913800743E+01 -0.31850374889E+02  0.13667585087E+02  0.36311834689E+02  0.41800000000E+01 0. -1.
         -5    1    3    3    0  502  0.29847766250E+02  0.42648599957E+02  0.26335940608E+03  0.26848732074E+03  0.41800000000E+01 0. -1.
        -11    1    1    2    0    0 -0.11021117152E+02 -0.46827191699E+02  0.24971416475E+02  0.54201683982E+02  0.00000000000E+00 0.  1.
         11    1    1    2    0    0 -0.88352690238E+01  0.36028966632E+02 -0.15643440483E+02  0.40259975726E+02  0.00000000000E+00 0. -1.
</event>
<event>
 7    1  0.2670433E-009  0.1004274E+03  0.7561462E-02  0.1279400E+00
         -2   -1    0    0    0  501 -0.00000000000E+00  0.00000000000E+00  0.14451335647E+03  0.14451335647E+03  0.00000000000E+00 0.  1.
          2   -1    0    0  501    0  0.00000000000E+00 -0.00000000000E+00 -0.15412882889E+03  0.15412882889E+03  0.00000000000E+00 0. -1.
         25    2    1    2    0    0 -0.39550790822E+02 -0.81943393565E+02  0.34164586783E+02  0.15841108389E+03  0.12509143738E+03 0.  0.
          5    1    3    3  502    0 -0.23227454561E+01 -0.30734796164E+02 -0.46400421295E+02  0.55861385035E+02  0.41800000000E+01 0. -1.
         -5    1    3    3    0  502 -0.37228045366E+02 -0.51208597401E+02  0.80565008077E+02  0.10254969886E+03  0.41800000000E+01 0. -1.
        -11    1    1    2    0    0 -0.73336540463E+01  0.47657223345E+02 -0.62742745886E+02  0.79130560342E+02  0.00000000000E+00 0. -1.
         11    1    1    2    0    0  0.46884444868E+02  0.34286170220E+02  0.18962686680E+02  0.61100541119E+02  0.00000000000E+00 0.  1.
</event>
<event>
 7    1  0.2758696E-009  0.1174333E+03  0.7561462E-02  0.1247392E+00
         -1   -1    0    0    0  501 -0.00000000000E+00  0.00000000000E+00  0.22157601147E+02  0.22157601147E+02  0.00000000000E+00 0.  1.
          1   -1    0    0  501    0  0.00000000000E+00 -0.00000000000E+00 -0.98407515681E+03  0.98407515681E+03  0.00000000000E+00 0. -1.
         25    2    1    2    0    0 -0.48259989358E+02  0.74508720414E+02 -0.36985746880E+03  0.40040372286E+03  0.12509203838E+03 0.  0.
          5    1    3    3  502    0 -0.52206043695E+02  0.27424863235E+02 -0.33831148356E+03  0.34343809694E+03  0.41800000000E+01 0. -1.
         -5    1    3    3    0  502  0.39460543370E+01  0.47083857179E+02 -0.31545985232E+02  0.56965625915E+02  0.41800000000E+01 0. -1.
        -11    1    1    2    0    0  0.58177677051E+02 -0.53226347928E+01 -0.28230307070E+03  0.28828457516E+03  0.00000000000E+00 0.  1.
         11    1    1    2    0    0 -0.99176876926E+01 -0.69186085621E+02 -0.30975701616E+03  0.31754445993E+03  0.00000000000E+00 0. -1.
</event>
<event>
 7    1  0.2670433E-009  0.1753139E+03  0.7561462E-02  0.1172417E+00
          2   -1    0    0  501    0  0.00000000000E+00  0.00000000000E+00  0.83835282576E+03  0.83835282576E+03  0.00000000000E+00 0. -1.
         -2   -1    0    0    0  501 -0.00000000000E+00 -0.00000000000E+00 -0.45066857641E+02  0.45066857641E+02  0.00000000000E+00 0.  1.
         25    2    1    2    0    0  0.13017108900E+03 -0.86343925920E+02  0.50273077812E+03  0.54109651042E+03  0.12508961732E+03 0.  0.
          5    1    3    3  502    0  0.11992901859E+03 -0.39583777535E+02  0.21502239979E+03  0.24940318714E+03  0.41800000000E+01 0. -1.
         -5    1    3    3    0  502  0.10242070411E+02 -0.46760148385E+02  0.28770837833E+03  0.29169332328E+03  0.41800000000E+01 0. -1.
        -11    1    1    2    0    0 -0.76505742183E+02  0.94872073838E+02  0.16175902343E+03  0.20253350499E+03  0.00000000000E+00 0.  1.
         11    1    1    2    0    0 -0.53665346816E+02 -0.85281479184E+01  0.12879616657E+03  0.13978966800E+03  0.00000000000E+00 0. -1.
</event>
<event>
 7    1  0.2670433E-009  0.1130369E+03  0.7561462E-02  0.1255047E+00
         -1   -1    0    0    0  501 -0.00000000000E+00  0.00000000000E+00  0.55801703613E+02  0.55801703613E+02  0.00000000000E+00 0.  1.
          1   -1    0    0  501    0  0.00000000000E+00 -0.00000000000E+00 -0.27462361091E+03  0.27462361091E+03  0.00000000000E+00 0. -1.
         25    2    1    2    0    0 -0.59657913773E+02 -0.17790839520E+02 -0.11371842973E+03  0.18015052730E+03  0.12508697207E+03 0.  0.
          5    1    3    3  502    0  0.73077051168E+01 -0.52864649955E+02 -0.82305476596E+02  0.98182165624E+02  0.41800000000E+01 0. -1.
         -5    1    3    3    0  502 -0.66965618890E+02  0.35073810435E+02 -0.31412953135E+02  0.81968361679E+02  0.41800000000E+01 0. -1.
        -11    1    1    2    0    0 -0.15393446750E+02 -0.81586342819E+01  0.13397098385E+01  0.17473303598E+02  0.00000000000E+00 0.  1.
         11    1    1    2    0    0  0.75051360523E+02  0.25949473802E+02 -0.10644318740E+03  0.13280148362E+03  0.00000000000E+00 0. -1.
</event>
<event>
 7    1  0.2670433E-009  0.7302474E+02  0.7561462E-02  0.1350099E+00
          2   -1    0    0  501    0  0.00000000000E+00  0.00000000000E+00  0.27967000671E+03  0.27967000671E+03  0.00000000000E+00 0. -1.
         -2   -1    0    0    0  501 -0.00000000000E+00 -0.00000000000E+00 -0.56901754864E+02  0.56901754864E+02  0.00000000000E+00 0.  1.
         25    2    1    2    0    0  0.53522132158E+02  0.54283169412E+00  0.17633892928E+03  0.22272538544E+03  0.12508503524E+03 0.  0.
          5    1    3    3  502    0  0.46507428092E+01  0.14074207538E+02 -0.16920558415E+02  0.22879913102E+02  0.41800000000E+01 0. -1.
         -5    1    3    3    0  502  0.48871389349E+02 -0.13531375843E+02  0.19325948770E+03  0.19984547234E+03  0.41800000000E+01 0. -1.
        -11    1    1    2    0    0  0.11838261054E+02  0.73453505470E+01 -0.17304305362E+02  0.22215705785E+02  0.00000000000E+00 0.  1.
         11    1    1    2    0    0 -0.65360393212E+02 -0.78881822411E+01  0.63733627925E+02  0.91630670348E+02  0.00000000000E+00 0. -1.
</event>
<event>
 7    1  0.2670433E-009  0.8067831E+02  0.7561462E-02  0.1327137E+00
          2   -1    0    0  501    0  0.00000000000E+00  0.00000000000E+00  0.31683411606E+02  0.31683411606E+02  0.00000000000E+00 0. -1.
         -2   -1    0    0    0  501 -0.00000000000E+00 -0.00000000000E+00 -0.41978022168E+03  0.41978022168E+03  0.00000000000E+00 0.  1.
         25    2    1    2    0    0  0.11445012861E+02 -0.27191537679E+02 -0.16916383117E+03  0.21244916151E+03  0.12509147216E+03 0.  0.
          5    1    3    3  502    0 -0.71215480400E+01 -0.44508817628E+02 -0.41688832087E+01  0.45459908495E+02  0.41800000000E+01 0. -1.
         -5    1    3    3    0  502  0.18566560901E+02  0.17317279949E+02 -0.16499494797E+03  0.16698925302E+03  0.41800000000E+01 0. -1.
        -11    1    1    2    0    0  0.67453831283E+01  0.55935710802E+02 -0.17240819286E+03  0.18138050861E+03  0.00000000000E+00 0.  1.
         11    1    1    2    0    0 -0.18190395989E+02 -0.28744173123E+02 -0.46524786038E+02  0.57633963170E+02  0.00000000000E+00 0. -1.
</event>
<event>
 7    1  0.2670433E-009  0.1496974E+03  0.7561462E-02  0.1200845E+00
         -2   -1    0    0    0  501 -0.00000000000E+00  0.00000000000E+00  0.58038350009E+02  0.58038350009E+02  0.00000000000E+00 0.  1.
          2   -1    0    0  501    0  0.00000000000E+00 -0.00000000000E+00 -0.45379170531E+03  0.45379170531E+03  0.00000000000E+00 0. -1.
         25    2    1    2    0    0 -0.11812465251E+03  0.14919426019E+02 -0.18806673080E+03  0.25532790181E+03  0.12508884604E+03 0.  0.
          5    1    3    3  502    0 -0.38846288512E+02 -0.54049523372E+02 -0.85439513024E+02  0.10838712052E+03  0.41800000000E+01 0.  1.
         -5    1    3    3    0  502 -0.79278363998E+02  0.68968949391E+02 -0.10262721777E+03  0.14694078129E+03  0.41800000000E+01 0.  1.
        -11    1    1    2    0    0  0.16069933536E+02 -0.19638927662E+02 -0.11755557505E+03  0.12026322576E+03  0.00000000000E+00 0. -1.
         11    1    1    2    0    0  0.10205471897E+03  0.47195016430E+01 -0.90131049447E+02  0.13623892775E+03  0.00000000000E+00 0.  1.
</event>
<event>
 7    1  0.2670433E-009  0.8798209E+02  0.7561462E-02  0.1307813E+00
         -1   -1    0    0    0  501 -0.00000000000E+00  0.00000000000E+00  0.20576223845E+03  0.20576223845E+03  0.00000000000E+00 0.  1.
          1   -1    0    0  501    0  0.00000000000E+00 -0.00000000000E+00 -0.10082565259E+03  0.10082565259E+03  0.00000000000E+00 0. -1.
         25    2    1    2    0    0 -0.87446577312E+01  0.57912305841E+02 -0.16736383158E+02  0.13913730235E+03  0.12509507655E+03 0.  0.
          5    1    3    3  502    0 -0.75823977680E+01  0.55041835951E+02 -0.67829254178E+02  0.87780274453E+02  0.41800000000E+01 0.  1.
         -5    1    3    3    0  502 -0.11622599633E+01  0.28704698905E+01  0.51092871020E+02  0.51357027900E+02  0.41800000000E+01 0.  1.
        -11    1    1    2    0    0  0.82880902178E+01  0.27963709587E+02  0.31258310689E+02  0.42752116678E+02  0.00000000000E+00 0.  1.
         11    1    1    2    0    0  0.45656751346E+00 -0.85876015428E+02  0.90414658335E+02  0.12469847201E+03  0.00000000000E+00 0. -1.
</event>
<event>
 7    1  0.2670433E-009  0.4302058E+02  0.7561462E-02  0.1487091E+00
         -1   -1    0    0    0  501 -0.00000000000E+00  0.00000000000E+00  0.20257049757E+02  0.20257049757E+02  0.00000000000E+00 0.  1.
          1   -1    0    0  501    0  0.00000000000E+00 -0.00000000000E+00 -0.50631551790E+03  0.50631551790E+03  0.00000000000E+00 0. -1.
         25    2    1    2    0    0  0.87071947832E+01 -0.68952681643E+01 -0.28435907535E+03  0.31085748304E+03  0.12509568762E+03 0.  0.
          5    1    3    3  502    0 -0.60424548707E+01 -0.24418903858E+01 -0.29272952690E+03  0.29283190128E+03  0.41800000000E+01 0. -1.
         -5    1    3    3    0  502  0.14749649654E+02 -0.44533777785E+01  0.83704515454E+01  0.18025581756E+02  0.41800000000E+01 0. -1.
        -11    1    1    2    0    0  0.26311632846E+02 -0.13916402437E+01 -0.28486776358E+02  0.38803802815E+02  0.00000000000E+00 0.  1.
         11    1    1    2    0    0 -0.35018827629E+02  0.82869084081E+01 -0.17321261643E+03  0.17691128181E+03  0.00000000000E+00 0. -1.
</event>
<event>
 7    1  0.2670433E-009  0.1177281E+03  0.7561462E-02  0.1246893E+00
          2   -1    0    0  501    0  0.00000000000E+00  0.00000000000E+00  0.53837456837E+03  0.53837456837E+03  0.00000000000E+00 0. -1.
         -2   -1    0    0    0  501 -0.00000000000E+00 -0.00000000000E+00 -0.40742572770E+02  0.40742572770E+02  0.00000000000E+00 0.  1.
         25    2    1    2    0    0 -0.62567009510E+02 -0.77189049105E+02  0.24085924356E+03  0.28902042114E+03  0.12508736404E+03 0.  0.
          5    1    3    3  502    0 -0.75250279173E+02 -0.50211193032E+02  0.24251561992E+03  0.25887268440E+03  0.41800000000E+01 0. -1.
         -5    1    3    3    0  502  0.12683269663E+02 -0.26977856073E+02 -0.16563763609E+01  0.30147736735E+02  0.41800000000E+01 0. -1.
        -11    1    1    2    0    0  0.31166899569E+02 -0.31659821667E+00  0.15629397699E+03  0.15937152539E+03  0.00000000000E+00 0. -1.
         11    1    1    2    0    0  0.31400109941E+02  0.77505647321E+02  0.10047877505E+03  0.13072519461E+03  0.00000000000E+00 0.  1.
</event>
<event>
 7    1  0.2670433E-009  0.1178354E+03  0.7561462E-02  0.1246711E+00
          4   -1    0    0  501    0  0.00000000000E+00  0.00000000000E+00  0.77486068564E+02  0.77486068564E+02  0.00000000000E+00 0. -1.
         -4   -1    0    0    0  501 -0.00000000000E+00 -0.00000000000E+00 -0.27644061209E+03  0.27644061209E+03  0.00000000000E+00 0.  1.
         25    2    1    2    0    0 -0.65767562920E+01  0.96035141845E+02 -0.12628271533E+03  0.20214050951E+03  0.12508980455E+03 0.  0.
          5    1    3    3  502    0  0.14707409985E+02 -0.15257425610E+02 -0.74354800329E+02  0.77428713516E+02  0.41800000000E+01 0.  1.
         -5    1    3    3    0  502 -0.21284166277E+02  0.11129256745E+03 -0.51927914998E+02  0.12471179600E+03  0.41800000000E+01 0.  1.
        -11    1    1    2    0    0 -0.11623333663E+02 -0.45858290386E+02  0.14579021010E+02  0.49503863851E+02  0.00000000000E+00 0. -1.
         11    1    1    2    0    0  0.18200089955E+02 -0.50176851459E+02 -0.87250849205E+02  0.10228230729E+03  0.00000000000E+00 0.  1.
</event>
<event>
 7    1  0.2670433E-009  0.1090479E+03  0.7561462E-02  0.1262343E+00
          2   -1    0    0  501    0  0.00000000000E+00  0.00000000000E+00  0.10408543352E+03  0.10408543352E+03  0.00000000000E+00 0. -1.
         -2   -1    0    0    0  501 -0.00000000000E+00 -0.00000000000E+00 -0.23157268363E+03  0.23157268363E+03  0.00000000000E+00 0.  1.
         25    2    1    2    0    0  0.10086340680E+03  0.34290686886E+02 -0.10449854304E+03  0.19472261620E+03  0.12509066203E+03 0.  0.
          5    1    3    3  502    0  0.38359746916E+02  0.65772003366E+01  0.26240830073E+02  0.47125187646E+02  0.41800000000E+01 0.  1.
         -5    1    3    3    0  502  0.62503659881E+02  0.27713486549E+02 -0.13073937311E+03  0.14759742856E+03  0.41800000000E+01 0.  1.
        -11    1    1    2    0    0 -0.66882753772E+02 -0.36873900215E+02 -0.55049688306E+02  0.94145926369E+02  0.00000000000E+00 0.  1.
         11    1    1    2    0    0 -0.33980653025E+02  0.25832133296E+01  0.32060981239E+02  0.46789574577E+02  0.00000000000E+00 0. -1.
</event>
<event>
 7    1  0.2670433E-009  0.1045565E+03  0.7561462E-02  0.1270996E+00
         -1   -1    0    0    0  501 -0.00000000000E+00  0.00000000000E+00  0.22045077101E+03  0.22045077101E+03  0.00000000000E+00 0.  1.
          1   -1    0    0  501    0  0.00000000000E+00 -0.00000000000E+00 -0.86002515301E+02  0.86002515301E+02  0.00000000000E+00 0. -1.
         25    2    1    2    0    0  0.13386645941E+02  0.71433457285E+02  0.12374755402E+03  0.19037513301E+03  0.12508914035E+03 0.  0.
          5    1    3    3  502    0  0.57583227325E+01 -0.28181448963E+02 -0.26736183705E+01  0.29188576216E+02  0.41800000000E+01 0. -1.
         -5    1    3    3    0  502  0.76283232082E+01  0.99614906248E+02  0.12642117239E+03  0.16118655679E+03  0.41800000000E+01 0. -1.
        -11    1    1    2    0    0 -0.24692868894E+02 -0.45673867158E+02  0.47081697458E+02  0.70089415398E+02  0.00000000000E+00 0.  1.
         11    1    1    2    0    0  0.11306222953E+02 -0.25759590127E+02 -0.36380995769E+02  0.45988737905E+02  0.00000000000E+00 0. -1.
</event>
<event>
 7    1  0.2670433E-009  0.9662712E+02  0.7561462E-02  0.1287553E+00
          2   -1    0    0  501    0  0.00000000000E+00  0.00000000000E+00  0.19269996311E+04  0.19269996311E+04  0.00000000000E+00 0. -1.
         -2   -1    0    0    0  501 -0.00000000000E+00 -0.00000000000E+00 -0.78054102580E+01  0.78054102580E+01  0.00000000000E+00 0.  1.
         25    2    1    2    0    0  0.23001082876E+01 -0.35148389412E+02  0.14145347253E+04  0.14204917888E+04  0.12509089997E+03 0.  0.
          5    1    3    3  502    0  0.21938243635E+02 -0.59088953235E+02  0.36039395169E+03  0.36588804810E+03  0.41800000000E+01 0.  1.
         -5    1    3    3    0  502 -0.19638135348E+02  0.23940563823E+02  0.10541407736E+04  0.10546037407E+04  0.41800000000E+01 0.  1.
        -11    1    1    2    0    0  0.42103355921E+02  0.34498582254E+02  0.25654744215E+03  0.26225833605E+03  0.00000000000E+00 0.  1.
         11    1    1    2    0    0 -0.44403464208E+02  0.64980715793E+00  0.24811205339E+03  0.25205491648E+03  0.00000000000E+00 0. -1.
</event>
<event>
 7    1  0.2670433E-009  0.9871140E+02  0.7561462E-02  0.1283029E+00
          1   -1    0    0  501    0  0.00000000000E+00  0.00000000000E+00  0.67644622252E+02  0.67644622252E+02  0.00000000000E+00 0. -1.
         -1   -1    0    0    0  501 -0.00000000000E+00 -0.00000000000E+00 -0.20887428274E+03  0.20887428274E+03  0.00000000000E+00 0.  1.
         25    2    1    2    0    0  0.37200763999E+02  0.25938144188E+02 -0.89932278940E+02  0.16060003661E+03  0.12509145774E+03 0.  0.
          5    1    3    3  502    0 -0.25327163402E+02  0.46401655830E+02 -0.52580317419E+01  0.53288818410E+02  0.41800000000E+01 0.  1.
         -5    1    3    3    0  502  0.62527927401E+02 -0.20463511642E+02 -0.84674247198E+02  0.10731121820E+03  0.41800000000E+01 0.  1.
        -11    1    1    2    0    0  0.88540656752E+01 -0.30904874515E+02 -0.60667354246E+02  0.68658820402E+02  0.00000000000E+00 0.  1.
         11    1    1    2    0    0 -0.46054829674E+02  0.49667303276E+01  0.93699726976E+01  0.47260047977E+02  0.00000000000E+00 0. -1.
</event>
<event>
 7    1  0.2670433E-009  0.1145182E+03  0.7561462E-02  0.1252424E+00
          2   -1    0    0  501    0  0.00000000000E+00  0.00000000000E+00  0.43568417544E+02  0.43568417544E+02  0.00000000000E+00 0. -1.
         -2   -1    0    0    0  501 -0.00000000000E+00 -0.00000000000E+00 -0.35357432567E+03  0.35357432567E+03  0.00000000000E+00 0.  1.
         25    2    1    2    0    0 -0.21594154266E+02 -0.34785171743E+02 -0.24429056288E+03  0.27749939816E+03  0.12510683912E+03 0.  0.
          5    1    3    3  502    0  0.16409816606E+02  0.41235558231E+02 -0.62385307795E+02  0.76674978789E+02  0.41800000000E+01 0. -1.
         -5    1    3    3    0  502 -0.38003970872E+02 -0.76020729974E+02 -0.18190525508E+03  0.20082441937E+03  0.41800000000E+01 0. -1.
        -11    1    1    2    0    0 -0.35597467000E+02  0.95657492151E+01 -0.30882704249E+02  0.48087676556E+02  0.00000000000E+00 0. -1.
         11    1    1    2    0    0  0.57191621266E+02  0.25219422528E+02 -0.34832640999E+02  0.71555668501E+02  0.00000000000E+00 0.  1.
</event>
<event>
 7    1  0.2670433E-009  0.8978940E+02  0.7561462E-02  0.1303362E+00
          2   -1    0    0  501    0  0.00000000000E+00  0.00000000000E+00  0.49258319009E+02  0.49258319009E+02  0.00000000000E+00 0. -1.
         -2   -1    0    0    0  501 -0.00000000000E+00 -0.00000000000E+00 -0.35928921869E+03  0.35928921869E+03  0.00000000000E+00 0.  1.
         25    2    1    2    0    0 -0.57834547352E+02 -0.15301311108E+02 -0.24695137226E+03  0.28321567355E+03  0.12508865854E+03 0.  0.
          5    1    3    3  502    0 -0.64737765634E+02  0.10057322074E+02 -0.45168622489E+02  0.79685662977E+02  0.41800000000E+01 0. -1.
         -5    1    3    3    0  502  0.69032182821E+01 -0.25358633182E+02 -0.20178274977E+03  0.20353001058E+03  0.41800000000E+01 0. -1.
        -11    1    1    2    0    0  0.70287285910E+02  0.38350888404E+01 -0.11855371802E+02  0.71383193453E+02  0.00000000000E+00 0. -1.
         11    1    1    2    0    0 -0.12452738558E+02  0.11466222268E+02 -0.51224155615E+02  0.53948670689E+02  0.00000000000E+00 0.  1.
</event>
<event>
 7    1  0.2670433E-009  0.1393407E+03  0.7561462E-02  0.1214219E+00
          1   -1    0    0  501    0  0.00000000000E+00  0.00000000000E+00  0.48757648707E+02  0.48757648707E+02  0.00000000000E+00 0. -1.
         -1   -1    0    0    0  501 -0.00000000000E+00 -0.00000000000E+00 -0.44016810773E+03  0.44016810773E+03  0.00000000000E+00 0.  1.
         25    2    1    2    0    0  0.19197886074E+02  0.94425175964E+02 -0.17424699059E+03  0.23514670585E+03  0.12508911566E+03 0.  0.
          5    1    3    3  502    0  0.59535652946E+02  0.12812203234E+02 -0.40328755834E+02  0.73160969584E+02  0.41800000000E+01 0. -1.
         -5    1    3    3    0  502 -0.40337766872E+02  0.81612972729E+02 -0.13391823475E+03  0.16198573626E+03  0.41800000000E+01 0. -1.
        -11    1    1    2    0    0 -0.51606977279E+02 -0.61894330634E+02 -0.16901723025E+03  0.18724586081E+03  0.00000000000E+00 0. -1.
         11    1    1    2    0    0  0.32409091206E+02 -0.32530845330E+02 -0.48146238181E+02  0.66533189775E+02  0.00000000000E+00 0.  1.
</event>
<event>
 7    1  0.2670433E-009  0.1392450E+03  0.7561462E-02  0.1214348E+00
          1   -1    0    0  501    0  0.00000000000E+00  0.00000000000E+00  0.12899601464E+03  0.12899601464E+03  0.00000000000E+00 0. -1.
         -1   -1    0    0    0  501 -0.00000000000E+00 -0.00000000000E+00 -0.21802027673E+03  0.21802027673E+03  0.00000000000E+00 0.  1.
         25    2    1    2    0    0  0.12563596624E+03 -0.56453652421E+01 -0.69890196812E+02  0.19065321705E+03  0.12509094052E+03 0.  0.
          5    1    3    3  502    0  0.81512814326E+02 -0.44781265470E+02 -0.88719016918E+02  0.12860107698E+03  0.41800000000E+01 0. -1.
         -5    1    3    3    0  502  0.44123151916E+02  0.39135900228E+02  0.18828820107E+02  0.62052140078E+02  0.41800000000E+01 0. -1.
        -11    1    1    2    0    0 -0.15368117467E+02  0.44203269588E+01 -0.40940755790E+02  0.43952972704E+02  0.00000000000E+00 0.  1.
         11    1    1    2    0    0 -0.11026784877E+03  0.12250382833E+01  0.21806690515E+02  0.11241010161E+03  0.00000000000E+00 0. -1.
</event>
<event>
 7    1  0.2670433E-009  0.8528014E+02  0.7561462E-02  0.1314702E+00
         -2   -1    0    0    0  501 -0.00000000000E+00  0.00000000000E+00  0.17399116292E+03  0.17399116292E+03  0.00000000000E+00 0.  1.
          2   -1    0    0  501    0  0.00000000000E+00 -0.00000000000E+00 -0.80104130468E+02  0.80104130468E+02  0.00000000000E+00 0. -1.
         25    2    1    2    0    0  0.11021023907E+02 -0.52105359400E+02  0.56256818307E+02  0.14715112440E+03  0.12510872216E+03 0.  0.
          5    1    3    3  502    0 -0.19704492534E+02 -0.22772483284E+02 -0.35026682913E+02  0.46380965243E+02  0.41800000000E+01 0.  1.
         -5    1    3    3    0  502  0.30725516441E+02 -0.29332876116E+02  0.91283501221E+02  0.10077015916E+03  0.41800000000E+01 0.  1.
        -11    1    1    2    0    0 -0.45905005070E+02  0.20031426083E+02  0.71326207277E+01  0.50590530733E+02  0.00000000000E+00 0.  1.
         11    1    1    2    0    0  0.34883981162E+02  0.32073933317E+02  0.30497593415E+02  0.56353638252E+02  0.00000000000E+00 0. -1.
</event>
<event>
 7    1  0.2670433E-009  0.9602629E+02  0.7561462E-02  0.1288881E+00
         -1   -1    0    0    0  501 -0.00000000000E+00  0.00000000000E+00  0.25113359609E+03  0.25113359609E+03  0.00000000000E+00 0.  1.
          1   -1    0    0  501    0  0.00000000000E+00 -0.00000000000E+00 -0.68544867545E+02  0.68544867545E+02  0.00000000000E+00 0. -1.
         25    2    1    2    0    0 -0.58010919011E+02  0.22448920510E+02  0.14971524484E+03  0.20477059702E+03  0.12508845715E+03 0.  0.
          5    1    3    3  502    0 -0.77502274105E+02  0.17803960514E+02  0.32873298398E+02  0.86149345030E+02  0.41800000000E+01 0.  1.
         -5    1    3    3    0  502  0.19491355095E+02  0.46449599963E+01  0.11684194644E+03  0.11862125199E+03  0.41800000000E+01 0.  1.
        -11    1    1    2    0    0 -0.13719289300E+02 -0.14209089208E+02 -0.17888084770E+02  0.26647714569E+02  0.00000000000E+00 0. -1.
         11    1    1    2    0    0  0.71730208311E+02 -0.82398313021E+01  0.50761568479E+02  0.88260152043E+02  0.00000000000E+00 0.  1.
</event>
<event>
 7    1  0.2670433E-009  0.1211239E+03  0.7561462E-02  0.1241254E+00
          2   -1    0    0  501    0  0.00000000000E+00  0.00000000000E+00  0.18997316019E+03  0.18997316019E+03  0.00000000000E+00 0. -1.
         -2   -1    0    0    0  501 -0.00000000000E+00 -0.00000000000E+00 -0.11265463937E+03  0.11265463937E+03  0.00000000000E+00 0.  1.
         25    2    1    2    0    0  0.71931364964E+02  0.66846220780E+02  0.36851868115E+02  0.16324879663E+03  0.12509824507E+03 0.  0.
          5    1    3    3  502    0  0.60420734252E+02  0.75193005957E+02  0.75041806851E+02  0.12228408910E+03  0.41800000000E+01 0.  1.
         -5    1    3    3    0  502  0.11510630712E+02 -0.83467851772E+01 -0.38189938736E+02  0.40964707528E+02  0.41800000000E+01 0.  1.
        -11    1    1    2    0    0 -0.86160836307E+02 -0.29762442031E+02  0.40278029001E+02  0.99658478259E+02  0.00000000000E+00 0. -1.
         11    1    1    2    0    0  0.14229471343E+02 -0.37083778749E+02  0.18862370771E+00  0.39720524668E+02  0.00000000000E+00 0.  1.
</event>
<event>
 7    1  0.2670433E-009  0.1497533E+03  0.7561462E-02  0.1200776E+00
          2   -1    0    0  501    0  0.00000000000E+00  0.00000000000E+00  0.34248114176E+03  0.34248114176E+03  0.00000000000E+00 0. -1.
         -2   -1    0    0    0  501 -0.00000000000E+00 -0.00000000000E+00 -0.79187542050E+02  0.79187542050E+02  0.00000000000E+00 0.  1.
         25    2    1    2    0    0 -0.95131020640E+02 -0.73341793774E+02  0.10217665149E+03  0.20128691724E+03  0.12508966841E+03 0.  0.
          5    1    3    3  502    0 -0.46309297336E+01 -0.77658199508E+02  0.70918076256E+02  0.10535220644E+03  0.41800000000E+01 0.  1.
         -5    1    3    3    0  502 -0.90500090906E+02  0.43164057347E+01  0.31258575230E+02  0.95934710808E+02  0.41800000000E+01 0.  1.
        -11    1    1    2    0    0  0.36018573622E+02 -0.86100666492E+00  0.10301451100E+03  0.10913326007E+03  0.00000000000E+00 0. -1.
         11    1    1    2    0    0  0.59112447018E+02  0.74202800439E+02  0.58102437229E+02  0.11124850649E+03  0.00000000000E+00 0.  1.
</event>
<event>
 7    1  0.2670433E-009  0.1030749E+03  0.7561462E-02  0.1273960E+00
         -1   -1    0    0    0  501 -0.00000000000E+00  0.00000000000E+00  0.22757049618E+02  0.22757049618E+02  0.00000000000E+00 0.  1.
          1   -1    0    0  501    0  0.00000000000E+00 -0.00000000000E+00 -0.13506681768E+04  0.13506681768E+04  0.00000000000E+00 0. -1.
         25    2    1    2    0    0  0.26583309033E+02  0.77078333924E+02 -0.11305739813E+04  0.11403903678E+04  0.12507966246E+03 0.  0.
          5    1    3    3  502    0  0.35717304936E+02  0.62149544807E+01 -0.86725676383E+02  0.94091268858E+02  0.41800000000E+01 0. -1.
         -5    1    3    3    0  502 -0.91339959034E+01  0.70863379444E+02 -0.10438483049E+04  0.10462990989E+04  0.41800000000E+01 0. -1.
        -11    1    1    2    0    0 -0.40976603655E+02 -0.35955538942E+02 -0.34604069238E+02  0.64570306144E+02  0.00000000000E+00 0.  1.
         11    1    1    2    0    0  0.14393294622E+02 -0.41122794982E+02 -0.16273307663E+03  0.16846455244E+03  0.00000000000E+00 0. -1.
</event>
<event>
 7    1  0.2670433E-009  0.8848080E+02  0.7561462E-02  0.1306573E+00
          2   -1    0    0  501    0  0.00000000000E+00  0.00000000000E+00  0.29785843706E+02  0.29785843706E+02  0.00000000000E+00 0.  1.
         -2   -1    0    0    0  501 -0.00000000000E+00 -0.00000000000E+00 -0.48375595981E+03  0.48375595981E+03  0.00000000000E+00 0. -1.
         25    2    1    2    0    0  0.39764175880E+02 -0.10804158692E+02 -0.18954985701E+03  0.23081025360E+03  0.12508519236E+03 0.  0.
          5    1    3    3  502    0  0.56994798939E+01 -0.35760273997E+02  0.11917792199E+00  0.36452268390E+02  0.41800000000E+01 0.  1.
         -5    1    3    3    0  502  0.34064695986E+02  0.24956115305E+02 -0.18966903493E+03  0.19435798521E+03  0.41800000000E+01 0.  1.
        -11    1    1    2    0    0  0.11969101890E+02  0.37850874394E+02 -0.13579830218E+03  0.14148189626E+03  0.00000000000E+00 0.  1.
         11    1    1    2    0    0 -0.51733277770E+02 -0.27046715703E+02 -0.12862195691E+03  0.14124965366E+03  0.00000000000E+00 0. -1.
</event>
<event>
 7    1  0.2670433E-009  0.9909777E+02  0.7561462E-02  0.1282205E+00
          1   -1    0    0  501    0  0.00000000000E+00  0.00000000000E+00  0.24177830320E+03  0.24177830320E+03  0.00000000000E+00 0. -1.
         -1   -1    0    0    0  501 -0.00000000000E+00 -0.00000000000E+00 -0.10782834002E+03  0.10782834002E+03  0.00000000000E+00 0.  1.
         25    2    1    2    0    0  0.60667317723E+02 -0.48625968868E+02  0.17082125872E+03  0.22554918092E+03  0.12509005673E+03 0.  0.
          5    1    3    3  502    0  0.43981919750E+02 -0.43373016029E+02  0.88018307228E+01  0.62534569707E+02  0.41800000000E+01 0.  1.
         -5    1    3    3    0  502  0.16685397973E+02 -0.52529528389E+01  0.16201942800E+03  0.16301461121E+03  0.41800000000E+01 0.  1.
        -11    1    1    2    0    0  0.30915174055E+01 -0.22538469011E+02 -0.46317391183E+01  0.23216224338E+02  0.00000000000E+00 0. -1.
         11    1    1    2    0    0 -0.63758835128E+02  0.71164437879E+02 -0.32239556429E+02  0.10084123797E+03  0.00000000000E+00 0.  1.
</event>
<event>
 7    1  0.2670433E-009  0.1191642E+03  0.7561462E-02  0.1244482E+00
          2   -1    0    0  501    0  0.00000000000E+00  0.00000000000E+00  0.44438009756E+02  0.44438009756E+02  0.00000000000E+00 0.  1.
         -2   -1    0    0    0  501 -0.00000000000E+00 -0.00000000000E+00 -0.42781768214E+03  0.42781768214E+03  0.00000000000E+00 0. -1.
         25    2    1    2    0    0 -0.50027847744E+01  0.75135114129E+02 -0.14350449023E+03  0.20471958011E+03  0.12508498925E+03 0.  0.
          5    1    3    3  502    0 -0.49002040287E+02  0.33266033863E+02 -0.12918738279E+03  0.14217834305E+03  0.41800000000E+01 0.  1.
         -5    1    3    3    0  502  0.43999255512E+02  0.41869080266E+02 -0.14317107437E+02  0.62541237062E+02  0.41800000000E+01 0.  1.
        -11    1    1    2    0    0  0.41127030977E+02 -0.70546461680E+02 -0.17570868329E+03  0.19375700585E+03  0.00000000000E+00 0. -1.
         11    1    1    2    0    0 -0.36124246203E+02 -0.45886524490E+01 -0.64166498866E+02  0.73779105930E+02  0.00000000000E+00 0.  1.
</event>
<event>
 7    1  0.2670433E-009  0.1805331E+03  0.7561462E-02  0.1167288E+00
         -1   -1    0    0    0  501 -0.00000000000E+00  0.00000000000E+00  0.34410003670E+02  0.34410003670E+02  0.00000000000E+00 0.  1.
          1   -1    0    0  501    0  0.00000000000E+00 -0.00000000000E+00 -0.11942995828E+04  0.11942995828E+04  0.00000000000E+00 0. -1.
         25    2    1    2    0    0  0.11509394639E+03 -0.12021106008E+03 -0.49421544439E+03  0.53627835279E+03  0.12509296838E+03 0.  0.
          5    1    3    3  502    0  0.76662299125E+02 -0.24896278446E+02 -0.98144311858E+02  0.12706970976E+03  0.41800000000E+01 0. -1.
         -5    1    3    3    0  502  0.38431647268E+02 -0.95314781637E+02 -0.39607113253E+03  0.40920864303E+03  0.41800000000E+01 0. -1.
        -11    1    1    2    0    0 -0.14294677843E+02  0.56435837139E+02 -0.11395329771E+03  0.12796364948E+03  0.00000000000E+00 0.  1.
         11    1    1    2    0    0 -0.10079926855E+03  0.63775222943E+02 -0.55172083702E+03  0.56446758419E+03  0.00000000000E+00 0. -1.
</event>
<event>
 7    1  0.2670433E-009  0.1269403E+03  0.7561462E-02  0.1232068E+00
          1   -1    0    0  501    0  0.00000000000E+00  0.00000000000E+00  0.88399778597E+02  0.88399778597E+02  0.00000000000E+00 0. -1.
         -1   -1    0    0    0  501 -0.00000000000E+00 -0.00000000000E+00 -0.24711535334E+03  0.24711535334E+03  0.00000000000E+00 0.  1.
         25    2    1    2    0    0  0.54956920820E+01 -0.68609300795E+02 -0.16349572821E+03  0.21706021037E+03  0.12508734147E+03 0.  0.
          5    1    3    3  502    0  0.20126524873E+02  0.29790313732E+02 -0.17143337094E+02  0.40048797765E+02  0.41800000000E+01 0. -1.
         -5    1    3    3    0  502 -0.14630832791E+02 -0.98399614528E+02 -0.14635239112E+03  0.17701141261E+03  0.41800000000E+01 0. -1.
        -11    1    1    2    0    0 -0.40739952047E+02  0.71982824259E+02 -0.12020558362E+00  0.82712061578E+02  0.00000000000E+00 0.  1.
         11    1    1    2    0    0  0.35244259965E+02 -0.33735234632E+01  0.49003590554E+01  0.35742859985E+02  0.00000000000E+00 0. -1.
</event>
<event>
 7    1  0.2670433E-009  0.1304557E+03  0.7561462E-02  0.1226781E+00
          1   -1    0    0  501    0  0.00000000000E+00  0.00000000000E+00  0.49853790994E+03  0.49853790994E+03  0.00000000000E+00 0. -1.
         -1   -1    0    0    0  501 -0.00000000000E+00 -0.00000000000E+00 -0.51214574480E+02  0.51214574480E+02  0.00000000000E+00 0.  1.
         25    2    1    2    0    0 -0.37063130877E+01 -0.79045656517E+02  0.38815438983E+03  0.41542359029E+03  0.12510386269E+03 0.  0.
          5    1    3    3  502    0  0.58348298634E+02 -0.29897534815E+02  0.13477834091E+03  0.14993685377E+03  0.41800000000E+01 0.  1.
         -5    1    3    3    0  502 -0.62054611722E+02 -0.49148121702E+02  0.25337604892E+03  0.26548673652E+03  0.41800000000E+01 0.  1.
        -11    1    1    2    0    0  0.44205600255E+02  0.44324372135E+02  0.50183083601E+02  0.80231707814E+02  0.00000000000E+00 0. -1.
         11    1    1    2    0    0 -0.40499287167E+02  0.34721284382E+02  0.89858620290E+01  0.54097186309E+02  0.00000000000E+00 0.  1.
</event>
<event>
 7    1  0.2670433E-009  0.1864835E+03  0.7561462E-02  0.1161672E+00
         -4   -1    0    0    0  501 -0.00000000000E+00  0.00000000000E+00  0.14718558679E+03  0.14718558679E+03  0.00000000000E+00 0.  1.
          4   -1    0    0  501    0  0.00000000000E+00 -0.00000000000E+00 -0.25575014457E+03  0.25575014457E+03  0.00000000000E+00 0. -1.
         25    2    1    2    0    0  0.46852697160E+01 -0.15966366849E+03 -0.58083416205E+02  0.21103497872E+03  0.12509052808E+03 0.  0.
          5    1    3    3  502    0  0.22624582714E+02 -0.16664031490E+03 -0.21637320740E+02  0.16960693483E+03  0.41800000000E+01 0.  1.
         -5    1    3    3    0  502 -0.17939312998E+02  0.69766464076E+01 -0.36446095466E+02  0.41428043891E+02  0.41800000000E+01 0.  1.
        -11    1    1    2    0    0 -0.38327616657E+02  0.23876502914E+02 -0.97192762839E+01  0.46190452709E+02  0.00000000000E+00 0.  1.
         11    1    1    2    0    0  0.33642346941E+02  0.13578716558E+03 -0.40761865285E+02  0.14571029993E+03  0.00000000000E+00 0. -1.
</event>
<event>
 7    1  0.2670433E-009  0.2200420E+03  0.7561462E-02  0.1133852E+00
          1   -1    0    0  501    0  0.00000000000E+00  0.00000000000E+00  0.26110377610E+03  0.26110377610E+03  0.00000000000E+00 0. -1.
         -1   -1    0    0    0  501 -0.00000000000E+00 -0.00000000000E+00 -0.19525654878E+03  0.19525654878E+03  0.00000000000E+00 0.  1.
         25    2    1    2    0    0 -0.41694370431E+02 -0.18715131209E+03  0.83435643677E+02  0.24366727450E+03  0.12509276510E+03 0.  0.
          5    1    3    3  502    0 -0.35973040213E+02  0.44938823851E+01  0.66691291917E+01  0.37097227460E+02  0.41800000000E+01 0. -1.
         -5    1    3    3    0  502 -0.57213302177E+01 -0.19164519448E+03  0.76766514485E+02  0.20657004704E+03  0.41800000000E+01 0. -1.
        -11    1    1    2    0    0  0.61039745885E+02  0.69141412386E+02 -0.11619821719E+02  0.92959161685E+02  0.00000000000E+00 0. -1.
         11    1    1    2    0    0 -0.19345375454E+02  0.11800989971E+03 -0.59685946450E+01  0.11973388870E+03  0.00000000000E+00 0.  1.
</event>
<event>
 7    1  0.2670433E-009  0.1324497E+03  0.7561462E-02  0.1223866E+00
         -1   -1    0    0    0  501 -0.00000000000E+00  0.00000000000E+00  0.10571974263E+03  0.10571974263E+03  0.00000000000E+00 0.  1.
          1   -1    0    0  501    0  0.00000000000E+00 -0.00000000000E+00 -0.17971844087E+03  0.17971844087E+03  0.00000000000E+00 0. -1.
         25    2    1    2    0    0  0.33793500218E+02  0.74020134325E+02 -0.43612751472E+02  0.15546905197E+03  0.12509025976E+03 0.  0.
          5    1    3    3  502    0 -0.23724590252E+01 -0.34419391938E+02 -0.12398811171E+02  0.36898862064E+02  0.41800000000E+01 0. -1.
         -5    1    3    3    0  502  0.36165959243E+02  0.10843952626E+03 -0.31213940301E+02  0.11857018990E+03  0.41800000000E+01 0. -1.
        -11    1    1    2    0    0 -0.38516449032E+02  0.29629791913E+01 -0.35777742960E+02  0.52653043435E+02  0.00000000000E+00 0. -1.
         11    1    1    2    0    0  0.47229488139E+01 -0.76983113516E+02  0.53917961917E+01  0.77316088095E+02  0.00000000000E+00 0.  1.
</event>
<event>
 7    1  0.2670433E-009  0.1164126E+03  0.7561462E-02  0.1249135E+00
          2   -1    0    0  501    0  0.00000000000E+00  0.00000000000E+00  0.13163025925E+03  0.13163025925E+03  0.00000000000E+00 0.  1.
         -2   -1    0    0    0  501 -0.00000000000E+00 -0.00000000000E+00 -0.17936001461E+03  0.17936001461E+03  0.00000000000E+00 0. -1.
         25    2    1    2    0    0  0.39782914623E+02 -0.49688367777E+02  0.64457966222E+02  0.15444558019E+03  0.12508794363E+03 0.  0.
          5    1    3    3  502    0 -0.41303241242E+02 -0.99400682580E+01  0.44898874460E+02  0.61952756370E+02  0.41800000000E+01 0.  1.
         -5    1    3    3    0  502  0.81086155865E+02 -0.39748299519E+02  0.19559091762E+02  0.92492823820E+02  0.41800000000E+01 0.  1.
        -11    1    1    2    0    0  0.17122154834E+02  0.37949213219E+02 -0.16885387737E+02  0.44926910523E+02  0.00000000000E+00 0.  1.
         11    1    1    2    0    0 -0.56905069457E+02  0.11739154558E+02 -0.95302333842E+02  0.11161778315E+03  0.00000000000E+00 0. -1.
</event>
<event>
 7    1  0.2670433E-009  0.1124022E+03  0.7561462E-02  0.1256185E+00
         -4   -1    0    0    0  501 -0.00000000000E+00  0.00000000000E+00  0.36522204988E+03  0.36522204988E+03  0.00000000000E+00 0.  1.
          4   -1    0    0  501    0  0.00000000000E+00 -0.00000000000E+00 -0.67386582208E+02  0.67386582208E+02  0.00000000000E+00 0. -1.
         25    2    1    2    0    0 -0.26633700764E+02 -0.11394527187E+02  0.30753525307E+03  0.33326326877E+03  0.12508910889E+03 0.  0.
          5    1    3    3  502    0 -0.19866550155E+02 -0.67599880618E+02  0.19133951459E+03  0.20394289867E+03  0.41800000000E+01 0.  1.
         -5    1    3    3    0  502 -0.67671506090E+01  0.56205353431E+02  0.11619573849E+03  0.12932037010E+03  0.41800000000E+01 0.  1.
        -11    1    1    2    0    0 -0.12861668878E+02  0.44250313501E+02 -0.12953145765E+02  0.47867491646E+02  0.00000000000E+00 0. -1.
         11    1    1    2    0    0  0.39495369642E+02 -0.32855786314E+02  0.32533603589E+01  0.51477871664E+02  0.00000000000E+00 0.  1.
</event>
<event>
 7    1  0.2670433E-009  0.7273697E+02  0.7561462E-02  0.1351026E+00
          2   -1    0    0  501    0  0.00000000000E+00  0.00000000000E+00  0.27091802153E+03  0.27091802153E+03  0.00000000000E+00 0. -1.
         -2   -1    0    0    0  501 -0.00000000000E+00 -0.00000000000E+00 -0.54502404801E+02  0.54502404801E+02  0.00000000000E+00 0.  1.
         25    2    1    2    0    0  0.48808444460E+02  0.20137825096E+02  0.12364617043E+03  0.18364068608E+03  0.12509088645E+03 0.  0.
          5    1    3    3  502    0  0.30618972549E+02  0.48255106940E+01 -0.20558653167E+02  0.37429101691E+02  0.41800000000E+01 0. -1.
         -5    1    3    3    0  502  0.18189471912E+02  0.15312314402E+02  0.14420482360E+03  0.14621158439E+03  0.41800000000E+01 0. -1.
        -11    1    1    2    0    0 -0.38546836899E+02 -0.47301048099E+02  0.94725237084E+02  0.11267705324E+03  0.00000000000E+00 0. -1.
         11    1    1    2    0    0 -0.10261607561E+02  0.27163223003E+02 -0.19557907862E+01  0.29102687011E+02  0.00000000000E+00 0.  1.
</event>
<event>
 7    1  0.2670433E-009  0.1770811E+03  0.7561462E-02  0.1170658E+00
         -2   -1    0    0    0  501 -0.00000000000E+00  0.00000000000E+00  0.65271405257E+02  0.65271405257E+02  0.00000000000E+00 0.  1.
          2   -1    0    0  501    0  0.00000000000E+00 -0.00000000000E+00 -0.48687004823E+03  0.48687004823E+03  0.00000000000E+00 0. -1.
         25    2    1    2    0    0 -0.12407359360E+03  0.66478602586E+02 -0.21787505679E+03  0.28797738445E+03  0.12509105624E+03 0.  0.
          5    1    3    3  502    0  0.18587160640E+02  0.35142917839E+02 -0.66446342686E+02  0.77544155623E+02  0.41800000000E+01 0. -1.
         -5    1    3    3    0  502 -0.14266075424E+03  0.31335684747E+02 -0.15142871411E+03  0.21043322883E+03  0.41800000000E+01 0. -1.
        -11    1    1    2    0    0  0.12131560750E+03 -0.21746829472E+02 -0.14534214710E+03  0.19056426984E+03  0.00000000000E+00 0.  1.
         11    1    1    2    0    0  0.27579861003E+01 -0.44731773115E+02 -0.58381439080E+02  0.73599799201E+02  0.00000000000E+00 0. -1.
</event>
<event>
 7    1  0.2670433E-009  0.1035738E+03  0.7561462E-02  0.1272955E+00
          2   -1    0    0  501    0  0.00000000000E+00  0.00000000000E+00  0.29281115299E+03  0.29281115299E+03  0.00000000000E+00 0. -1.
         -2   -1    0    0    0  501 -0.00000000000E+00 -0.00000000000E+00 -0.65753792537E+02  0.65753792537E+02  0.00000000000E+00 0.  1.
         25    2    1    2    0    0 -0.72729873884E+02  0.39331620921E+02  0.15494636569E+03  0.21561867920E+03  0.12508568112E+03 0.  0.
          5    1    3    3  502    0 -0.15556864745E+02  0.55738882428E+02  0.14365821314E+03  0.15493222279E+03  0.41800000000E+01 0. -1.
         -5    1    3    3    0  502 -0.57173009139E+02 -0.16407261507E+02  0.11288152551E+02  0.60686456415E+02  0.41800000000E+01 0. -1.
        -11    1    1    2    0    0  0.47667107111E+02 -0.42968524327E+02 -0.24294816039E+01  0.64221099056E+02  0.00000000000E+00 0.  1.
         11    1    1    2    0    0  0.25062766773E+02  0.36369034058E+01  0.74540476365E+02  0.78725167268E+02  0.00000000000E+00 0. -1.
</event>
<event>
 7    1  0.2670433E-009  0.9386365E+02  0.7561462E-02  0.1293756E+00
          1   -1    0    0  501    0  0.00000000000E+00  0.00000000000E+00  0.92998749409E+02  0.92998749409E+02  0.00000000000E+00 0. -1.
         -1   -1    0    0    0  501 -0.00000000000E+00 -0.00000000000E+00 -0.18120114433E+03  0.18120114433E+03  0.00000000000E+00 0.  1.
         25    2    1    2    0    0 -0.70344536398E+02  0.12763969396E+02 -0.45946934415E+02  0.15122870111E+03  0.12509087314E+03 0.  0.
          5    1    3    3  502    0 -0.55717536300E+02  0.89707014890E+01  0.36476745036E+02  0.67327131715E+02  0.41800000000E+01 0. -1.
         -5    1    3    3    0  502 -0.14627000098E+02  0.37932679066E+01 -0.82423679450E+02  0.83901569398E+02  0.41800000000E+01 0. -1.
        -11    1    1    2    0    0  0.34458746714E+01 -0.42221773466E+02 -0.16713814969E+02  0.45540134142E+02  0.00000000000E+00 0.  1.
         11    1    1    2    0    0  0.66898661726E+02  0.29457804070E+02 -0.25541645539E+02  0.77431058486E+02  0.00000000000E+00 0. -1.
</event>
<event>
 7    1  0.2670433E-009  0.9500374E+02  0.7561462E-02  0.1291168E+00
          2   -1    0    0  501    0  0.00000000000E+00  0.00000000000E+00  0.64723589546E+02  0.64723589546E+02  0.00000000000E+00 0. -1.
         -2   -1    0    0    0  501 -0.00000000000E+00 -0.00000000000E+00 -0.18700468403E+03  0.18700468403E+03  0.00000000000E+00 0.  1.
         25    2    1    2    0    0  0.58900882481E+00 -0.21657825477E+02 -0.62418678052E+02  0.14146470337E+03  0.12508702008E+03 0.  0.
          5    1    3    3  502    0  0.55196193968E+02  0.28676139775E+01 -0.77132970654E+00  0.55433837933E+02  0.41800000000E+01 0. -1.
         -5    1    3    3    0  502 -0.54607185143E+02 -0.24525439454E+02 -0.61647348345E+02  0.86030865436E+02  0.41800000000E+01 0. -1.
        -11    1    1    2    0    0 -0.23740305265E+02  0.38991469076E+02 -0.66432652809E+02  0.80605422361E+02  0.00000000000E+00 0.  1.
         11    1    1    2    0    0  0.23151296440E+02 -0.17333643599E+02  0.65702363811E+01  0.29658147842E+02  0.00000000000E+00 0. -1.
</event>
<event>
 7    1  0.2670433E-009  0.1369078E+03  0.7561462E-02  0.1217551E+00
         -1   -1    0    0    0  501 -0.00000000000E+00  0.00000000000E+00  0.30175815594E+03  0.30175815594E+03  0.00000000000E+00 0. -1.
          1   -1    0    0  501    0  0.00000000000E+00 -0.00000000000E+00 -0.95313470881E+02  0.95313470881E+02  0.00000000000E+00 0.  1.
         25    2    1    2    0    0  0.40362655942E+02  0.12132548650E+03  0.10472748667E+03  0.20727899286E+03  0.12509083398E+03 0.  0.
          5    1    3    3  502    0  0.23972313033E+02  0.86233913087E+02 -0.60955899008E+01  0.89808619713E+02  0.41800000000E+01 0. -1.
         -5    1    3    3    0  502  0.16390342909E+02  0.35091573417E+02  0.11082307657E+03  0.11747037314E+03  0.41800000000E+01 0. -1.
        -11    1    1    2    0    0 -0.40187332642E+01 -0.10556993058E+03  0.10635681939E+03  0.14990975115E+03  0.00000000000E+00 0. -1.
         11    1    1    2    0    0 -0.36343922678E+02 -0.15755555925E+02 -0.46396210076E+01  0.39882882810E+02  0.00000000000E+00 0.  1.
</event>
<event>
 7    1  0.2670433E-009  0.7433236E+02  0.7561462E-02  0.1345951E+00
         -2   -1    0    0    0  501 -0.00000000000E+00  0.00000000000E+00  0.83410274982E+02  0.83410274982E+02  0.00000000000E+00 0.  1.
          2   -1    0    0  501    0  0.00000000000E+00 -0.00000000000E+00 -0.16779735193E+03  0.16779735193E+03  0.00000000000E+00 0. -1.
         25    2    1    2    0    0 -0.30037402840E+02 -0.97535726256E+01 -0.85886571072E+02  0.15498957487E+03  0.12509151641E+03 0.  0.
          5    1    3    3  502    0  0.11403929621E+02 -0.30357104450E+02  0.20710601912E+02  0.38704067395E+02  0.41800000000E+01 0.  1.
         -5    1    3    3    0  502 -0.41441332461E+02  0.20603531825E+02 -0.10659717298E+03  0.11628550747E+03  0.41800000000E+01 0.  1.
        -11    1    1    2    0    0  0.46644801034E+02  0.19144139152E+02 -0.30525400860E+02  0.58940950323E+02  0.00000000000E+00 0. -1.
         11    1    1    2    0    0 -0.16607398194E+02 -0.93905665260E+01  0.32024894981E+02  0.37277101725E+02  0.00000000000E+00 0.  1.
</event>
<event>
 7    1  0.2670433E-009  0.1430419E+03  0.7561462E-02  0.1209293E+00
          1   -1    0    0  501    0  0.00000000000E+00  0.00000000000E+00  0.32980722215E+02  0.32980722215E+02  0.00000000000E+00 0. -1.
         -1   -1    0    0    0  501 -0.00000000000E+00 -0.00000000000E+00 -0.70818466321E+03  0.70818466321E+03  0.00000000000E+00 0.  1.
         25    2    1    2    0    0  0.69707402336E+02 -0.31262770833E+02 -0.44829606666E+03  0.47164987030E+03  0.12509098286E+03 0.  0.
          5    1    3    3  502    0  0.10255664735E+03 -0.74971500882E+01 -0.35959250485E+03  0.37402983186E+03  0.41800000000E+01 0.  1.
         -5    1    3    3    0  502 -0.32849245019E+02 -0.23765620744E+02 -0.88703561808E+02  0.97620038440E+02  0.41800000000E+01 0.  1.
        -11    1    1    2    0    0  0.24268851188E+02 -0.23382141075E+02 -0.79587241852E+02  0.86428182469E+02  0.00000000000E+00 0.  1.
         11    1    1    2    0    0 -0.93976253524E+02  0.54644911908E+02 -0.14732063249E+03  0.18308733266E+03  0.00000000000E+00 0. -1.
</event>
<event>
 7    1  0.2670433E-009  0.9906516E+02  0.7561462E-02  0.1282274E+00
          2   -1    0    0  501    0  0.00000000000E+00  0.00000000000E+00  0.10580857933E+04  0.10580857933E+04  0.00000000000E+00 0.  1.
         -2   -1    0    0    0  501 -0.00000000000E+00 -0.00000000000E+00 -0.17751759882E+02  0.17751759882E+02  0.00000000000E+00 0. -1.
         25    2    1    2    0    0 -0.37301980601E+02  0.12898021626E+02  0.86546644427E+03  0.87534965826E+03  0.12508821423E+03 0.  0.
          5    1    3    3  502    0 -0.72840902398E+02  0.18281488170E+02  0.32151869949E+03  0.33019957055E+03  0.41800000000E+01 0. -1.
         -5    1    3    3    0  502  0.35538921797E+02 -0.53834665435E+01  0.54394774479E+03  0.54515008771E+03  0.41800000000E+01 0. -1.
        -11    1    1    2    0    0 -0.60203416481E+01 -0.36772605016E+02  0.12423668477E+03  0.12970436706E+03  0.00000000000E+00 0.  1.
         11    1    1    2    0    0  0.43322322249E+02  0.23874583390E+02  0.50630904362E+02  0.70783527841E+02  0.00000000000E+00 0. -1.
</event>
<event>
 7    1  0.2670433E-009  0.8095909E+02  0.7561462E-02  0.1326352E+00
          2   -1    0    0  501    0  0.00000000000E+00  0.00000000000E+00  0.73886130120E+02  0.73886130120E+02  0.00000000000E+00 0. -1.
         -2   -1    0    0    0  501 -0.00000000000E+00 -0.00000000000E+00 -0.16769065893E+03  0.16769065893E+03  0.00000000000E+00 0.  1.
         25    2    1    2    0    0  0.46575406661E+01  0.12191293827E+02 -0.33163217379E+02  0.13006953207E+03  0.12509182170E+03 0.  0.
          5    1    3    3  502    0 -0.31034328977E+00 -0.38800315830E+02 -0.60388663303E+02  0.71901487307E+02  0.41800000000E+01 0. -1.
         -5    1    3    3    0  502  0.49678839559E+01  0.50991609657E+02  0.27225445924E+02  0.58168044768E+02  0.41800000000E+01 0. -1.
        -11    1    1    2    0    0 -0.70237335965E+01 -0.41497278160E+02  0.21823854982E+01  0.42144035578E+02  0.00000000000E+00 0. -1.
         11    1    1    2    0    0  0.23661929304E+01  0.29305984333E+02 -0.62823696931E+02  0.69363221399E+02  0.00000000000E+00 0.  1.
</event>
<event>
 7    1  0.2670433E-009  0.1959579E+03  0.7561462E-02  0.1153195E+00
         -2   -1    0    0    0  501 -0.00000000000E+00  0.00000000000E+00  0.10139010914E+03  0.10139010914E+03  0.00000000000E+00 0.  1.
          2   -1    0    0  501    0  0.00000000000E+00 -0.00000000000E+00 -0.41796558201E+03  0.41796558201E+03  0.00000000000E+00 0. -1.
         25    2    1    2    0    0  0.11645788910E+03 -0.12343269116E+03 -0.18486338794E+03  0.28038927910E+03  0.12508239867E+03 0.  0.
          5    1    3    3  502    0  0.14346022434E+03 -0.10165315013E+03 -0.15447446145E+03  0.23408124774E+03  0.41800000000E+01 0. -1.
         -5    1    3    3    0  502 -0.27002335249E+02 -0.21779541022E+02 -0.30388926486E+02  0.46308031366E+02  0.41800000000E+01 0. -1.
        -11    1    1    2    0    0 -0.34615437516E+02  0.20148858108E+01  0.90700099862E+01  0.35840666295E+02  0.00000000000E+00 0.  1.
         11    1    1    2    0    0 -0.81842451579E+02  0.12141780535E+03 -0.14078209492E+03  0.20312574575E+03  0.00000000000E+00 0. -1.
</event>
<event>
 7    1  0.2788511E-009  0.1080837E+03  0.7561462E-02  0.1264160E+00
         -2   -1    0    0    0  501 -0.00000000000E+00  0.00000000000E+00  0.35330570336E+02  0.35330570336E+02  0.00000000000E+00 0. -1.
          2   -1    0    0  501    0  0.00000000000E+00 -0.00000000000E+00 -0.44618862355E+03  0.44618862355E+03  0.00000000000E+00 0.  1.
         25    2    1    2    0    0  0.53984012102E+02 -0.16689320751E+02 -0.17640025495E+03  0.22351192191E+03  0.12509085618E+03 0.  0.
          5    1    3    3  502    0  0.20270514255E+02 -0.61946325986E+02 -0.14444381761E+03  0.15852359413E+03  0.41800000000E+01 0.  1.
         -5    1    3    3    0  502  0.33713497847E+02  0.45257005235E+02 -0.31956437336E+02  0.64988327776E+02  0.41800000000E+01 0.  1.
        -11    1    1    2    0    0 -0.32560697849E+02  0.46983045864E+02 -0.19762474435E+03  0.20572589828E+03  0.00000000000E+00 0.  1.
         11    1    1    2    0    0 -0.21423314254E+02 -0.30293725112E+02 -0.36833053917E+02  0.52281373697E+02  0.00000000000E+00 0. -1.
</event>
<event>
 7    1  0.2670433E-009  0.1026310E+03  0.7561462E-02  0.1274859E+00
          2   -1    0    0  501    0  0.00000000000E+00  0.00000000000E+00  0.16204449011E+03  0.16204449011E+03  0.00000000000E+00 0. -1.
         -2   -1    0    0    0  501 -0.00000000000E+00 -0.00000000000E+00 -0.92283143983E+02  0.92283143983E+02  0.00000000000E+00 0.  1.
         25    2    1    2    0    0  0.56692020437E+02 -0.19797933124E+01  0.28705563771E+02  0.14032115342E+03  0.12509241361E+03 0.  0.
          5    1    3    3  502    0 -0.37644767879E+02 -0.53877699627E+00 -0.84904269389E+01  0.38819821984E+02  0.41800000000E+01 0.  1.
         -5    1    3    3    0  502  0.94336788316E+02 -0.14410163161E+01  0.37195990710E+02  0.10150133143E+03  0.41800000000E+01 0.  1.
        -11    1    1    2    0    0 -0.20649811815E+02 -0.21591207954E+02  0.59947302335E+02  0.66979653971E+02  0.00000000000E+00 0. -1.
         11    1    1    2    0    0 -0.36042208622E+02  0.23571001266E+02 -0.18891519977E+02  0.47026826706E+02  0.00000000000E+00 0.  1.
</event>
<event>
 7    1  0.2670433E-009  0.3378552E+03  0.7561462E-02  0.1067713E+00
          2   -1    0    0  501    0  0.00000000000E+00  0.00000000000E+00  0.13923353317E+04  0.13923353317E+04  0.00000000000E+00 0. -1.
         -2   -1    0    0    0  501 -0.00000000000E+00 -0.00000000000E+00 -0.90370322360E+02  0.90370322360E+02  0.00000000000E+00 0.  1.
         25    2    1    2    0    0 -0.65420276298E+02  0.32662425181E+03  0.54458897228E+03  0.65052911185E+03  0.12509101571E+03 0.  0.
          5    1    3    3  502    0 -0.20941180434E+02  0.11641679879E+03  0.93393470470E+02  0.15076875275E+03  0.41800000000E+01 0. -1.
         -5    1    3    3    0  502 -0.44479095863E+02  0.21020745302E+03  0.45119550181E+03  0.49976035910E+03  0.41800000000E+01 0. -1.
        -11    1    1    2    0    0  0.53074602859E+02 -0.83041769633E+02  0.26431949813E+03  0.28209510109E+03  0.00000000000E+00 0. -1.
         11    1    1    2    0    0  0.12345673439E+02 -0.24358248218E+03  0.49305653895E+03  0.55008144113E+03  0.00000000000E+00 0.  1.
</event>
<event>
 7    1  0.2670433E-009  0.1030543E+03  0.7561462E-02  0.1274001E+00
         -1   -1    0    0    0  501 -0.00000000000E+00  0.00000000000E+00  0.62654781519E+02  0.62654781519E+02  0.00000000000E+00 0.  1.
          1   -1    0    0  501    0  0.00000000000E+00 -0.00000000000E+00 -0.23034522751E+03  0.23034522751E+03  0.00000000000E+00 0. -1.
         25    2    1    2    0    0 -0.63518691630E+02  0.83570694111E+01 -0.78242336727E+02  0.16085381921E+03  0.12509045968E+03 0.  0.
          5    1    3    3  502    0 -0.25083071186E+02  0.51493374767E+02 -0.84948687986E+02  0.10254013895E+03  0.41800000000E+01 0.  1.
         -5    1    3    3    0  502 -0.38435620444E+02 -0.43136305356E+02  0.67063512594E+01  0.58313680264E+02  0.41800000000E+01 0.  1.
        -11    1    1    2    0    0 -0.49289142682E+01  0.17044460791E+02 -0.14460636525E+01  0.17801655530E+02  0.00000000000E+00 0.  1.
         11    1    1    2    0    0  0.68447605898E+02 -0.25401530202E+02 -0.88002045616E+02  0.11434453429E+03  0.00000000000E+00 0. -1.
</event>
<event>
 7    1  0.2670433E-009  0.1445776E+03  0.7561462E-02  0.1207299E+00
         -2   -1    0    0    0  501 -0.00000000000E+00  0.00000000000E+00  0.59470571195E+02  0.59470571195E+02  0.00000000000E+00 0.  1.
          2   -1    0    0  501    0  0.00000000000E+00 -0.00000000000E+00 -0.45606457734E+03  0.45606457734E+03  0.00000000000E+00 0. -1.
         25    2    1    2    0    0  0.98216487667E+02 -0.72133244300E+02 -0.17960353492E+03  0.25051183741E+03  0.12509623313E+03 0.  0.
          5    1    3    3  502    0  0.11177209821E+03 -0.22055584374E+02 -0.83824205928E+02  0.14150413647E+03  0.41800000000E+01 0. -1.
         -5    1    3    3    0  502 -0.13555610539E+02 -0.50077659926E+02 -0.95779328991E+02  0.10900770093E+03  0.41800000000E+01 0. -1.
        -11    1    1    2    0    0 -0.58763455880E+02  0.32373508448E+02 -0.37208877345E+02  0.76718240005E+02  0.00000000000E+00 0.  1.
         11    1    1    2    0    0 -0.39453031787E+02  0.39759735853E+02 -0.17978159388E+03  0.18830507113E+03  0.00000000000E+00 0. -1.
</event>
<event>
 7    1  0.2670433E-009  0.9981617E+02  0.7561462E-02  0.1280683E+00
          1   -1    0    0  501    0  0.00000000000E+00  0.00000000000E+00  0.26781614502E+03  0.26781614502E+03  0.00000000000E+00 0. -1.
         -1   -1    0    0    0  501 -0.00000000000E+00 -0.00000000000E+00 -0.52080883106E+02  0.52080883106E+02  0.00000000000E+00 0.  1.
         25    2    1    2    0    0  0.24399404093E+02 -0.41269911080E+02  0.10950980733E+03  0.17302893762E+03  0.12509228143E+03 0.  0.
          5    1    3    3  502    0  0.70252135596E+01  0.33578592428E+02  0.85813234299E+02  0.92510859232E+02  0.41800000000E+01 0. -1.
         -5    1    3    3    0  502  0.17374190533E+02 -0.74848503508E+02  0.23696573028E+02  0.80518078388E+02  0.41800000000E+01 0. -1.
        -11    1    1    2    0    0  0.14053012926E+02 -0.14621276098E+02  0.63581692265E+02  0.66737549238E+02  0.00000000000E+00 0. -1.
         11    1    1    2    0    0 -0.38452417019E+02  0.55891187178E+02  0.42643762317E+02  0.80130541264E+02  0.00000000000E+00 0.  1.
</event>
<event>
 7    1  0.2670433E-009  0.1294384E+03  0.7561462E-02  0.1228291E+00
         -2   -1    0    0    0  501 -0.00000000000E+00  0.00000000000E+00  0.18854956949E+03  0.18854956949E+03  0.00000000000E+00 0.  1.
          2   -1    0    0  501    0  0.00000000000E+00 -0.00000000000E+00 -0.94442068549E+02  0.94442068549E+02  0.00000000000E+00 0. -1.
         25    2    1    2    0    0  0.33770442360E+00  0.84662412604E+02  0.46530659042E+02  0.15805080561E+03  0.12508843580E+03 0.  0.
          5    1    3    3  502    0 -0.44677616199E+02  0.87661451362E+02  0.84069163921E+01  0.98837078505E+02  0.41800000000E+01 0.  1.
         -5    1    3    3    0  502  0.45015320623E+02 -0.29990387580E+01  0.38123742650E+02  0.59213727107E+02  0.41800000000E+01 0.  1.
        -11    1    1    2    0    0 -0.99862133321E+01  0.13311978095E+02  0.10845069653E+02  0.19863251327E+02  0.00000000000E+00 0. -1.
         11    1    1    2    0    0  0.96485089085E+01 -0.97974390699E+02  0.36731772242E+02  0.10507758110E+03  0.00000000000E+00 0.  1.
</event>
<event>
 7    1  0.2670433E-009  0.1232675E+03  0.7561462E-02  0.1237802E+00
          1   -1    0    0  501    0  0.00000000000E+00  0.00000000000E+00  0.81745616648E+03  0.81745616648E+03  0.00000000000E+00 0. -1.
         -1   -1    0    0    0  501 -0.00000000000E+00 -0.00000000000E+00 -0.30889684622E+02  0.30889684622E+02  0.00000000000E+00 0.  1.
         25    2    1    2    0    0 -0.39571162666E+02  0.10566071258E+03  0.48649640448E+03  0.51483635070E+03  0.12509058052E+03 0.  0.
          5    1    3    3  502    0  0.10026880725E+02  0.92774252588E+01 -0.20139583929E+01  0.14426967281E+02  0.41800000000E+01 0.  1.
         -5    1    3    3    0  502 -0.49598043392E+02  0.96383287318E+02  0.48851036287E+03  0.50040938342E+03  0.41800000000E+01 0.  1.
        -11    1    1    2    0    0  0.29786200175E+02 -0.16449753683E+02  0.18226333550E+03  0.18541233935E+03  0.00000000000E+00 0. -1.
         11    1    1    2    0    0  0.97849624911E+01 -0.89210958894E+02  0.11780674188E+03  0.14809716105E+03  0.00000000000E+00 0.  1.
</event>
<event>
 7    1  0.2670433E-009  0.8486473E+02  0.7561462E-02  0.1315787E+00
         -2   -1    0    0    0  501 -0.00000000000E+00  0.00000000000E+00  0.75012042757E+03  0.75012042757E+03  0.00000000000E+00 0.  1.
          2   -1    0    0  501    0  0.00000000000E+00 -0.00000000000E+00 -0.19917236466E+02  0.19917236466E+02  0.00000000000E+00 0. -1.
         25    2    1    2    0    0  0.79461085753E+01  0.55156802821E+02  0.42377508625E+03  0.44535266426E+03  0.12509299858E+03 0.  0.
          5    1    3    3  502    0 -0.10405507669E+02  0.41932371745E+02  0.41976436246E+03  0.42200259570E+03  0.41800000000E+01 0.  1.
         -5    1    3    3    0  502  0.18351616244E+02  0.13224431076E+02  0.40107237926E+01  0.23350068552E+02  0.41800000000E+01 0.  1.
        -11    1    1    2    0    0  0.38812940180E+02 -0.35494450202E+02  0.11177446004E+03  0.12353068541E+03  0.00000000000E+00 0.  1.
         11    1    1    2    0    0 -0.46759048755E+02 -0.19662352619E+02  0.19465364482E+03  0.20115431438E+03  0.00000000000E+00 0. -1.
</event>
<event>
 7    1  0.2670433E-009  0.1049531E+03  0.7561462E-02  0.1270212E+00
          2   -1    0    0  501    0  0.00000000000E+00  0.00000000000E+00  0.66750940148E+03  0.66750940148E+03  0.00000000000E+00 0. -1.
         -2   -1    0    0    0  501 -0.00000000000E+00 -0.00000000000E+00 -0.27414875139E+02  0.27414875139E+02  0.00000000000E+00 0.  1.
         25    2    1    2    0    0  0.13464788750E+02 -0.58953530031E+02  0.21895796094E+03  0.25931795210E+03  0.12508554025E+03 0.  0.
          5    1    3    3  502    0 -0.26663960883E+02 -0.56587753419E+02  0.20828664877E+03  0.21751767997E+03  0.41800000000E+01 0.  1.
         -5    1    3    3    0  502  0.40128749633E+02 -0.23657766112E+01  0.10671312178E+02  0.41800272124E+02  0.41800000000E+01 0.  1.
        -11    1    1    2    0    0  0.35442121684E+02  0.42178770444E+02  0.15515079682E+03  0.16464192182E+03  0.00000000000E+00 0.  1.
         11    1    1    2    0    0 -0.48906910434E+02  0.16774759586E+02  0.26598576857E+03  0.27096440270E+03  0.00000000000E+00 0. -1.
</event>
<event>
 7    1  0.2670433E-009  0.1025645E+03  0.7561462E-02  0.1274994E+00
         -1   -1    0    0    0  501 -0.00000000000E+00  0.00000000000E+00  0.24412431950E+02  0.24412431950E+02  0.00000000000E+00 0.  1.
          1   -1    0    0  501    0  0.00000000000E+00 -0.00000000000E+00 -0.62053104782E+03  0.62053104782E+03  0.00000000000E+00 0. -1.
         25    2    1    2    0    0  0.53853589133E+02  0.15260862641E+01 -0.41894002411E+03  0.44052303104E+03  0.12508900461E+03 0.  0.
          5    1    3    3  502    0  0.76630722274E+02  0.27204148032E+02 -0.37921057022E+03  0.38785366085E+03  0.41800000000E+01 0.  1.
         -5    1    3    3    0  502 -0.22777133141E+02 -0.25678061768E+02 -0.39729453895E+02  0.52669370198E+02  0.41800000000E+01 0.  1.
        -11    1    1    2    0    0 -0.89232049927E+01  0.31901604979E+02 -0.11958704410E+03  0.12409027804E+03  0.00000000000E+00 0.  1.
         11    1    1    2    0    0 -0.44930384140E+02 -0.33427691243E+02 -0.57591547656E+02  0.80330170685E+02  0.00000000000E+00 0. -1.
</event>
<event>
 7    1  0.2670433E-009  0.1010871E+03  0.7561462E-02  0.1278026E+00
         -2   -1    0    0    0  501 -0.00000000000E+00  0.00000000000E+00  0.10784795166E+03  0.10784795166E+03  0.00000000000E+00 0.  1.
          2   -1    0    0  501    0  0.00000000000E+00 -0.00000000000E+00 -0.14328701195E+03  0.14328701195E+03  0.00000000000E+00 0. -1.
         25    2    1    2    0    0  0.52432660715E+02 -0.26903771002E+01 -0.48057303308E+02  0.14392172263E+03  0.12509011073E+03 0.  0.
          5    1    3    3  502    0  0.80570147698E+01  0.48505471829E+02 -0.57069679074E+02  0.75446119543E+02  0.41800000000E+01 0. -1.
         -5    1    3    3    0  502  0.44375645945E+02 -0.51195848929E+02  0.90123757660E+01  0.68475603083E+02  0.41800000000E+01 0. -1.
        -11    1    1    2    0    0 -0.55733027659E+02  0.25933038605E+02 -0.22082780395E+02  0.65317241624E+02  0.00000000000E+00 0. -1.
         11    1    1    2    0    0  0.33003669444E+01 -0.23242661505E+02  0.34701023423E+02  0.41895999360E+02  0.00000000000E+00 0.  1.
</event>
<event>
 7    1  0.2670433E-009  0.1335670E+03  0.7561462E-02  0.1222257E+00
         -1   -1    0    0    0  501 -0.00000000000E+00  0.00000000000E+00  0.27446965774E+03  0.27446965774E+03  0.00000000000E+00 0.  1.
          1   -1    0    0  501    0  0.00000000000E+00 -0.00000000000E+00 -0.96142567656E+02  0.96142567656E+02  0.00000000000E+00 0. -1.
         25    2    1    2    0    0 -0.11675526909E+02  0.94938937962E+02  0.11174448078E+02  0.15786415429E+03  0.12508598262E+03 0.  0.
          5    1    3    3  502    0 -0.18426690643E+02 -0.21315199838E+02  0.28223089117E+02  0.40098576427E+02  0.41800000000E+01 0.  1.
         -5    1    3    3    0  502  0.67511637344E+01  0.11625413780E+03 -0.17048641039E+02  0.11776557786E+03  0.41800000000E+01 0.  1.
        -11    1    1    2    0    0 -0.32548741804E+02 -0.38188518161E+02  0.31639319440E+02  0.59319727301E+02  0.00000000000E+00 0. -1.
         11    1    1    2    0    0  0.44224268713E+02 -0.56750419800E+02  0.13551332256E+03  0.15342834380E+03  0.00000000000E+00 0.  1.
</event>
<event>
 7    1  0.2670433E-009  0.1196276E+03  0.7561462E-02  0.1243713E+00
          1   -1    0    0  501    0  0.00000000000E+00  0.00000000000E+00  0.13896544090E+03  0.13896544090E+03  0.00000000000E+00 0.  1.
         -1   -1    0    0    0  501 -0.00000000000E+00 -0.00000000000E+00 -0.17325570573E+03  0.17325570573E+03  0.00000000000E+00 0. -1.
         25    2    1    2    0    0  0.56502445961E+02  0.19609997757E+02 -0.11162571445E+03  0.17798865369E+03  0.12507030944E+03 0.  0.
          5    1    3    3  502    0  0.59525865554E+02 -0.39365268782E+02 -0.30894125936E+02  0.77877291129E+02  0.41800000000E+01 0.  1.
         -5    1    3    3    0  502 -0.30234195938E+01  0.58975266539E+02 -0.80731588515E+02  0.10011136256E+03  0.41800000000E+01 0.  1.
        -11    1    1    2    0    0 -0.17259523103E+02 -0.53811863372E+02  0.30544387005E+02  0.64238363575E+02  0.00000000000E+00 0. -1.
         11    1    1    2    0    0 -0.39242922858E+02  0.34201865615E+02  0.46791062610E+02  0.69994129369E+02  0.00000000000E+00 0.  1.
</event>
<event>
 7    1  0.2670433E-009  0.9409662E+02  0.7561462E-02  0.1293224E+00
         -3   -1    0    0    0  501 -0.00000000000E+00  0.00000000000E+00  0.18106346107E+03  0.18106346107E+03  0.00000000000E+00 0.  1.
          3   -1    0    0  501    0  0.00000000000E+00 -0.00000000000E+00 -0.71595316321E+02  0.71595316321E+02  0.00000000000E+00 0. -1.
         25    2    1    2    0    0  0.23597391636E+02 -0.13305256907E+02  0.87185067378E+02  0.15486163154E+03  0.12508805777E+03 0.  0.
          5    1    3    3  502    0  0.13995940966E+02  0.54650513257E+02  0.55163310014E+02  0.79012835252E+02  0.41800000000E+01 0. -1.
         -5    1    3    3    0  502  0.96014506697E+01 -0.67955770165E+02  0.32021757364E+02  0.75848796288E+02  0.41800000000E+01 0. -1.
        -11    1    1    2    0    0  0.17024462882E+02  0.14298643778E+02 -0.26315200689E+02  0.34449576740E+02  0.00000000000E+00 0. -1.
         11    1    1    2    0    0 -0.40621854517E+02 -0.99338687016E+00  0.48598278062E+02  0.63347569112E+02  0.00000000000E+00 0.  1.
</event>
<event>
 7    1  0.2670433E-009  0.1270933E+03  0.7561462E-02  0.1231834E+00
         -2   -1    0    0    0  501 -0.00000000000E+00  0.00000000000E+00  0.23401669182E+02  0.23401669182E+02  0.00000000000E+00 0. -1.
          2   -1    0    0  501    0  0.00000000000E+00 -0.00000000000E+00 -0.74911761330E+03  0.74911761330E+03  0.00000000000E+00 0.  1.
         25    2    1    2    0    0  0.73945643313E+02 -0.23155698226E+02 -0.44548040985E+03  0.46915274157E+03  0.12508938738E+03 0.  0.
          5    1    3    3  502    0  0.25789804924E+02 -0.68801584354E+02 -0.16125326602E+03  0.17725366075E+03  0.41800000000E+01 0.  1.
         -5    1    3    3    0  502  0.48155838390E+02  0.45645886128E+02 -0.28422714384E+03  0.29189908082E+03  0.41800000000E+01 0.  1.
        -11    1    1    2    0    0 -0.82904352963E+02  0.42226059044E+02 -0.24777908781E+03  0.26467082982E+03  0.00000000000E+00 0.  1.
         11    1    1    2    0    0  0.89587096492E+01 -0.19070360817E+02 -0.32456446454E+02  0.38695711089E+02  0.00000000000E+00 0. -1.
</event>
<event>
 7    1  0.2670433E-009  0.4352108E+03  0.7561462E-02  0.1032226E+00
         -1   -1    0    0    0  501 -0.00000000000E+00  0.00000000000E+00  0.11081763474E+03  0.11081763474E+03  0.00000000000E+00 0.  1.
          1   -1    0    0  501    0  0.00000000000E+00 -0.00000000000E+00 -0.17382472084E+04  0.17382472084E+04  0.00000000000E+00 0. -1.
         25    2    1    2    0    0  0.41506312176E+03 -0.78635024530E+02 -0.72165278584E+03  0.84551356095E+03  0.12509826668E+03 0.  0.
          5    1    3    3  502    0  0.14022294674E+03  0.28869900889E+02 -0.27670139380E+03  0.31157194947E+03  0.41800000000E+01 0.  1.
         -5    1    3    3    0  502  0.27484017502E+03 -0.10750492542E+03 -0.44495139204E+03  0.53394161148E+03  0.41800000000E+01 0.  1.
        -11    1    1    2    0    0 -0.10107759291E+03  0.59926346237E+02 -0.25063846458E+03  0.27681670233E+03  0.00000000000E+00 0. -1.
         11    1    1    2    0    0 -0.31398552885E+03  0.18708678293E+02 -0.65513832320E+03  0.72673457981E+03  0.00000000000E+00 0.  1.
</event>
<event>
 7    1  0.2670433E-009  0.1571388E+03  0.7561462E-02  0.1191965E+00
         -1   -1    0    0    0  501 -0.00000000000E+00  0.00000000000E+00  0.12273734899E+03  0.12273734899E+03  0.00000000000E+00 0.  1.
          1   -1    0    0  501    0  0.00000000000E+00 -0.00000000000E+00 -0.20208925639E+03  0.20208925639E+03  0.00000000000E+00 0. -1.
         25    2    1    2    0    0  0.11425969083E+03 -0.30056104890E+00 -0.44161648433E+02  0.17507994382E+03  0.12508944100E+03 0.  0.
          5    1    3    3  502    0  0.10246057703E+03 -0.52856860145E+02 -0.28655324399E+02  0.11887227400E+03  0.41800000000E+01 0.  1.
         -5    1    3    3    0  502  0.11799113802E+02  0.52556299096E+02 -0.15506324033E+02  0.56207669817E+02  0.41800000000E+01 0.  1.
        -11    1    1    2    0    0 -0.14721600535E+02  0.36193207033E+02 -0.31934226527E+01  0.39202955320E+02  0.00000000000E+00 0.  1.
         11    1    1    2    0    0 -0.99538090298E+02 -0.35892645984E+02 -0.31996836308E+02  0.11054370624E+03  0.00000000000E+00 0. -1.
</event>
<event>
 7    1  0.2670433E-009  0.1379895E+03  0.7561462E-02  0.1216060E+00
         -2   -1    0    0    0  501 -0.00000000000E+00  0.00000000000E+00  0.35251586884E+02  0.35251586884E+02  0.00000000000E+00 0.  1.
          2   -1    0    0  501    0  0.00000000000E+00 -0.00000000000E+00 -0.14399066070E+04  0.14399066070E+04  0.00000000000E+00 0. -1.
         25    2    1    2    0    0 -0.84707552429E+02 -0.51100463222E+02 -0.12863493876E+04  0.12961975391E+04  0.12508671661E+03 0.  0.
          5    1    3    3  502    0  0.32649178701E+02 -0.14529017281E+02 -0.25018738065E+03  0.25276126888E+03  0.41800000000E+01 0.  1.
         -5    1    3    3    0  502 -0.11735673113E+03 -0.36571445941E+02 -0.10361620069E+04  0.10434362702E+04  0.41800000000E+01 0.  1.
        -11    1    1    2    0    0  0.38464812256E+02  0.58662224525E+02 -0.11133033437E+03  0.13158739195E+03  0.00000000000E+00 0. -1.
         11    1    1    2    0    0  0.46242740173E+02 -0.75617613024E+01 -0.69752982357E+01  0.47373262904E+02  0.00000000000E+00 0.  1.
</event>
<event>
 7    1  0.2670433E-009  0.8665558E+02  0.7561462E-02  0.1311159E+00
          1   -1    0    0  501    0  0.00000000000E+00  0.00000000000E+00  0.98451189058E+02  0.98451189058E+02  0.00000000000E+00 0. -1.
         -1   -1    0    0    0  501 -0.00000000000E+00 -0.00000000000E+00 -0.14037000697E+03  0.14037000697E+03  0.00000000000E+00 0.  1.
         25    2    1    2    0    0 -0.15832101291E+02  0.41077797507E+01  0.19008543534E+02  0.12757498204E+03  0.12508605850E+03 0.  0.
          5    1    3    3  502    0 -0.21833877500E+02  0.46587441532E+02  0.52017575814E+02  0.73283071093E+02  0.41800000000E+01 0.  1.
         -5    1    3    3    0  502  0.60017762095E+01 -0.42479661781E+02 -0.33009032280E+02  0.54291910951E+02  0.41800000000E+01 0.  1.
        -11    1    1    2    0    0  0.26969194844E+02  0.31389185526E+02 -0.61394884053E+02  0.74040193317E+02  0.00000000000E+00 0.  1.
         11    1    1    2    0    0 -0.11137093553E+02 -0.35496965276E+02  0.46752260551E+00  0.37206020669E+02  0.00000000000E+00 0. -1.
</event>
<event>
 7    1  0.2670433E-009  0.1089154E+03  0.7561462E-02  0.1262592E+00
         -1   -1    0    0    0  501 -0.00000000000E+00  0.00000000000E+00  0.25582878877E+03  0.25582878877E+03  0.00000000000E+00 0.  1.
          1   -1    0    0  501    0  0.00000000000E+00 -0.00000000000E+00 -0.65640859563E+02  0.65640859563E+02  0.00000000000E+00 0. -1.
         25    2    1    2    0    0  0.63464736693E+02 -0.56037233422E+02  0.81072239625E+02  0.17142544039E+03  0.12508408869E+03 0.  0.
          5    1    3    3  502    0  0.16481684789E+02 -0.74502488373E+02  0.92007849816E+02  0.11960427892E+03  0.41800000000E+01 0.  1.
         -5    1    3    3    0  502  0.46983051905E+02  0.18465254951E+02 -0.10935610191E+02  0.51821161478E+02  0.41800000000E+01 0.  1.
        -11    1    1    2    0    0 -0.29717186465E+02  0.47363156156E+02  0.99105269367E+02  0.11379030780E+03  0.00000000000E+00 0.  1.
         11    1    1    2    0    0 -0.33747550229E+02  0.86740772655E+01  0.10010420219E+02  0.36253900146E+02  0.00000000000E+00 0. -1.
</event>
<event>
 7    1  0.2670433E-009  0.1077700E+03  0.7561462E-02  0.1264756E+00
         -1   -1    0    0    0  501 -0.00000000000E+00  0.00000000000E+00  0.97558279085E+01  0.97558279085E+01  0.00000000000E+00 0.  1.
          1   -1    0    0  501    0  0.00000000000E+00 -0.00000000000E+00 -0.12548018206E+04  0.12548018206E+04  0.00000000000E+00 0. -1.
         25    2    1    2    0    0 -0.19038393393E+02  0.50154309436E+01 -0.79023960372E+03  0.80032100186E+03  0.12508980677E+03 0.  0.
          5    1    3    3  502    0 -0.33167627032E+02  0.59199229974E+02 -0.35266881377E+03  0.35916208725E+03  0.41800000000E+01 0. -1.
         -5    1    3    3    0  502  0.14129233639E+02 -0.54183799030E+02 -0.43757078995E+03  0.44115891461E+03  0.41800000000E+01 0. -1.
        -11    1    1    2    0    0 -0.36108538051E+02 -0.13491896386E+01 -0.13838359662E+03  0.14302330805E+03  0.00000000000E+00 0.  1.
         11    1    1    2    0    0  0.55146931444E+02 -0.36662413051E+01 -0.31642279235E+03  0.32121333859E+03  0.00000000000E+00 0. -1.
</event>
<event>
 7    1  0.2670433E-009  0.1189187E+03  0.7561462E-02  0.1244892E+00
         -1   -1    0    0    0  501 -0.00000000000E+00  0.00000000000E+00  0.17534067106E+03  0.17534067106E+03  0.00000000000E+00 0.  1.
          1   -1    0    0  501    0  0.00000000000E+00 -0.00000000000E+00 -0.13185723858E+03  0.13185723858E+03  0.00000000000E+00 0. -1.
         25    2    1    2    0    0  0.93901001496E+02  0.24663887073E+02  0.73975882036E+02  0.17477351773E+03  0.12509055108E+03 0.  0.
          5    1    3    3  502    0  0.23185219786E+02  0.56983748777E+02  0.74756703934E+02  0.96905826576E+02  0.41800000000E+01 0. -1.
         -5    1    3    3    0  502  0.70715781710E+02 -0.32319861705E+02 -0.78082189824E+00  0.77867691158E+02  0.41800000000E+01 0. -1.
        -11    1    1    2    0    0 -0.48810168411E+02 -0.48200777984E+01  0.27580574313E+02  0.56270363156E+02  0.00000000000E+00 0.  1.
         11    1    1    2    0    0 -0.45090833085E+02 -0.19843809274E+02 -0.58073023864E+02  0.76154028754E+02  0.00000000000E+00 0. -1.
</event>
<event>
 7    1  0.2670433E-009  0.1116917E+03  0.7561462E-02  0.1257469E+00
         -1   -1    0    0    0  501 -0.00000000000E+00  0.00000000000E+00  0.94664034924E+02  0.94664034924E+02  0.00000000000E+00 0.  1.
          1   -1    0    0  501    0  0.00000000000E+00 -0.00000000000E+00 -0.26986704042E+03  0.26986704042E+03  0.00000000000E+00 0. -1.
         25    2    1    2    0    0  0.21876647590E+02  0.96358724624E+02 -0.16464412877E+03  0.22917189241E+03  0.12509386720E+03 0.  0.
          5    1    3    3  502    0  0.25702917619E+02  0.61975101275E+02 -0.68455566928E+01  0.67571348947E+02  0.41800000000E+01 0.  1.
         -5    1    3    3    0  502 -0.38262700287E+01  0.34383623350E+02 -0.15779857208E+03  0.16160054346E+03  0.41800000000E+01 0.  1.
        -11    1    1    2    0    0  0.12085560495E+01 -0.98150233541E+02 -0.32561800370E+02  0.10341759906E+03  0.00000000000E+00 0. -1.
         11    1    1    2    0    0 -0.23085203639E+02  0.17915089168E+01  0.22002923647E+02  0.31941583873E+02  0.00000000000E+00 0.  1.
</event>
<event>
 7    1  0.2670433E-009  0.1250007E+03  0.7561462E-02  0.1235068E+00
          1   -1    0    0  501    0  0.00000000000E+00  0.00000000000E+00  0.19590337428E+03  0.19590337428E+03  0.00000000000E+00 0. -1.
         -1   -1    0    0    0  501 -0.00000000000E+00 -0.00000000000E+00 -0.12124149492E+03  0.12124149492E+03  0.00000000000E+00 0.  1.
         25    2    1    2    0    0  0.42925126151E+02 -0.87503940800E+02 -0.71702376802E+01  0.15873940383E+03  0.12508908789E+03 0.  0.
          5    1    3    3  502    0  0.75788733431E+01 -0.81715348312E+02  0.46244948443E+02  0.94291596272E+02  0.41800000000E+01 0.  1.
         -5    1    3    3    0  502  0.35346252808E+02 -0.57885924881E+01 -0.53415186124E+02  0.64447807559E+02  0.41800000000E+01 0.  1.
        -11    1    1    2    0    0  0.24359040097E+02  0.42534618062E+01  0.31707028745E+02  0.40209332793E+02  0.00000000000E+00 0.  1.
         11    1    1    2    0    0 -0.67284166248E+02  0.83250478994E+02  0.50125088287E+02  0.11819613258E+03  0.00000000000E+00 0. -1.
</event>
<event>
 7    1  0.2670433E-009  0.1622813E+03  0.7561462E-02  0.1186145E+00
          2   -1    0    0  501    0  0.00000000000E+00  0.00000000000E+00  0.69126587395E+03  0.69126587395E+03  0.00000000000E+00 0. -1.
         -2   -1    0    0    0  501 -0.00000000000E+00 -0.00000000000E+00 -0.70958955224E+02  0.70958955224E+02  0.00000000000E+00 0.  1.
         25    2    1    2    0    0 -0.13591927419E+03 -0.17043288247E+02  0.88079964352E+02  0.20535396854E+03  0.12509056521E+03 0.  0.
          5    1    3    3  502    0 -0.39091302103E+02 -0.53856639054E+02 -0.38519153673E+01  0.66790546654E+02  0.41800000000E+01 0. -1.
         -5    1    3    3    0  502 -0.96827972089E+02  0.36813350806E+02  0.91931879719E+02  0.13856342189E+03  0.41800000000E+01 0. -1.
        -11    1    1    2    0    0  0.93028880559E+02  0.44663143709E+02  0.25678899001E+03  0.27674854004E+03  0.00000000000E+00 0.  1.
         11    1    1    2    0    0  0.42890393633E+02 -0.27619855461E+02  0.27543796436E+03  0.28012232059E+03  0.00000000000E+00 0. -1.
</event>
<event>
 7    1  0.2670433E-009  0.2526517E+03  0.7561462E-02  0.1111640E+00
          2   -1    0    0  501    0  0.00000000000E+00  0.00000000000E+00  0.20859622735E+03  0.20859622735E+03  0.00000000000E+00 0. -1.
         -2   -1    0    0    0  501 -0.00000000000E+00 -0.00000000000E+00 -0.35482879690E+03  0.35482879690E+03  0.00000000000E+00 0.  1.
         25    2    1    2    0    0 -0.23359956833E+03  0.74257534724E+02 -0.29198024837E+02  0.27673318661E+03  0.12508314087E+03 0.  0.
          5    1    3    3  502    0 -0.43846795715E+02 -0.18182293898E+02 -0.44324476311E+02  0.65078943646E+02  0.41800000000E+01 0. -1.
         -5    1    3    3    0  502 -0.18975277262E+03  0.92439828622E+02  0.15126451474E+02  0.21165424297E+03  0.41800000000E+01 0. -1.
        -11    1    1    2    0    0  0.18438312321E+03 -0.46999727804E+02 -0.45426891903E+02  0.19562646305E+03  0.00000000000E+00 0.  1.
         11    1    1    2    0    0  0.49216445124E+02 -0.27257806920E+02 -0.71607652805E+02  0.91065374589E+02  0.00000000000E+00 0. -1.
</event>
<event>
 7    1  0.2670433E-009  0.9549380E+02  0.7561462E-02  0.1290068E+00
         -1   -1    0    0    0  501 -0.00000000000E+00  0.00000000000E+00  0.99714823626E+02  0.99714823626E+02  0.00000000000E+00 0. -1.
          1   -1    0    0  501    0  0.00000000000E+00 -0.00000000000E+00 -0.18352711188E+03  0.18352711188E+03  0.00000000000E+00 0.  1.
         25    2    1    2    0    0 -0.72084555427E+02 -0.35399892865E+02 -0.35376434752E+02  0.15280088578E+03  0.12508910030E+03 0.  0.
          5    1    3    3  502    0 -0.32022463915E+02  0.23597220979E+01  0.44908197128E+02  0.55364474646E+02  0.41800000000E+01 0.  1.
         -5    1    3    3    0  502 -0.40062091512E+02 -0.37759614963E+02 -0.80284631880E+02  0.97436411134E+02  0.41800000000E+01 0.  1.
        -11    1    1    2    0    0 -0.10241382224E+02 -0.53309933556E+01 -0.35934057790E+02  0.37743369077E+02  0.00000000000E+00 0.  1.
         11    1    1    2    0    0  0.82325937651E+02  0.40730886221E+02 -0.12501795715E+02  0.92697680654E+02  0.00000000000E+00 0. -1.
</event>
<event>
 7    1  0.2670433E-009  0.1000228E+03  0.7561462E-02  0.1280248E+00
          2   -1    0    0  501    0  0.00000000000E+00  0.00000000000E+00  0.42267105785E+03  0.42267105785E+03  0.00000000000E+00 0. -1.
         -2   -1    0    0    0  501 -0.00000000000E+00 -0.00000000000E+00 -0.32442917102E+02  0.32442917102E+02  0.00000000000E+00 0.  1.
         25    2    1    2    0    0 -0.90352380884E+01  0.37955740716E+01  0.13396863232E+03  0.18355274762E+03  0.12509186546E+03 0.  0.
          5    1    3    3  502    0  0.54183946332E+02  0.80843207294E+01  0.92888728830E+02  0.10792147435E+03  0.41800000000E+01 0.  1.
         -5    1    3    3    0  502 -0.63219184420E+02 -0.42887466578E+01  0.41079903488E+02  0.75631273275E+02  0.41800000000E+01 0.  1.
        -11    1    1    2    0    0  0.45244259912E+02 -0.36493782587E+01  0.19661026412E+03  0.20178195404E+03  0.00000000000E+00 0. -1.
         11    1    1    2    0    0 -0.36209021823E+02 -0.14619581287E+00  0.59649244310E+02  0.69779273294E+02  0.00000000000E+00 0.  1.
</event>
<event>
 7    1  0.2670433E-009  0.9288068E+02  0.7561462E-02  0.1296022E+00
          1   -1    0    0  501    0  0.00000000000E+00  0.00000000000E+00  0.52721166024E+02  0.52721166024E+02  0.00000000000E+00 0. -1.
         -1   -1    0    0    0  501 -0.00000000000E+00 -0.00000000000E+00 -0.28401321638E+03  0.28401321638E+03  0.00000000000E+00 0.  1.
         25    2    1    2    0    0 -0.45342549652E+02 -0.21589547624E+02 -0.94076991482E+02  0.16437846127E+03  0.12509093823E+03 0.  0.
          5    1    3    3  502    0 -0.79322476319E+02 -0.12571077049E+02 -0.20908640848E+02  0.83094710359E+02  0.41800000000E+01 0. -1.
         -5    1    3    3    0  502  0.33979926667E+02 -0.90184705749E+01 -0.73168350635E+02  0.81283750913E+02  0.41800000000E+01 0. -1.
        -11    1    1    2    0    0  0.51212580803E+02  0.39718545599E+01 -0.14376409407E+03  0.15266505430E+03  0.00000000000E+00 0.  1.
         11    1    1    2    0    0 -0.58700311514E+01  0.17617693064E+02  0.65490351942E+01  0.19690866832E+02  0.00000000000E+00 0. -1.
</event>
<event>
 7    1  0.2670433E-009  0.6731641E+02  0.7561462E-02  0.1369464E+00
         -2   -1    0    0    0  501 -0.00000000000E+00  0.00000000000E+00  0.85760843426E+02  0.85760843426E+02  0.00000000000E+00 0.  1.
          2   -1    0    0  501    0  0.00000000000E+00 -0.00000000000E+00 -0.38759107888E+03  0.38759107888E+03  0.00000000000E+00 0. -1.
         25    2    1    2    0    0  0.17140579016E+02  0.51481719765E+02 -0.33530524009E+03  0.36196796255E+03  0.12508810880E+03 0.  0.
          5    1    3    3  502    0  0.19962422289E+02 -0.31455961421E+01 -0.29023747449E+03  0.29097019964E+03  0.41800000000E+01 0. -1.
         -5    1    3    3    0  502 -0.28218432725E+01  0.54627315907E+02 -0.45067765596E+02  0.70997762912E+02  0.41800000000E+01 0. -1.
        -11    1    1    2    0    0 -0.17651473332E+02 -0.16535444528E+02 -0.30233953318E+02  0.38718049663E+02  0.00000000000E+00 0. -1.
         11    1    1    2    0    0  0.51089431543E+00 -0.34946275236E+02  0.63708957953E+02  0.72665910091E+02  0.00000000000E+00 0.  1.
</event>
<event>
 7    1  0.2870922E-009  0.1111365E+03  0.7561462E-02  0.1258480E+00
          1   -1    0    0  501    0  0.00000000000E+00  0.00000000000E+00  0.61544043255E+03  0.61544043255E+03  0.00000000000E+00 0. -1.
         -1   -1    0    0    0  501 -0.00000000000E+00 -0.00000000000E+00 -0.30942072311E+02  0.30942072311E+02  0.00000000000E+00 0.  1.
         25    2    1    2    0    0  0.46982521235E+02 -0.70328288643E+02  0.33161243526E+03  0.36437322007E+03  0.12509041050E+03 0.  0.
          5    1    3    3  502    0  0.23548214645E+02 -0.86781331347E+02  0.11601056813E+03  0.14683814968E+03  0.41800000000E+01 0.  1.
         -5    1    3    3    0  502  0.23434306590E+02  0.16453042704E+02  0.21560186714E+03  0.21753507040E+03  0.41800000000E+01 0.  1.
        -11    1    1    2    0    0 -0.34450510920E+02  0.27179565129E+01  0.21680716906E+02  0.40795569316E+02  0.00000000000E+00 0.  1.
         11    1    1    2    0    0 -0.12532010315E+02  0.67610332130E+02  0.23120520807E+03  0.24121371547E+03  0.00000000000E+00 0. -1.
</event>
<event>
 7    1  0.2670433E-009  0.1414662E+03  0.7561462E-02  0.1211370E+00
         -1   -1    0    0    0  501 -0.00000000000E+00  0.00000000000E+00  0.31697118994E+02  0.31697118994E+02  0.00000000000E+00 0.  1.
          1   -1    0    0  501    0  0.00000000000E+00 -0.00000000000E+00 -0.11088164114E+04  0.11088164114E+04  0.00000000000E+00 0. -1.
         25    2    1    2    0    0  0.11937556171E+03 -0.36478200878E+02 -0.84493315352E+03  0.86321577519E+03  0.12509299239E+03 0.  0.
          5    1    3    3  502    0  0.10776155337E+03 -0.48782868810E+01 -0.33089523314E+03  0.34805958942E+03  0.41800000000E+01 0.  1.
         -5    1    3    3    0  502  0.11614008336E+02 -0.31599913997E+02 -0.51403792038E+03  0.51515618578E+03  0.41800000000E+01 0.  1.
        -11    1    1    2    0    0 -0.39764810920E+02 -0.18949247266E+02 -0.12597665852E+03  0.13345573293E+03  0.00000000000E+00 0.  1.
         11    1    1    2    0    0 -0.79610750789E+02  0.55427448144E+02 -0.10620948031E+03  0.14384202222E+03  0.00000000000E+00 0. -1.
</event>
<event>
 7    1  0.2670433E-009  0.5879658E+02  0.7561462E-02  0.1402952E+00
          2   -1    0    0  501    0  0.00000000000E+00  0.00000000000E+00  0.51789487015E+03  0.51789487015E+03  0.00000000000E+00 0. -1.
         -2   -1    0    0    0  501 -0.00000000000E+00 -0.00000000000E+00 -0.26345575918E+02  0.26345575918E+02  0.00000000000E+00 0.  1.
         25    2    1    2    0    0 -0.21978087461E+02 -0.34769923061E+02  0.31072023906E+03  0.33747148402E+03  0.12509177307E+03 0.  0.
          5    1    3    3  502    0 -0.33068647814E+02 -0.25446074714E+02  0.31798122963E+03  0.32073442750E+03  0.41800000000E+01 0. -1.
         -5    1    3    3    0  502  0.11090560353E+02 -0.93238483467E+01 -0.72609905734E+01  0.16737056522E+02  0.41800000000E+01 0. -1.
        -11    1    1    2    0    0 -0.10472408114E+02 -0.28924072198E+01 -0.66985772190E+01  0.12763553110E+02  0.00000000000E+00 0.  1.
         11    1    1    2    0    0  0.32450495575E+02  0.37662330281E+02  0.18752763239E+03  0.19400540893E+03  0.00000000000E+00 0. -1.
</event>
<event>
 7    1  0.2670433E-009  0.1042669E+03  0.7561462E-02  0.1271571E+00
         -1   -1    0    0    0  501 -0.00000000000E+00  0.00000000000E+00  0.31418195510E+02  0.31418195510E+02  0.00000000000E+00 0.  1.
          1   -1    0    0  501    0  0.00000000000E+00 -0.00000000000E+00 -0.42338688142E+03  0.42338688142E+03  0.00000000000E+00 0. -1.
         25    2    1    2    0    0  0.51123353986E+02 -0.35755002767E+02 -0.20721857629E+03  0.24996148388E+03  0.12509671265E+03 0.  0.
          5    1    3    3  502    0  0.82135026064E+02 -0.46067493080E+02 -0.98406579463E+02  0.13627070010E+03  0.41800000000E+01 0. -1.
         -5    1    3    3    0  502 -0.31011672077E+02  0.10312490313E+02 -0.10881199683E+03  0.11369078378E+03  0.41800000000E+01 0. -1.
        -11    1    1    2    0    0 -0.62029867649E+02  0.28831873936E+02 -0.11418654871E+03  0.13310728508E+03  0.00000000000E+00 0.  1.
         11    1    1    2    0    0  0.10906513663E+02  0.69231288308E+01 -0.70563560906E+02  0.71736307967E+02  0.00000000000E+00 0. -1.
</event>
<event>
 7    1  0.2670433E-009  0.1245073E+03  0.7561462E-02  0.1235841E+00
          1   -1    0    0  501    0  0.00000000000E+00  0.00000000000E+00  0.26764862903E+02  0.26764862903E+02  0.00000000000E+00 0. -1.
         -1   -1    0    0    0  501 -0.00000000000E+00 -0.00000000000E+00 -0.62134594211E+03  0.62134594211E+03  0.00000000000E+00 0.  1.
         25    2    1    2    0    0 -0.68037393611E+02  0.11916926874E+02 -0.31706389896E+03  0.34777670427E+03  0.12509204585E+03 0.  0.
          5    1    3    3  502    0 -0.99386392268E+02 -0.47296777694E+01 -0.17565479084E+03  0.20192103101E+03  0.41800000000E+01 0. -1.
         -5    1    3    3    0  502  0.31348998657E+02  0.16646604644E+02 -0.14140910812E+03  0.14585567326E+03  0.41800000000E+01 0. -1.
        -11    1    1    2    0    0  0.37130394540E+02  0.39174815027E+02 -0.11083997702E+03  0.12328354649E+03  0.00000000000E+00 0. -1.
         11    1    1    2    0    0  0.30906999071E+02 -0.51091741901E+02 -0.16667720323E+03  0.17705055425E+03  0.00000000000E+00 0.  1.
</event>
<event>
 7    1  0.2670433E-009  0.1093042E+03  0.7561462E-02  0.1261864E+00
          2   -1    0    0  501    0  0.00000000000E+00  0.00000000000E+00  0.17153217804E+04  0.17153217804E+04  0.00000000000E+00 0.  1.
         -2   -1    0    0    0  501 -0.00000000000E+00 -0.00000000000E+00 -0.11587567716E+02  0.11587567716E+02  0.00000000000E+00 0. -1.
         25    2    1    2    0    0  0.46944425504E+01 -0.23266357246E+02  0.14568768146E+04  0.14624287865E+04  0.12507814187E+03 0.  0.
          5    1    3    3  502    0 -0.51347229123E+02  0.20910737262E+02  0.68116990560E+03  0.68343522704E+03  0.41800000000E+01 0.  1.
         -5    1    3    3    0  502  0.56041671674E+02 -0.44177094508E+02  0.77570690897E+03  0.77899355945E+03  0.41800000000E+01 0.  1.
        -11    1    1    2    0    0  0.41850734852E+02  0.13437323025E+02  0.15395251414E+03  0.16010441052E+03  0.00000000000E+00 0.  1.
         11    1    1    2    0    0 -0.46545177403E+02  0.98290342206E+01  0.92904884013E+02  0.10437615114E+03  0.00000000000E+00 0. -1.
</event>
<event>
 7    1  0.2670433E-009  0.1225118E+03  0.7561462E-02  0.1239010E+00
         -1   -1    0    0    0  501 -0.00000000000E+00  0.00000000000E+00  0.48779612869E+03  0.48779612869E+03  0.00000000000E+00 0.  1.
          1   -1    0    0  501    0  0.00000000000E+00 -0.00000000000E+00 -0.36209771399E+02  0.36209771399E+02  0.00000000000E+00 0. -1.
         25    2    1    2    0    0 -0.66624688604E+02  0.38340607999E+01  0.17550748540E+03  0.22561890415E+03  0.12508982103E+03 0.  0.
          5    1    3    3  502    0 -0.71657231802E+02 -0.43772714555E+02  0.14809689205E+03  0.17029671531E+03  0.41800000000E+01 0.  1.
         -5    1    3    3    0  502  0.50325431976E+01  0.47606775355E+02  0.27410593351E+02  0.55322188845E+02  0.41800000000E+01 0.  1.
        -11    1    1    2    0    0  0.25645372176E+02 -0.46897150264E+02  0.11976604625E+03  0.13115232995E+03  0.00000000000E+00 0. -1.
         11    1    1    2    0    0  0.40979316428E+02  0.43063089464E+02  0.15631282564E+03  0.16723466599E+03  0.00000000000E+00 0.  1.
</event>
<event>
 7    1  0.2670433E-009  0.1740065E+03  0.7561462E-02  0.1173733E+00
          2   -1    0    0  501    0  0.00000000000E+00  0.00000000000E+00  0.10808380045E+04  0.10808380045E+04  0.00000000000E+00 0.  1.
         -2   -1    0    0    0  501 -0.00000000000E+00 -0.00000000000E+00 -0.35964391941E+02  0.35964391941E+02  0.00000000000E+00 0. -1.
         25    2    1    2    0    0 -0.16313868577E+03  0.17615004263E+02  0.56906716743E+03  0.60531367304E+03  0.12507071017E+03 0.  0.
          5    1    3    3  502    0 -0.38576890217E+02  0.42811631867E+01  0.35583543334E+03  0.35797043570E+03  0.41800000000E+01 0. -1.
         -5    1    3    3    0  502 -0.12456179556E+03  0.13333841076E+02  0.21323173410E+03  0.24734323734E+03  0.41800000000E+01 0. -1.
        -11    1    1    2    0    0  0.67632494784E+02  0.33317116410E+02  0.14507187590E+03  0.16349322241E+03  0.00000000000E+00 0. -1.
         11    1    1    2    0    0  0.95506190990E+02 -0.50932120673E+02  0.33073456927E+03  0.34799550104E+03  0.00000000000E+00 0.  1.
</event>
<event>
 7    1  0.2670433E-009  0.2512869E+03  0.7561462E-02  0.1112494E+00
          2   -1    0    0  501    0  0.00000000000E+00  0.00000000000E+00  0.60527306774E+03  0.60527306774E+03  0.00000000000E+00 0. -1.
         -2   -1    0    0    0  501 -0.00000000000E+00 -0.00000000000E+00 -0.11766028747E+03  0.11766028747E+03  0.00000000000E+00 0.  1.
         25    2    1    2    0    0 -0.22060615451E+03  0.66672518555E+02  0.35364876979E+03  0.44025927419E+03  0.12509386875E+03 0.  0.
          5    1    3    3  502    0 -0.32636372844E+02 -0.33430069901E+02  0.88381723726E+02  0.10005750294E+03  0.41800000000E+01 0. -1.
         -5    1    3    3    0  502 -0.18796978167E+03  0.10010258846E+03  0.26526704607E+03  0.34020177125E+03  0.41800000000E+01 0. -1.
        -11    1    1    2    0    0  0.79583562772E+02 -0.63154725258E+02  0.25552125539E+02  0.10476150966E+03  0.00000000000E+00 0.  1.
         11    1    1    2    0    0  0.14102259174E+03 -0.35177932967E+01  0.10841188494E+03  0.17791257135E+03  0.00000000000E+00 0. -1.
</event>
<event>
 7    1  0.2670433E-009  0.1233015E+03  0.7561462E-02  0.1237748E+00
          3   -1    0    0  501    0  0.00000000000E+00  0.00000000000E+00  0.26683462936E+03  0.26683462936E+03  0.00000000000E+00 0. -1.
         -3   -1    0    0    0  501 -0.00000000000E+00 -0.00000000000E+00 -0.77398786695E+02  0.77398786695E+02  0.00000000000E+00 0.  1.
         25    2    1    2    0    0  0.54948170381E+02  0.73261873287E+02  0.87043648046E+02  0.17778886921E+03  0.12508270002E+03 0.  0.
          5    1    3    3  502    0  0.59278895544E+02 -0.56015210314E+01  0.77944792725E+02  0.98174475337E+02  0.41800000000E+01 0. -1.
         -5    1    3    3    0  502 -0.43307251627E+01  0.78863394318E+02  0.90988553209E+01  0.79614393874E+02  0.41800000000E+01 0. -1.
        -11    1    1    2    0    0  0.10910299571E+02 -0.21300315695E+02  0.74170310709E+02  0.77935698342E+02  0.00000000000E+00 0. -1.
         11    1    1    2    0    0 -0.65858469951E+02 -0.51961557591E+02  0.28221883910E+02  0.88508848502E+02  0.00000000000E+00 0.  1.
</event>
<event>
 7    1  0.2670433E-009  0.9130080E+02  0.7561462E-02  0.1299732E+00
         -4   -1    0    0    0  501 -0.00000000000E+00  0.00000000000E+00  0.40899093087E+03  0.40899093087E+03  0.00000000000E+00 0.  1.
          4   -1    0    0  501    0  0.00000000000E+00 -0.00000000000E+00 -0.34739266522E+02  0.34739266522E+02  0.00000000000E+00 0. -1.
         25    2    1    2    0    0 -0.14348650421E+02  0.46555837299E+02  0.26135182456E+03  0.29381049063E+03  0.12508596422E+03 0.  0.
          5    1    3    3  502    0  0.12504823502E+02  0.54837148649E+02  0.36521171258E+02  0.67191903031E+02  0.41800000000E+01 0.  1.
         -5    1    3    3    0  502 -0.26853473923E+02 -0.82813113500E+01  0.22483065330E+03  0.22661858760E+03  0.41800000000E+01 0.  1.
        -11    1    1    2    0    0 -0.20334075863E+01 -0.69538041355E+02  0.88809538255E+02  0.11281315538E+03  0.00000000000E+00 0.  1.
         11    1    1    2    0    0  0.16382058008E+02  0.22982204055E+02  0.24090301533E+02  0.37106551386E+02  0.00000000000E+00 0. -1.
</event>
<event>
 7    1  0.2670433E-009  0.1916453E+03  0.7561462E-02  0.1156986E+00
          4   -1    0    0  501    0  0.00000000000E+00  0.00000000000E+00  0.10756849608E+03  0.10756849608E+03  0.00000000000E+00 0. -1.
         -4   -1    0    0    0  501 -0.00000000000E+00 -0.00000000000E+00 -0.59985958699E+03  0.59985958699E+03  0.00000000000E+00 0.  1.
         25    2    1    2    0    0 -0.13307451287E+03  0.91876972578E+02 -0.26713657674E+02  0.20618248386E+03  0.12508954024E+03 0.  0.
          5    1    3    3  502    0 -0.45013560446E+02  0.10586442600E+03 -0.12389946648E+02  0.11577772019E+03  0.41800000000E+01 0.  1.
         -5    1    3    3    0  502 -0.88060952428E+02 -0.13987453419E+02 -0.14323711026E+02  0.90404763664E+02  0.41800000000E+01 0.  1.
        -11    1    1    2    0    0  0.54581679731E+02  0.43263332067E+01 -0.21122573197E+03  0.21820675234E+03  0.00000000000E+00 0.  1.
         11    1    1    2    0    0  0.78492833143E+02 -0.96203305784E+02 -0.25435170127E+03  0.28303884687E+03  0.00000000000E+00 0. -1.
</event>
<event>
 7    1  0.2670433E-009  0.1346483E+03  0.7561462E-02  0.1220717E+00
         -2   -1    0    0    0  501 -0.00000000000E+00  0.00000000000E+00  0.11638186689E+03  0.11638186689E+03  0.00000000000E+00 0.  1.
          2   -1    0    0  501    0  0.00000000000E+00 -0.00000000000E+00 -0.19948006001E+03  0.19948006001E+03  0.00000000000E+00 0. -1.
         25    2    1    2    0    0  0.10172152392E+02  0.10444666204E+03 -0.14257070446E+02  0.16389851988E+03  0.12508750084E+03 0.  0.
          5    1    3    3  502    0 -0.58850625160E+01  0.11826509261E+03  0.23132045795E+02  0.12072211907E+03  0.41800000000E+01 0. -1.
         -5    1    3    3    0  502  0.16057214908E+02 -0.13818430566E+02 -0.37389116242E+02  0.43176400814E+02  0.41800000000E+01 0. -1.
        -11    1    1    2    0    0  0.32921016161E+02 -0.47931561866E+02 -0.54010604025E+02  0.79362291267E+02  0.00000000000E+00 0. -1.
         11    1    1    2    0    0 -0.43093168553E+02 -0.56515100175E+02 -0.14830518650E+02  0.72601115743E+02  0.00000000000E+00 0.  1.
</event>
<event>
 7    1  0.2670433E-009  0.1565757E+03  0.7561462E-02  0.1192618E+00
          2   -1    0    0  501    0  0.00000000000E+00  0.00000000000E+00  0.62095039791E+03  0.62095039791E+03  0.00000000000E+00 0. -1.
         -2   -1    0    0    0  501 -0.00000000000E+00 -0.00000000000E+00 -0.58917497714E+02  0.58917497714E+02  0.00000000000E+00 0.  1.
         25    2    1    2    0    0 -0.56301621870E+02 -0.11365478634E+03  0.45820404827E+03  0.49161600787E+03  0.12509223099E+03 0.  0.
          5    1    3    3  502    0  0.35201564452E+02 -0.27166179124E+02  0.66120009716E+02  0.79790221913E+02  0.41800000000E+01 0.  1.
         -5    1    3    3    0  502 -0.91503186322E+02 -0.86488607218E+02  0.39208403856E+03  0.41182578596E+03  0.41800000000E+01 0.  1.
        -11    1    1    2    0    0  0.46259376900E+02  0.23661059055E+02  0.78651258891E+02  0.94264501228E+02  0.00000000000E+00 0.  1.
         11    1    1    2    0    0  0.10042244970E+02  0.89993727287E+02  0.25177593029E+02  0.93987386525E+02  0.00000000000E+00 0. -1.
</event>
<event>
 7    1  0.2670433E-009  0.1065949E+03  0.7561462E-02  0.1267009E+00
         -1   -1    0    0    0  501 -0.00000000000E+00  0.00000000000E+00  0.75544386097E+02  0.75544386097E+02  0.00000000000E+00 0.  1.
          1   -1    0    0  501    0  0.00000000000E+00 -0.00000000000E+00 -0.22144911570E+03  0.22144911570E+03  0.00000000000E+00 0. -1.
         25    2    1    2    0    0 -0.39915446972E+02  0.52741371875E+02 -0.11382230853E+03  0.18159640594E+03  0.12508733556E+03 0.  0.
          5    1    3    3  502    0  0.42523592804E+02  0.38673095849E+02 -0.50274687327E+02  0.76477976394E+02  0.41800000000E+01 0. -1.
         -5    1    3    3    0  502 -0.82439039776E+02  0.14068276026E+02 -0.63547621199E+02  0.10511842954E+03  0.41800000000E+01 0. -1.
        -11    1    1    2    0    0  0.14226743880E+02 -0.41337951788E+02 -0.61015090525E+02  0.75060427465E+02  0.00000000000E+00 0. -1.
         11    1    1    2    0    0  0.25688703091E+02 -0.11403420087E+02  0.28932669445E+02  0.40336668398E+02  0.00000000000E+00 0.  1.
</event>
<event>
 7    1  0.2670433E-009  0.1475296E+03  0.7561462E-02  0.1203542E+00
         -3   -1    0    0    0  501 -0.00000000000E+00  0.00000000000E+00  0.73525294316E+02  0.73525294316E+02  0.00000000000E+00 0.  1.
          3   -1    0    0  501    0  0.00000000000E+00 -0.00000000000E+00 -0.38410075703E+03  0.38410075703E+03  0.00000000000E+00 0. -1.
         25    2    1    2    0    0 -0.11235784747E+03  0.14196403972E+02 -0.98957280337E+02  0.19561563983E+03  0.12508841449E+03 0.  0.
          5    1    3    3  502    0 -0.48281134000E+02 -0.41242674486E+02 -0.90119898232E+02  0.11032268378E+03  0.41800000000E+01 0. -1.
         -5    1    3    3    0  502 -0.64076713465E+02  0.55439078458E+02 -0.88373821047E+01  0.85292956047E+02  0.41800000000E+01 0. -1.
        -11    1    1    2    0    0  0.11302717159E+03  0.17943653755E+02 -0.19429164257E+03  0.22549137146E+03  0.00000000000E+00 0. -1.
         11    1    1    2    0    0 -0.66932412666E+00 -0.32140057726E+02 -0.17326539807E+02  0.36519040063E+02  0.00000000000E+00 0.  1.
</event>
<event>
 7    1  0.2670433E-009  0.8077646E+02  0.7561462E-02  0.1326862E+00
          1   -1    0    0  501    0  0.00000000000E+00  0.00000000000E+00  0.59018206562E+02  0.59018206562E+02  0.00000000000E+00 0. -1.
         -1   -1    0    0    0  501 -0.00000000000E+00 -0.00000000000E+00 -0.27552344282E+03  0.27552344282E+03  0.00000000000E+00 0.  1.
         25    2    1    2    0    0 -0.34654908756E+02  0.52072473572E+02 -0.14786844579E+03  0.20353177729E+03  0.12509037494E+03 0.  0.
          5    1    3    3  502    0 -0.26835806412E+01  0.41910660217E+02 -0.16161672639E+03  0.16703635441E+03  0.41800000000E+01 0.  1.
         -5    1    3    3    0  502 -0.31971328114E+02  0.10161813355E+02  0.13748280598E+02  0.36495422884E+02  0.41800000000E+01 0.  1.
        -11    1    1    2    0    0  0.12731696206E+02 -0.60671378623E+02 -0.82871275913E+02  0.10349280479E+03  0.00000000000E+00 0.  1.
         11    1    1    2    0    0  0.21923212549E+02  0.85989050512E+01  0.14234485449E+02  0.27517067296E+02  0.00000000000E+00 0. -1.
</event>
<event>
 7    1  0.2670433E-009  0.1272825E+03  0.7561462E-02  0.1231545E+00
         -3   -1    0    0    0  501 -0.00000000000E+00  0.00000000000E+00  0.82447247559E+02  0.82447247559E+02  0.00000000000E+00 0.  1.
          3   -1    0    0  501    0  0.00000000000E+00 -0.00000000000E+00 -0.23602662572E+03  0.23602662572E+03  0.00000000000E+00 0. -1.
         25    2    1    2    0    0 -0.63217548777E+02 -0.60813501343E+02 -0.84643343343E+02  0.17465670058E+03  0.12508288078E+03 0.  0.
          5    1    3    3  502    0 -0.55854952314E+02  0.10388095859E+02 -0.85746814740E+02  0.10294501868E+03  0.41800000000E+01 0. -1.
         -5    1    3    3    0  502 -0.73625964622E+01 -0.71201597202E+02  0.11034713974E+01  0.71711681893E+02  0.41800000000E+01 0. -1.
        -11    1    1    2    0    0  0.49240608526E+02 -0.12872756634E+02 -0.32951169038E+02  0.60631055840E+02  0.00000000000E+00 0.  1.
         11    1    1    2    0    0  0.13976940251E+02  0.73686257977E+02 -0.35984865779E+02  0.83186116862E+02  0.00000000000E+00 0. -1.
</event>
<event>
 7    1  0.2670433E-009  0.1393368E+03  0.7561462E-02  0.1214224E+00
          1   -1    0    0  501    0  0.00000000000E+00  0.00000000000E+00  0.67583044540E+03  0.67583044540E+03  0.00000000000E+00 0. -1.
         -1   -1    0    0    0  501 -0.00000000000E+00 -0.00000000000E+00 -0.35437803743E+02  0.35437803743E+02  0.00000000000E+00 0.  1.
         25    2    1    2    0    0  0.95389824273E+02  0.29723892022E+02  0.45447916694E+03  0.48185357326E+03  0.12509526188E+03 0.  0.
          5    1    3    3  502    0  0.35760727238E+02 -0.46664149161E+02  0.22764846188E+03  0.23515455986E+03  0.41800000000E+01 0.  1.
         -5    1    3    3    0  502  0.59629097035E+02  0.76388041182E+02  0.22683070506E+03  0.24669901339E+03  0.41800000000E+01 0.  1.
        -11    1    1    2    0    0 -0.10514368253E+03 -0.16692060124E+02  0.11523123495E+03  0.15688230096E+03  0.00000000000E+00 0.  1.
         11    1    1    2    0    0  0.97538582585E+01 -0.13031831898E+02  0.70682239768E+02  0.72532374924E+02  0.00000000000E+00 0. -1.
</event>
<event>
 7    1  0.2757006E-009  0.1228907E+03  0.7561462E-02  0.1238403E+00
          2   -1    0    0  501    0  0.00000000000E+00  0.00000000000E+00  0.70153677195E+03  0.70153677195E+03  0.00000000000E+00 0. -1.
         -2   -1    0    0    0  501 -0.00000000000E+00 -0.00000000000E+00 -0.30823092818E+02  0.30823092818E+02  0.00000000000E+00 0.  1.
         25    2    1    2    0    0 -0.66932917614E+02 -0.71890866946E+02  0.33217433567E+03  0.36828690657E+03  0.12508854490E+03 0.  0.
          5    1    3    3  502    0 -0.76065783280E+02 -0.35201999877E+02  0.31599744454E+03  0.32695113019E+03  0.41800000000E+01 0. -1.
         -5    1    3    3    0  502  0.91328656659E+01 -0.36688867069E+02  0.16176891130E+02  0.41335776378E+02  0.41800000000E+01 0. -1.
        -11    1    1    2    0    0  0.51623456623E+02  0.13522189600E+01  0.76683784539E+02  0.92451136180E+02  0.00000000000E+00 0.  1.
         11    1    1    2    0    0  0.15309460992E+02  0.70538647986E+02  0.26185555893E+03  0.27162182202E+03  0.00000000000E+00 0. -1.
</event>
<event>
 7    1  0.2670433E-009  0.1716540E+03  0.7561462E-02  0.1176134E+00
         -1   -1    0    0    0  501 -0.00000000000E+00  0.00000000000E+00  0.36415807051E+02  0.36415807051E+02  0.00000000000E+00 0.  1.
          1   -1    0    0  501    0  0.00000000000E+00 -0.00000000000E+00 -0.12949103942E+04  0.12949103942E+04  0.00000000000E+00 0. -1.
         25    2    1    2    0    0 -0.13119018413E+03 -0.97191635572E+02 -0.94239373589E+03  0.96457788124E+03  0.12508979614E+03 0.  0.
          5    1    3    3  502    0 -0.53961901987E+02 -0.48955677858E+02 -0.72750718094E+03  0.73115847528E+03  0.41800000000E+01 0.  1.
         -5    1    3    3    0  502 -0.77228282140E+02 -0.48235957713E+02 -0.21488655495E+03  0.23341940596E+03  0.41800000000E+01 0.  1.
        -11    1    1    2    0    0  0.92742676563E+02  0.22901185082E+02 -0.11877484043E+03  0.15242418133E+03  0.00000000000E+00 0. -1.
         11    1    1    2    0    0  0.38447507564E+02  0.74290450490E+02 -0.19732601083E+03  0.21432413868E+03  0.00000000000E+00 0.  1.
</event>
<event>
 7    1  0.2670433E-009  0.2491554E+03  0.7561462E-02  0.1113840E+00
          1   -1    0    0  501    0  0.00000000000E+00  0.00000000000E+00  0.26201643573E+03  0.26201643573E+03  0.00000000000E+00 0. -1.
         -1   -1    0    0    0  501 -0.00000000000E+00 -0.00000000000E+00 -0.48495637804E+03  0.48495637804E+03  0.00000000000E+00 0.  1.
         25    2    1    2    0    0 -0.39586302679E+01  0.24239826381E+03  0.13597560212E+03  0.30480578648E+03  0.12507843159E+03 0.  0.
          5    1    3    3  502    0 -0.39428135911E+02  0.17479387722E+03  0.42797053626E+02  0.18427299751E+03  0.41800000000E+01 0. -1.
         -5    1    3    3    0  502  0.35469505643E+02  0.67604386595E+02  0.93178548491E+02  0.12053278897E+03  0.41800000000E+01 0. -1.
        -11    1    1    2    0    0  0.51683499568E+01 -0.61833930772E+02 -0.16937767954E+03  0.18038554588E+03  0.00000000000E+00 0.  1.
         11    1    1    2    0    0 -0.12097196889E+01 -0.18056433304E+03 -0.18953786489E+03  0.26178148142E+03  0.00000000000E+00 0. -1.
</event>
<event>
 7    1  0.2670433E-009  0.1065232E+03  0.7561462E-02  0.1267147E+00
         -1   -1    0    0    0  501 -0.00000000000E+00  0.00000000000E+00  0.25928667709E+03  0.25928667709E+03  0.00000000000E+00 0.  1.
          1   -1    0    0  501    0  0.00000000000E+00 -0.00000000000E+00 -0.93931592413E+02  0.93931592413E+02  0.00000000000E+00 0. -1.
         25    2    1    2    0    0 -0.65550699421E+02  0.20397772184E+01 -0.12850238694E+02  0.14181161991E+03  0.12507738413E+03 0.  0.
          5    1    3    3  502    0  0.22741043753E+02 -0.34904982773E+02 -0.18651530530E+02  0.45835192642E+02  0.41800000000E+01 0.  1.
         -5    1    3    3    0  502 -0.88291743174E+02  0.36944759992E+02  0.58012918366E+01  0.95976427265E+02  0.41800000000E+01 0.  1.
        -11    1    1    2    0    0  0.21359920631E+02 -0.18462527674E+02  0.15733805459E+03  0.15985110122E+03  0.00000000000E+00 0.  1.
         11    1    1    2    0    0  0.44190778790E+02  0.16422750456E+02  0.20867268782E+02  0.51555548383E+02  0.00000000000E+00 0. -1.
</event>
<event>
 7    1  0.2670433E-009  0.1179650E+03  0.7561462E-02  0.1246492E+00
          2   -1    0    0  501    0  0.00000000000E+00  0.00000000000E+00  0.71084460445E+03  0.71084460445E+03  0.00000000000E+00 0. -1.
         -2   -1    0    0    0  501 -0.00000000000E+00 -0.00000000000E+00 -0.24848093160E+02  0.24848093160E+02  0.00000000000E+00 0.  1.
         25    2    1    2    0    0 -0.24670216887E+02  0.70544060814E+02  0.43031068343E+03  0.45431291793E+03  0.12509140261E+03 0.  0.
          5    1    3    3  502    0 -0.31583010874E+02  0.96686242280E+02  0.22217991590E+03  0.24439129168E+03  0.41800000000E+01 0. -1.
         -5    1    3    3    0  502  0.69127939868E+01 -0.26142181466E+02  0.20813076754E+03  0.20992162625E+03  0.41800000000E+01 0. -1.
        -11    1    1    2    0    0  0.46584760107E+02 -0.18185184067E+02  0.17973880739E+03  0.18656601962E+03  0.00000000000E+00 0. -1.
         11    1    1    2    0    0 -0.21914543220E+02 -0.52358876747E+02  0.75947020463E+02  0.94813760056E+02  0.00000000000E+00 0.  1.
</event>
<event>
 7    1  0.2670433E-009  0.1090236E+03  0.7561462E-02  0.1262389E+00
          1   -1    0    0  501    0  0.00000000000E+00  0.00000000000E+00  0.83573872423E+02  0.83573872423E+02  0.00000000000E+00 0. -1.
         -1   -1    0    0    0  501 -0.00000000000E+00 -0.00000000000E+00 -0.15336883094E+03  0.15336883094E+03  0.00000000000E+00 0.  1.
         25    2    1    2    0    0 -0.14896911094E+00 -0.20863266012E+02 -0.65452403728E+02  0.14272446794E+03  0.12510379105E+03 0.  0.
          5    1    3    3  502    0  0.54499160324E+02  0.19177596177E+02 -0.39226219364E+02  0.69957897029E+02  0.41800000000E+01 0.  1.
         -5    1    3    3    0  502 -0.54648129435E+02 -0.40040862188E+02 -0.26226184364E+02  0.72766570908E+02  0.41800000000E+01 0.  1.
        -11    1    1    2    0    0 -0.71007589152E+01  0.55959383023E+02 -0.11761635442E+02  0.57621258175E+02  0.00000000000E+00 0. -1.
         11    1    1    2    0    0  0.72497280261E+01 -0.35096117011E+02  0.74190806578E+01  0.36596977246E+02  0.00000000000E+00 0.  1.
</event>
<event>
 7    1  0.2670433E-009  0.4061400E+03  0.7561462E-02  0.1041674E+00
         -1   -1    0    0    0  501 -0.00000000000E+00  0.00000000000E+00  0.17688009302E+03  0.17688009302E+03  0.00000000000E+00 0.  1.
          1   -1    0    0  501    0  0.00000000000E+00 -0.00000000000E+00 -0.10588404793E+04  0.10588404793E+04  0.00000000000E+00 0. -1.
         25    2    1    2    0    0  0.39681432584E+03 -0.69257599193E+02 -0.28231124216E+03  0.50754704020E+03  0.12508451673E+03 0.  0.
          5    1    3    3  502    0  0.21073646325E+03 -0.21279957913E+02 -0.22017486911E+03  0.30554400491E+03  0.41800000000E+01 0.  1.
         -5    1    3    3    0  502  0.18607786259E+03 -0.47977641280E+02 -0.62136373059E+02  0.20200303529E+03  0.41800000000E+01 0.  1.
        -11    1    1    2    0    0 -0.62044687788E+02  0.36177386584E+02 -0.67194106715E+02  0.98353416616E+02  0.00000000000E+00 0.  1.
         11    1    1    2    0    0 -0.33476963805E+03  0.33080212609E+02 -0.53245503737E+03  0.62982011547E+03  0.00000000000E+00 0. -1.
</event>
<event>
 7    1  0.2670433E-009  0.1330093E+03  0.7561462E-02  0.1223058E+00
         -2   -1    0    0    0  501 -0.00000000000E+00  0.00000000000E+00  0.33654299151E+02  0.33654299151E+02  0.00000000000E+00 0.  1.
          2   -1    0    0  501    0  0.00000000000E+00 -0.00000000000E+00 -0.53798655835E+03  0.53798655835E+03  0.00000000000E+00 0. -1.
         25    2    1    2    0    0  0.67029076655E+02  0.56272636853E+00 -0.27209381067E+03  0.30688100112E+03  0.12509074012E+03 0.  0.
          5    1    3    3  502    0 -0.24861346401E+02 -0.34258720932E+02 -0.99872246649E+02  0.10855268101E+03  0.41800000000E+01 0. -1.
         -5    1    3    3    0  502  0.91890423056E+02  0.34821447301E+02 -0.17222156402E+03  0.19832832010E+03  0.41800000000E+01 0. -1.
        -11    1    1    2    0    0 -0.25089259819E+02  0.52087604138E+02 -0.13094082477E+03  0.14313660976E+03  0.00000000000E+00 0. -1.
         11    1    1    2    0    0 -0.41939816836E+02 -0.52650330507E+02 -0.10129762376E+03  0.12162324662E+03  0.00000000000E+00 0.  1.
</event>
<event>
 7    1  0.2670433E-009  0.1710826E+03  0.7561462E-02  0.1176724E+00
          1   -1    0    0  501    0  0.00000000000E+00  0.00000000000E+00  0.18264787408E+04  0.18264787408E+04  0.00000000000E+00 0. -1.
         -1   -1    0    0    0  501 -0.00000000000E+00 -0.00000000000E+00 -0.32259582439E+02  0.32259582439E+02  0.00000000000E+00 0.  1.
         25    2    1    2    0    0  0.14164455367E+03  0.31026679791E+02  0.15123125299E+04  0.15243892347E+04  0.12509003261E+03 0.  0.
          5    1    3    3  502    0  0.14917752686E+03  0.22787261706E+02  0.94753618449E+03  0.95948709587E+03  0.41800000000E+01 0.  1.
         -5    1    3    3    0  502 -0.75329731946E+01  0.82394180844E+01  0.56477634540E+03  0.56490213880E+03  0.41800000000E+01 0.  1.
        -11    1    1    2    0    0 -0.25785252564E+01  0.28061788603E+02  0.53872392707E+02  0.60797594262E+02  0.00000000000E+00 0.  1.
         11    1    1    2    0    0 -0.13906602841E+03 -0.59088468394E+02  0.22803423572E+03  0.27355149427E+03  0.00000000000E+00 0. -1.
</event>
<event>
 7    1  0.2670433E-009  0.1887320E+03  0.7561462E-02  0.1159610E+00
          1   -1    0    0  501    0  0.00000000000E+00  0.00000000000E+00  0.27170393278E+03  0.27170393278E+03  0.00000000000E+00 0. -1.
         -1   -1    0    0    0  501 -0.00000000000E+00 -0.00000000000E+00 -0.13492835707E+03  0.13492835707E+03  0.00000000000E+00 0.  1.
         25    2    1    2    0    0  0.14457303807E+03  0.54364170882E+02  0.68268003556E+02  0.21014962196E+03  0.12508204062E+03 0.  0.
          5    1    3    3  502    0  0.15401664754E+03  0.13272264638E+02  0.41805627160E+02  0.16019507979E+03  0.41800000000E+01 0.  1.
         -5    1    3    3    0  502 -0.94436094648E+01  0.41091906244E+02  0.26462376396E+02  0.49954542166E+02  0.41800000000E+01 0.  1.
        -11    1    1    2    0    0 -0.43725554550E+02  0.26549937311E+02  0.22632417875E+01  0.51204936825E+02  0.00000000000E+00 0.  1.
         11    1    1    2    0    0 -0.10084748352E+03 -0.80914108193E+02  0.66244330365E+02  0.14527773106E+03  0.00000000000E+00 0. -1.
</event>
<event>
 7    1  0.2670433E-009  0.1353016E+03  0.7561462E-02  0.1219795E+00
         -2   -1    0    0    0  501 -0.00000000000E+00  0.00000000000E+00  0.19451928605E+03  0.19451928605E+03  0.00000000000E+00 0.  1.
          2   -1    0    0  501    0  0.00000000000E+00 -0.00000000000E+00 -0.16773707595E+03  0.16773707595E+03  0.00000000000E+00 0. -1.
         25    2    1    2    0    0 -0.91962280506E+02  0.33110642381E+02  0.11976866750E+03  0.19886040428E+03  0.12509017147E+03 0.  0.
          5    1    3    3  502    0  0.11717539613E+02  0.32835473117E+02  0.80658543966E+02  0.87970120746E+02  0.41800000000E+01 0. -1.
         -5    1    3    3    0  502 -0.10367982012E+03  0.27516926444E+00  0.39110123536E+02  0.11089028353E+03  0.41800000000E+01 0. -1.
        -11    1    1    2    0    0  0.18249600136E+02 -0.52436588425E+02 -0.55374055209E+02  0.78415111433E+02  0.00000000000E+00 0.  1.
         11    1    1    2    0    0  0.73712680370E+02  0.19325946044E+02 -0.37612402191E+02  0.84980846291E+02  0.00000000000E+00 0. -1.
</event>
<event>
 7    1  0.2670433E-009  0.8783696E+02  0.7561462E-02  0.1308176E+00
          2   -1    0    0  501    0  0.00000000000E+00  0.00000000000E+00  0.48158701517E+02  0.48158701517E+02  0.00000000000E+00 0. -1.
         -2   -1    0    0    0  501 -0.00000000000E+00 -0.00000000000E+00 -0.27292123757E+03  0.27292123757E+03  0.00000000000E+00 0.  1.
         25    2    1    2    0    0  0.33037061514E+02 -0.54423418733E+01 -0.10883230707E+03  0.16915451283E+03  0.12509081353E+03 0.  0.
          5    1    3    3  502    0  0.33108594482E+02 -0.34781836788E+02  0.77884398445E+01  0.48827117405E+02  0.41800000000E+01 0. -1.
         -5    1    3    3    0  502 -0.71532967856E-01  0.29339494914E+02 -0.11662074692E+03  0.12032739543E+03  0.41800000000E+01 0. -1.
        -11    1    1    2    0    0 -0.95793666926E+01  0.48158950230E+02 -0.64636545842E+02  0.81172235474E+02  0.00000000000E+00 0.  1.
         11    1    1    2    0    0 -0.23457694821E+02 -0.42716608357E+02 -0.51293683137E+02  0.70753190781E+02  0.00000000000E+00 0. -1.
</event>
<event>
 7    1  0.2670433E-009  0.1027027E+03  0.7561462E-02  0.1274713E+00
          2   -1    0    0  501    0  0.00000000000E+00  0.00000000000E+00  0.62042699780E+03  0.62042699780E+03  0.00000000000E+00 0. -1.
         -2   -1    0    0    0  501 -0.00000000000E+00 -0.00000000000E+00 -0.21056227609E+02  0.21056227609E+02  0.00000000000E+00 0.  1.
         25    2    1    2    0    0  0.35638032074E+02  0.26008433252E+02  0.32954713176E+03  0.35524016127E+03  0.12509097569E+03 0.  0.
          5    1    3    3  502    0 -0.37120367971E+02  0.16579060845E+02  0.42605245812E+02  0.59037838269E+02  0.41800000000E+01 0.  1.
         -5    1    3    3    0  502  0.72758400045E+02  0.94293724075E+01  0.28694188594E+03  0.29620232300E+03  0.41800000000E+01 0.  1.
        -11    1    1    2    0    0 -0.60903989236E+02 -0.24788254167E+02  0.15001688831E+03  0.16379505557E+03  0.00000000000E+00 0. -1.
         11    1    1    2    0    0  0.25265957162E+02 -0.12201790854E+01  0.11980675012E+03  0.12244800857E+03  0.00000000000E+00 0.  1.
</event>
<event>
 7    1  0.2670433E-009  0.1321123E+03  0.7561462E-02  0.1224355E+00
          2   -1    0    0  501    0  0.00000000000E+00  0.00000000000E+00  0.63755835985E+03  0.63755835985E+03  0.00000000000E+00 0. -1.
         -2   -1    0    0    0  501 -0.00000000000E+00 -0.00000000000E+00 -0.33505165186E+02  0.33505165186E+02  0.00000000000E+00 0.  1.
         25    2    1    2    0    0  0.66588287344E+02 -0.66178031122E+02  0.27112093426E+03  0.31299807454E+03  0.12509077445E+03 0.  0.
          5    1    3    3  502    0  0.95591613517E+02 -0.22829723735E+02  0.13397435708E+03  0.16620936681E+03  0.41800000000E+01 0.  1.
         -5    1    3    3    0  502 -0.29003326173E+02 -0.43348307388E+02  0.13714657718E+03  0.14678870773E+03  0.41800000000E+01 0.  1.
        -11    1    1    2    0    0 -0.70262909723E+01  0.51780427427E+02  0.65957114384E+02  0.84148216660E+02  0.00000000000E+00 0.  1.
         11    1    1    2    0    0 -0.59561996372E+02  0.14397603696E+02  0.26697514602E+03  0.27391723384E+03  0.00000000000E+00 0. -1.
</event>
<event>
 7    1  0.2670433E-009  0.6942440E+02  0.7561462E-02  0.1362061E+00
         -2   -1    0    0    0  501 -0.00000000000E+00  0.00000000000E+00  0.51023151108E+02  0.51023151108E+02  0.00000000000E+00 0. -1.
          2   -1    0    0  501    0  0.00000000000E+00 -0.00000000000E+00 -0.23339446303E+03  0.23339446303E+03  0.00000000000E+00 0.  1.
         25    2    1    2    0    0  0.84079248337E+01 -0.44497310523E+01 -0.12721350900E+03  0.17866595421E+03  0.12509097896E+03 0.  0.
          5    1    3    3  502    0  0.28223599117E+02 -0.66515553380E+01  0.16427287030E+02  0.33587838494E+02  0.41800000000E+01 0.  1.
         -5    1    3    3    0  502 -0.19815674283E+02  0.22018242857E+01 -0.14364079603E+03  0.14507811572E+03  0.41800000000E+01 0.  1.
        -11    1    1    2    0    0  0.17992499765E+01  0.46182878279E+02 -0.20537593912E+02  0.50575570291E+02  0.00000000000E+00 0.  1.
         11    1    1    2    0    0 -0.10207174810E+02 -0.41733147227E+02 -0.34620209014E+02  0.55176089633E+02  0.00000000000E+00 0. -1.
</event>
<event>
 7    1  0.2670433E-009  0.2179457E+03  0.7561462E-02  0.1135424E+00
         -3   -1    0    0    0  501 -0.00000000000E+00  0.00000000000E+00  0.16514367948E+03  0.16514367948E+03  0.00000000000E+00 0.  1.
          3   -1    0    0  501    0  0.00000000000E+00 -0.00000000000E+00 -0.30903153696E+03  0.30903153696E+03  0.00000000000E+00 0. -1.
         25    2    1    2    0    0  0.15337264363E+03 -0.11945976671E+03 -0.11168962397E+03  0.25674261488E+03  0.12509354305E+03 0.  0.
          5    1    3    3  502    0  0.30560692504E+02 -0.10082443070E+03 -0.37009773193E+02  0.11174398178E+03  0.41800000000E+01 0. -1.
         -5    1    3    3    0  502  0.12281195113E+03 -0.18635336012E+02 -0.74679850777E+02  0.14499863310E+03  0.41800000000E+01 0. -1.
        -11    1    1    2    0    0 -0.14308839652E+03  0.77024613318E+02  0.11240562215E+01  0.16250644226E+03  0.00000000000E+00 0. -1.
         11    1    1    2    0    0 -0.10284247116E+02  0.42435153391E+02 -0.33322289740E+02  0.54926159301E+02  0.00000000000E+00 0.  1.
</event>
<event>
 7    1  0.2710511E-009  0.1071088E+03  0.7561462E-02  0.1266020E+00
          1   -1    0    0  501    0  0.00000000000E+00  0.00000000000E+00  0.89298158790E+03  0.89298158790E+03  0.00000000000E+00 0. -1.
         -1   -1    0    0    0  501 -0.00000000000E+00 -0.00000000000E+00 -0.13958079702E+02  0.13958079702E+02  0.00000000000E+00 0.  1.
         25    2    1    2    0    0 -0.18578635071E+02  0.19131156287E+02  0.50500256165E+03  0.52094769538E+03  0.12509095581E+03 0.  0.
          5    1    3    3  502    0 -0.94348338964E+01 -0.50936960140E+02  0.14451787817E+03  0.15357890321E+03  0.41800000000E+01 0. -1.
         -5    1    3    3    0  502 -0.91438011744E+01  0.70068116426E+02  0.36048468347E+03  0.36736879217E+03  0.41800000000E+01 0. -1.
        -11    1    1    2    0    0  0.29092800875E+02 -0.50552524843E+02  0.18152874325E+03  0.19066891057E+03  0.00000000000E+00 0. -1.
         11    1    1    2    0    0 -0.10514165804E+02  0.31421368556E+02  0.19249220330E+03  0.19532306166E+03  0.00000000000E+00 0.  1.
</event>
<event>
 7    1  0.3031284E-009  0.1346769E+03  0.7561462E-02  0.1220677E+00
          1   -1    0    0  501    0  0.00000000000E+00  0.00000000000E+00  0.97763754809E+03  0.97763754809E+03  0.00000000000E+00 0. -1.
         -1   -1    0    0    0  501 -0.00000000000E+00 -0.00000000000E+00 -0.30356044384E+02  0.30356044384E+02  0.00000000000E+00 0.  1.
         25    2    1    2    0    0 -0.32018803081E+02  0.92405611018E+02  0.76791282461E+03  0.78415720585E+03  0.12509363126E+03 0.  0.
          5    1    3    3  502    0  0.18511325765E+02 -0.24679448855E+02  0.15936342726E+03  0.16237585635E+03  0.41800000000E+01 0. -1.
         -5    1    3    3    0  502 -0.50530128846E+02  0.11708505987E+03  0.60854939736E+03  0.62178134950E+03  0.41800000000E+01 0. -1.
        -11    1    1    2    0    0  0.52782869077E+01 -0.81628761733E+02  0.17690452105E+03  0.19490080713E+03  0.00000000000E+00 0. -1.
         11    1    1    2    0    0  0.26740516173E+02 -0.10776849285E+02  0.24641580505E+01  0.28935579493E+02  0.00000000000E+00 0.  1.
</event>
<event>
 7    1  0.2670433E-009  0.1005831E+03  0.7561462E-02  0.1279075E+00
          4   -1    0    0  501    0  0.00000000000E+00  0.00000000000E+00  0.78379912740E+02  0.78379912740E+02  0.00000000000E+00 0. -1.
         -4   -1    0    0    0  501 -0.00000000000E+00 -0.00000000000E+00 -0.22807641392E+03  0.22807641392E+03  0.00000000000E+00 0.  1.
         25    2    1    2    0    0  0.59167438756E+02  0.42653471539E+02 -0.11504417349E+03  0.18493716192E+03  0.12508592071E+03 0.  0.
          5    1    3    3  502    0  0.82659398303E+02  0.20740742272E+02 -0.24500241642E+02  0.88772117010E+02  0.41800000000E+01 0.  1.
         -5    1    3    3    0  502 -0.23491959548E+02  0.21912729267E+02 -0.90543931852E+02  0.96165044910E+02  0.41800000000E+01 0.  1.
        -11    1    1    2    0    0 -0.49632601555E+01 -0.26392253543E+02  0.26827420148E+02  0.37959128945E+02  0.00000000000E+00 0. -1.
         11    1    1    2    0    0 -0.54204178600E+02 -0.16261217996E+02 -0.61479747831E+02  0.83560035793E+02  0.00000000000E+00 0.  1.
</event>
<event>
 7    1  0.2670433E-009  0.5210792E+02  0.7561462E-02  0.1434293E+00
         -3   -1    0    0    0  501 -0.00000000000E+00  0.00000000000E+00  0.14657748440E+03  0.14657748440E+03  0.00000000000E+00 0.  1.
          3   -1    0    0  501    0  0.00000000000E+00 -0.00000000000E+00 -0.61080370995E+02  0.61080370995E+02  0.00000000000E+00 0. -1.
         25    2    1    2    0    0  0.70179553760E+01 -0.34227907169E+01  0.76772997774E+02  0.14697579656E+03  0.12508726711E+03 0.  0.
          5    1    3    3  502    0  0.29238552397E+02  0.14132549508E+02 -0.25036884853E+02  0.41218198711E+02  0.41800000000E+01 0. -1.
         -5    1    3    3    0  502 -0.22220597021E+02 -0.17555340225E+02  0.10180988263E+03  0.10575759785E+03  0.41800000000E+01 0. -1.
        -11    1    1    2    0    0  0.17831277465E+02  0.22233554223E+01 -0.17113120158E+02  0.24814444320E+02  0.00000000000E+00 0. -1.
         11    1    1    2    0    0 -0.24849232841E+02  0.11994352946E+01  0.25837235792E+02  0.35867614518E+02  0.00000000000E+00 0.  1.
</event>
<event>
 7    1  0.2670433E-009  0.1088037E+03  0.7561462E-02  0.1262801E+00
          2   -1    0    0  501    0  0.00000000000E+00  0.00000000000E+00  0.64185400697E+03  0.64185400697E+03  0.00000000000E+00 0. -1.
         -2   -1    0    0    0  501 -0.00000000000E+00 -0.00000000000E+00 -0.46357296353E+02  0.46357296353E+02  0.00000000000E+00 0.  1.
         25    2    1    2    0    0  0.49257562729E+02  0.79163088456E+02  0.50834592049E+03  0.53174864587E+03  0.12509174811E+03 0.  0.
          5    1    3    3  502    0 -0.25211750052E+01  0.27555008196E+01 -0.65543575883E+01  0.86244484791E+01  0.41800000000E+01 0. -1.
         -5    1    3    3    0  502  0.51778737734E+02  0.76407587636E+02  0.51490027808E+03  0.52312419739E+03  0.41800000000E+01 0. -1.
        -11    1    1    2    0    0 -0.29085489121E+02  0.79803375696E+01 -0.19320463288E+01  0.30222247900E+02  0.00000000000E+00 0. -1.
         11    1    1    2    0    0 -0.20172073608E+02 -0.87143426026E+02  0.89082836455E+02  0.12624040955E+03  0.00000000000E+00 0.  1.
</event>
<event>
 7    1  0.2670433E-009  0.5553147E+02  0.7561462E-02  0.1417602E+00
         -2   -1    0    0    0  501 -0.00000000000E+00  0.00000000000E+00  0.32956138552E+02  0.32956138552E+02  0.00000000000E+00 0.  1.
          2   -1    0    0  501    0  0.00000000000E+00 -0.00000000000E+00 -0.36612887638E+03  0.36612887638E+03  0.00000000000E+00 0. -1.
         25    2    1    2    0    0  0.97555685636E+01  0.53712951104E+00 -0.21520410760E+03  0.24910913571E+03  0.12508834455E+03 0.  0.
          5    1    3    3  502    0  0.11517661575E-01 -0.54093352484E+01 -0.22991995383E+03  0.23002156118E+03  0.41800000000E+01 0. -1.
         -5    1    3    3    0  502  0.97440509020E+01  0.59464647594E+01  0.14715846230E+02  0.19087574528E+02  0.41800000000E+01 0. -1.
        -11    1    1    2    0    0  0.21066339726E+02 -0.38066264825E+02 -0.63836002370E+02  0.77251966873E+02  0.00000000000E+00 0. -1.
         11    1    1    2    0    0 -0.30821908290E+02  0.37529135314E+02 -0.54132627857E+02  0.72723912345E+02  0.00000000000E+00 0.  1.
</event>
<event>
 7    1  0.2670433E-009  0.1051062E+03  0.7561462E-02  0.1269910E+00
         -2   -1    0    0    0  501 -0.00000000000E+00  0.00000000000E+00  0.10031207958E+03  0.10031207958E+03  0.00000000000E+00 0.  1.
          2   -1    0    0  501    0  0.00000000000E+00 -0.00000000000E+00 -0.24667188428E+03  0.24667188428E+03  0.00000000000E+00 0. -1.
         25    2    1    2    0    0  0.16606421832E+02  0.22972339003E+01  0.44754228038E+02  0.13392026749E+03  0.12510254429E+03 0.  0.
          5    1    3    3  502    0 -0.10980890965E+01 -0.59597951918E+02  0.33272691792E+02  0.68393465270E+02  0.41800000000E+01 0.  1.
         -5    1    3    3    0  502  0.17704510928E+02  0.61895185818E+02  0.11481536246E+02  0.65526802221E+02  0.41800000000E+01 0.  1.
        -11    1    1    2    0    0 -0.25736209425E+02  0.37295369012E+02 -0.56358811046E+02  0.72316060511E+02  0.00000000000E+00 0.  1.
         11    1    1    2    0    0  0.91297875931E+01 -0.39592602913E+02 -0.13475522169E+03  0.14074763586E+03  0.00000000000E+00 0. -1.
</event>
<event>
 7    1  0.3144358E-009  0.1509446E+03  0.7561462E-02  0.1199317E+00
          1   -1    0    0  501    0  0.00000000000E+00  0.00000000000E+00  0.56237931002E+03  0.56237931002E+03  0.00000000000E+00 0. -1.
         -1   -1    0    0    0  501 -0.00000000000E+00 -0.00000000000E+00 -0.46429302899E+02  0.46429302899E+02  0.00000000000E+00 0.  1.
         25    2    1    2    0    0  0.94525489079E+02  0.61834787056E+02  0.20331318764E+03  0.26408693000E+03  0.12508815032E+03 0.  0.
          5    1    3    3  502    0  0.39100010451E+02 -0.30448519656E+02  0.11317914969E+03  0.12362408944E+03  0.41800000000E+01 0.  1.
         -5    1    3    3    0  502  0.55425478628E+02  0.92283306713E+02  0.90134037950E+02  0.14046284055E+03  0.41800000000E+01 0.  1.
        -11    1    1    2    0    0  0.62505704755E+01 -0.41057692738E+02  0.10702666198E+03  0.11480204763E+03  0.00000000000E+00 0.  1.
         11    1    1    2    0    0 -0.10077605955E+03 -0.20777094319E+02  0.20561015750E+03  0.22991963529E+03  0.00000000000E+00 0. -1.
</event>
<event>
 7    1  0.2670433E-009  0.5797076E+02  0.7561462E-02  0.1406550E+00
          2   -1    0    0  501    0  0.00000000000E+00  0.00000000000E+00  0.20276896871E+03  0.20276896871E+03  0.00000000000E+00 0.  1.
         -2   -1    0    0    0  501 -0.00000000000E+00 -0.00000000000E+00 -0.88307621279E+02  0.88307621279E+02  0.00000000000E+00 0. -1.
         25    2    1    2    0    0  0.38576986753E+02  0.36494883997E+02  0.12773761476E+03  0.18650623992E+03  0.12509044263E+03 0.  0.
          5    1    3    3  502    0  0.22570255679E+02  0.32319509363E+02  0.15186603374E+03  0.15695455307E+03  0.41800000000E+01 0.  1.
         -5    1    3    3    0  502  0.16006731074E+02  0.41753746332E+01 -0.24128418977E+02  0.29551686844E+02  0.41800000000E+01 0.  1.
        -11    1    1    2    0    0 -0.24950010622E+02 -0.57436913113E+01 -0.49135179051E+02  0.55405404432E+02  0.00000000000E+00 0. -1.
         11    1    1    2    0    0 -0.13626976131E+02 -0.30751192685E+02  0.35858911719E+02  0.49164945639E+02  0.00000000000E+00 0.  1.
</event>
<event>
 7    1  0.2670433E-009  0.1441696E+03  0.7561462E-02  0.1207826E+00
          1   -1    0    0  501    0  0.00000000000E+00  0.00000000000E+00  0.16219832194E+03  0.16219832194E+03  0.00000000000E+00 0. -1.
         -1   -1    0    0    0  501 -0.00000000000E+00 -0.00000000000E+00 -0.18332136233E+03  0.18332136233E+03  0.00000000000E+00 0.  1.
         25    2    1    2    0    0  0.10839821860E+03  0.45832265906E+02 -0.78230394950E+02  0.18872717992E+03  0.12508870195E+03 0.  0.
          5    1    3    3  502    0  0.10909320797E+03 -0.14485195893E+02 -0.39898016412E+02  0.11713442294E+03  0.41800000000E+01 0. -1.
         -5    1    3    3    0  502 -0.69498936586E+00  0.60317461799E+02 -0.38332378538E+02  0.71592756984E+02  0.41800000000E+01 0. -1.
        -11    1    1    2    0    0 -0.48444484897E+02 -0.22405220198E+02  0.73057037234E+02  0.90477581193E+02  0.00000000000E+00 0. -1.
         11    1    1    2    0    0 -0.59953733703E+02 -0.23427045707E+02 -0.15949682667E+02  0.66314923152E+02  0.00000000000E+00 0.  1.
</event>
<event>
 7    1  0.2670433E-009  0.1023275E+03  0.7561462E-02  0.1275476E+00
         -2   -1    0    0    0  501 -0.00000000000E+00  0.00000000000E+00  0.13397874388E+03  0.13397874388E+03  0.00000000000E+00 0. -1.
          2   -1    0    0  501    0  0.00000000000E+00 -0.00000000000E+00 -0.10008131278E+03  0.10008131278E+03  0.00000000000E+00 0.  1.
         25    2    1    2    0    0 -0.78907905354E+01 -0.27835874913E+02  0.50554052650E+02  0.13799121531E+03  0.12509501491E+03 0.  0.
          5    1    3    3  502    0 -0.37952462234E+02 -0.64925813920E+02  0.49355191005E+02  0.90050863305E+02  0.41800000000E+01 0.  1.
         -5    1    3    3    0  502  0.30061671699E+02  0.37089939007E+02  0.11988616450E+01  0.47940352003E+02  0.41800000000E+01 0.  1.
        -11    1    1    2    0    0 -0.21062598318E+02  0.43615249356E+02  0.14648390914E+02  0.50601367379E+02  0.00000000000E+00 0. -1.
         11    1    1    2    0    0  0.28953388853E+02 -0.15779374443E+02 -0.31305012470E+02  0.45467473974E+02  0.00000000000E+00 0.  1.
</event>
<event>
 7    1  0.2670433E-009  0.3685637E+02  0.7561462E-02  0.1532708E+00
         -2   -1    0    0    0  501 -0.00000000000E+00  0.00000000000E+00  0.40007291837E+02  0.40007291837E+02  0.00000000000E+00 0.  1.
          2   -1    0    0  501    0  0.00000000000E+00 -0.00000000000E+00 -0.29563489160E+03  0.29563489160E+03  0.00000000000E+00 0. -1.
         25    2    1    2    0    0  0.63177989353E+01  0.49667321689E+00 -0.17072186655E+03  0.21174497484E+03  0.12509923015E+03 0.  0.
          5    1    3    3  502    0  0.59424974682E+01 -0.15090407182E+02 -0.18762568227E+03  0.18837171421E+03  0.41800000000E+01 0.  1.
         -5    1    3    3    0  502  0.37530146708E+00  0.15587080399E+02  0.16903815723E+02  0.23373260631E+02  0.41800000000E+01 0.  1.
        -11    1    1    2    0    0 -0.11498510409E+02  0.18140859380E+02  0.12323480282E+02  0.24762364324E+02  0.00000000000E+00 0.  1.
         11    1    1    2    0    0  0.51807114734E+01 -0.18637532597E+02 -0.97229213498E+02  0.99134844278E+02  0.00000000000E+00 0. -1.
</event>
<event>
 7    1  0.2670433E-009  0.9982130E+02  0.7561462E-02  0.1280672E+00
         -3   -1    0    0    0  501 -0.00000000000E+00  0.00000000000E+00  0.34933315364E+02  0.34933315364E+02  0.00000000000E+00 0.  1.
          3   -1    0    0  501    0  0.00000000000E+00 -0.00000000000E+00 -0.61231777520E+03  0.61231777520E+03  0.00000000000E+00 0. -1.
         25    2    1    2    0    0  0.33143540655E+01  0.90625553825E+02 -0.23881998203E+03  0.28443994958E+03  0.12508846929E+03 0.  0.
          5    1    3    3  502    0  0.13766564406E+02  0.89452859870E+02 -0.25157198582E+03  0.26738973219E+03  0.41800000000E+01 0. -1.
         -5    1    3    3    0  502 -0.10452210340E+02  0.11726939549E+01  0.12752003789E+02  0.17050217381E+02  0.41800000000E+01 0. -1.
        -11    1    1    2    0    0 -0.19898474495E+02 -0.46246970016E+02 -0.52082968165E+02  0.72438712687E+02  0.00000000000E+00 0.  1.
         11    1    1    2    0    0  0.16584120430E+02 -0.44378583810E+02 -0.28648150964E+03  0.29037242830E+03  0.00000000000E+00 0. -1.
</event>
<event>
 7    1  0.2670433E-009  0.1464829E+03  0.7561462E-02  0.1204863E+00
         -2   -1    0    0    0  501 -0.00000000000E+00  0.00000000000E+00  0.45267213374E+02  0.45267213374E+02  0.00000000000E+00 0.  1.
          2   -1    0    0  501    0  0.00000000000E+00 -0.00000000000E+00 -0.60272079725E+03  0.60272079725E+03  0.00000000000E+00 0. -1.
         25    2    1    2    0    0 -0.21352532547E+01 -0.11810167635E+03 -0.21311759960E+03  0.27389590423E+03  0.12508912754E+03 0.  0.
          5    1    3    3  502    0  0.32401364501E+02  0.83618499048E+01 -0.80947482608E+02  0.87691141491E+02  0.41800000000E+01 0. -1.
         -5    1    3    3    0  502 -0.34536617756E+02 -0.12646352626E+03 -0.13217011699E+03  0.18620476273E+03  0.41800000000E+01 0. -1.
        -11    1    1    2    0    0  0.23029973392E+02  0.90951262390E+02 -0.15121957474E+03  0.17796030903E+03  0.00000000000E+00 0.  1.
         11    1    1    2    0    0 -0.20894720138E+02  0.27150413962E+02 -0.19311640954E+03  0.19613179738E+03  0.00000000000E+00 0. -1.
</event>
<event>
 7    1  0.2670433E-009  0.1074475E+03  0.7561462E-02  0.1265371E+00
          1   -1    0    0  501    0  0.00000000000E+00  0.00000000000E+00  0.26382774484E+03  0.26382774484E+03  0.00000000000E+00 0. -1.
         -1   -1    0    0    0  501 -0.00000000000E+00 -0.00000000000E+00 -0.65113214584E+02  0.65113214584E+02  0.00000000000E+00 0.  1.
         25    2    1    2    0    0  0.65608852768E+02  0.28475755713E+02  0.88421205662E+02  0.16906131789E+03  0.12509208356E+03 0.  0.
          5    1    3    3  502    0  0.87256340713E+02 -0.20306841486E+02  0.64244916107E+02  0.11032188564E+03  0.41800000000E+01 0. -1.
         -5    1    3    3    0  502 -0.21647487944E+02  0.48782597199E+02  0.24176289555E+02  0.58739432245E+02  0.41800000000E+01 0. -1.
        -11    1    1    2    0    0 -0.43201837667E+02 -0.16300257440E+02 -0.51220231375E+00  0.46177478511E+02  0.00000000000E+00 0.  1.
         11    1    1    2    0    0 -0.22407015101E+02 -0.12175498273E+02  0.11080552691E+03  0.11370216303E+03  0.00000000000E+00 0. -1.
</event>
<event>
 7    1  0.2670433E-009  0.1441359E+03  0.7561462E-02  0.1207870E+00
          1   -1    0    0  501    0  0.00000000000E+00  0.00000000000E+00  0.10697946613E+04  0.10697946613E+04  0.00000000000E+00 0. -1.
         -1   -1    0    0    0  501 -0.00000000000E+00 -0.00000000000E+00 -0.23771377720E+02  0.23771377720E+02  0.00000000000E+00 0.  1.
         25    2    1    2    0    0  0.49677242057E+02 -0.10464208100E+03  0.67741589609E+03  0.69853947842E+03  0.12508922070E+03 0.  0.
          5    1    3    3  502    0  0.66634788536E+02 -0.87014966475E+01  0.19305243344E+03  0.20445690388E+03  0.41800000000E+01 0.  1.
         -5    1    3    3    0  502 -0.16957546479E+02 -0.95940584353E+02  0.48436346266E+03  0.49408257454E+03  0.41800000000E+01 0.  1.
        -11    1    1    2    0    0  0.51722781716E+01  0.31920654553E+02  0.29067273945E+02  0.43480881582E+02  0.00000000000E+00 0.  1.
         11    1    1    2    0    0 -0.54849520229E+02  0.72721426447E+02  0.33954011358E+03  0.35154567905E+03  0.00000000000E+00 0. -1.
</event>
<event>
 7    1  0.2670433E-009  0.1058595E+03  0.7561462E-02  0.1268435E+00
         -1   -1    0    0    0  501 -0.00000000000E+00  0.00000000000E+00  0.59961707185E+02  0.59961707185E+02  0.00000000000E+00 0.  1.
          1   -1    0    0  501    0  0.00000000000E+00 -0.00000000000E+00 -0.32795134459E+03  0.32795134459E+03  0.00000000000E+00 0. -1.
         25    2    1    2    0    0  0.62529726884E+02 -0.61215762495E+02 -0.16480877738E+03  0.22464881881E+03  0.12509125616E+03 0.  0.
          5    1    3    3  502    0  0.71953661545E+02 -0.71443538133E+02 -0.58063553399E+02  0.11692030270E+03  0.41800000000E+01 0.  1.
         -5    1    3    3    0  502 -0.94239346609E+01  0.10227775638E+02 -0.10674522398E+03  0.10772851610E+03  0.41800000000E+01 0.  1.
        -11    1    1    2    0    0 -0.35546964046E+02  0.58685599745E+02 -0.13959315161E+02  0.70017488887E+02  0.00000000000E+00 0.  1.
         11    1    1    2    0    0 -0.26982762838E+02  0.25301627504E+01 -0.89221544862E+02  0.93246744080E+02  0.00000000000E+00 0. -1.
</event>
<event>
 7    1  0.2670433E-009  0.3770668E+03  0.7561462E-02  0.1052023E+00
         -1   -1    0    0    0  501 -0.00000000000E+00  0.00000000000E+00  0.76115034352E+03  0.76115034352E+03  0.00000000000E+00 0.  1.
          1   -1    0    0  501    0  0.00000000000E+00 -0.00000000000E+00 -0.21446304872E+03  0.21446304872E+03  0.00000000000E+00 0. -1.
         25    2    1    2    0    0 -0.18725738427E+02  0.36683648896E+03  0.43077095684E+03  0.57976666549E+03  0.12508439649E+03 0.  0.
          5    1    3    3  502    0  0.28456567747E+02  0.41640211860E+02  0.10736398766E+03  0.11869364658E+03  0.41800000000E+01 0. -1.
         -5    1    3    3    0  502 -0.47182306174E+02  0.32519627710E+03  0.32340696917E+03  0.46107301891E+03  0.41800000000E+01 0. -1.
        -11    1    1    2    0    0 -0.29232576900E+02 -0.14984032905E+03  0.74163326950E+02  0.16972585786E+03  0.00000000000E+00 0.  1.
         11    1    1    2    0    0  0.47958315327E+02 -0.21699615991E+03  0.41753011012E+02  0.22612086890E+03  0.00000000000E+00 0. -1.
</event>
<event>
 7    1  0.2670433E-009  0.7037024E+02  0.7561462E-02  0.1358839E+00
         -2   -1    0    0    0  501 -0.00000000000E+00  0.00000000000E+00  0.36088005333E+02  0.36088005333E+02  0.00000000000E+00 0.  1.
          2   -1    0    0  501    0  0.00000000000E+00 -0.00000000000E+00 -0.37559060886E+03  0.37559060886E+03  0.00000000000E+00 0. -1.
         25    2    1    2    0    0  0.31026936916E+02 -0.16104864993E+01 -0.24605645324E+03  0.27777032613E+03  0.12508921384E+03 0.  0.
          5    1    3    3  502    0 -0.12078306094E+02  0.69422221589E+01  0.10183671524E+02  0.17755548212E+02  0.41800000000E+01 0. -1.
         -5    1    3    3    0  502  0.43105243009E+02 -0.85527086581E+01 -0.25624012476E+03  0.26001477792E+03  0.41800000000E+01 0. -1.
        -11    1    1    2    0    0 -0.34088478301E+02  0.34804227174E+02 -0.18911564792E+02  0.52259026636E+02  0.00000000000E+00 0.  1.
         11    1    1    2    0    0  0.30615413853E+01 -0.33193740675E+02 -0.74534585497E+02  0.81649261423E+02  0.00000000000E+00 0. -1.
</event>
<event>
 7    1  0.2670433E-009  0.1274303E+03  0.7561462E-02  0.1231319E+00
          1   -1    0    0  501    0  0.00000000000E+00  0.00000000000E+00  0.29765495952E+03  0.29765495952E+03  0.00000000000E+00 0. -1.
         -1   -1    0    0    0  501 -0.00000000000E+00 -0.00000000000E+00 -0.94714055328E+02  0.94714055328E+02  0.00000000000E+00 0.  1.
         25    2    1    2    0    0  0.49297037396E+02  0.78498938415E+02  0.54879792550E+01  0.15578759198E+03  0.12508946667E+03 0.  0.
          5    1    3    3  502    0 -0.23238074664E+02  0.29222110903E+02 -0.41693389397E+02  0.56122642481E+02  0.41800000000E+01 0. -1.
         -5    1    3    3    0  502  0.72535112059E+02  0.49276827512E+02  0.47181368652E+02  0.99664949501E+02  0.41800000000E+01 0. -1.
        -11    1    1    2    0    0 -0.68130844815E+02 -0.24647331894E+02  0.97188116269E+02  0.12122224601E+03  0.00000000000E+00 0. -1.
         11    1    1    2    0    0  0.18833807419E+02 -0.53851606521E+02  0.10026480867E+03  0.11535917685E+03  0.00000000000E+00 0.  1.
</event>
<event>
 7    1  0.2670433E-009  0.1614256E+03  0.7561462E-02  0.1187097E+00
         -1   -1    0    0    0  501 -0.00000000000E+00  0.00000000000E+00  0.45207187306E+02  0.45207187306E+02  0.00000000000E+00 0.  1.
          1   -1    0    0  501    0  0.00000000000E+00 -0.00000000000E+00 -0.63193607667E+03  0.63193607667E+03  0.00000000000E+00 0. -1.
         25    2    1    2    0    0 -0.56554236707E+02  0.11668039287E+03 -0.31827537953E+03  0.36573296258E+03  0.12509471187E+03 0.  0.
          5    1    3    3  502    0 -0.71120822346E+02  0.13406888664E+03 -0.23878328454E+03  0.28296213017E+03  0.41800000000E+01 0. -1.
         -5    1    3    3    0  502  0.14566585639E+02 -0.17388493768E+02 -0.79492094993E+02  0.82770832417E+02  0.41800000000E+01 0. -1.
        -11    1    1    2    0    0  0.22873210932E+02 -0.11157734035E+03 -0.24461669470E+03  0.26983330778E+03  0.00000000000E+00 0. -1.
         11    1    1    2    0    0  0.33681025775E+02 -0.51030525159E+01 -0.23836815133E+02  0.41576993613E+02  0.00000000000E+00 0.  1.
</event>
<event>
 7    1  0.2670433E-009  0.1092950E+03  0.7561462E-02  0.1261881E+00
          2   -1    0    0  501    0  0.00000000000E+00  0.00000000000E+00  0.47760075998E+03  0.47760075998E+03  0.00000000000E+00 0.  1.
         -2   -1    0    0    0  501 -0.00000000000E+00 -0.00000000000E+00 -0.35090963076E+02  0.35090963076E+02  0.00000000000E+00 0. -1.
         25    2    1    2    0    0  0.36406892601E+02 -0.29304552342E+02  0.34879034183E+03  0.37347903986E+03  0.12509065531E+03 0.  0.
          5    1    3    3  502    0 -0.25188717037E+02 -0.55401484986E+02  0.11382953298E+03  0.12914499984E+03  0.41800000000E+01 0.  1.
         -5    1    3    3    0  502  0.61595609638E+02  0.26096932644E+02  0.23496080884E+03  0.24433404002E+03  0.41800000000E+01 0.  1.
        -11    1    1    2    0    0 -0.55054922911E+02  0.40915645797E+02  0.36027088032E+02  0.77479582342E+02  0.00000000000E+00 0. -1.
         11    1    1    2    0    0  0.18648030310E+02 -0.11611093456E+02  0.57692367043E+02  0.61733100851E+02  0.00000000000E+00 0.  1.
</event>
<event>
 7    1  0.2670433E-009  0.9561352E+02  0.7561462E-02  0.1289800E+00
          3   -1    0    0  501    0  0.00000000000E+00  0.00000000000E+00  0.21216277281E+03  0.21216277281E+03  0.00000000000E+00 0. -1.
         -3   -1    0    0    0  501 -0.00000000000E+00 -0.00000000000E+00 -0.76672950776E+02  0.76672950776E+02  0.00000000000E+00 0.  1.
         25    2    1    2    0    0 -0.47622030912E+02 -0.12663010081E+02  0.58100777885E+02  0.14646846065E+03  0.12509636254E+03 0.  0.
          5    1    3    3  502    0 -0.16115218591E+02  0.32387952687E+02 -0.26815143178E+02  0.45223932305E+02  0.41800000000E+01 0. -1.
         -5    1    3    3    0  502 -0.31506812320E+02 -0.45050962768E+02  0.84915921062E+02  0.10124452834E+03  0.41800000000E+01 0. -1.
        -11    1    1    2    0    0  0.23666696569E+02  0.49998522306E+02  0.80750088471E+02  0.97880240842E+02  0.00000000000E+00 0. -1.
         11    1    1    2    0    0  0.23955334343E+02 -0.37335512225E+02 -0.33610443180E+01  0.44487022101E+02  0.00000000000E+00 0.  1.
</event>
<event>
 7    1  0.2670433E-009  0.9545914E+02  0.7561462E-02  0.1290145E+00
         -2   -1    0    0    0  501 -0.00000000000E+00  0.00000000000E+00  0.21362562467E+03  0.21362562467E+03  0.00000000000E+00 0.  1.
          2   -1    0    0  501    0  0.00000000000E+00 -0.00000000000E+00 -0.87975277605E+02  0.87975277605E+02  0.00000000000E+00 0. -1.
         25    2    1    2    0    0  0.20852324847E+02 -0.18767224530E+02 -0.21004262963E+02  0.12990885314E+03  0.12509237744E+03 0.  0.
          5    1    3    3  502    0  0.55273858256E+01 -0.68663901963E+02 -0.32523851016E+02  0.76292573111E+02  0.41800000000E+01 0.  1.
         -5    1    3    3    0  502  0.15324939021E+02  0.49896677433E+02  0.11519588054E+02  0.53616280026E+02  0.41800000000E+01 0.  1.
        -11    1    1    2    0    0  0.21057054200E+02 -0.46059652999E+01  0.49958118633E+01  0.22126287173E+02  0.00000000000E+00 0. -1.
         11    1    1    2    0    0 -0.41909379046E+02  0.23373189830E+02  0.14165879817E+03  0.14956576197E+03  0.00000000000E+00 0.  1.
</event>
<event>
 7    1  0.2670433E-009  0.1210714E+03  0.7561462E-02  0.1241340E+00
         -1   -1    0    0    0  501 -0.00000000000E+00  0.00000000000E+00  0.25833392649E+02  0.25833392649E+02  0.00000000000E+00 0.  1.
          1   -1    0    0  501    0  0.00000000000E+00 -0.00000000000E+00 -0.97754987486E+03  0.97754987486E+03  0.00000000000E+00 0. -1.
         25    2    1    2    0    0  0.10367726151E+03 -0.15807332570E+02 -0.67530832687E+03  0.69475643698E+03  0.12508526721E+03 0.  0.
          5    1    3    3  502    0  0.48414591595E+02  0.36362524615E+02 -0.49957612815E+03  0.50324942732E+03  0.41800000000E+01 0.  1.
         -5    1    3    3    0  502  0.55262669919E+02 -0.52169857185E+02 -0.17573219871E+03  0.19150700966E+03  0.41800000000E+01 0.  1.
        -11    1    1    2    0    0 -0.23465350367E+02 -0.56008910816E+00 -0.35333415745E+01  0.23736488163E+02  0.00000000000E+00 0.  1.
         11    1    1    2    0    0 -0.80211911147E+02  0.16367421679E+02 -0.27287481377E+03  0.28489034236E+03  0.00000000000E+00 0. -1.
</event>
<event>
 7    1  0.2670433E-009  0.1264536E+03  0.7561462E-02  0.1232815E+00
          1   -1    0    0  501    0  0.00000000000E+00  0.00000000000E+00  0.65730103683E+03  0.65730103683E+03  0.00000000000E+00 0. -1.
         -1   -1    0    0    0  501 -0.00000000000E+00 -0.00000000000E+00 -0.33101298966E+02  0.33101298966E+02  0.00000000000E+00 0.  1.
         25    2    1    2    0    0  0.39789430763E+02 -0.90212857165E+02  0.31971440205E+03  0.35719294303E+03  0.12509173143E+03 0.  0.
          5    1    3    3  502    0  0.57319923362E+02 -0.31892112480E+02  0.55520275769E+02  0.86038676618E+02  0.41800000000E+01 0.  1.
         -5    1    3    3    0  502 -0.17530492599E+02 -0.58320744685E+02  0.26419412628E+03  0.27115426641E+03  0.41800000000E+01 0.  1.
        -11    1    1    2    0    0  0.11251587203E+02  0.70547724652E+02  0.22971778574E+03  0.24056982511E+03  0.00000000000E+00 0. -1.
         11    1    1    2    0    0 -0.51041017965E+02  0.19665132513E+02  0.74767550070E+02  0.92639567654E+02  0.00000000000E+00 0.  1.
</event>
<event>
 7    1  0.2670433E-009  0.2467367E+03  0.7561462E-02  0.1115385E+00
         -3   -1    0    0    0  501 -0.00000000000E+00  0.00000000000E+00  0.21320650147E+03  0.21320650147E+03  0.00000000000E+00 0.  1.
          3   -1    0    0  501    0  0.00000000000E+00 -0.00000000000E+00 -0.41963718846E+03  0.41963718846E+03  0.00000000000E+00 0. -1.
         25    2    1    2    0    0 -0.69836168253E+02 -0.23399934332E+03 -0.24686112122E+03  0.36908073149E+03  0.12508952840E+03 0.  0.
          5    1    3    3  502    0 -0.58917582773E+02 -0.18878607261E+03 -0.11413030000E+03  0.22837394893E+03  0.41800000000E+01 0.  1.
         -5    1    3    3    0  502 -0.10918585481E+02 -0.45213270715E+02 -0.13273082122E+03  0.14070678257E+03  0.41800000000E+01 0.  1.
        -11    1    1    2    0    0  0.70533072991E+02  0.15879274118E+03 -0.86287358091E+01  0.17396696273E+03  0.00000000000E+00 0.  1.
         11    1    1    2    0    0 -0.69690473739E+00  0.75206602136E+02  0.49059170042E+02  0.89795995715E+02  0.00000000000E+00 0. -1.
</event>
<event>
 7    1  0.2670433E-009  0.9999202E+02  0.7561462E-02  0.1280313E+00
          1   -1    0    0  501    0  0.00000000000E+00  0.00000000000E+00  0.18507148902E+04  0.18507148902E+04  0.00000000000E+00 0. -1.
         -1   -1    0    0    0  501 -0.00000000000E+00 -0.00000000000E+00 -0.79106582345E+01  0.79106582345E+01  0.00000000000E+00 0.  1.
         25    2    1    2    0    0 -0.32120720099E+01 -0.39799968574E+02  0.12933825259E+04  0.13000307386E+04  0.12508880060E+03 0.  0.
          5    1    3    3  502    0 -0.36966982271E+02 -0.51273573122E+02  0.33266784199E+03  0.33864568884E+03  0.41800000000E+01 0. -1.
         -5    1    3    3    0  502  0.33754910261E+02  0.11473604548E+02  0.96071468394E+03  0.96138504976E+03  0.41800000000E+01 0. -1.
        -11    1    1    2    0    0 -0.20645565471E+02 -0.24569121346E+02  0.18531494441E+03  0.18807314992E+03  0.00000000000E+00 0.  1.
         11    1    1    2    0    0  0.23857637481E+02  0.64369089920E+02  0.36410676166E+03  0.37052165995E+03  0.00000000000E+00 0. -1.
</event>
<event>
 7    1  0.2670433E-009  0.6827180E+02  0.7561462E-02  0.1366070E+00
         -2   -1    0    0    0  501 -0.00000000000E+00  0.00000000000E+00  0.62394998810E+03  0.62394998810E+03  0.00000000000E+00 0.  1.
          2   -1    0    0  501    0  0.00000000000E+00 -0.00000000000E+00 -0.19365586781E+02  0.19365586781E+02  0.00000000000E+00 0. -1.
         25    2    1    2    0    0 -0.94184764645E+01  0.13012248941E+01  0.40061325723E+03  0.41979641844E+03  0.12509056792E+03 0.  0.
          5    1    3    3  502    0 -0.25821917354E+02 -0.26592068873E+02  0.37860892761E+03  0.38044198245E+03  0.41800000000E+01 0. -1.
         -5    1    3    3    0  502  0.16403440890E+02  0.27893293767E+02  0.22004329618E+02  0.39354435991E+02  0.41800000000E+01 0. -1.
        -11    1    1    2    0    0 -0.23726297259E+02 -0.17732290723E+02  0.17227726982E+03  0.17480511724E+03  0.00000000000E+00 0.  1.
         11    1    1    2    0    0  0.33144773724E+02  0.16431065829E+02  0.31693874276E+02  0.48714039210E+02  0.00000000000E+00 0. -1.
</event>
<event>
 7    1  0.2670433E-009  0.1062522E+03  0.7561462E-02  0.1267672E+00
         -2   -1    0    0    0  501 -0.00000000000E+00  0.00000000000E+00  0.79473776216E+03  0.79473776216E+03  0.00000000000E+00 0.  1.
          2   -1    0    0  501    0  0.00000000000E+00 -0.00000000000E+00 -0.24217960076E+02  0.24217960076E+02  0.00000000000E+00 0. -1.
         25    2    1    2    0    0 -0.17906707455E+02  0.14546829482E+02  0.66378579901E+03  0.67586278210E+03  0.12508658136E+03 0.  0.
          5    1    3    3  502    0 -0.66465375992E+02  0.54249588792E+00  0.24052429086E+03  0.24957433242E+03  0.41800000000E+01 0. -1.
         -5    1    3    3    0  502  0.48558668537E+02  0.14004333594E+02  0.42326150816E+03  0.42628844969E+03  0.41800000000E+01 0. -1.
        -11    1    1    2    0    0 -0.34329717403E+02  0.12296147683E+02  0.37544607741E+02  0.52338535662E+02  0.00000000000E+00 0.  1.
         11    1    1    2    0    0  0.52236424859E+02 -0.26842977165E+02  0.69189395330E+02  0.90754404473E+02  0.00000000000E+00 0. -1.
</event>
<event>
 7    1  0.2670433E-009  0.1169764E+03  0.7561462E-02  0.1248170E+00
          1   -1    0    0  501    0  0.00000000000E+00  0.00000000000E+00  0.40696075255E+03  0.40696075255E+03  0.00000000000E+00 0. -1.
         -1   -1    0    0    0  501 -0.00000000000E+00 -0.00000000000E+00 -0.50878855884E+02  0.50878855884E+02  0.00000000000E+00 0.  1.
         25    2    1    2    0    0  0.53959237647E+02 -0.51876928149E+02  0.28530478753E+03  0.32038720164E+03  0.12508525966E+03 0.  0.
          5    1    3    3  502    0 -0.41032090771E+01  0.37001372164E+02  0.99973350927E+02  0.10676179636E+03  0.41800000000E+01 0.  1.
         -5    1    3    3    0  502  0.58062446724E+02 -0.88878300313E+02  0.18533143660E+03  0.21362540528E+03  0.41800000000E+01 0.  1.
        -11    1    1    2    0    0 -0.36461926585E+02  0.10348851789E+01 -0.12299019993E+02  0.38494271917E+02  0.00000000000E+00 0.  1.
         11    1    1    2    0    0 -0.17497311062E+02  0.50842042970E+02  0.83076129125E+02  0.98958134876E+02  0.00000000000E+00 0. -1.
</event>
<event>
 7    1  0.2670433E-009  0.1031034E+03  0.7561462E-02  0.1273902E+00
         -3   -1    0    0    0  501 -0.00000000000E+00  0.00000000000E+00  0.73186982161E+02  0.73186982161E+02  0.00000000000E+00 0.  1.
          3   -1    0    0  501    0  0.00000000000E+00 -0.00000000000E+00 -0.22502028970E+03  0.22502028970E+03  0.00000000000E+00 0. -1.
         25    2    1    2    0    0 -0.40799362806E+02  0.55393256212E+02 -0.86483094954E+02  0.16691400888E+03  0.12509180552E+03 0.  0.
          5    1    3    3  502    0  0.17279557082E+02  0.49630226119E+02  0.10397756021E+02  0.53733864256E+02  0.41800000000E+01 0.  1.
         -5    1    3    3    0  502 -0.58078919887E+02  0.57630300925E+01 -0.96880850975E+02  0.11318014462E+03  0.41800000000E+01 0.  1.
        -11    1    1    2    0    0  0.34112167720E+02 -0.70574468878E+02 -0.77885182222E+02  0.11050111879E+03  0.00000000000E+00 0. -1.
         11    1    1    2    0    0  0.66871950854E+01  0.15181212666E+02  0.12534969641E+02  0.20792144190E+02  0.00000000000E+00 0.  1.
</event>
<event>
 7    1  0.2670433E-009  0.1087782E+03  0.7561462E-02  0.1262849E+00
         -2   -1    0    0    0  501 -0.00000000000E+00  0.00000000000E+00  0.77464941105E+03  0.77464941105E+03  0.00000000000E+00 0.  1.
          2   -1    0    0  501    0  0.00000000000E+00 -0.00000000000E+00 -0.18039337451E+02  0.18039337451E+02  0.00000000000E+00 0. -1.
         25    2    1    2    0    0  0.45746963536E+02  0.14792047211E+02  0.39275067322E+03  0.41498341432E+03  0.12508618434E+03 0.  0.
          5    1    3    3  502    0  0.75129775839E+02 -0.12058287451E+02  0.34180667077E+03  0.35019874086E+03  0.41800000000E+01 0. -1.
         -5    1    3    3    0  502 -0.29382812303E+02  0.26850334663E+02  0.50944002451E+02  0.64784673466E+02  0.41800000000E+01 0. -1.
        -11    1    1    2    0    0 -0.34918576130E+02  0.35552421313E+02  0.17806831750E+03  0.18490972748E+03  0.00000000000E+00 0.  1.
         11    1    1    2    0    0 -0.10828387406E+02 -0.50344468524E+02  0.18579108288E+03  0.19279560670E+03  0.00000000000E+00 0. -1.
</event>
<event>
 7    1  0.2670433E-009  0.1935178E+03  0.7561462E-02  0.1155326E+00
          1   -1    0    0  501    0  0.00000000000E+00  0.00000000000E+00  0.73113759663E+03  0.73113759663E+03  0.00000000000E+00 0. -1.
         -1   -1    0    0    0  501 -0.00000000000E+00 -0.00000000000E+00 -0.67779731569E+02  0.67779731569E+02  0.00000000000E+00 0.  1.
         25    2    1    2    0    0 -0.18191637207E+03 -0.73991197291E+01  0.22107761847E+03  0.31252476857E+03  0.12509238259E+03 0.  0.
          5    1    3    3  502    0 -0.13645780648E+03  0.30072823627E+02  0.21024593990E+03  0.25247957405E+03  0.41800000000E+01 0.  1.
         -5    1    3    3    0  502 -0.45458565594E+02 -0.37471943356E+02  0.10831678576E+02  0.60045194524E+02  0.41800000000E+01 0.  1.
        -11    1    1    2    0    0  0.13421155448E+03  0.26484627686E+02  0.22673031704E+03  0.26480334878E+03  0.00000000000E+00 0.  1.
         11    1    1    2    0    0  0.47704817594E+02 -0.19085507957E+02  0.21554992955E+03  0.22158921085E+03  0.00000000000E+00 0. -1.
</event>
<event>
 7    1  0.2670433E-009  0.1093637E+03  0.7561462E-02  0.1261753E+00
          4   -1    0    0  501    0  0.00000000000E+00  0.00000000000E+00  0.30377008872E+02  0.30377008872E+02  0.00000000000E+00 0. -1.
         -4   -1    0    0    0  501 -0.00000000000E+00 -0.00000000000E+00 -0.51734518056E+03  0.51734518056E+03  0.00000000000E+00 0.  1.
         25    2    1    2    0    0  0.18962290738E+02  0.39401765072E+02 -0.17649948596E+03  0.22070765328E+03  0.12509089541E+03 0.  0.
          5    1    3    3  502    0 -0.53282884841E+02  0.20255390483E+02 -0.67002909637E+02  0.88069341773E+02  0.41800000000E+01 0.  1.
         -5    1    3    3    0  502  0.72245175579E+02  0.19146374588E+02 -0.10949657632E+03  0.13263831151E+03  0.41800000000E+01 0.  1.
        -11    1    1    2    0    0  0.10992805670E+02  0.18502413736E+02 -0.20205787912E+02  0.29520415914E+02  0.00000000000E+00 0. -1.
         11    1    1    2    0    0 -0.29955096408E+02 -0.57904178808E+02 -0.29026289782E+03  0.29749412023E+03  0.00000000000E+00 0.  1.
</event>
<event>
 7    1  0.2670433E-009  0.1241572E+03  0.7561462E-02  0.1236392E+00
          1   -1    0    0  501    0  0.00000000000E+00  0.00000000000E+00  0.34922495233E+02  0.34922495233E+02  0.00000000000E+00 0. -1.
         -1   -1    0    0    0  501 -0.00000000000E+00 -0.00000000000E+00 -0.48733449116E+03  0.48733449116E+03  0.00000000000E+00 0.  1.
         25    2    1    2    0    0  0.68478117660E+01  0.64832308038E+02 -0.31444094547E+03  0.34463732514E+03  0.12510658256E+03 0.  0.
          5    1    3    3  502    0  0.56312093353E+02  0.69949800143E+02 -0.17924129991E+03  0.20052167561E+03  0.41800000000E+01 0.  1.
         -5    1    3    3    0  502 -0.49464281587E+02 -0.51174921050E+01 -0.13519964556E+03  0.14411564952E+03  0.41800000000E+01 0.  1.
        -11    1    1    2    0    0  0.26415485470E+02  0.86970551459E+01 -0.56340413949E+02  0.62830397777E+02  0.00000000000E+00 0.  1.
         11    1    1    2    0    0 -0.33263297236E+02 -0.73529363184E+02 -0.81630636511E+02  0.11478926348E+03  0.00000000000E+00 0. -1.
</event>
<event>
 7    1  0.2670433E-009  0.7464824E+02  0.7561462E-02  0.1344964E+00
          1   -1    0    0  501    0  0.00000000000E+00  0.00000000000E+00  0.13141784034E+03  0.13141784034E+03  0.00000000000E+00 0. -1.
         -1   -1    0    0    0  501 -0.00000000000E+00 -0.00000000000E+00 -0.11426907427E+03  0.11426907427E+03  0.00000000000E+00 0.  1.
         25    2    1    2    0    0  0.29421944483E+01  0.29816819104E+02 -0.38542465838E+02  0.13427491908E+03  0.12508610239E+03 0.  0.
          5    1    3    3  502    0 -0.23963953716E+02  0.22677475707E+02 -0.78582562110E+02  0.85330126274E+02  0.41800000000E+01 0. -1.
         -5    1    3    3    0  502  0.26906148164E+02  0.71393433977E+01  0.40040096272E+02  0.48944792804E+02  0.41800000000E+01 0. -1.
        -11    1    1    2    0    0 -0.39490246029E+02  0.18476220483E+01  0.48423656603E+02  0.62511948917E+02  0.00000000000E+00 0. -1.
         11    1    1    2    0    0  0.36548051580E+02 -0.31664441153E+02  0.72675753072E+01  0.48900046612E+02  0.00000000000E+00 0.  1.
</event>
<event>
 7    1  0.2670433E-009  0.2070450E+03  0.7561462E-02  0.1143928E+00
          1   -1    0    0  501    0  0.00000000000E+00  0.00000000000E+00  0.33082065425E+03  0.33082065425E+03  0.00000000000E+00 0. -1.
         -1   -1    0    0    0  501 -0.00000000000E+00 -0.00000000000E+00 -0.15594037179E+03  0.15594037179E+03  0.00000000000E+00 0.  1.
         25    2    1    2    0    0 -0.81345157401E+02  0.18118038190E+03  0.77169935645E+02  0.24707497175E+03  0.12508987680E+03 0.  0.
          5    1    3    3  502    0 -0.33337141970E+02  0.13012307277E+03  0.10601535348E+03  0.17117273929E+03  0.41800000000E+01 0.  1.
         -5    1    3    3    0  502 -0.48008015431E+02  0.51057309136E+02 -0.28845417839E+02  0.75902232458E+02  0.41800000000E+01 0.  1.
        -11    1    1    2    0    0  0.59480944276E+02 -0.53653527374E+02  0.45192228629E+01  0.80231584222E+02  0.00000000000E+00 0.  1.
         11    1    1    2    0    0  0.21864213125E+02 -0.12752685453E+03  0.93191123950E+02  0.15945447007E+03  0.00000000000E+00 0. -1.
</event>
<event>
 7    1  0.2670433E-009  0.1277112E+03  0.7561462E-02  0.1230892E+00
          1   -1    0    0  501    0  0.00000000000E+00  0.00000000000E+00  0.44263471243E+03  0.44263471243E+03  0.00000000000E+00 0. -1.
         -1   -1    0    0    0  501 -0.00000000000E+00 -0.00000000000E+00 -0.55288366006E+02  0.55288366006E+02  0.00000000000E+00 0.  1.
         25    2    1    2    0    0  0.97675762785E+02  0.20207878036E+02  0.12450607741E+03  0.20272430032E+03  0.12508583316E+03 0.  0.
          5    1    3    3  502    0  0.37699519372E+02 -0.34189337986E+02  0.10873164835E+03  0.12012580217E+03  0.41800000000E+01 0.  1.
         -5    1    3    3    0  502  0.59976243413E+02  0.54397216021E+02  0.15774429062E+02  0.82598498153E+02  0.41800000000E+01 0.  1.
        -11    1    1    2    0    0 -0.38616869340E+02  0.27458761000E+02  0.48440181818E+02  0.67762064371E+02  0.00000000000E+00 0.  1.
         11    1    1    2    0    0 -0.59058893445E+02 -0.47666639036E+02  0.21440008719E+03  0.22743671375E+03  0.00000000000E+00 0. -1.
</event>
<event>
 7    1  0.2670433E-009  0.5932396E+02  0.7561462E-02  0.1400691E+00
          4   -1    0    0  501    0  0.00000000000E+00  0.00000000000E+00  0.16609193130E+03  0.16609193130E+03  0.00000000000E+00 0. -1.
         -4   -1    0    0    0  501 -0.00000000000E+00 -0.00000000000E+00 -0.92273900638E+02  0.92273900638E+02  0.00000000000E+00 0.  1.
         25    2    1    2    0    0 -0.27053473139E+01 -0.22572147824E+02  0.48525791440E+02  0.13608130964E+03  0.12508616884E+03 0.  0.
          5    1    3    3  502    0 -0.19546177779E+01  0.14235503533E+02  0.83679242359E+02  0.85006812040E+02  0.41800000000E+01 0. -1.
         -5    1    3    3    0  502 -0.75072953606E+00 -0.36807651357E+02 -0.35153450919E+02  0.51074497597E+02  0.41800000000E+01 0. -1.
        -11    1    1    2    0    0  0.11718782650E+02 -0.19964768992E+02  0.61492858826E+02  0.65706115045E+02  0.00000000000E+00 0. -1.
         11    1    1    2    0    0 -0.90134353362E+01  0.42536916816E+02 -0.36200619599E+02  0.56578407261E+02  0.00000000000E+00 0.  1.
</event>
<event>
 7    1  0.2670433E-009  0.7521270E+02  0.7561462E-02  0.1343214E+00
          2   -1    0    0  501    0  0.00000000000E+00  0.00000000000E+00  0.67924021201E+03  0.67924021201E+03  0.00000000000E+00 0. -1.
         -2   -1    0    0    0  501 -0.00000000000E+00 -0.00000000000E+00 -0.23625662078E+02  0.23625662078E+02  0.00000000000E+00 0.  1.
         25    2    1    2    0    0 -0.83904663142E+01 -0.56458334517E+02  0.43759877518E+03  0.45869173948E+03  0.12508988915E+03 0.  0.
          5    1    3    3  502    0 -0.10545070542E+02  0.19196015893E+01  0.36604305596E+03  0.36622380398E+03  0.41800000000E+01 0. -1.
         -5    1    3    3    0  502  0.21546042277E+01 -0.58377936107E+02  0.71555719219E+02  0.92467935504E+02  0.41800000000E+01 0. -1.
        -11    1    1    2    0    0  0.30087400252E+02  0.15132638811E+02  0.16838864536E+02  0.37653628912E+02  0.00000000000E+00 0.  1.
         11    1    1    2    0    0 -0.21696933938E+02  0.41325695706E+02  0.20117691021E+03  0.20652050569E+03  0.00000000000E+00 0. -1.
</event>
<event>
 7    1  0.2670433E-009  0.1081227E+03  0.7561462E-02  0.1264086E+00
          2   -1    0    0  501    0  0.00000000000E+00  0.00000000000E+00  0.42839790788E+03  0.42839790788E+03  0.00000000000E+00 0. -1.
         -2   -1    0    0    0  501 -0.00000000000E+00 -0.00000000000E+00 -0.57949958668E+02  0.57949958668E+02  0.00000000000E+00 0.  1.
         25    2    1    2    0    0  0.70911957761E+02  0.10860464153E+02  0.33452214377E+03  0.36427896104E+03  0.12509053262E+03 0.  0.
          5    1    3    3  502    0  0.22313371464E+02  0.49284731479E+02  0.52501447553E+02  0.75503282698E+02  0.41800000000E+01 0.  1.
         -5    1    3    3    0  502  0.48598586297E+02 -0.38424267326E+02  0.28202069621E+03  0.28877567834E+03  0.41800000000E+01 0.  1.
        -11    1    1    2    0    0 -0.80211850509E+02 -0.24059788290E+02  0.52573137595E+02  0.98877445210E+02  0.00000000000E+00 0. -1.
         11    1    1    2    0    0  0.92998927488E+01  0.13199324137E+02 -0.16647332151E+02  0.23191460294E+02  0.00000000000E+00 0.  1.
</event>
<event>
 7    1  0.2670433E-009  0.9850724E+02  0.7561462E-02  0.1283467E+00
          2   -1    0    0  501    0  0.00000000000E+00  0.00000000000E+00  0.46414446757E+03  0.46414446757E+03  0.00000000000E+00 0. -1.
         -2   -1    0    0    0  501 -0.00000000000E+00 -0.00000000000E+00 -0.35654581904E+02  0.35654581904E+02  0.00000000000E+00 0.  1.
         25    2    1    2    0    0  0.51720867906E+02 -0.51811460881E+02  0.25488494466E+03  0.29320975134E+03  0.12508456185E+03 0.  0.
          5    1    3    3  502    0  0.36541379468E+00  0.18641360285E+02  0.17128883768E+03  0.17235130448E+03  0.41800000000E+01 0. -1.
         -5    1    3    3    0  502  0.51355454111E+02 -0.70452821166E+02  0.83596106979E+02  0.12085844687E+03  0.41800000000E+01 0. -1.
        -11    1    1    2    0    0 -0.54812508455E+02  0.19521055955E+02  0.43896158010E+02  0.72885906708E+02  0.00000000000E+00 0.  1.
         11    1    1    2    0    0  0.30916405487E+01  0.32290404926E+02  0.12970878299E+03  0.13370339142E+03  0.00000000000E+00 0. -1.
</event>
<event>
 7    1  0.2670433E-009  0.1411849E+03  0.7561462E-02  0.1211743E+00
          2   -1    0    0  501    0  0.00000000000E+00  0.00000000000E+00  0.89919261432E+03  0.89919261432E+03  0.00000000000E+00 0. -1.
         -2   -1    0    0    0  501 -0.00000000000E+00 -0.00000000000E+00 -0.27607995888E+02  0.27607995888E+02  0.00000000000E+00 0.  1.
         25    2    1    2    0    0 -0.81986976913E+02 -0.56701748070E+02  0.62998395042E+03  0.64997109192E+03  0.12508273232E+03 0.  0.
          5    1    3    3  502    0 -0.96385350357E+02 -0.77287143192E+01  0.27991116771E+03  0.29617157695E+03  0.41800000000E+01 0.  1.
         -5    1    3    3    0  502  0.14398373445E+02 -0.48973033751E+02  0.35007278271E+03  0.35379951496E+03  0.41800000000E+01 0.  1.
        -11    1    1    2    0    0  0.58207502280E+02  0.81408340509E+02  0.19219752932E+03  0.21669176611E+03  0.00000000000E+00 0. -1.
         11    1    1    2    0    0  0.23779474633E+02 -0.24706592439E+02  0.49403138701E+02  0.60137752180E+02  0.00000000000E+00 0.  1.
</event>
<event>
 7    1  0.2670433E-009  0.7819178E+02  0.7561462E-02  0.1334263E+00
          1   -1    0    0  501    0  0.00000000000E+00  0.00000000000E+00  0.16756425759E+02  0.16756425759E+02  0.00000000000E+00 0. -1.
         -1   -1    0    0    0  501 -0.00000000000E+00 -0.00000000000E+00 -0.12276869890E+04  0.12276869890E+04  0.00000000000E+00 0.  1.
         25    2    1    2    0    0  0.65229779142E+02  0.94904742270E+01 -0.94377759161E+03  0.95431055319E+03  0.12508995284E+03 0.  0.
          5    1    3    3  502    0  0.17926296069E+02  0.83905879508E+01 -0.17305417731E+02  0.26621493943E+02  0.41800000000E+01 0. -1.
         -5    1    3    3    0  502  0.47303483073E+02  0.10998862762E+01 -0.92647217388E+03  0.92768905924E+03  0.41800000000E+01 0. -1.
        -11    1    1    2    0    0 -0.65416986244E+02  0.12552066920E+02 -0.25766265327E+03  0.26613338641E+03  0.00000000000E+00 0.  1.
         11    1    1    2    0    0  0.18720710221E+00 -0.22042541147E+02 -0.94903183998E+01  0.23999475203E+02  0.00000000000E+00 0. -1.
</event>
<event>
 7    1  0.2670433E-009  0.1107598E+03  0.7561462E-02  0.1259169E+00
          1   -1    0    0  501    0  0.00000000000E+00  0.00000000000E+00  0.75120197228E+02  0.75120197228E+02  0.00000000000E+00 0. -1.
         -1   -1    0    0    0  501 -0.00000000000E+00 -0.00000000000E+00 -0.17304430977E+03  0.17304430977E+03  0.00000000000E+00 0.  1.
         25    2    1    2    0    0 -0.13783786965E+02  0.29642326541E+02 -0.47733625573E+02  0.13782066267E+03  0.12508947095E+03 0.  0.
          5    1    3    3  502    0  0.54417241081E+02  0.26222505985E+02 -0.17539050837E+02  0.63039246912E+02  0.41800000000E+01 0. -1.
         -5    1    3    3    0  502 -0.68201028046E+02  0.34198205561E+01 -0.30194574736E+02  0.74781415757E+02  0.41800000000E+01 0. -1.
        -11    1    1    2    0    0 -0.35365211563E+02 -0.24744644149E+02 -0.42097897548E+02  0.60292856799E+02  0.00000000000E+00 0.  1.
         11    1    1    2    0    0  0.49148998528E+02 -0.48976823914E+01 -0.80925894192E+01  0.50050987529E+02  0.00000000000E+00 0. -1.
</event>
<event>
 7    1  0.2670433E-009  0.1901178E+03  0.7561462E-02  0.1158355E+00
         -2   -1    0    0    0  501 -0.00000000000E+00  0.00000000000E+00  0.19512170885E+02  0.19512170885E+02  0.00000000000E+00 0. -1.
          2   -1    0    0  501    0  0.00000000000E+00 -0.00000000000E+00 -0.24532023641E+04  0.24532023641E+04  0.00000000000E+00 0.  1.
         25    2    1    2    0    0 -0.16025457696E+03  0.71797720789E+02 -0.16661715150E+04  0.16800626803E+04  0.12508657080E+03 0.  0.
          5    1    3    3  502    0 -0.65722178464E+01 -0.61209161403E+01 -0.74108165911E+01  0.12371429358E+02  0.41800000000E+01 0.  1.
         -5    1    3    3    0  502 -0.15368235912E+03  0.77918636930E+02 -0.16587606984E+04  0.16676912509E+04  0.41800000000E+01 0.  1.
        -11    1    1    2    0    0  0.20875807014E+02  0.21720886877E+02 -0.12321592379E+03  0.12684541821E+03  0.00000000000E+00 0.  1.
         11    1    1    2    0    0  0.13937876995E+03 -0.93518607667E+02 -0.64430275440E+03  0.66580643645E+03  0.00000000000E+00 0. -1.
</event>
<event>
 7    1  0.2670433E-009  0.1076377E+03  0.7561462E-02  0.1265008E+00
         -1   -1    0    0    0  501 -0.00000000000E+00  0.00000000000E+00  0.13273367384E+03  0.13273367384E+03  0.00000000000E+00 0.  1.
          1   -1    0    0  501    0  0.00000000000E+00 -0.00000000000E+00 -0.10134900460E+03  0.10134900460E+03  0.00000000000E+00 0. -1.
         25    2    1    2    0    0 -0.61625844385E+00 -0.42225282491E+01  0.60665285303E+02  0.13909168597E+03  0.12509200912E+03 0.  0.
          5    1    3    3  502    0  0.58389374396E+02 -0.23034388187E+02  0.26761277568E+02  0.68363297599E+02  0.41800000000E+01 0. -1.
         -5    1    3    3    0  502 -0.59005632840E+02  0.18811859938E+02  0.33904007735E+02  0.70728388371E+02  0.41800000000E+01 0. -1.
        -11    1    1    2    0    0 -0.37103474389E+02 -0.23111236341E+02 -0.12300019446E+02  0.45410213997E+02  0.00000000000E+00 0.  1.
         11    1    1    2    0    0  0.37719732833E+02  0.27333764590E+02 -0.16980596620E+02  0.49580778465E+02  0.00000000000E+00 0. -1.
</event>
<event>
 7    1  0.2670433E-009  0.7347021E+02  0.7561462E-02  0.1348675E+00
          2   -1    0    0  501    0  0.00000000000E+00  0.00000000000E+00  0.21107067679E+03  0.21107067679E+03  0.00000000000E+00 0. -1.
         -2   -1    0    0    0  501 -0.00000000000E+00 -0.00000000000E+00 -0.58081631020E+02  0.58081631020E+02  0.00000000000E+00 0.  1.
         25    2    1    2    0    0  0.15745348768E+02  0.74712359018E+01  0.81162983306E+02  0.15012448261E+03  0.12508475145E+03 0.  0.
          5    1    3    3  502    0 -0.31985272384E+01 -0.18775632821E+02 -0.29157747599E+02  0.35077080970E+02  0.41800000000E+01 0. -1.
         -5    1    3    3    0  502  0.18943876007E+02  0.26246868723E+02  0.11032073091E+03  0.11504740164E+03  0.41800000000E+01 0. -1.
        -11    1    1    2    0    0 -0.37287887720E+02  0.32456185756E+02  0.40323025335E+02  0.63794489861E+02  0.00000000000E+00 0.  1.
         11    1    1    2    0    0  0.21542538952E+02 -0.39927421658E+02  0.31503037132E+02  0.55233335345E+02  0.00000000000E+00 0. -1.
</event>
<event>
 7    1  0.2670433E-009  0.2564927E+03  0.7561462E-02  0.1109269E+00
         -2   -1    0    0    0  501 -0.00000000000E+00  0.00000000000E+00  0.17055315714E+03  0.17055315714E+03  0.00000000000E+00 0.  1.
          2   -1    0    0  501    0  0.00000000000E+00 -0.00000000000E+00 -0.40365527048E+03  0.40365527048E+03  0.00000000000E+00 0. -1.
         25    2    1    2    0    0 -0.22172856293E+03  0.88075379147E+02 -0.11113891701E+03  0.29140517200E+03  0.12507712566E+03 0.  0.
          5    1    3    3  502    0 -0.19130125618E+03  0.23139572144E+02 -0.10454942368E+03  0.21927075684E+03  0.41800000000E+01 0.  1.
         -5    1    3    3    0  502 -0.30427306752E+02  0.64935807003E+02 -0.65894933254E+01  0.72134415154E+02  0.41800000000E+01 0.  1.
        -11    1    1    2    0    0  0.20887047118E+01 -0.17627033844E+02  0.63531251800E+01  0.18853042435E+02  0.00000000000E+00 0.  1.
         11    1    1    2    0    0  0.21963985822E+03 -0.70448345303E+02 -0.12831632152E+03  0.26395021319E+03  0.00000000000E+00 0. -1.
</event>
<event>
 7    1  0.2670433E-009  0.1335096E+03  0.7561462E-02  0.1222339E+00
          2   -1    0    0  501    0  0.00000000000E+00  0.00000000000E+00  0.18260222531E+03  0.18260222531E+03  0.00000000000E+00 0. -1.
         -2   -1    0    0    0  501 -0.00000000000E+00 -0.00000000000E+00 -0.14490266372E+03  0.14490266372E+03  0.00000000000E+00 0.  1.
         25    2    1    2    0    0  0.69188546781E+02  0.84792821620E+02 -0.29628934788E+02  0.16882608256E+03  0.12508994673E+03 0.  0.
          5    1    3    3  502    0  0.76426646425E+01  0.90762417918E+02 -0.49491203351E+02  0.10374525743E+03  0.41800000000E+01 0.  1.
         -5    1    3    3    0  502  0.61545882139E+02 -0.59695962984E+01  0.19862268563E+02  0.65080825138E+02  0.41800000000E+01 0.  1.
        -11    1    1    2    0    0 -0.45598849466E+02 -0.31035322123E+02 -0.15371972537E+02  0.57260316377E+02  0.00000000000E+00 0.  1.
         11    1    1    2    0    0 -0.23589697316E+02 -0.53757499497E+02  0.82700468914E+02  0.10141849008E+03  0.00000000000E+00 0. -1.
</event>
<event>
 7    1  0.2670433E-009  0.1658597E+03  0.7561462E-02  0.1182236E+00
         -2   -1    0    0    0  501 -0.00000000000E+00  0.00000000000E+00  0.20503118409E+02  0.20503118409E+02  0.00000000000E+00 0.  1.
          2   -1    0    0  501    0  0.00000000000E+00 -0.00000000000E+00 -0.21180906817E+04  0.21180906817E+04  0.00000000000E+00 0. -1.
         25    2    1    2    0    0  0.88761313297E+01 -0.14009996758E+03 -0.16567086191E+04  0.16673457367E+04  0.12510623655E+03 0.  0.
          5    1    3    3  502    0  0.33461774125E+02 -0.13641500200E+03 -0.15871745357E+04  0.15933829491E+04  0.41800000000E+01 0. -1.
         -5    1    3    3    0  502 -0.24585642796E+02 -0.36849655819E+01 -0.69534083391E+02  0.73962787644E+02  0.41800000000E+01 0. -1.
        -11    1    1    2    0    0 -0.21784720632E+02  0.14882328956E+03 -0.38843778523E+03  0.41654154482E+03  0.00000000000E+00 0.  1.
         11    1    1    2    0    0  0.12908589303E+02 -0.87233219790E+01 -0.52441158942E+02  0.54706518581E+02  0.00000000000E+00 0. -1.
</event>
<event>
 7    1  0.2670433E-009  0.1155160E+03  0.7561462E-02  0.1250683E+00
         -4   -1    0    0    0  501 -0.00000000000E+00  0.00000000000E+00  0.45036495245E+03  0.45036495245E+03  0.00000000000E+00 0.  1.
          4   -1    0    0  501    0  0.00000000000E+00 -0.00000000000E+00 -0.50828561988E+02  0.50828561988E+02  0.00000000000E+00 0. -1.
         25    2    1    2    0    0  0.71210770321E+02  0.72918279276E+02  0.25709006488E+03  0.30353086703E+03  0.12509051329E+03 0.  0.
          5    1    3    3  502    0  0.45032052023E+01  0.38944120764E+02  0.21285837213E+03  0.21647882665E+03  0.41800000000E+01 0.  1.
         -5    1    3    3    0  502  0.66707565119E+02  0.33974158512E+02  0.44231692747E+02  0.87052040378E+02  0.41800000000E+01 0.  1.
        -11    1    1    2    0    0 -0.14740587262E+02 -0.55662022755E+02  0.18684763084E+02  0.60536485374E+02  0.00000000000E+00 0. -1.
         11    1    1    2    0    0 -0.56470183059E+02 -0.17256256521E+02  0.12376156249E+03  0.13712616204E+03  0.00000000000E+00 0.  1.
</event>
<event>
 7    1  0.2670433E-009  0.1366445E+03  0.7561462E-02  0.1217917E+00
         -1   -1    0    0    0  501 -0.00000000000E+00  0.00000000000E+00  0.10054179516E+03  0.10054179516E+03  0.00000000000E+00 0.  1.
          1   -1    0    0  501    0  0.00000000000E+00 -0.00000000000E+00 -0.22481612999E+03  0.22481612999E+03  0.00000000000E+00 0. -1.
         25    2    1    2    0    0 -0.32015108433E+02 -0.67879590463E+02 -0.45395662136E+02  0.15277687341E+03  0.12508957166E+03 0.  0.
          5    1    3    3  502    0 -0.18399668379E+02  0.26479943005E+02  0.18994802738E+02  0.37656474995E+02  0.41800000000E+01 0.  1.
         -5    1    3    3    0  502 -0.13615440054E+02 -0.94359533468E+02 -0.64390464875E+02  0.11512039841E+03  0.41800000000E+01 0.  1.
        -11    1    1    2    0    0  0.11651658242E+02  0.10358687212E+03 -0.29503876181E+02  0.10833503554E+03  0.00000000000E+00 0.  1.
         11    1    1    2    0    0  0.20363450191E+02 -0.35707281656E+02 -0.49374796513E+02  0.64246016201E+02  0.00000000000E+00 0. -1.
</event>
<event>
 7    1  0.2670433E-009  0.1811200E+03  0.7561462E-02  0.1166724E+00
          1   -1    0    0  501    0  0.00000000000E+00  0.00000000000E+00  0.13666858095E+03  0.13666858095E+03  0.00000000000E+00 0. -1.
         -1   -1    0    0    0  501 -0.00000000000E+00 -0.00000000000E+00 -0.29421468247E+03  0.29421468247E+03  0.00000000000E+00 0.  1.
         25    2    1    2    0    0  0.11567499703E+03 -0.12180138141E+03 -0.76917915943E+02  0.22311006148E+03  0.12508178241E+03 0.  0.
          5    1    3    3  502    0  0.22899384371E+02 -0.87729138718E+02  0.10146559167E+02  0.91330217605E+02  0.41800000000E+01 0.  1.
         -5    1    3    3    0  502  0.92775612660E+02 -0.34072242688E+02 -0.87064475110E+02  0.13177984388E+03  0.41800000000E+01 0.  1.
        -11    1    1    2    0    0 -0.55636933891E+02  0.86669864198E+02 -0.91010721717E+02  0.13744120649E+03  0.00000000000E+00 0.  1.
         11    1    1    2    0    0 -0.60038063140E+02  0.35131517207E+02  0.10382536140E+02  0.70331995447E+02  0.00000000000E+00 0. -1.
</event>
<event>
 7    1  0.2670433E-009  0.1487164E+03  0.7561462E-02  0.1202059E+00
         -3   -1    0    0    0  501 -0.00000000000E+00  0.00000000000E+00  0.55418809441E+03  0.55418809441E+03  0.00000000000E+00 0.  1.
          3   -1    0    0  501    0  0.00000000000E+00 -0.00000000000E+00 -0.44455110905E+02  0.44455110905E+02  0.00000000000E+00 0. -1.
         25    2    1    2    0    0 -0.43804757789E+02 -0.10027262825E+03  0.33214697313E+03  0.37140591143E+03  0.12508909826E+03 0.  0.
          5    1    3    3  502    0 -0.64178730658E+02 -0.12078631356E+03  0.26772162487E+03  0.30066689847E+03  0.41800000000E+01 0. -1.
         -5    1    3    3    0  502  0.20373972869E+02  0.20513685313E+02  0.64425348263E+02  0.70739012959E+02  0.41800000000E+01 0. -1.
        -11    1    1    2    0    0  0.24178393477E+02 -0.46621738428E+01  0.63162834391E+01  0.25420975838E+02  0.00000000000E+00 0. -1.
         11    1    1    2    0    0  0.19626364313E+02  0.10493480209E+03  0.17126972693E+03  0.20181631804E+03  0.00000000000E+00 0.  1.
</event>
<event>
 7    1  0.2670433E-009  0.9868206E+02  0.7561462E-02  0.1283092E+00
          1   -1    0    0  501    0  0.00000000000E+00  0.00000000000E+00  0.11007920709E+04  0.11007920709E+04  0.00000000000E+00 0. -1.
         -1   -1    0    0    0  501 -0.00000000000E+00 -0.00000000000E+00 -0.17222129234E+02  0.17222129234E+02  0.00000000000E+00 0.  1.
         25    2    1    2    0    0  0.14061725313E+02  0.48216295126E+02  0.87859502661E+03  0.88887567883E+03  0.12509279917E+03 0.  0.
          5    1    3    3  502    0  0.51858994085E+02  0.44498642692E+02  0.25252089892E+03  0.26163669709E+03  0.41800000000E+01 0.  1.
         -5    1    3    3    0  502 -0.37797268772E+02  0.37176524341E+01  0.62607412769E+03  0.62723898175E+03  0.41800000000E+01 0.  1.
        -11    1    1    2    0    0  0.31261031220E+02 -0.16251665780E+02  0.32381647180E+02  0.47853315325E+02  0.00000000000E+00 0.  1.
         11    1    1    2    0    0 -0.45322756532E+02 -0.31964629346E+02  0.17259326788E+03  0.18128520598E+03  0.00000000000E+00 0. -1.
</event>
<event>
 7    1  0.2670433E-009  0.3053891E+03  0.7561462E-02  0.1082577E+00
         -1   -1    0    0    0  501 -0.00000000000E+00  0.00000000000E+00  0.29697998777E+03  0.29697998777E+03  0.00000000000E+00 0.  1.
          1   -1    0    0  501    0  0.00000000000E+00 -0.00000000000E+00 -0.33591911331E+03  0.33591911331E+03  0.00000000000E+00 0. -1.
         25    2    1    2    0    0 -0.28774103367E+03 -0.65597376106E+02 -0.36216815329E+01  0.32056172926E+03  0.12509511374E+03 0.  0.
          5    1    3    3  502    0 -0.20222417037E+03  0.56683346437E+01 -0.33796468445E+02  0.20514974720E+03  0.41800000000E+01 0. -1.
         -5    1    3    3    0  502 -0.85516863302E+02 -0.71265710749E+02  0.30174786912E+02  0.11541198206E+03  0.41800000000E+01 0. -1.
        -11    1    1    2    0    0  0.91852698935E+02  0.50074180109E+01  0.30619929145E+02  0.96951392964E+02  0.00000000000E+00 0.  1.
         11    1    1    2    0    0  0.19588833473E+03  0.60589958095E+02 -0.65937373156E+02  0.21538597885E+03  0.00000000000E+00 0. -1.
</event>
<event>
 7    1  0.2670433E-009  0.1182470E+03  0.7561462E-02  0.1246017E+00
         -2   -1    0    0    0  501 -0.00000000000E+00  0.00000000000E+00  0.24353211165E+02  0.24353211165E+02  0.00000000000E+00 0.  1.
          2   -1    0    0  501    0  0.00000000000E+00 -0.00000000000E+00 -0.14093659925E+04  0.14093659925E+04  0.00000000000E+00 0. -1.
         25    2    1    2    0    0  0.50283622280E+02  0.57572900500E+02 -0.12157193530E+04  0.12245261080E+04  0.12509021722E+03 0.  0.
          5    1    3    3  502    0  0.61404981520E+02  0.18344662547E+01 -0.26333152982E+03  0.27043465758E+03  0.41800000000E+01 0. -1.
         -5    1    3    3    0  502 -0.11121359240E+02  0.55738434246E+02 -0.95238782316E+03  0.95409145043E+03  0.41800000000E+01 0. -1.
        -11    1    1    2    0    0 -0.61127536772E+02 -0.18444526506E+01 -0.58147958484E+02  0.84386982606E+02  0.00000000000E+00 0.  1.
         11    1    1    2    0    0  0.10843914493E+02 -0.55728447850E+02 -0.11114546985E+03  0.12480611303E+03  0.00000000000E+00 0. -1.
</event>
<event>
 7    1  0.2670433E-009  0.1454300E+03  0.7561462E-02  0.1206204E+00
         -3   -1    0    0    0  501 -0.00000000000E+00  0.00000000000E+00  0.11015935429E+03  0.11015935429E+03  0.00000000000E+00 0.  1.
          3   -1    0    0  501    0  0.00000000000E+00 -0.00000000000E+00 -0.21557484926E+03  0.21557484926E+03  0.00000000000E+00 0. -1.
         25    2    1    2    0    0  0.56464685776E+02 -0.93049997500E+02 -0.60504342847E+02  0.17651079426E+03  0.12509485286E+03 0.  0.
          5    1    3    3  502    0 -0.10694510825E+02  0.21739322445E+02 -0.32136752093E+02  0.40462500383E+02  0.41800000000E+01 0.  1.
         -5    1    3    3    0  502  0.67159196600E+02 -0.11478931995E+03 -0.28367590754E+02  0.13604829388E+03  0.41800000000E+01 0.  1.
        -11    1    1    2    0    0 -0.29968287020E+02  0.10116092175E+03 -0.55916319943E+02  0.11940797776E+03  0.00000000000E+00 0.  1.
         11    1    1    2    0    0 -0.26496398755E+02 -0.81109242484E+01  0.11005167820E+02  0.29815431540E+02  0.00000000000E+00 0. -1.
</event>
<event>
 7    1  0.2670433E-009  0.2758615E+03  0.7561462E-02  0.1097971E+00
          2   -1    0    0  501    0  0.00000000000E+00  0.00000000000E+00  0.53052140815E+03  0.53052140815E+03  0.00000000000E+00 0. -1.
         -2   -1    0    0    0  501 -0.00000000000E+00 -0.00000000000E+00 -0.18773349947E+03  0.18773349947E+03  0.00000000000E+00 0.  1.
         25    2    1    2    0    0 -0.25689993717E+03  0.71641801845E+02  0.29359858267E+02  0.29604284531E+03  0.12509692038E+03 0.  0.
          5    1    3    3  502    0 -0.85310960272E+02  0.78860488190E+01  0.67333841092E+02  0.10904800899E+03  0.41800000000E+01 0.  1.
         -5    1    3    3    0  502 -0.17158897690E+03  0.63755753026E+02 -0.37973982825E+02  0.18699483632E+03  0.41800000000E+01 0.  1.
        -11    1    1    2    0    0  0.64480459016E+02 -0.63131615942E+02  0.96683705671E+02  0.13225380701E+03  0.00000000000E+00 0.  1.
         11    1    1    2    0    0  0.19241947816E+03 -0.85101859026E+01  0.21674434474E+03  0.28995825530E+03  0.00000000000E+00 0. -1.
</event>
<event>
 7    1  0.2670433E-009  0.1262267E+03  0.7561462E-02  0.1233164E+00
          3   -1    0    0  501    0  0.00000000000E+00  0.00000000000E+00  0.11207322640E+03  0.11207322640E+03  0.00000000000E+00 0. -1.
         -3   -1    0    0    0  501 -0.00000000000E+00 -0.00000000000E+00 -0.25123477191E+03  0.25123477191E+03  0.00000000000E+00 0.  1.
         25    2    1    2    0    0  0.80190340304E+02  0.58410819840E+02  0.15342605237E+02  0.16039368768E+03  0.12509366474E+03 0.  0.
          5    1    3    3  502    0  0.26495003468E+02 -0.14575198191E+02 -0.42859949336E+02  0.52620046258E+02  0.41800000000E+01 0.  1.
         -5    1    3    3    0  502  0.53695336836E+02  0.72986018030E+02  0.58202554573E+02  0.10777364142E+03  0.41800000000E+01 0.  1.
        -11    1    1    2    0    0 -0.18602693712E+02 -0.66546419730E+02 -0.74283060579E+02  0.10145175839E+03  0.00000000000E+00 0.  1.
         11    1    1    2    0    0 -0.61587646593E+02  0.81355998898E+01 -0.80221090171E+02  0.10146255224E+03  0.00000000000E+00 0. -1.
</event>
<event>
 7    1  0.2670433E-009  0.4819587E+02  0.7561462E-02  0.1455323E+00
         -1   -1    0    0    0  501 -0.00000000000E+00  0.00000000000E+00  0.41794733405E+02  0.41794733405E+02  0.00000000000E+00 0. -1.
          1   -1    0    0  501    0  0.00000000000E+00 -0.00000000000E+00 -0.29043147581E+03  0.29043147581E+03  0.00000000000E+00 0.  1.
         25    2    1    2    0    0  0.34177021309E+01  0.55178822759E+01 -0.12128668353E+03  0.17437078911E+03  0.12511029047E+03 0.  0.
          5    1    3    3  502    0  0.41359127568E+01  0.80530550421E+01  0.25562499271E+02  0.27438499209E+02  0.41800000000E+01 0.  1.
         -5    1    3    3    0  502 -0.71821062593E+00 -0.25351727662E+01 -0.14684918280E+03  0.14693228990E+03  0.41800000000E+01 0.  1.
        -11    1    1    2    0    0  0.34588706551E+02 -0.20972948497E+02 -0.24911768152E+02  0.47506203616E+02  0.00000000000E+00 0.  1.
         11    1    1    2    0    0 -0.38006408682E+02  0.15455066221E+02 -0.10243829072E+03  0.11034921648E+03  0.00000000000E+00 0. -1.
</event>
<event>
 7    1  0.2670433E-009  0.1101239E+03  0.7561462E-02  0.1260341E+00
         -1   -1    0    0    0  501 -0.00000000000E+00  0.00000000000E+00  0.14185178934E+02  0.14185178934E+02  0.00000000000E+00 0.  1.
          1   -1    0    0  501    0  0.00000000000E+00 -0.00000000000E+00 -0.89422874532E+03  0.89422874532E+03  0.00000000000E+00 0. -1.
         25    2    1    2    0    0 -0.24133403608E+02  0.61897260397E+01 -0.57818533776E+03  0.59208574951E+03  0.12508603476E+03 0.  0.
          5    1    3    3  502    0  0.37974698664E+02  0.41144579626E+02 -0.25721034047E+03  0.26326713774E+03  0.41800000000E+01 0.  1.
         -5    1    3    3    0  502 -0.62108102272E+02 -0.34954853587E+02 -0.32097499729E+03  0.32881861177E+03  0.41800000000E+01 0.  1.
        -11    1    1    2    0    0 -0.31960757369E+02  0.11383611498E+02 -0.14223472903E+03  0.14622515093E+03  0.00000000000E+00 0.  1.
         11    1    1    2    0    0  0.56094160977E+02 -0.17573337538E+02 -0.15962349959E+03  0.17010302381E+03  0.00000000000E+00 0. -1.
</event>
<event>
 7    1  0.3644470E-009  0.1694030E+03  0.7561462E-02  0.1178472E+00
         -2   -1    0    0    0  501 -0.00000000000E+00  0.00000000000E+00  0.37337364242E+02  0.37337364242E+02  0.00000000000E+00 0.  1.
          2   -1    0    0  501    0  0.00000000000E+00 -0.00000000000E+00 -0.90296322767E+03  0.90296322767E+03  0.00000000000E+00 0. -1.
         25    2    1    2    0    0  0.11555909397E+03  0.89000705520E+02 -0.39766427480E+03  0.44165534240E+03  0.12509011246E+03 0.  0.
          5    1    3    3  502    0  0.56301800951E+02  0.10892381969E+03 -0.20339251684E+03  0.23752953415E+03  0.41800000000E+01 0.  1.
         -5    1    3    3    0  502  0.59257293020E+02 -0.19923114167E+02 -0.19427175796E+03  0.20412580826E+03  0.41800000000E+01 0.  1.
        -11    1    1    2    0    0 -0.27930546127E+02 -0.50586896668E+02 -0.29847453182E+03  0.30401676872E+03  0.00000000000E+00 0. -1.
         11    1    1    2    0    0 -0.87628547844E+02 -0.38413808852E+02 -0.16948705681E+03  0.19462848079E+03  0.00000000000E+00 0.  1.
</event>
<event>
 7    1  0.2670433E-009  0.1621391E+03  0.7561462E-02  0.1186303E+00
          1   -1    0    0  501    0  0.00000000000E+00  0.00000000000E+00  0.77661537404E+03  0.77661537404E+03  0.00000000000E+00 0. -1.
         -1   -1    0    0    0  501 -0.00000000000E+00 -0.00000000000E+00 -0.57933282918E+02  0.57933282918E+02  0.00000000000E+00 0.  1.
         25    2    1    2    0    0 -0.10228877958E+03 -0.11407539846E+03  0.56454459371E+03  0.59819281417E+03  0.12509138129E+03 0.  0.
          5    1    3    3  502    0 -0.96361953520E+02 -0.78467181497E+02  0.54050354195E+03  0.55462083978E+03  0.41800000000E+01 0. -1.
         -5    1    3    3    0  502 -0.59268260573E+01 -0.35608216962E+02  0.24041051761E+02  0.43571974388E+02  0.41800000000E+01 0. -1.
        -11    1    1    2    0    0  0.68470053492E+02  0.33522669294E+02  0.24591452984E+02  0.80104039484E+02  0.00000000000E+00 0.  1.
         11    1    1    2    0    0  0.33818726085E+02  0.80552729165E+02  0.12954604443E+03  0.15625180331E+03  0.00000000000E+00 0. -1.
</event>
<event>
 7    1  0.2670433E-009  0.9196492E+02  0.7561462E-02  0.1298162E+00
          2   -1    0    0  501    0  0.00000000000E+00  0.00000000000E+00  0.66669430805E+02  0.66669430805E+02  0.00000000000E+00 0.  1.
         -2   -1    0    0    0  501 -0.00000000000E+00 -0.00000000000E+00 -0.29872376050E+03  0.29872376050E+03  0.00000000000E+00 0. -1.
         25    2    1    2    0    0  0.38203450545E+02 -0.34699596182E+02 -0.22014574065E+03  0.25840271311E+03  0.12507697392E+03 0.  0.
          5    1    3    3  502    0  0.26593253216E+02 -0.50857734549E+02 -0.22907895640E+03  0.23619557774E+03  0.41800000000E+01 0. -1.
         -5    1    3    3    0  502  0.11610197329E+02  0.16158138367E+02  0.89332157468E+01  0.22207135364E+02  0.41800000000E+01 0. -1.
        -11    1    1    2    0    0 -0.68801208465E+02  0.17652190344E+02 -0.11549081102E+02  0.71962402576E+02  0.00000000000E+00 0.  1.
         11    1    1    2    0    0  0.30597757920E+02  0.17047405838E+02 -0.35950793552E+00  0.35028075618E+02  0.00000000000E+00 0. -1.
</event>
<event>
 7    1  0.2670433E-009  0.8107029E+02  0.7561462E-02  0.1326041E+00
          2   -1    0    0  501    0  0.00000000000E+00  0.00000000000E+00  0.84821916978E+02  0.84821916978E+02  0.00000000000E+00 0. -1.
         -2   -1    0    0    0  501 -0.00000000000E+00 -0.00000000000E+00 -0.15971930480E+03  0.15971930480E+03  0.00000000000E+00 0.  1.
         25    2    1    2    0    0 -0.18902350540E+02  0.25594926227E+02 -0.82096823664E+01  0.12932892829E+03  0.12508466614E+03 0.  0.
          5    1    3    3  502    0 -0.63902499959E+02  0.36812571461E+02 -0.27646227298E+02  0.78870027275E+02  0.41800000000E+01 0. -1.
         -5    1    3    3    0  502  0.45000149419E+02 -0.11217645235E+02  0.19436544932E+02  0.50458901011E+02  0.41800000000E+01 0. -1.
        -11    1    1    2    0    0  0.25522547552E+01 -0.25226436373E+02 -0.86142618797E+02  0.89796647319E+02  0.00000000000E+00 0.  1.
         11    1    1    2    0    0  0.16350095785E+02 -0.36848985318E+00  0.19454913345E+02  0.25415646169E+02  0.00000000000E+00 0. -1.
</event>
<event>
 7    1  0.2670433E-009  0.1128558E+03  0.7561462E-02  0.1255371E+00
          2   -1    0    0  501    0  0.00000000000E+00  0.00000000000E+00  0.46777402113E+02  0.46777402113E+02  0.00000000000E+00 0.  1.
         -2   -1    0    0    0  501 -0.00000000000E+00 -0.00000000000E+00 -0.37842274561E+03  0.37842274561E+03  0.00000000000E+00 0. -1.
         25    2    1    2    0    0 -0.41886528054E+02  0.63812670249E+02 -0.18601151287E+03  0.23679889763E+03  0.12508755685E+03 0.  0.
          5    1    3    3  502    0  0.13106590416E+02  0.47417203798E+02 -0.17007358969E+03  0.17709509377E+03  0.41800000000E+01 0.  1.
         -5    1    3    3    0  502 -0.54993118470E+02  0.16395466451E+02 -0.15937923183E+02  0.59703803853E+02  0.41800000000E+01 0.  1.
        -11    1    1    2    0    0  0.70638521711E+02 -0.52017149296E+02 -0.11621877554E+03  0.14561039921E+03  0.00000000000E+00 0. -1.
         11    1    1    2    0    0 -0.28751993658E+02 -0.11795520953E+02 -0.29415055081E+02  0.42790850883E+02  0.00000000000E+00 0.  1.
</event>
<event>
 7    1  0.2670433E-009  0.1105383E+03  0.7561462E-02  0.1259576E+00
         -2   -1    0    0    0  501 -0.00000000000E+00  0.00000000000E+00  0.12610228971E+03  0.12610228971E+03  0.00000000000E+00 0.  1.
          2   -1    0    0  501    0  0.00000000000E+00 -0.00000000000E+00 -0.13490001089E+03  0.13490001089E+03  0.00000000000E+00 0. -1.
         25    2    1    2    0    0 -0.63070278848E+02  0.24661865008E+02  0.23319506490E+02  0.14414399264E+03  0.12509046156E+03 0.  0.
          5    1    3    3  502    0  0.11011185374E+02 -0.22852792813E+02 -0.31279814386E+02  0.40489449622E+02  0.41800000000E+01 0. -1.
         -5    1    3    3    0  502 -0.74081464222E+02  0.47514657821E+02  0.54599320876E+02  0.10365454302E+03  0.41800000000E+01 0. -1.
        -11    1    1    2    0    0 -0.18709421068E+02 -0.16723735965E+02 -0.23263403492E+02  0.34218587396E+02  0.00000000000E+00 0. -1.
         11    1    1    2    0    0  0.81779699916E+02 -0.79381290432E+01 -0.88538241743E+01  0.82639720556E+02  0.00000000000E+00 0.  1.
</event>
<event>
 7    1  0.4632959E-009  0.1311623E+03  0.7561462E-02  0.1225741E+00
          2   -1    0    0  501    0  0.00000000000E+00  0.00000000000E+00  0.59562399739E+03  0.59562399739E+03  0.00000000000E+00 0. -1.
         -2   -1    0    0    0  501 -0.00000000000E+00 -0.00000000000E+00 -0.38018909285E+02  0.38018909285E+02  0.00000000000E+00 0.  1.
         25    2    1    2    0    0  0.52086040073E+02 -0.86548350051E+02  0.35487969255E+03  0.38960257112E+03  0.12508794814E+03 0.  0.
          5    1    3    3  502    0 -0.28298231251E+02 -0.58243120551E+01  0.16935816315E+03  0.17185567296E+03  0.41800000000E+01 0.  1.
         -5    1    3    3    0  502  0.80384271324E+02 -0.80724037996E+02  0.18552152940E+03  0.21774689816E+03  0.41800000000E+01 0.  1.
        -11    1    1    2    0    0 -0.62497157761E+01  0.70188757364E+02  0.57729491546E+02  0.91094537716E+02  0.00000000000E+00 0. -1.
         11    1    1    2    0    0 -0.45836324297E+02  0.16359592687E+02  0.14499590400E+03  0.15294579783E+03  0.00000000000E+00 0.  1.
</event>
<event>
 7    1  0.2670433E-009  0.1167267E+03  0.7561462E-02  0.1248597E+00
          2   -1    0    0  501    0  0.00000000000E+00  0.00000000000E+00  0.33964823512E+03  0.33964823512E+03  0.00000000000E+00 0. -1.
         -2   -1    0    0    0  501 -0.00000000000E+00 -0.00000000000E+00 -0.98268583188E+02  0.98268583188E+02  0.00000000000E+00 0.  1.
         25    2    1    2    0    0  0.55822077011E+02 -0.93046999376E+02  0.24733347255E+03  0.29764942292E+03  0.12508990346E+03 0.  0.
          5    1    3    3  502    0  0.47471045664E+02 -0.29042166114E+02  0.22078781449E+03  0.22773159424E+03  0.41800000000E+01 0. -1.
         -5    1    3    3    0  502  0.83510313475E+01 -0.64004833262E+02  0.26545658060E+02  0.69917828680E+02  0.41800000000E+01 0. -1.
        -11    1    1    2    0    0 -0.43714859400E+02  0.42435042359E+02 -0.44551812985E+02  0.75475729825E+02  0.00000000000E+00 0.  1.
         11    1    1    2    0    0 -0.12107217612E+02  0.50611957017E+02  0.38597992366E+02  0.64791665560E+02  0.00000000000E+00 0. -1.
</event>
<event>
 7    1  0.2670433E-009  0.8549550E+02  0.7561462E-02  0.1314142E+00
         -2   -1    0    0    0  501 -0.00000000000E+00  0.00000000000E+00  0.29523890966E+02  0.29523890966E+02  0.00000000000E+00 0. -1.
          2   -1    0    0  501    0  0.00000000000E+00 -0.00000000000E+00 -0.13746993193E+04  0.13746993193E+04  0.00000000000E+00 0.  1.
         25    2    1    2    0    0 -0.23799369872E+02 -0.27728088716E+02 -0.12752290243E+04  0.12818704626E+04  0.12509021337E+03 0.  0.
          5    1    3    3  502    0  0.36165777092E+02 -0.25845773580E+02 -0.95499974652E+03  0.95604286290E+03  0.41800000000E+01 0.  1.
         -5    1    3    3    0  502 -0.59965146964E+02 -0.18823151367E+01 -0.32022927783E+03  0.32582759972E+03  0.41800000000E+01 0. -1.
        -11    1    1    2    0    0  0.25770762488E+02 -0.10569941082E+02 -0.78298165666E+02  0.83105105741E+02  0.00000000000E+00 0.  1.
         11    1    1    2    0    0 -0.19713926154E+01  0.38298029799E+02  0.83517616470E+01  0.39247641941E+02  0.00000000000E+00 0. -1.
</event>
<event>
 7    1  0.2670433E-009  0.1703632E+03  0.7561462E-02  0.1177470E+00
          2   -1    0    0  501    0  0.00000000000E+00  0.00000000000E+00  0.97211316621E+03  0.97211316621E+03  0.00000000000E+00 0. -1.
         -2   -1    0    0    0  501 -0.00000000000E+00 -0.00000000000E+00 -0.39967412366E+02  0.39967412366E+02  0.00000000000E+00 0.  1.
         25    2    1    2    0    0 -0.12199012034E+03  0.11358708937E+03  0.63369456626E+03  0.66708307546E+03  0.12508960757E+03 0.  0.
          5    1    3    3  502    0 -0.25811268730E+02  0.12460723149E+02  0.14594205054E+02  0.32433847074E+02  0.41800000000E+01 0.  1.
         -5    1    3    3    0  502 -0.96178851607E+02  0.10112636622E+03  0.61910036121E+03  0.63464922839E+03  0.41800000000E+01 0.  1.
        -11    1    1    2    0    0  0.54500349987E+02 -0.79877704302E+02  0.14981180845E+03  0.17830960082E+03  0.00000000000E+00 0.  1.
         11    1    1    2    0    0  0.67489770349E+02 -0.33709385071E+02  0.14863937913E+03  0.16668790230E+03  0.00000000000E+00 0. -1.
</event>
<event>
 7    1  0.2670433E-009  0.1207842E+03  0.7561462E-02  0.1241809E+00
         -1   -1    0    0    0  501 -0.00000000000E+00  0.00000000000E+00  0.74214058357E+02  0.74214058357E+02  0.00000000000E+00 0.  1.
          1   -1    0    0  501    0  0.00000000000E+00 -0.00000000000E+00 -0.22955991343E+03  0.22955991343E+03  0.00000000000E+00 0. -1.
         25    2    1    2    0    0 -0.49660238963E+01 -0.69962173720E+02 -0.69609869454E+02  0.15942293470E+03  0.12510304168E+03 0.  0.
          5    1    3    3  502    0 -0.55415814024E+01 -0.97524123399E+02 -0.16104741283E+02  0.99088338673E+02  0.41800000000E+01 0.  1.
         -5    1    3    3    0  502  0.57555750613E+00  0.27561949679E+02 -0.53505128171E+02  0.60334596022E+02  0.41800000000E+01 0.  1.
        -11    1    1    2    0    0 -0.34154662222E+02  0.68759926649E+02 -0.60907580751E+02  0.98001029878E+02  0.00000000000E+00 0.  1.
         11    1    1    2    0    0  0.39120686118E+02  0.12022470712E+01 -0.24828404866E+02  0.46350007212E+02  0.00000000000E+00 0. -1.
</event>
<event>
 7    1  0.2670433E-009  0.1069235E+03  0.7561462E-02  0.1266375E+00
          2   -1    0    0  501    0  0.00000000000E+00  0.00000000000E+00  0.95662112568E+02  0.95662112568E+02  0.00000000000E+00 0. -1.
         -2   -1    0    0    0  501 -0.00000000000E+00 -0.00000000000E+00 -0.14608225297E+03  0.14608225297E+03  0.00000000000E+00 0.  1.
         25    2    1    2    0    0 -0.13769859845E+01  0.80383787927E+01  0.15849106764E+02  0.12635293607E+03  0.12508940260E+03 0.  0.
          5    1    3    3  502    0  0.25246637593E+02  0.57727134188E+02 -0.10456940720E+02  0.64004958719E+02  0.41800000000E+01 0. -1.
         -5    1    3    3    0  502 -0.26623623577E+02 -0.49688755396E+02  0.26306047484E+02  0.62347977348E+02  0.41800000000E+01 0. -1.
        -11    1    1    2    0    0  0.15368448565E+02  0.40680814744E+02 -0.35114322289E+02  0.55893948951E+02  0.00000000000E+00 0.  1.
         11    1    1    2    0    0 -0.13991462580E+02 -0.48719193537E+02 -0.31154924876E+02  0.59497480519E+02  0.00000000000E+00 0. -1.
</event>
<event>
 7    1  0.2670433E-009  0.1574754E+03  0.7561462E-02  0.1191577E+00
          1   -1    0    0  501    0  0.00000000000E+00  0.00000000000E+00  0.43480134128E+03  0.43480134128E+03  0.00000000000E+00 0. -1.
         -1   -1    0    0    0  501 -0.00000000000E+00 -0.00000000000E+00 -0.62403837127E+02  0.62403837127E+02  0.00000000000E+00 0.  1.
         25    2    1    2    0    0  0.40124998470E+01  0.11334160812E+03  0.14466989796E+03  0.22234940061E+03  0.12508979291E+03 0.  0.
          5    1    3    3  502    0 -0.59497251359E+02  0.66171723086E+02  0.67653515560E+02  0.11186192571E+03  0.41800000000E+01 0. -1.
         -5    1    3    3    0  502  0.63509751206E+02  0.47169885036E+02  0.77016382402E+02  0.11048747491E+03  0.41800000000E+01 0. -1.
        -11    1    1    2    0    0 -0.28303660434E+02 -0.11848218339E+03  0.14985580629E+03  0.19312143240E+03  0.00000000000E+00 0.  1.
         11    1    1    2    0    0  0.24291160587E+02  0.51405752677E+01  0.77871799897E+02  0.81734345388E+02  0.00000000000E+00 0. -1.
</event>
<event>
 7    1  0.2670433E-009  0.1636352E+03  0.7561462E-02  0.1184653E+00
         -1   -1    0    0    0  501 -0.00000000000E+00  0.00000000000E+00  0.56987734851E+02  0.56987734851E+02  0.00000000000E+00 0.  1.
          1   -1    0    0  501    0  0.00000000000E+00 -0.00000000000E+00 -0.52714484213E+03  0.52714484213E+03  0.00000000000E+00 0. -1.
         25    2    1    2    0    0  0.98364664289E+02 -0.87726813052E+02 -0.19803396814E+03  0.26876777344E+03  0.12508821923E+03 0.  0.
          5    1    3    3  502    0 -0.21949888581E+02  0.55570794879E+01 -0.62317542810E+01  0.23853425384E+02  0.41800000000E+01 0.  1.
         -5    1    3    3    0  502  0.12031455287E+03 -0.93283892540E+02 -0.19180221386E+03  0.24491434805E+03  0.41800000000E+01 0.  1.
        -11    1    1    2    0    0 -0.61794950193E+02  0.96266104427E+02 -0.15688059631E+03  0.19415792600E+03  0.00000000000E+00 0. -1.
         11    1    1    2    0    0 -0.36569714096E+02 -0.85392913748E+01 -0.11524254283E+03  0.12120687754E+03  0.00000000000E+00 0.  1.
</event>
<event>
 7    1  0.2670433E-009  0.1129419E+03  0.7561462E-02  0.1255217E+00
          1   -1    0    0  501    0  0.00000000000E+00  0.00000000000E+00  0.39964416199E+02  0.39964416199E+02  0.00000000000E+00 0. -1.
         -1   -1    0    0    0  501 -0.00000000000E+00 -0.00000000000E+00 -0.37548326853E+03  0.37548326853E+03  0.00000000000E+00 0.  1.
         25    2    1    2    0    0 -0.31137739327E+01 -0.46952068484E+02 -0.13401920299E+03  0.18926511136E+03  0.12508374509E+03 0.  0.
          5    1    3    3  502    0  0.49854161086E+01  0.38863873635E+02 -0.14806279212E+02  0.42094576275E+02  0.41800000000E+01 0.  1.
         -5    1    3    3    0  502 -0.80991900413E+01 -0.85815942119E+02 -0.11921292378E+03  0.14717053508E+03  0.41800000000E+01 0.  1.
        -11    1    1    2    0    0  0.45420844033E+02  0.17711220575E+02 -0.12328904964E+03  0.13257801540E+03  0.00000000000E+00 0. -1.
         11    1    1    2    0    0 -0.42307070100E+02  0.29240847908E+02 -0.78210599702E+02  0.93604557969E+02  0.00000000000E+00 0.  1.
</event>
<event>
 7    1  0.2670433E-009  0.1814235E+03  0.7561462E-02  0.1166432E+00
         -2   -1    0    0    0  501 -0.00000000000E+00  0.00000000000E+00  0.43958537619E+02  0.43958537619E+02  0.00000000000E+00 0.  1.
          2   -1    0    0  501    0  0.00000000000E+00 -0.00000000000E+00 -0.86814611560E+03  0.86814611560E+03  0.00000000000E+00 0. -1.
         25    2    1    2    0    0  0.10938229549E+03  0.11219889624E+03 -0.33788815094E+03  0.39289793081E+03  0.12508917862E+03 0.  0.
          5    1    3    3  502    0  0.63075633113E+02  0.12561063074E+03 -0.30040401466E+03  0.33168751932E+03  0.41800000000E+01 0. -1.
         -5    1    3    3    0  502  0.46306662378E+02 -0.13411734498E+02 -0.37484136278E+02  0.61210411495E+02  0.41800000000E+01 0. -1.
        -11    1    1    2    0    0  0.24179380984E+01 -0.41472272446E+02 -0.60966336903E+02  0.73774589405E+02  0.00000000000E+00 0.  1.
         11    1    1    2    0    0 -0.11180023359E+03 -0.70726623793E+02 -0.42533309014E+03  0.44543213300E+03  0.00000000000E+00 0. -1.
</event>
<event>
 7    1  0.2670433E-009  0.1125878E+03  0.7561462E-02  0.1255851E+00
         -1   -1    0    0    0  501 -0.00000000000E+00  0.00000000000E+00  0.26284194997E+03  0.26284194997E+03  0.00000000000E+00 0.  1.
          1   -1    0    0  501    0  0.00000000000E+00 -0.00000000000E+00 -0.72910837315E+02  0.72910837315E+02  0.00000000000E+00 0. -1.
         25    2    1    2    0    0  0.17571021771E+02 -0.74036562270E+02  0.15413294778E+03  0.21258380046E+03  0.12507898812E+03 0.  0.
          5    1    3    3  502    0  0.36221127287E+02  0.22289716205E+02  0.75589969476E+02  0.86833849366E+02  0.41800000000E+01 0.  1.
         -5    1    3    3    0  502 -0.18650105516E+02 -0.96326278475E+02  0.78542978303E+02  0.12574995110E+03  0.41800000000E+01 0.  1.
        -11    1    1    2    0    0  0.10879926141E+02  0.28914853050E+02  0.57743549592E+02  0.65488617631E+02  0.00000000000E+00 0.  1.
         11    1    1    2    0    0 -0.28450947912E+02  0.45121709220E+02 -0.21945384713E+02  0.57680369193E+02  0.00000000000E+00 0. -1.
</event>
<event>
 7    1  0.3071726E-009  0.1710370E+03  0.7561462E-02  0.1176771E+00
          2   -1    0    0  501    0  0.00000000000E+00  0.00000000000E+00  0.85764614283E+03  0.85764614283E+03  0.00000000000E+00 0. -1.
         -2   -1    0    0    0  501 -0.00000000000E+00 -0.00000000000E+00 -0.42791393553E+02  0.42791393553E+02  0.00000000000E+00 0.  1.
         25    2    1    2    0    0  0.13839712846E+03  0.64146780984E+02  0.52052042722E+03  0.55664881847E+03  0.12509123580E+03 0.  0.
          5    1    3    3  502    0  0.13436118278E+03  0.40272379870E+02  0.51161862677E+03  0.53051473465E+03  0.41800000000E+01 0.  1.
         -5    1    3    3    0  502  0.40359456799E+01  0.23874401114E+02  0.89018004495E+01  0.26134083824E+02  0.41800000000E+01 0.  1.
        -11    1    1    2    0    0 -0.70220499700E+02 -0.80742612041E+02  0.16535169805E+03  0.19695550773E+03  0.00000000000E+00 0.  1.
         11    1    1    2    0    0 -0.68176628755E+02  0.16595831056E+02  0.12898262401E+03  0.14683321018E+03  0.00000000000E+00 0. -1.
</event>
<event>
 7    1  0.2670433E-009  0.1997079E+03  0.7561462E-02  0.1149986E+00
          2   -1    0    0  501    0  0.00000000000E+00  0.00000000000E+00  0.64299357665E+03  0.64299357665E+03  0.00000000000E+00 0. -1.
         -2   -1    0    0    0  501 -0.00000000000E+00 -0.00000000000E+00 -0.88392628700E+02  0.88392628700E+02  0.00000000000E+00 0.  1.
         25    2    1    2    0    0  0.19482604290E+03 -0.11687354834E+02  0.41400986687E+03  0.47449527017E+03  0.12509120789E+03 0.  0.
          5    1    3    3  502    0  0.47426959903E+01 -0.64602564383E+01 -0.77019456755E+01  0.11875202975E+02  0.41800000000E+01 0.  1.
         -5    1    3    3    0  502  0.19008334691E+03 -0.52270983959E+01  0.42171181255E+03  0.46262006719E+03  0.41800000000E+01 0.  1.
        -11    1    1    2    0    0 -0.11682676254E+03  0.28793569854E+02  0.12865212189E+03  0.17615030678E+03  0.00000000000E+00 0. -1.
         11    1    1    2    0    0 -0.77999280357E+02 -0.17106215020E+02  0.11938959188E+02  0.80740628404E+02  0.00000000000E+00 0.  1.
</event>
<event>
 7    1  0.2670433E-009  0.9720799E+02  0.7561462E-02  0.1286279E+00
          2   -1    0    0  501    0  0.00000000000E+00  0.00000000000E+00  0.31443891519E+03  0.31443891519E+03  0.00000000000E+00 0.  1.
         -2   -1    0    0    0  501 -0.00000000000E+00 -0.00000000000E+00 -0.50779309611E+02  0.50779309611E+02  0.00000000000E+00 0. -1.
         25    2    1    2    0    0  0.14759771667E+02 -0.20657328885E+02  0.23082221470E+03  0.26376213615E+03  0.12508794335E+03 0.  0.
          5    1    3    3  502    0 -0.44395218662E+02 -0.35040910474E+02  0.60909477437E+02  0.83224021103E+02  0.41800000000E+01 0. -1.
         -5    1    3    3    0  502  0.59154990329E+02  0.14383581589E+02  0.16991273727E+03  0.18053811505E+03  0.41800000000E+01 0. -1.
        -11    1    1    2    0    0  0.25723854874E+02 -0.81624170402E+01 -0.16334659126E+02  0.31546201836E+02  0.00000000000E+00 0. -1.
         11    1    1    2    0    0 -0.40483626541E+02  0.28819745925E+02  0.49172050004E+02  0.69909886816E+02  0.00000000000E+00 0.  1.
</event>
<event>
 7    1  0.2670433E-009  0.1264370E+03  0.7561462E-02  0.1232840E+00
          2   -1    0    0  501    0  0.00000000000E+00  0.00000000000E+00  0.55980592131E+03  0.55980592131E+03  0.00000000000E+00 0. -1.
         -2   -1    0    0    0  501 -0.00000000000E+00 -0.00000000000E+00 -0.55594296883E+02  0.55594296883E+02  0.00000000000E+00 0.  1.
         25    2    1    2    0    0  0.13834234627E+02  0.66339941440E+02  0.63434391617E+02  0.15576980021E+03  0.12509170532E+03 0.  0.
          5    1    3    3  502    0  0.53473008311E+02  0.64678660633E+02  0.76660889461E+02  0.11374118046E+03  0.41800000000E+01 0. -1.
         -5    1    3    3    0  502 -0.39638773684E+02  0.16612808070E+01 -0.13226497844E+02  0.42028619752E+02  0.41800000000E+01 0. -1.
        -11    1    1    2    0    0  0.48066463465E+02 -0.35786718562E+02  0.17241990560E+03  0.18253684007E+03  0.00000000000E+00 0.  1.
         11    1    1    2    0    0 -0.61900698092E+02 -0.30553222878E+02  0.26835732721E+03  0.27709357791E+03  0.00000000000E+00 0. -1.
</event>
<event>
 7    1  0.2670433E-009  0.1182389E+03  0.7561462E-02  0.1246031E+00
          1   -1    0    0  501    0  0.00000000000E+00  0.00000000000E+00  0.69473879159E+02  0.69473879159E+02  0.00000000000E+00 0. -1.
         -1   -1    0    0    0  501 -0.00000000000E+00 -0.00000000000E+00 -0.31751917537E+03  0.31751917537E+03  0.00000000000E+00 0.  1.
         25    2    1    2    0    0 -0.14231250355E+02 -0.93338127857E+02 -0.18085050813E+03  0.23931216609E+03  0.12509545135E+03 0.  0.
          5    1    3    3  502    0 -0.41464139396E+02 -0.12802562988E+02 -0.49207830308E+01  0.43873306014E+02  0.41800000000E+01 0.  1.
         -5    1    3    3    0  502  0.27232889041E+02 -0.80535564869E+02 -0.17592972510E+03  0.19543886008E+03  0.41800000000E+01 0.  1.
        -11    1    1    2    0    0  0.34037597896E+02  0.60278565092E+02  0.11330080488E+01  0.69234003115E+02  0.00000000000E+00 0. -1.
         11    1    1    2    0    0 -0.19806347541E+02  0.33059562764E+02 -0.68327796124E+02  0.78446885319E+02  0.00000000000E+00 0.  1.
</event>
<event>
 7    1  0.2670433E-009  0.2529814E+03  0.7561462E-02  0.1111435E+00
          2   -1    0    0  501    0  0.00000000000E+00  0.00000000000E+00  0.14154671051E+03  0.14154671051E+03  0.00000000000E+00 0. -1.
         -2   -1    0    0    0  501 -0.00000000000E+00 -0.00000000000E+00 -0.73620150716E+03  0.73620150716E+03  0.00000000000E+00 0.  1.
         25    2    1    2    0    0 -0.22577093331E+03  0.73094406179E+02 -0.56078714114E+03  0.62164573383E+03  0.12508354880E+03 0.  0.
          5    1    3    3  502    0 -0.10176138631E+03 -0.29859559739E+02 -0.19822268239E+03  0.22484812044E+03  0.41800000000E+01 0.  1.
         -5    1    3    3    0  502 -0.12400954700E+03  0.10295396592E+03 -0.36256445874E+03  0.39679761339E+03  0.41800000000E+01 0.  1.
        -11    1    1    2    0    0  0.29937491861E+02 -0.11247004311E+01 -0.36787130122E+02  0.47442716117E+02  0.00000000000E+00 0.  1.
         11    1    1    2    0    0  0.19583344145E+03 -0.71969705748E+02  0.29194746168E+01  0.20865976772E+03  0.00000000000E+00 0. -1.
</event>
<event>
 7    1  0.2670433E-009  0.1159266E+03  0.7561462E-02  0.1249972E+00
          1   -1    0    0  501    0  0.00000000000E+00  0.00000000000E+00  0.13356080418E+04  0.13356080418E+04  0.00000000000E+00 0. -1.
         -1   -1    0    0    0  501 -0.00000000000E+00 -0.00000000000E+00 -0.11519962722E+02  0.11519962722E+02  0.00000000000E+00 0.  1.
         25    2    1    2    0    0  0.17300811688E+02  0.54526165545E+02  0.84301855713E+03  0.85416628499E+03  0.12508930388E+03 0.  0.
          5    1    3    3  502    0 -0.15479701344E+02  0.81515820723E+02  0.36925778772E+03  0.37848809278E+03  0.41800000000E+01 0. -1.
         -5    1    3    3    0  502  0.32780513032E+02 -0.26989655178E+02  0.47376076940E+03  0.47567819221E+03  0.41800000000E+01 0. -1.
        -11    1    1    2    0    0  0.22247548494E+02  0.14499715805E+02  0.87859998642E+02  0.91785481062E+02  0.00000000000E+00 0.  1.
         11    1    1    2    0    0 -0.39548360182E+02 -0.69025881350E+02  0.39320952327E+03  0.40117623843E+03  0.00000000000E+00 0. -1.
</event>
<event>
 7    1  0.2670433E-009  0.7456719E+02  0.7561462E-02  0.1345217E+00
         -2   -1    0    0    0  501 -0.00000000000E+00  0.00000000000E+00  0.97108139482E+02  0.97108139482E+02  0.00000000000E+00 0.  1.
          2   -1    0    0  501    0  0.00000000000E+00 -0.00000000000E+00 -0.21824599269E+03  0.21824599269E+03  0.00000000000E+00 0. -1.
         25    2    1    2    0    0 -0.18327880979E+02  0.40027289286E+02  0.27137698693E+02  0.13535962509E+03  0.12509068033E+03 0.  0.
          5    1    3    3  502    0 -0.26170407905E+02  0.55841699498E+02 -0.34721110936E+02  0.70895793933E+02  0.41800000000E+01 0.  1.
         -5    1    3    3    0  502  0.78425269259E+01 -0.15814410212E+02  0.61858809629E+02  0.64463831159E+02  0.41800000000E+01 0.  1.
        -11    1    1    2    0    0 -0.36921654110E+01  0.12070351253E+02  0.72132658356E+01  0.14538110909E+02  0.00000000000E+00 0.  1.
         11    1    1    2    0    0  0.22020046390E+02 -0.52097640540E+02 -0.15548881774E+03  0.16545639617E+03  0.00000000000E+00 0. -1.
</event>
<event>
 7    1  0.2670433E-009  0.1224831E+03  0.7561462E-02  0.1239056E+00
          2   -1    0    0  501    0  0.00000000000E+00  0.00000000000E+00  0.54064513609E+02  0.54064513609E+02  0.00000000000E+00 0. -1.
         -2   -1    0    0    0  501 -0.00000000000E+00 -0.00000000000E+00 -0.34718604661E+03  0.34718604661E+03  0.00000000000E+00 0.  1.
         25    2    1    2    0    0 -0.47168360496E+02  0.28484142377E+02 -0.17514363039E+03  0.22216968142E+03  0.12509146844E+03 0.  0.
          5    1    3    3  502    0  0.35574428201E+02 -0.13551351230E+02 -0.82566266734E+02  0.91015602313E+02  0.41800000000E+01 0. -1.
         -5    1    3    3    0  502 -0.82742788696E+02  0.42035493607E+02 -0.92577363660E+02  0.13115407911E+03  0.41800000000E+01 0. -1.
        -11    1    1    2    0    0  0.66642468085E+02  0.13037209890E+02 -0.11445657245E+03  0.13308453844E+03  0.00000000000E+00 0. -1.
         11    1    1    2    0    0 -0.19474107589E+02 -0.41521352267E+02 -0.35213301558E+01  0.45996340361E+02  0.00000000000E+00 0.  1.
</event>
<event>
 7    1  0.2670433E-009  0.1422463E+03  0.7561462E-02  0.1210338E+00
         -2   -1    0    0    0  501 -0.00000000000E+00  0.00000000000E+00  0.37886971110E+02  0.37886971110E+02  0.00000000000E+00 0.  1.
          2   -1    0    0  501    0  0.00000000000E+00 -0.00000000000E+00 -0.76379713080E+03  0.76379713080E+03  0.00000000000E+00 0. -1.
         25    2    1    2    0    0  0.10712684851E+03  0.43280528571E+02 -0.27015069984E+03  0.31934019443E+03  0.12508954125E+03 0.  0.
          5    1    3    3  502    0  0.72003593667E+02 -0.15253065053E+01 -0.24771305721E+03  0.25800402162E+03  0.41800000000E+01 0. -1.
         -5    1    3    3    0  502  0.35123254847E+02  0.44805835076E+02 -0.22437642624E+02  0.61336172806E+02  0.41800000000E+01 0. -1.
        -11    1    1    2    0    0 -0.10526193473E+03 -0.71331149059E+02 -0.40268858975E+03  0.42228699724E+03  0.00000000000E+00 0. -1.
         11    1    1    2    0    0 -0.18649137888E+01  0.28050620488E+02 -0.53070870106E+02  0.60056910235E+02  0.00000000000E+00 0.  1.
</event>
<event>
 7    1  0.2670433E-009  0.1219334E+03  0.7561462E-02  0.1239941E+00
         -2   -1    0    0    0  501 -0.00000000000E+00  0.00000000000E+00  0.11503905381E+03  0.11503905381E+03  0.00000000000E+00 0.  1.
          2   -1    0    0  501    0  0.00000000000E+00 -0.00000000000E+00 -0.20314686146E+03  0.20314686146E+03  0.00000000000E+00 0. -1.
         25    2    1    2    0    0  0.53572359958E+02 -0.86699446694E+02 -0.78916035927E+02  0.17961468378E+03  0.12508757770E+03 0.  0.
          5    1    3    3  502    0  0.72352370798E+02 -0.93075677251E+02 -0.23062093327E+02  0.12019683775E+03  0.41800000000E+01 0. -1.
         -5    1    3    3    0  502 -0.18780010839E+02  0.63762305569E+01 -0.55853942601E+02  0.59417846034E+02  0.41800000000E+01 0. -1.
        -11    1    1    2    0    0  0.21250952529E+01  0.13438136452E+02  0.34213520213E+02  0.36819349621E+02  0.00000000000E+00 0.  1.
         11    1    1    2    0    0 -0.55697455211E+02  0.73261310242E+02 -0.43405291931E+02  0.10175188186E+03  0.00000000000E+00 0. -1.
</event>
<event>
 7    1  0.2670433E-009  0.1102175E+03  0.7561462E-02  0.1260168E+00
         -2   -1    0    0    0  501 -0.00000000000E+00  0.00000000000E+00  0.17071209052E+02  0.17071209052E+02  0.00000000000E+00 0.  1.
          2   -1    0    0  501    0  0.00000000000E+00 -0.00000000000E+00 -0.10424562712E+04  0.10424562712E+04  0.00000000000E+00 0. -1.
         25    2    1    2    0    0  0.37714531516E+02 -0.64931255812E+02 -0.65484099721E+03  0.67089401826E+03  0.12507437086E+03 0.  0.
          5    1    3    3  502    0 -0.14132777728E+02 -0.56484011867E+02 -0.11981361347E+03  0.13327773023E+03  0.41800000000E+01 0.  1.
         -5    1    3    3    0  502  0.51847309245E+02 -0.84472439447E+01 -0.53502738373E+03  0.53761628803E+03  0.41800000000E+01 0.  1.
        -11    1    1    2    0    0  0.19195307774E+02  0.45238046712E+02 -0.99422365411E+02  0.11090422650E+03  0.00000000000E+00 0.  1.
         11    1    1    2    0    0 -0.56909839290E+02  0.19693209099E+02 -0.27112169958E+03  0.27772923554E+03  0.00000000000E+00 0. -1.
</event>
<event>
 7    1  0.2670433E-009  0.9557014E+02  0.7561462E-02  0.1289897E+00
          1   -1    0    0  501    0  0.00000000000E+00  0.00000000000E+00  0.58725464553E+02  0.58725464553E+02  0.00000000000E+00 0. -1.
         -1   -1    0    0    0  501 -0.00000000000E+00 -0.00000000000E+00 -0.25136542973E+03  0.25136542973E+03  0.00000000000E+00 0.  1.
         25    2    1    2    0    0  0.22766417186E+02  0.94330080787E+01 -0.16427096000E+03  0.20794283507E+03  0.12509189808E+03 0.  0.
          5    1    3    3  502    0 -0.48085215990E+02  0.20966621543E+02 -0.47961052869E+02  0.71200577301E+02  0.41800000000E+01 0.  1.
         -5    1    3    3    0  502  0.70851633176E+02 -0.11533613464E+02 -0.11630990713E+03  0.13674225777E+03  0.41800000000E+01 0.  1.
        -11    1    1    2    0    0 -0.24357874575E+01 -0.34358789160E+02  0.23086439432E+02  0.41466168604E+02  0.00000000000E+00 0.  1.
         11    1    1    2    0    0 -0.20330629729E+02  0.24925781081E+02 -0.51455444609E+02  0.60681890607E+02  0.00000000000E+00 0. -1.
</event>
<event>
 7    1  0.2670433E-009  0.1336508E+03  0.7561462E-02  0.1222137E+00
          1   -1    0    0  501    0  0.00000000000E+00  0.00000000000E+00  0.16117534023E+03  0.16117534023E+03  0.00000000000E+00 0. -1.
         -1   -1    0    0    0  501 -0.00000000000E+00 -0.00000000000E+00 -0.12352657304E+03  0.12352657304E+03  0.00000000000E+00 0.  1.
         25    2    1    2    0    0 -0.66464984731E+02 -0.52094189412E+02  0.55342223647E+02  0.16075044283E+03  0.12508614785E+03 0.  0.
          5    1    3    3  502    0  0.34116927130E+02 -0.55035286529E+01  0.32233056182E+02  0.47441499294E+02  0.41800000000E+01 0. -1.
         -5    1    3    3    0  502 -0.10058191186E+03 -0.46590660759E+02  0.23109167465E+02  0.11330894353E+03  0.41800000000E+01 0. -1.
        -11    1    1    2    0    0 -0.21134216424E+02  0.36025556994E+01 -0.96285696453E+01  0.23501975764E+02  0.00000000000E+00 0. -1.
         11    1    1    2    0    0  0.87599201155E+02  0.48491633712E+02 -0.80648868081E+01  0.10044949468E+03  0.00000000000E+00 0.  1.
</event>
<event>
 7    1  0.2670433E-009  0.1816959E+03  0.7561462E-02  0.1166172E+00
          2   -1    0    0  501    0  0.00000000000E+00  0.00000000000E+00  0.12877979456E+03  0.12877979456E+03  0.00000000000E+00 0. -1.
         -2   -1    0    0    0  501 -0.00000000000E+00 -0.00000000000E+00 -0.28244976481E+03  0.28244976481E+03  0.00000000000E+00 0.  1.
         25    2    1    2    0    0  0.11651532148E+03  0.10279730710E+03 -0.96067047196E+02  0.22140283942E+03  0.12508890143E+03 0.  0.
          5    1    3    3  502    0  0.35888865325E+01  0.67109849250E+02 -0.75432848522E+02  0.10111478136E+03  0.41800000000E+01 0.  1.
         -5    1    3    3    0  502  0.11292643495E+03  0.35687457845E+02 -0.20634198674E+02  0.12028805806E+03  0.41800000000E+01 0.  1.
        -11    1    1    2    0    0 -0.44643522494E+02  0.81277799082E+01  0.65778067963E+00  0.45382128446E+02  0.00000000000E+00 0.  1.
         11    1    1    2    0    0 -0.71871798984E+02 -0.11092508700E+03 -0.58260703738E+02  0.14444459151E+03  0.00000000000E+00 0. -1.
</event>
<event>
 7    1  0.2670433E-009  0.1060332E+03  0.7561462E-02  0.1268097E+00
          1   -1    0    0  501    0  0.00000000000E+00  0.00000000000E+00  0.12348709164E+03  0.12348709164E+03  0.00000000000E+00 0. -1.
         -1   -1    0    0    0  501 -0.00000000000E+00 -0.00000000000E+00 -0.12847643738E+03  0.12847643738E+03  0.00000000000E+00 0.  1.
         25    2    1    2    0    0  0.58276341328E+02  0.10712587796E+02  0.22252271164E+02  0.14019092975E+03  0.12508973466E+03 0.  0.
          5    1    3    3  502    0  0.63654087459E+02 -0.24175178016E+02  0.58173921198E+02  0.89654668534E+02  0.41800000000E+01 0.  1.
         -5    1    3    3    0  502 -0.53777461308E+01  0.34887765812E+02 -0.35921650034E+02  0.50536261219E+02  0.41800000000E+01 0.  1.
        -11    1    1    2    0    0  0.65286536849E+01  0.30705271125E+02 -0.57227513385E+01  0.31909040673E+02  0.00000000000E+00 0. -1.
         11    1    1    2    0    0 -0.64804995013E+02 -0.41417858921E+02 -0.21518865569E+02  0.79863558596E+02  0.00000000000E+00 0.  1.
</event>
<event>
 7    1  0.2670433E-009  0.2976266E+03  0.7561462E-02  0.1086433E+00
         -1   -1    0    0    0  501 -0.00000000000E+00  0.00000000000E+00  0.36476817158E+03  0.36476817158E+03  0.00000000000E+00 0.  1.
          1   -1    0    0  501    0  0.00000000000E+00 -0.00000000000E+00 -0.31133784516E+03  0.31133784516E+03  0.00000000000E+00 0. -1.
         25    2    1    2    0    0 -0.17601238443E+03  0.21909011330E+03 -0.12321203722E+03  0.33137571641E+03  0.12509125506E+03 0.  0.
          5    1    3    3  502    0 -0.45184050440E+01  0.96637607090E+02 -0.40471484333E+02  0.10495073383E+03  0.41800000000E+01 0. -1.
         -5    1    3    3    0  502 -0.17149397938E+03  0.12245250621E+03 -0.82740552887E+02  0.22642498257E+03  0.41800000000E+01 0. -1.
        -11    1    1    2    0    0  0.73924515576E+02 -0.14071120666E+03  0.56578675279E+02  0.16871758705E+03  0.00000000000E+00 0. -1.
         11    1    1    2    0    0  0.10208786885E+03 -0.78378906642E+02  0.12006368837E+03  0.17601271328E+03  0.00000000000E+00 0.  1.
</event>
<event>
 7    1  0.2670433E-009  0.1558844E+03  0.7561462E-02  0.1193423E+00
          3   -1    0    0  501    0  0.00000000000E+00  0.00000000000E+00  0.71130742883E+02  0.71130742883E+02  0.00000000000E+00 0. -1.
         -3   -1    0    0    0  501 -0.00000000000E+00 -0.00000000000E+00 -0.46891486130E+03  0.46891486130E+03  0.00000000000E+00 0.  1.
         25    2    1    2    0    0  0.95852227894E+02 -0.10471040572E+03 -0.24998306030E+03  0.31350914168E+03  0.12507810688E+03 0.  0.
          5    1    3    3  502    0  0.90291400810E+02 -0.90942237362E+02 -0.26347335328E+03  0.29301656589E+03  0.41800000000E+01 0.  1.
         -5    1    3    3    0  502  0.55608270842E+01 -0.13768168361E+02  0.13490292980E+02  0.20492575791E+02  0.41800000000E+01 0.  1.
        -11    1    1    2    0    0 -0.74729143546E+02  0.15336960400E+02 -0.44504828273E+02  0.88319573080E+02  0.00000000000E+00 0. -1.
         11    1    1    2    0    0 -0.21123084349E+02  0.89373445323E+02 -0.10329622984E+03  0.13821688942E+03  0.00000000000E+00 0.  1.
</event>
<event>
 7    1  0.2670433E-009  0.1223462E+03  0.7561462E-02  0.1239276E+00
          2   -1    0    0  501    0  0.00000000000E+00  0.00000000000E+00  0.41761773008E+03  0.41761773008E+03  0.00000000000E+00 0.  1.
         -2   -1    0    0    0  501 -0.00000000000E+00 -0.00000000000E+00 -0.56419872480E+02  0.56419872480E+02  0.00000000000E+00 0. -1.
         25    2    1    2    0    0 -0.38248034339E+02  0.82166091605E+02  0.87218765438E+02  0.17739682967E+03  0.12509333872E+03 0.  0.
          5    1    3    3  502    0 -0.97454767913E+01  0.10306372154E+03  0.95444505447E+02  0.14086955326E+03  0.41800000000E+01 0.  1.
         -5    1    3    3    0  502 -0.28502557548E+02 -0.20897629932E+02 -0.82257400085E+01  0.36527276414E+02  0.41800000000E+01 0.  1.
        -11    1    1    2    0    0  0.45162976459E+02 -0.33223269946E+02  0.19967958368E+03  0.20740158207E+03  0.00000000000E+00 0.  1.
         11    1    1    2    0    0 -0.69149421199E+01 -0.48942821659E+02  0.74299508480E+02  0.89239190812E+02  0.00000000000E+00 0. -1.
</event>
<event>
 7    1  0.2670433E-009  0.1196798E+03  0.7561462E-02  0.1243626E+00
          2   -1    0    0  501    0  0.00000000000E+00  0.00000000000E+00  0.61479774280E+03  0.61479774280E+03  0.00000000000E+00 0. -1.
         -2   -1    0    0    0  501 -0.00000000000E+00 -0.00000000000E+00 -0.36710890946E+02  0.36710890946E+02  0.00000000000E+00 0.  1.
         25    2    1    2    0    0  0.96634835067E+01  0.11381276564E+03  0.31974531803E+03  0.36184361714E+03  0.12508799435E+03 0.  0.
          5    1    3    3  502    0  0.98238658771E+01  0.55157109669E+02  0.25354542211E+02  0.61637166536E+02  0.41800000000E+01 0. -1.
         -5    1    3    3    0  502 -0.16038237042E+00  0.58655655972E+02  0.29439077582E+03  0.30020645061E+03  0.41800000000E+01 0. -1.
        -11    1    1    2    0    0 -0.29402002753E+02 -0.55434410283E+02  0.17575368059E+03  0.18661941981E+03  0.00000000000E+00 0. -1.
         11    1    1    2    0    0  0.19738519246E+02 -0.58378355358E+02  0.82587853235E+02  0.10304559679E+03  0.00000000000E+00 0.  1.
</event>
<event>
 7    1  0.2670433E-009  0.1735877E+03  0.7561462E-02  0.1174157E+00
          2   -1    0    0  501    0  0.00000000000E+00  0.00000000000E+00  0.36454878652E+03  0.36454878652E+03  0.00000000000E+00 0. -1.
         -2   -1    0    0    0  501 -0.00000000000E+00 -0.00000000000E+00 -0.10126355601E+03  0.10126355601E+03  0.00000000000E+00 0.  1.
         25    2    1    2    0    0 -0.12774236518E+03  0.88079013586E+02  0.16038971393E+03  0.25582840825E+03  0.12508912677E+03 0.  0.
          5    1    3    3  502    0 -0.86567227259E+02  0.10722110323E+03  0.70075128953E+02  0.15465524857E+03  0.41800000000E+01 0. -1.
         -5    1    3    3    0  502 -0.41175137920E+02 -0.19142089643E+02  0.90314584980E+02  0.10117315968E+03  0.41800000000E+01 0. -1.
        -11    1    1    2    0    0  0.34990960297E+02 -0.55092442276E+02  0.89299150251E+02  0.11060688376E+03  0.00000000000E+00 0. -1.
         11    1    1    2    0    0  0.92751404882E+02 -0.32986571310E+02  0.13596366320E+02  0.99377050527E+02  0.00000000000E+00 0.  1.
</event>
<event>
 7    1  0.2670433E-009  0.9568162E+02  0.7561462E-02  0.1289648E+00
         -2   -1    0    0    0  501 -0.00000000000E+00  0.00000000000E+00  0.19062599046E+02  0.19062599046E+02  0.00000000000E+00 0.  1.
          2   -1    0    0  501    0  0.00000000000E+00 -0.00000000000E+00 -0.77515825759E+03  0.77515825759E+03  0.00000000000E+00 0. -1.
         25    2    1    2    0    0 -0.28913307773E+02 -0.43996735376E+02 -0.54424705523E+03  0.56091320322E+03  0.12508825818E+03 0.  0.
          5    1    3    3  502    0 -0.65725825403E+02 -0.22406474990E+01 -0.16653844537E+03  0.17910173314E+03  0.41800000000E+01 0.  1.
         -5    1    3    3    0  502  0.36812517629E+02 -0.41756087877E+02 -0.37770860985E+03  0.38181147008E+03  0.41800000000E+01 0.  1.
        -11    1    1    2    0    0  0.28748677018E+02  0.32898095729E+01 -0.15583984735E+02  0.32865937649E+02  0.00000000000E+00 0.  1.
         11    1    1    2    0    0  0.16463075510E+00  0.40706925803E+02 -0.19626461859E+03  0.20044171577E+03  0.00000000000E+00 0. -1.
</event>
<event>
 7    1  0.2670433E-009  0.1010415E+03  0.7561462E-02  0.1278121E+00
         -1   -1    0    0    0  501 -0.00000000000E+00  0.00000000000E+00  0.35164337782E+02  0.35164337782E+02  0.00000000000E+00 0. -1.
          1   -1    0    0  501    0  0.00000000000E+00 -0.00000000000E+00 -0.34454995444E+03  0.34454995444E+03  0.00000000000E+00 0.  1.
         25    2    1    2    0    0 -0.10761594238E+02  0.98772515174E+01 -0.16021770926E+03  0.20378938630E+03  0.12508807936E+03 0.  0.
          5    1    3    3  502    0  0.49750462655E+02  0.33636922608E+02 -0.86860289974E+02  0.10568222874E+03  0.41800000000E+01 0. -1.
         -5    1    3    3    0  502 -0.60512056893E+02 -0.23759671091E+02 -0.73357419286E+02  0.98107157557E+02  0.41800000000E+01 0. -1.
        -11    1    1    2    0    0  0.41451565745E+02  0.64918940679E+01 -0.12914788961E+03  0.13579232078E+03  0.00000000000E+00 0.  1.
         11    1    1    2    0    0 -0.30689971507E+02 -0.16369145585E+02 -0.20020017785E+02  0.40132585145E+02  0.00000000000E+00 0. -1.
</event>
<event>
 7    1  0.2670433E-009  0.9923662E+02  0.7561462E-02  0.1281909E+00
         -1   -1    0    0    0  501 -0.00000000000E+00  0.00000000000E+00  0.47016549348E+03  0.47016549348E+03  0.00000000000E+00 0.  1.
          1   -1    0    0  501    0  0.00000000000E+00 -0.00000000000E+00 -0.66912243187E+02  0.66912243187E+02  0.00000000000E+00 0. -1.
         25    2    1    2    0    0  0.52827486583E+02  0.48626110608E+02  0.31606043978E+02  0.14765226670E+03  0.12508800052E+03 0.  0.
          5    1    3    3  502    0 -0.43293561577E+01  0.16041105613E+02 -0.44072757622E+02  0.47285735253E+02  0.41800000000E+01 0. -1.
         -5    1    3    3    0  502  0.57156842741E+02  0.32585004995E+02  0.75678801600E+02  0.10036653144E+03  0.41800000000E+01 0. -1.
        -11    1    1    2    0    0  0.86516065725E+01  0.20891551979E+02  0.55226638044E+02  0.59676534668E+02  0.00000000000E+00 0.  1.
         11    1    1    2    0    0 -0.61479093156E+02 -0.69517662587E+02  0.31642056827E+03  0.32974893530E+03  0.00000000000E+00 0. -1.
</event>
<event>
 7    1  0.2670433E-009  0.1296043E+03  0.7561462E-02  0.1228044E+00
         -1   -1    0    0    0  501 -0.00000000000E+00  0.00000000000E+00  0.40702461711E+02  0.40702461711E+02  0.00000000000E+00 0.  1.
          1   -1    0    0  501    0  0.00000000000E+00 -0.00000000000E+00 -0.59946189242E+03  0.59946189242E+03  0.00000000000E+00 0. -1.
         25    2    1    2    0    0 -0.90377694797E+02 -0.20129873727E+02 -0.16964620893E+03  0.23021862304E+03  0.12508972243E+03 0.  0.
          5    1    3    3  502    0 -0.90966483873E+02  0.32485835252E+02 -0.13856946740E+03  0.16896508626E+03  0.41800000000E+01 0. -1.
         -5    1    3    3    0  502  0.58878907616E+00 -0.52615708978E+02 -0.31076741529E+02  0.61253536779E+02  0.41800000000E+01 0. -1.
        -11    1    1    2    0    0  0.46231973426E+02 -0.19726313282E+02 -0.75227154248E+02  0.90474568464E+02  0.00000000000E+00 0.  1.
         11    1    1    2    0    0  0.44145721371E+02  0.39856187008E+02 -0.31388606753E+03  0.31947116263E+03  0.00000000000E+00 0. -1.
</event>
<event>
 7    1  0.2670433E-009  0.1533231E+03  0.7561462E-02  0.1196448E+00
         -1   -1    0    0    0  501 -0.00000000000E+00  0.00000000000E+00  0.48398865779E+02  0.48398865779E+02  0.00000000000E+00 0.  1.
          1   -1    0    0  501    0  0.00000000000E+00 -0.00000000000E+00 -0.60379333360E+03  0.60379333360E+03  0.00000000000E+00 0. -1.
         25    2    1    2    0    0 -0.12685793198E+03  0.34455498672E+02 -0.26691491422E+03  0.32275550190E+03  0.12508967293E+03 0.  0.
          5    1    3    3  502    0 -0.63196165997E+02 -0.32383742677E+02 -0.18881748379E+03  0.20177209116E+03  0.41800000000E+01 0. -1.
         -5    1    3    3    0  502 -0.63661765987E+02  0.66839241349E+02 -0.78097430434E+02  0.12098341074E+03  0.41800000000E+01 0. -1.
        -11    1    1    2    0    0  0.28710501423E+02 -0.34606280667E+02 -0.33065280854E+02  0.55813979893E+02  0.00000000000E+00 0.  1.
         11    1    1    2    0    0  0.98147430561E+02  0.15078199504E+00 -0.25541427274E+03  0.27362271759E+03  0.00000000000E+00 0. -1.
</event>
<event>
 7    1  0.2670433E-009  0.1819043E+03  0.7561462E-02  0.1165973E+00
         -1   -1    0    0    0  501 -0.00000000000E+00  0.00000000000E+00  0.43268758168E+03  0.43268758168E+03  0.00000000000E+00 0. -1.
          1   -1    0    0  501    0  0.00000000000E+00 -0.00000000000E+00 -0.94589714272E+02  0.94589714272E+02  0.00000000000E+00 0.  1.
         25    2    1    2    0    0  0.16459092013E+03  0.15674602208E+01  0.23497468226E+03  0.31297505779E+03  0.12509059746E+03 0.  0.
          5    1    3    3  502    0  0.75538367903E+02 -0.54935165988E+02  0.68670786769E+02  0.11600459837E+03  0.41800000000E+01 0.  1.
         -5    1    3    3    0  502  0.89052552231E+02  0.56502626209E+02  0.16630389549E+03  0.19697045942E+03  0.41800000000E+01 0.  1.
        -11    1    1    2    0    0 -0.10914655504E+03  0.24656227646E+01  0.11379421493E+03  0.15769645882E+03  0.00000000000E+00 0. -1.
         11    1    1    2    0    0 -0.55444365093E+02 -0.40330829853E+01 -0.10671029779E+02  0.56605779347E+02  0.00000000000E+00 0.  1.
</event>
<event>
 7    1  0.2670433E-009  0.8702300E+02  0.7561462E-02  0.1310225E+00
          1   -1    0    0  501    0  0.00000000000E+00  0.00000000000E+00  0.12520348826E+03  0.12520348826E+03  0.00000000000E+00 0. -1.
         -1   -1    0    0    0  501 -0.00000000000E+00 -0.00000000000E+00 -0.12072913625E+03  0.12072913625E+03  0.00000000000E+00 0.  1.
         25    2    1    2    0    0  0.41525625281E+02 -0.36326558960E+01  0.39397730554E+02  0.13761978109E+03  0.12509775870E+03 0.  0.
          5    1    3    3  502    0  0.62164706024E+02 -0.38852308731E+01 -0.26961071273E+02  0.67999393072E+02  0.41800000000E+01 0. -1.
         -5    1    3    3    0  502 -0.20639080743E+02  0.25257497704E+00  0.66358801826E+02  0.69620388018E+02  0.41800000000E+01 0. -1.
        -11    1    1    2    0    0  0.57197365413E+01  0.33947183710E+02 -0.39012104393E+02  0.52029520055E+02  0.00000000000E+00 0.  1.
         11    1    1    2    0    0 -0.47245361823E+02 -0.30314527814E+02  0.40887258432E+01  0.56283323368E+02  0.00000000000E+00 0. -1.
</event>
<event>
 7    1  0.2670433E-009  0.3332942E+03  0.7561462E-02  0.1069689E+00
          1   -1    0    0  501    0  0.00000000000E+00  0.00000000000E+00  0.14028703910E+04  0.14028703910E+04  0.00000000000E+00 0. -1.
         -1   -1    0    0    0  501 -0.00000000000E+00 -0.00000000000E+00 -0.85022621439E+02  0.85022621439E+02  0.00000000000E+00 0.  1.
         25    2    1    2    0    0 -0.30338667500E+03  0.12451734103E+03  0.70306267711E+03  0.78580686406E+03  0.12508899587E+03 0.  0.
          5    1    3    3  502    0 -0.96779812063E+02  0.49614688720E+02  0.37835688826E+03  0.39369957665E+03  0.41800000000E+01 0. -1.
         -5    1    3    3    0  502 -0.20660686293E+03  0.74902652309E+02  0.32470578885E+03  0.39210728742E+03  0.41800000000E+01 0. -1.
        -11    1    1    2    0    0  0.17534900335E+03 -0.11470380133E+03  0.35304638456E+03  0.41054352347E+03  0.00000000000E+00 0.  1.
         11    1    1    2    0    0  0.12803767165E+03 -0.98135397013E+01  0.26173870786E+03  0.29154262487E+03  0.00000000000E+00 0. -1.
</event>
<event>
 7    1  0.2670433E-009  0.1248649E+03  0.7561462E-02  0.1235281E+00
          1   -1    0    0  501    0  0.00000000000E+00  0.00000000000E+00  0.48571529234E+03  0.48571529234E+03  0.00000000000E+00 0. -1.
         -1   -1    0    0    0  501 -0.00000000000E+00 -0.00000000000E+00 -0.34815053271E+02  0.34815053271E+02  0.00000000000E+00 0.  1.
         25    2    1    2    0    0  0.39604313450E+02 -0.50880728225E+02  0.30567910242E+03  0.33651460352E+03  0.12508003267E+03 0.  0.
          5    1    3    3  502    0 -0.20684977801E+02  0.31382757889E+02  0.67258260847E+02  0.77161466105E+02  0.41800000000E+01 0. -1.
         -5    1    3    3    0  502  0.60289291251E+02 -0.82263486114E+02  0.23842084158E+03  0.25935313741E+03  0.41800000000E+01 0. -1.
        -11    1    1    2    0    0 -0.67301436973E+02  0.46477968863E+02  0.87102564896E+02  0.11948448359E+03  0.00000000000E+00 0.  1.
         11    1    1    2    0    0  0.27697123524E+02  0.44027593616E+01  0.58118571746E+02  0.64531258498E+02  0.00000000000E+00 0. -1.
</event>
<event>
 7    1  0.2670433E-009  0.7009838E+02  0.7561462E-02  0.1359759E+00
         -1   -1    0    0    0  501 -0.00000000000E+00  0.00000000000E+00  0.13135329994E+03  0.13135329994E+03  0.00000000000E+00 0.  1.
          1   -1    0    0  501    0  0.00000000000E+00 -0.00000000000E+00 -0.13868029253E+03  0.13868029253E+03  0.00000000000E+00 0. -1.
         25    2    1    2    0    0  0.17850188999E+02  0.38565730711E+02  0.65804939347E+02  0.14758929794E+03  0.12508543477E+03 0.  0.
          5    1    3    3  502    0  0.15832189585E+02  0.41086829830E+02 -0.28837103162E+02  0.52799969046E+02  0.41800000000E+01 0. -1.
         -5    1    3    3    0  502  0.20179994141E+01 -0.25210991186E+01  0.94642042509E+02  0.94789328896E+02  0.41800000000E+01 0. -1.
        -11    1    1    2    0    0 -0.45893328755E+02 -0.42275933436E+02 -0.70327459378E+02  0.94018103122E+02  0.00000000000E+00 0. -1.
         11    1    1    2    0    0  0.28043139755E+02  0.37102027250E+01 -0.28044725583E+01  0.28426191407E+02  0.00000000000E+00 0.  1.
</event>
<event>
 7    1  0.2670433E-009  0.1173710E+03  0.7561462E-02  0.1247498E+00
         -2   -1    0    0    0  501 -0.00000000000E+00  0.00000000000E+00  0.37779478976E+02  0.37779478976E+02  0.00000000000E+00 0.  1.
          2   -1    0    0  501    0  0.00000000000E+00 -0.00000000000E+00 -0.10704397644E+04  0.10704397644E+04  0.00000000000E+00 0. -1.
         25    2    1    2    0    0  0.32743503962E+02 -0.32155894958E+02 -0.87322022912E+03  0.88332657904E+03  0.12508452374E+03 0.  0.
          5    1    3    3  502    0  0.50824272356E+01  0.47888278385E+02 -0.33430474377E+03  0.33778136773E+03  0.41800000000E+01 0.  1.
         -5    1    3    3    0  502  0.27661076726E+02 -0.80044173343E+02 -0.53891548534E+03  0.54554521132E+03  0.41800000000E+01 0.  1.
        -11    1    1    2    0    0  0.31104624224E+02  0.18917513685E+02 -0.15534961777E+03  0.15955837086E+03  0.00000000000E+00 0. -1.
         11    1    1    2    0    0 -0.63848128185E+02  0.13238381273E+02 -0.40904385084E+01  0.65334293435E+02  0.00000000000E+00 0.  1.
</event>
<event>
 7    1  0.2670433E-009  0.1018030E+03  0.7561462E-02  0.1276549E+00
          1   -1    0    0  501    0  0.00000000000E+00  0.00000000000E+00  0.37578417953E+03  0.37578417953E+03  0.00000000000E+00 0. -1.
         -1   -1    0    0    0  501 -0.00000000000E+00 -0.00000000000E+00 -0.54372794688E+02  0.54372794688E+02  0.00000000000E+00 0.  1.
         25    2    1    2    0    0 -0.76408837102E+02  0.11458640807E+02  0.98017102376E+02  0.17669461098E+03  0.12507606628E+03 0.  0.
          5    1    3    3  502    0  0.12090821611E+02  0.15883454648E+02 -0.20326625558E+02  0.28794378016E+02  0.41800000000E+01 0.  1.
         -5    1    3    3    0  502 -0.88499658713E+02 -0.44248138409E+01  0.11834372793E+03  0.14790023296E+03  0.41800000000E+01 0.  1.
        -11    1    1    2    0    0  0.61220300142E+02  0.15863838802E+02  0.21024194850E+03  0.21954786138E+03  0.00000000000E+00 0. -1.
         11    1    1    2    0    0  0.15188536960E+02 -0.27322479609E+02  0.13152333969E+02  0.33914501851E+02  0.00000000000E+00 0.  1.
</event>
<event>
 7    1  0.2670433E-009  0.1151136E+03  0.7561462E-02  0.1251383E+00
         -2   -1    0    0    0  501 -0.00000000000E+00  0.00000000000E+00  0.11096370722E+03  0.11096370722E+03  0.00000000000E+00 0.  1.
          2   -1    0    0  501    0  0.00000000000E+00 -0.00000000000E+00 -0.14554983054E+03  0.14554983054E+03  0.00000000000E+00 0. -1.
         25    2    1    2    0    0 -0.60611106703E+01  0.61525481048E+02 -0.42237337618E+02  0.14578453056E+03  0.12508802812E+03 0.  0.
          5    1    3    3  502    0  0.26548051466E+02 -0.22661924321E+02  0.15624578600E+02  0.38470270430E+02  0.41800000000E+01 0.  1.
         -5    1    3    3    0  502 -0.32609162136E+02  0.84187405369E+02 -0.57861916217E+02  0.10731426013E+03  0.41800000000E+01 0.  1.
        -11    1    1    2    0    0 -0.27552215113E+02 -0.65294875709E+02  0.21678881458E+02  0.74111532522E+02  0.00000000000E+00 0.  1.
         11    1    1    2    0    0  0.33613325783E+02  0.37693946607E+01 -0.14027667163E+02  0.36617474685E+02  0.00000000000E+00 0. -1.
</event>
<event>
 7    1  0.2670433E-009  0.2166537E+03  0.7561462E-02  0.1136403E+00
          1   -1    0    0  501    0  0.00000000000E+00  0.00000000000E+00  0.67298306655E+03  0.67298306655E+03  0.00000000000E+00 0. -1.
         -1   -1    0    0    0  501 -0.00000000000E+00 -0.00000000000E+00 -0.92033209354E+02  0.92033209354E+02  0.00000000000E+00 0.  1.
         25    2    1    2    0    0  0.70549644806E+02 -0.20138915633E+03  0.19934347198E+03  0.31767939348E+03  0.12509009774E+03 0.  0.
          5    1    3    3  502    0  0.78707081422E+02 -0.17961301753E+03  0.10920698682E+03  0.22449783763E+03  0.41800000000E+01 0. -1.
         -5    1    3    3    0  502 -0.81574366153E+01 -0.21776138800E+02  0.90136485162E+02  0.93181555849E+02  0.41800000000E+01 0. -1.
        -11    1    1    2    0    0 -0.26358507810E+02  0.64054376990E+02  0.22027124331E+03  0.23090507741E+03  0.00000000000E+00 0. -1.
         11    1    1    2    0    0 -0.44191136997E+02  0.13733477934E+03  0.16133514190E+03  0.21643180500E+03  0.00000000000E+00 0.  1.
</event>
<event>
 7    1  0.2670433E-009  0.1255219E+03  0.7561462E-02  0.1234256E+00
         -2   -1    0    0    0  501 -0.00000000000E+00  0.00000000000E+00  0.77699163246E+02  0.77699163246E+02  0.00000000000E+00 0.  1.
          2   -1    0    0  501    0  0.00000000000E+00 -0.00000000000E+00 -0.34925089493E+03  0.34925089493E+03  0.00000000000E+00 0. -1.
         25    2    1    2    0    0 -0.50516388844E+02  0.78211152740E+02 -0.24934391601E+03  0.29408975708E+03  0.12508999485E+03 0.  0.
          5    1    3    3  502    0 -0.58440774941E+02 -0.15228915318E+02 -0.11836877345E+03  0.13295067870E+03  0.41800000000E+01 0. -1.
         -5    1    3    3    0  502  0.79243860964E+01  0.93440068058E+02 -0.13097514256E+03  0.16113907838E+03  0.41800000000E+01 0. -1.
        -11    1    1    2    0    0  0.13385613982E+02 -0.44561534737E+02  0.33948762932E+02  0.57597079304E+02  0.00000000000E+00 0.  1.
         11    1    1    2    0    0  0.37130774863E+02 -0.33649618003E+02 -0.56156578598E+02  0.75263221785E+02  0.00000000000E+00 0. -1.
</event>
<event>
 7    1  0.2670433E-009  0.9014903E+02  0.7561462E-02  0.1302491E+00
          2   -1    0    0  501    0  0.00000000000E+00  0.00000000000E+00  0.23499038570E+03  0.23499038570E+03  0.00000000000E+00 0. -1.
         -2   -1    0    0    0  501 -0.00000000000E+00 -0.00000000000E+00 -0.59393489823E+02  0.59393489823E+02  0.00000000000E+00 0.  1.
         25    2    1    2    0    0 -0.23940345213E+02 -0.43326811889E+02  0.10863737939E+03  0.17291861939E+03  0.12509362882E+03 0.  0.
          5    1    3    3  502    0 -0.54164286970E+02 -0.68389081524E+02  0.45578154435E+02  0.98517394486E+02  0.41800000000E+01 0.  1.
         -5    1    3    3    0  502  0.30223941756E+02  0.25062269634E+02  0.63059224959E+02  0.74401224903E+02  0.41800000000E+01 0.  1.
        -11    1    1    2    0    0  0.23082975105E+02  0.21236498589E+02 -0.16280744492E+02  0.35339429158E+02  0.00000000000E+00 0.  1.
         11    1    1    2    0    0  0.85737010881E+00  0.22090313301E+02  0.83240260974E+02  0.86125826975E+02  0.00000000000E+00 0. -1.
</event>
<event>
 7    1  0.2670433E-009  0.1892881E+03  0.7561462E-02  0.1159105E+00
         -2   -1    0    0    0  501 -0.00000000000E+00  0.00000000000E+00  0.13403417330E+03  0.13403417330E+03  0.00000000000E+00 0.  1.
          2   -1    0    0  501    0  0.00000000000E+00 -0.00000000000E+00 -0.31526777510E+03  0.31526777510E+03  0.00000000000E+00 0. -1.
         25    2    1    2    0    0  0.13177337010E+03 -0.10644457064E+03 -0.76061448071E+02  0.22389364075E+03  0.12509336832E+03 0.  0.
          5    1    3    3  502    0  0.67687932142E+02 -0.11978828481E+03 -0.78106177476E+02  0.15826855877E+03  0.41800000000E+01 0.  1.
         -5    1    3    3    0  502  0.64085437958E+02  0.13343714166E+02  0.20447294056E+01  0.65625081976E+02  0.41800000000E+01 0.  1.
        -11    1    1    2    0    0 -0.85111464989E+02  0.94471034090E+02 -0.21645853848E+02  0.12898558347E+03  0.00000000000E+00 0. -1.
         11    1    1    2    0    0 -0.46661905111E+02  0.11973536553E+02 -0.83526299880E+02  0.96422724178E+02  0.00000000000E+00 0.  1.
</event>
<event>
 7    1  0.2670433E-009  0.1612764E+03  0.7561462E-02  0.1187263E+00
          1   -1    0    0  501    0  0.00000000000E+00  0.00000000000E+00  0.14992736151E+03  0.14992736151E+03  0.00000000000E+00 0. -1.
         -1   -1    0    0    0  501 -0.00000000000E+00 -0.00000000000E+00 -0.22181485857E+03  0.22181485857E+03  0.00000000000E+00 0.  1.
         25    2    1    2    0    0  0.13143233567E+03 -0.23523130683E+02  0.25644419462E+02  0.18475041471E+03  0.12508910005E+03 0.  0.
          5    1    3    3  502    0  0.11422281294E+03  0.35519177276E+02  0.28520852751E+02  0.12304216510E+03  0.41800000000E+01 0. -1.
         -5    1    3    3    0  502  0.17209522725E+02 -0.59042307959E+02 -0.28764332896E+01  0.61708249611E+02  0.41800000000E+01 0. -1.
        -11    1    1    2    0    0 -0.53350603612E+02 -0.13162239488E+02 -0.82946783227E+02  0.99497237659E+02  0.00000000000E+00 0.  1.
         11    1    1    2    0    0 -0.78081732058E+02  0.36685370171E+02 -0.14585133301E+02  0.87494567712E+02  0.00000000000E+00 0. -1.
</event>
<event>
 7    1  0.2670433E-009  0.9534635E+02  0.7561462E-02  0.1290398E+00
          4   -1    0    0  501    0  0.00000000000E+00  0.00000000000E+00  0.38234862006E+02  0.38234862006E+02  0.00000000000E+00 0. -1.
         -4   -1    0    0    0  501 -0.00000000000E+00 -0.00000000000E+00 -0.33106594276E+03  0.33106594276E+03  0.00000000000E+00 0.  1.
         25    2    1    2    0    0 -0.82792249129E+01  0.46213049256E+01 -0.11921070624E+03  0.17305597823E+03  0.12508907665E+03 0.  0.
          5    1    3    3  502    0 -0.14065911893E+02  0.63234513607E+02 -0.75628680764E+02  0.99667564145E+02  0.41800000000E+01 0. -1.
         -5    1    3    3    0  502  0.57866869804E+01 -0.58613208682E+02 -0.43582025472E+02  0.73388414089E+02  0.41800000000E+01 0. -1.
        -11    1    1    2    0    0 -0.27551149285E+02  0.80882985254E+01 -0.14713588727E+03  0.14991149296E+03  0.00000000000E+00 0.  1.
         11    1    1    2    0    0  0.35830374198E+02 -0.12709603451E+02 -0.26484487256E+02  0.46333333576E+02  0.00000000000E+00 0. -1.
</event>
<event>
 7    1  0.2670433E-009  0.1158486E+03  0.7561462E-02  0.1250107E+00
         -2   -1    0    0    0  501 -0.00000000000E+00  0.00000000000E+00  0.47139128386E+02  0.47139128386E+02  0.00000000000E+00 0.  1.
          2   -1    0    0  501    0  0.00000000000E+00 -0.00000000000E+00 -0.32601806252E+03  0.32601806252E+03  0.00000000000E+00 0. -1.
         25    2    1    2    0    0 -0.56022781703E+02 -0.36224844855E+02 -0.19631987650E+03  0.24215307153E+03  0.12508327101E+03 0.  0.
          5    1    3    3  502    0 -0.26421736443E+02  0.40223179418E+02 -0.30502671795E+02  0.57130532168E+02  0.41800000000E+01 0.  1.
         -5    1    3    3    0  502 -0.29601045260E+02 -0.76448024273E+02 -0.16581720470E+03  0.18502253936E+03  0.41800000000E+01 0.  1.
        -11    1    1    2    0    0  0.55019089992E+02 -0.92744731288E+01 -0.51281814415E+02  0.75782191873E+02  0.00000000000E+00 0.  1.
         11    1    1    2    0    0  0.10036917110E+01  0.45499317983E+02 -0.31277243226E+02  0.55221927509E+02  0.00000000000E+00 0. -1.
</event>
<event>
 7    1  0.2670433E-009  0.1289271E+03  0.7561462E-02  0.1229056E+00
         -2   -1    0    0    0  501 -0.00000000000E+00  0.00000000000E+00  0.10210736888E+02  0.10210736888E+02  0.00000000000E+00 0.  1.
          2   -1    0    0  501    0  0.00000000000E+00 -0.00000000000E+00 -0.21670517031E+04  0.21670517031E+04  0.00000000000E+00 0. -1.
         25    2    1    2    0    0  0.70344083133E+02  0.56606284077E+02 -0.15173920880E+04  0.15252130686E+04  0.12507435580E+03 0.  0.
          5    1    3    3  502    0  0.47166062281E+02  0.83229303774E+02 -0.64222227548E+03  0.64932170606E+03  0.41800000000E+01 0.  1.
         -5    1    3    3    0  502  0.23178020852E+02 -0.26623019698E+02 -0.87516981252E+03  0.87589136254E+03  0.41800000000E+01 0.  1.
        -11    1    1    2    0    0  0.20687646288E+01 -0.54055437312E+02 -0.23345173428E+03  0.23963718895E+03  0.00000000000E+00 0.  1.
         11    1    1    2    0    0 -0.72412847761E+02 -0.25508467644E+01 -0.40599714393E+03  0.41241218243E+03  0.00000000000E+00 0. -1.
</event>
<event>
 7    1  0.2670433E-009  0.2289995E+03  0.7561462E-02  0.1127346E+00
         -1   -1    0    0    0  501 -0.00000000000E+00  0.00000000000E+00  0.44944736778E+02  0.44944736778E+02  0.00000000000E+00 0.  1.
          1   -1    0    0  501    0  0.00000000000E+00 -0.00000000000E+00 -0.13389397151E+04  0.13389397151E+04  0.00000000000E+00 0. -1.
         25    2    1    2    0    0 -0.14483978435E+03 -0.16189993783E+03 -0.57338868902E+03  0.62578990321E+03  0.12509301044E+03 0.  0.
          5    1    3    3  502    0  0.26046609987E+01 -0.80054477109E+01  0.40695258038E+01  0.10242308931E+02  0.41800000000E+01 0. -1.
         -5    1    3    3    0  502 -0.14744444535E+03 -0.15389449012E+03 -0.57745821483E+03  0.61554759428E+03  0.41800000000E+01 0. -1.
        -11    1    1    2    0    0  0.97315647563E+02  0.16072741815E+03 -0.57825892375E+03  0.60801893153E+03  0.00000000000E+00 0.  1.
         11    1    1    2    0    0  0.47524136788E+02  0.11725196845E+01 -0.14234736560E+03  0.15007561718E+03  0.00000000000E+00 0. -1.
</event>
<event>
 7    1  0.2670433E-009  0.1022982E+03  0.7561462E-02  0.1275536E+00
          2   -1    0    0  501    0  0.00000000000E+00  0.00000000000E+00  0.45808915588E+03  0.45808915588E+03  0.00000000000E+00 0. -1.
         -2   -1    0    0    0  501 -0.00000000000E+00 -0.00000000000E+00 -0.34933791861E+02  0.34933791861E+02  0.00000000000E+00 0.  1.
         25    2    1    2    0    0  0.51533899019E+02 -0.76921012247E+01  0.29256022437E+03  0.32241790908E+03  0.12508761747E+03 0.  0.
          5    1    3    3  502    0  0.89978388212E+02  0.77965874443E+01  0.23123411528E+03  0.24828126307E+03  0.41800000000E+01 0.  1.
         -5    1    3    3    0  502 -0.38444489193E+02 -0.15488688669E+02  0.61326109089E+02  0.74136646013E+02  0.41800000000E+01 0.  1.
        -11    1    1    2    0    0 -0.61824560082E+02  0.67988907897E+01  0.14211671862E+03  0.15513111505E+03  0.00000000000E+00 0. -1.
         11    1    1    2    0    0  0.10290661063E+02  0.89321043504E+00 -0.11521578970E+02  0.15473923612E+02  0.00000000000E+00 0.  1.
</event>
<event>
 7    1  0.2840502E-009  0.1013400E+03  0.7561462E-02  0.1277503E+00
          2   -1    0    0  501    0  0.00000000000E+00  0.00000000000E+00  0.12934236604E+04  0.12934236604E+04  0.00000000000E+00 0. -1.
         -2   -1    0    0    0  501 -0.00000000000E+00 -0.00000000000E+00 -0.20557381607E+02  0.20557381607E+02  0.00000000000E+00 0.  1.
         25    2    1    2    0    0 -0.12193373417E+02  0.72304278371E+02  0.10693196608E+04  0.10791048877E+04  0.12508490958E+03 0.  0.
          5    1    3    3  502    0  0.47050617389E+01 -0.72139763882E+01  0.73342435847E+03  0.73348683768E+03  0.41800000000E+01 0.  1.
         -5    1    3    3    0  502 -0.16898435156E+02  0.79518254759E+02  0.33589530231E+03  0.34561804997E+03  0.41800000000E+01 0.  1.
        -11    1    1    2    0    0  0.48176701638E+02 -0.32874594980E+02  0.70362296861E+02  0.91392485443E+02  0.00000000000E+00 0.  1.
         11    1    1    2    0    0 -0.35983328221E+02 -0.39429683391E+02  0.13318432112E+03  0.14348366888E+03  0.00000000000E+00 0. -1.
</event>
<event>
 7    1  0.2670433E-009  0.1265477E+03  0.7561462E-02  0.1232670E+00
          1   -1    0    0  501    0  0.00000000000E+00  0.00000000000E+00  0.22109776552E+03  0.22109776552E+03  0.00000000000E+00 0. -1.
         -1   -1    0    0    0  501 -0.00000000000E+00 -0.00000000000E+00 -0.18566545061E+03  0.18566545061E+03  0.00000000000E+00 0.  1.
         25    2    1    2    0    0  0.84000223283E+02  0.28168980498E+02 -0.12809613293E+03  0.19976211954E+03  0.12508699436E+03 0.  0.
          5    1    3    3  502    0  0.79463118661E+02  0.67087124385E+02 -0.57482337710E+02  0.11889811199E+03  0.41800000000E+01 0.  1.
         -5    1    3    3    0  502  0.45371046221E+01 -0.38918143886E+02 -0.70613795224E+02  0.80864007555E+02  0.41800000000E+01 0.  1.
        -11    1    1    2    0    0 -0.90878255443E+01  0.19017163549E+02  0.37323608410E-01  0.21077060412E+02  0.00000000000E+00 0.  1.
         11    1    1    2    0    0 -0.74912397739E+02 -0.47186144047E+02  0.16349112423E+03  0.18592403617E+03  0.00000000000E+00 0. -1.
</event>
<event>
 7    1  0.2670433E-009  0.1273242E+03  0.7561462E-02  0.1231481E+00
         -1   -1    0    0    0  501 -0.00000000000E+00  0.00000000000E+00  0.82846228582E+02  0.82846228582E+02  0.00000000000E+00 0.  1.
          1   -1    0    0  501    0  0.00000000000E+00 -0.00000000000E+00 -0.21565838190E+03  0.21565838190E+03  0.00000000000E+00 0. -1.
         25    2    1    2    0    0  0.17223593196E+02 -0.69365420078E+02 -0.33566211109E+02  0.14792496261E+03  0.12508753083E+03 0.  0.
          5    1    3    3  502    0 -0.42999338233E+02 -0.70141918573E+02 -0.29174831801E+02  0.87392648662E+02  0.41800000000E+01 0.  1.
         -5    1    3    3    0  502  0.60222931429E+02  0.77649849447E+00 -0.43913793078E+01  0.60532313949E+02  0.41800000000E+01 0.  1.
        -11    1    1    2    0    0  0.14484125425E+02 -0.15552166157E+02 -0.28733535184E+02  0.35738995588E+02  0.00000000000E+00 0.  1.
         11    1    1    2    0    0 -0.31707718621E+02  0.84917586235E+02 -0.70512407023E+02  0.11484065228E+03  0.00000000000E+00 0. -1.
</event>
<event>
 7    1  0.2670433E-009  0.1347050E+03  0.7561462E-02  0.1220637E+00
         -2   -1    0    0    0  501 -0.00000000000E+00  0.00000000000E+00  0.26328703098E+02  0.26328703098E+02  0.00000000000E+00 0.  1.
          2   -1    0    0  501    0  0.00000000000E+00 -0.00000000000E+00 -0.90335622307E+03  0.90335622307E+03  0.00000000000E+00 0. -1.
         25    2    1    2    0    0  0.59463486469E+02  0.73786292648E+02 -0.64591589241E+03  0.66470552106E+03  0.12508303822E+03 0.  0.
          5    1    3    3  502    0 -0.23872091165E+02 -0.90118783029E+01 -0.40986095644E+02  0.48460531604E+02  0.41800000000E+01 0. -1.
         -5    1    3    3    0  502  0.83335577634E+02  0.82798170951E+02 -0.60492979677E+03  0.61624498946E+03  0.41800000000E+01 0. -1.
        -11    1    1    2    0    0 -0.80610067484E+02 -0.62725423414E+02 -0.20816203278E+03  0.23187042419E+03  0.00000000000E+00 0. -1.
         11    1    1    2    0    0  0.21146581015E+02 -0.11060869234E+02 -0.22949594773E+02  0.33108980913E+02  0.00000000000E+00 0.  1.
</event>
<event>
 7    1  0.2670433E-009  0.2818978E+03  0.7561462E-02  0.1094657E+00
          1   -1    0    0  501    0  0.00000000000E+00  0.00000000000E+00  0.29014372870E+04  0.29014372870E+04  0.00000000000E+00 0. -1.
         -1   -1    0    0    0  501 -0.00000000000E+00 -0.00000000000E+00 -0.31688947684E+02  0.31688947684E+02  0.00000000000E+00 0.  1.
         25    2    1    2    0    0 -0.76816467637E+01  0.27593794090E+03  0.17801296145E+04  0.18057435468E+04  0.12509019811E+03 0.  0.
          5    1    3    3  502    0  0.21005365256E+02  0.17417057620E+02  0.42340968038E+03  0.42430862483E+03  0.41800000000E+01 0. -1.
         -5    1    3    3    0  502 -0.28687012020E+02  0.25852088328E+03  0.13567199341E+04  0.13814349220E+04  0.41800000000E+01 0. -1.
        -11    1    1    2    0    0  0.27514038833E+01 -0.74304189740E+02  0.16437056637E+03  0.18040611388E+03  0.00000000000E+00 0.  1.
         11    1    1    2    0    0  0.49302428805E+01 -0.20163375116E+03  0.92524815848E+03  0.94697657398E+03  0.00000000000E+00 0. -1.
</event>
<event>
 7    1  0.2670433E-009  0.2002639E+03  0.7561462E-02  0.1149517E+00
         -2   -1    0    0    0  501 -0.00000000000E+00  0.00000000000E+00  0.39637566124E+02  0.39637566124E+02  0.00000000000E+00 0.  1.
          2   -1    0    0  501    0  0.00000000000E+00 -0.00000000000E+00 -0.11026338856E+04  0.11026338856E+04  0.00000000000E+00 0. -1.
         25    2    1    2    0    0  0.13367326249E+03 -0.10903639474E+03 -0.69335812219E+03  0.72536125001E+03  0.12508389556E+03 0.  0.
          5    1    3    3  502    0  0.87971977598E+02 -0.13403755354E+03 -0.54225634607E+03  0.56547727793E+03  0.41800000000E+01 0. -1.
         -5    1    3    3    0  502  0.45701284888E+02  0.25001158800E+02 -0.15110177612E+03  0.15988397208E+03  0.41800000000E+01 0. -1.
        -11    1    1    2    0    0 -0.29354572036E+02 -0.86662773484E+01 -0.31168953030E+02  0.43684080572E+02  0.00000000000E+00 0. -1.
         11    1    1    2    0    0 -0.10431869045E+03  0.11770267209E+03 -0.33846924424E+03  0.37322612113E+03  0.00000000000E+00 0.  1.
</event>
<event>
 7    1  0.2670433E-009  0.1121754E+03  0.7561462E-02  0.1256594E+00
         -2   -1    0    0    0  501 -0.00000000000E+00  0.00000000000E+00  0.61286531688E+03  0.61286531688E+03  0.00000000000E+00 0.  1.
          2   -1    0    0  501    0  0.00000000000E+00 -0.00000000000E+00 -0.33872999350E+02  0.33872999350E+02  0.00000000000E+00 0. -1.
         25    2    1    2    0    0 -0.48827925046E+02  0.85625171227E+01  0.49702215070E+03  0.51491371647E+03  0.12509050387E+03 0.  0.
          5    1    3    3  502    0 -0.52093917857E+02  0.61145648175E+02  0.33350235143E+03  0.34306538353E+03  0.41800000000E+01 0.  1.
         -5    1    3    3    0  502  0.32659928113E+01 -0.52583131052E+02  0.16351979928E+03  0.17184833295E+03  0.41800000000E+01 0.  1.
        -11    1    1    2    0    0 -0.20451766479E+02  0.34800989643E+01 -0.36132850434E+01  0.21058054746E+02  0.00000000000E+00 0. -1.
         11    1    1    2    0    0  0.69279691524E+02 -0.12042616087E+02  0.85583451872E+02  0.11076654501E+03  0.00000000000E+00 0.  1.
</event>
<event>
 7    1  0.2670433E-009  0.1236812E+03  0.7561462E-02  0.1237145E+00
         -1   -1    0    0    0  501 -0.00000000000E+00  0.00000000000E+00  0.11833796499E+03  0.11833796499E+03  0.00000000000E+00 0.  1.
          1   -1    0    0  501    0  0.00000000000E+00 -0.00000000000E+00 -0.16737187145E+03  0.16737187145E+03  0.00000000000E+00 0. -1.
         25    2    1    2    0    0 -0.71827448225E+02 -0.52386181737E+02 -0.28825902038E+02  0.15614557225E+03  0.12508802001E+03 0.  0.
          5    1    3    3  502    0 -0.15455388785E+02 -0.63336576875E+02 -0.61686775969E+02  0.89850552264E+02  0.41800000000E+01 0. -1.
         -5    1    3    3    0  502 -0.56372059440E+02  0.10950395138E+02  0.32860873930E+02  0.66295019984E+02  0.41800000000E+01 0. -1.
        -11    1    1    2    0    0 -0.20531917432E+02  0.98315383989E+01 -0.15926761540E+02  0.27782737696E+02  0.00000000000E+00 0.  1.
         11    1    1    2    0    0  0.92359365657E+02  0.42554643338E+02 -0.42812428829E+01  0.10178152649E+03  0.00000000000E+00 0. -1.
</event>
<event>
 7    1  0.2670433E-009  0.8851484E+02  0.7561462E-02  0.1306489E+00
          2   -1    0    0  501    0  0.00000000000E+00  0.00000000000E+00  0.11391204949E+04  0.11391204949E+04  0.00000000000E+00 0. -1.
         -2   -1    0    0    0  501 -0.00000000000E+00 -0.00000000000E+00 -0.24404820515E+02  0.24404820515E+02  0.00000000000E+00 0.  1.
         25    2    1    2    0    0  0.71683542330E+02 -0.30164395031E+02  0.94203165979E+03  0.95347753717E+03  0.12508934761E+03 0.  0.
          5    1    3    3  502    0  0.50662531816E+02  0.78944019450E+01  0.85053999730E+03  0.85209434520E+03  0.41800000000E+01 0.  1.
         -5    1    3    3    0  502  0.21021010513E+02 -0.38058796976E+02  0.91491662483E+02  0.10138319197E+03  0.41800000000E+01 0.  1.
        -11    1    1    2    0    0 -0.38239015559E+02  0.29768442527E+02  0.17851041287E+02  0.51643413486E+02  0.00000000000E+00 0.  1.
         11    1    1    2    0    0 -0.33444526770E+02  0.39595250422E+00  0.15483297331E+03  0.15840436475E+03  0.00000000000E+00 0. -1.
</event>
<event>
 7    1  0.2670433E-009  0.1218645E+03  0.7561462E-02  0.1240053E+00
          2   -1    0    0  501    0  0.00000000000E+00  0.00000000000E+00  0.81227252909E+03  0.81227252909E+03  0.00000000000E+00 0.  1.
         -2   -1    0    0    0  501 -0.00000000000E+00 -0.00000000000E+00 -0.25988518467E+02  0.25988518467E+02  0.00000000000E+00 0. -1.
         25    2    1    2    0    0 -0.89799995445E+02  0.32610499622E+02  0.38983378948E+03  0.42041028364E+03  0.12508772642E+03 0.  0.
          5    1    3    3  502    0 -0.29771563025E+01 -0.12866826890E+02  0.24551746754E+03  0.24590794611E+03  0.41800000000E+01 0. -1.
         -5    1    3    3    0  502 -0.86822839142E+02  0.45477326511E+02  0.14431632194E+03  0.17450233753E+03  0.41800000000E+01 0. -1.
        -11    1    1    2    0    0  0.56410350238E+02 -0.64441778893E+02  0.26932170393E+03  0.28261112980E+03  0.00000000000E+00 0. -1.
         11    1    1    2    0    0  0.33389645206E+02  0.31831279271E+02  0.12712851720E+03  0.13523963411E+03  0.00000000000E+00 0.  1.
</event>
<event>
 7    1  0.2670433E-009  0.1433293E+03  0.7561462E-02  0.1208918E+00
          2   -1    0    0  501    0  0.00000000000E+00  0.00000000000E+00  0.43977775710E+03  0.43977775710E+03  0.00000000000E+00 0. -1.
         -2   -1    0    0    0  501 -0.00000000000E+00 -0.00000000000E+00 -0.48740979237E+02  0.48740979237E+02  0.00000000000E+00 0.  1.
         25    2    1    2    0    0 -0.46678777243E+02  0.85100648165E+02  0.17947528708E+03  0.23933325003E+03  0.12509195553E+03 0.  0.
          5    1    3    3  502    0  0.12358735311E+01  0.10544423800E+03  0.12944291537E+03  0.16701184224E+03  0.41800000000E+01 0.  1.
         -5    1    3    3    0  502 -0.47914650774E+02 -0.20343589833E+02  0.50032371708E+02  0.72321407790E+02  0.41800000000E+01 0.  1.
        -11    1    1    2    0    0  0.37046374734E+01  0.17382895704E+02  0.14452365135E+02  0.22907646318E+02  0.00000000000E+00 0.  1.
         11    1    1    2    0    0  0.42974139769E+02 -0.10248354387E+03  0.19710912565E+03  0.22627783998E+03  0.00000000000E+00 0. -1.
</event>
<event>
 7    1  0.2670433E-009  0.9245667E+02  0.7561462E-02  0.1297009E+00
         -1   -1    0    0    0  501 -0.00000000000E+00  0.00000000000E+00  0.35984869423E+02  0.35984869423E+02  0.00000000000E+00 0.  1.
          1   -1    0    0  501    0  0.00000000000E+00 -0.00000000000E+00 -0.38954817525E+03  0.38954817525E+03  0.00000000000E+00 0. -1.
         25    2    1    2    0    0 -0.25652532051E+02  0.43051528694E+02 -0.19477393912E+03  0.23684391685E+03  0.12508663825E+03 0.  0.
          5    1    3    3  502    0 -0.48077139955E+02  0.28191228193E+02 -0.19084967210E+02  0.59058150214E+02  0.41800000000E+01 0.  1.
         -5    1    3    3    0  502  0.22424607905E+02  0.14860300501E+02 -0.17568897191E+03  0.17778576664E+03  0.41800000000E+01 0.  1.
        -11    1    1    2    0    0 -0.27062348068E+02 -0.40897679696E+02 -0.81252258382E+02  0.94904796400E+02  0.00000000000E+00 0.  1.
         11    1    1    2    0    0  0.52714880119E+02 -0.21538489976E+01 -0.77537108330E+02  0.93784331418E+02  0.00000000000E+00 0. -1.
</event>
<event>
 7    1  0.2670433E-009  0.8063913E+02  0.7561462E-02  0.1327247E+00
          2   -1    0    0  501    0  0.00000000000E+00  0.00000000000E+00  0.13678389435E+03  0.13678389435E+03  0.00000000000E+00 0. -1.
         -2   -1    0    0    0  501 -0.00000000000E+00 -0.00000000000E+00 -0.18694176074E+03  0.18694176074E+03  0.00000000000E+00 0.  1.
         25    2    1    2    0    0  0.36809489126E+02 -0.51135274506E+02  0.72464951277E+02  0.15769364272E+03  0.12508541483E+03 0.  0.
          5    1    3    3  502    0  0.38800801574E+01 -0.41650304946E+02  0.10322403560E+03  0.11145616560E+03  0.41800000000E+01 0.  1.
         -5    1    3    3    0  502  0.32929408969E+02 -0.94849695608E+01 -0.30759084321E+02  0.46237477125E+02  0.41800000000E+01 0.  1.
        -11    1    1    2    0    0  0.14747718350E+02  0.18660675546E+02 -0.97099318910E+02  0.99969964195E+02  0.00000000000E+00 0.  1.
         11    1    1    2    0    0 -0.51557207477E+02  0.32474598961E+02 -0.25523498755E+02  0.66062048176E+02  0.00000000000E+00 0. -1.
</event>
<event>
 7    1  0.2670433E-009  0.1394543E+03  0.7561462E-02  0.1214065E+00
         -2   -1    0    0    0  501 -0.00000000000E+00  0.00000000000E+00  0.50282242846E+02  0.50282242846E+02  0.00000000000E+00 0.  1.
          2   -1    0    0  501    0  0.00000000000E+00 -0.00000000000E+00 -0.45489103818E+03  0.45489103818E+03  0.00000000000E+00 0. -1.
         25    2    1    2    0    0  0.99370685156E+02 -0.27120628582E+02 -0.17936463477E+03  0.24172310594E+03  0.12509326990E+03 0.  0.
          5    1    3    3  502    0 -0.17708126166E+02  0.90102773295E+01 -0.83951464061E+02  0.86371775180E+02  0.41800000000E+01 0. -1.
         -5    1    3    3    0  502  0.11707881132E+03 -0.36130905911E+02 -0.95413170714E+02  0.15535133076E+03  0.41800000000E+01 0. -1.
        -11    1    1    2    0    0 -0.14701326426E+01 -0.25036306242E+02 -0.32322850895E+02  0.40911423957E+02  0.00000000000E+00 0. -1.
         11    1    1    2    0    0 -0.97900552513E+02  0.52156934823E+02 -0.19292130967E+03  0.22253875114E+03  0.00000000000E+00 0.  1.
</event>
<event>
 7    1  0.2670433E-009  0.1355096E+03  0.7561462E-02  0.1219502E+00
          2   -1    0    0  501    0  0.00000000000E+00  0.00000000000E+00  0.25659668666E+03  0.25659668666E+03  0.00000000000E+00 0. -1.
         -2   -1    0    0    0  501 -0.00000000000E+00 -0.00000000000E+00 -0.10926866256E+03  0.10926866256E+03  0.00000000000E+00 0.  1.
         25    2    1    2    0    0  0.36911383878E+02  0.88906472260E+02 -0.11101972954E+02  0.15823188237E+03  0.12508902320E+03 0.  0.
          5    1    3    3  502    0  0.72361310902E+02  0.95907164354E+02 -0.16897852372E+02  0.12139750123E+03  0.41800000000E+01 0.  1.
         -5    1    3    3    0  502 -0.35449927024E+02 -0.70006920943E+01  0.57958794182E+01  0.36834381141E+02  0.41800000000E+01 0.  1.
        -11    1    1    2    0    0  0.11314556681E+02 -0.53284031320E+02  0.13065738610E+03  0.14155761982E+03  0.00000000000E+00 0. -1.
         11    1    1    2    0    0 -0.48225940559E+02 -0.35622440940E+02  0.27772610960E+02  0.66075847030E+02  0.00000000000E+00 0.  1.
</event>
<event>
 7    1  0.2670433E-009  0.1434716E+03  0.7561462E-02  0.1208733E+00
         -2   -1    0    0    0  501 -0.00000000000E+00  0.00000000000E+00  0.17438335918E+02  0.17438335918E+02  0.00000000000E+00 0.  1.
          2   -1    0    0  501    0  0.00000000000E+00 -0.00000000000E+00 -0.15429310932E+04  0.15429310932E+04  0.00000000000E+00 0. -1.
         25    2    1    2    0    0  0.10730806949E+02 -0.96270396577E+02 -0.11737331928E+04  0.11843480538E+04  0.12509022733E+03 0.  0.
          5    1    3    3  502    0  0.38061973474E+02  0.13743549710E+02 -0.20514024304E+03  0.20913534062E+03  0.41800000000E+01 0. -1.
         -5    1    3    3    0  502 -0.27331166525E+02 -0.11001394629E+03 -0.96859294981E+03  0.97521271313E+03  0.41800000000E+01 0. -1.
        -11    1    1    2    0    0  0.10791147423E+02  0.10784840100E+03 -0.29114698472E+03  0.31066749616E+03  0.00000000000E+00 0. -1.
         11    1    1    2    0    0 -0.21521954371E+02 -0.11578004424E+02 -0.60612579724E+02  0.65353879206E+02  0.00000000000E+00 0.  1.
</event>
<event>
 7    1  0.2670433E-009  0.1026546E+03  0.7561462E-02  0.1274811E+00
         -2   -1    0    0    0  501 -0.00000000000E+00  0.00000000000E+00  0.57788176461E+03  0.57788176461E+03  0.00000000000E+00 0.  1.
          2   -1    0    0  501    0  0.00000000000E+00 -0.00000000000E+00 -0.26115290033E+02  0.26115290033E+02  0.00000000000E+00 0. -1.
         25    2    1    2    0    0  0.30222455589E+02 -0.55439265435E+01  0.43883329581E+03  0.45734639643E+03  0.12508770075E+03 0.  0.
          5    1    3    3  502    0  0.35571710515E+02 -0.52992433076E+02  0.35553068676E+03  0.36123826787E+03  0.41800000000E+01 0. -1.
         -5    1    3    3    0  502 -0.53492549262E+01  0.47448506532E+02  0.83302609050E+02  0.96108128558E+02  0.41800000000E+01 0. -1.
        -11    1    1    2    0    0 -0.57824660826E+02 -0.14123145719E+02  0.75748163566E+02  0.96337629867E+02  0.00000000000E+00 0. -1.
         11    1    1    2    0    0  0.27602205237E+02  0.19667072262E+02  0.37185015210E+02  0.50313028348E+02  0.00000000000E+00 0.  1.
</event>
<event>
 7    1  0.2670433E-009  0.1022295E+03  0.7561462E-02  0.1275676E+00
          2   -1    0    0  501    0  0.00000000000E+00  0.00000000000E+00  0.12145453637E+03  0.12145453637E+03  0.00000000000E+00 0. -1.
         -2   -1    0    0    0  501 -0.00000000000E+00 -0.00000000000E+00 -0.10849568818E+03  0.10849568818E+03  0.00000000000E+00 0.  1.
         25    2    1    2    0    0  0.26703453816E+02 -0.12407519190E+02  0.28971995234E+02  0.13173016310E+03  0.12508572414E+03 0.  0.
          5    1    3    3  502    0 -0.18390542996E+02  0.40003029177E+02 -0.18308447033E+02  0.47865708475E+02  0.41800000000E+01 0.  1.
         -5    1    3    3    0  502  0.45093996812E+02 -0.52410548367E+02  0.47280442267E+02  0.83864454625E+02  0.41800000000E+01 0.  1.
        -11    1    1    2    0    0  0.12763202472E+02  0.40538877366E+02  0.93520754061E+01  0.43517366991E+02  0.00000000000E+00 0. -1.
         11    1    1    2    0    0 -0.39466656287E+02 -0.28131358176E+02 -0.25365222443E+02  0.54702694457E+02  0.00000000000E+00 0.  1.
</event>
<event>
 7    1  0.2670433E-009  0.7458284E+02  0.7561462E-02  0.1345168E+00
          2   -1    0    0  501    0  0.00000000000E+00  0.00000000000E+00  0.82643052578E+03  0.82643052578E+03  0.00000000000E+00 0.  1.
         -2   -1    0    0    0  501 -0.00000000000E+00 -0.00000000000E+00 -0.14801131960E+02  0.14801131960E+02  0.00000000000E+00 0. -1.
         25    2    1    2    0    0  0.18287686416E+02  0.20043798183E+02  0.60723381602E+03  0.62057676297E+03  0.12508564303E+03 0.  0.
          5    1    3    3  502    0  0.26519980557E+02 -0.16758247651E+02  0.55560254585E+03  0.55650319818E+03  0.41800000000E+01 0.  1.
         -5    1    3    3    0  502 -0.82322941414E+01  0.36802045835E+02  0.51631270173E+02  0.64073564784E+02  0.41800000000E+01 0.  1.
        -11    1    1    2    0    0  0.12128699816E+02 -0.40922479401E+02  0.77156973848E+02  0.88175695591E+02  0.00000000000E+00 0. -1.
         11    1    1    2    0    0 -0.30416386232E+02  0.20878681218E+02  0.12723860395E+03  0.13247919918E+03  0.00000000000E+00 0.  1.
</event>
<event>
 7    1  0.2670433E-009  0.6903674E+02  0.7561462E-02  0.1363400E+00
         -1   -1    0    0    0  501 -0.00000000000E+00  0.00000000000E+00  0.23849747355E+02  0.23849747355E+02  0.00000000000E+00 0.  1.
          1   -1    0    0  501    0  0.00000000000E+00 -0.00000000000E+00 -0.50660991402E+03  0.50660991402E+03  0.00000000000E+00 0. -1.
         25    2    1    2    0    0  0.13620695438E+02 -0.86776442380E+01 -0.30820396534E+03  0.33301289193E+03  0.12508827718E+03 0.  0.
          5    1    3    3  502    0  0.23838796250E+02  0.30980213731E+02 -0.28084849232E+03  0.28358668849E+03  0.41800000000E+01 0. -1.
         -5    1    3    3    0  502 -0.10218100812E+02 -0.39657857969E+02 -0.27355473022E+02  0.49426203447E+02  0.41800000000E+01 0. -1.
        -11    1    1    2    0    0 -0.34200261018E+02  0.12960834514E+02 -0.17249009242E+03  0.17632490768E+03  0.00000000000E+00 0. -1.
         11    1    1    2    0    0  0.20579565580E+02 -0.42831902765E+01 -0.20661089085E+01  0.21121861765E+02  0.00000000000E+00 0.  1.
</event>
<event>
 7    1  0.2670433E-009  0.8928578E+02  0.7561462E-02  0.1304591E+00
          2   -1    0    0  501    0  0.00000000000E+00  0.00000000000E+00  0.37790764284E+02  0.37790764284E+02  0.00000000000E+00 0. -1.
         -2   -1    0    0    0  501 -0.00000000000E+00 -0.00000000000E+00 -0.44162623264E+03  0.44162623264E+03  0.00000000000E+00 0.  1.
         25    2    1    2    0    0 -0.36227354454E+02  0.37788735596E+02 -0.30299279529E+03  0.33195217932E+03  0.12508879090E+03 0.  0.
          5    1    3    3  502    0 -0.16988299368E+02 -0.22500887371E+02 -0.24294981686E+03  0.24461598100E+03  0.41800000000E+01 0.  1.
         -5    1    3    3    0  502 -0.19239055085E+02  0.60289622967E+02 -0.60042978428E+02  0.87336198318E+02  0.41800000000E+01 0.  1.
        -11    1    1    2    0    0 -0.12252548039E+02  0.12002881108E+02 -0.68859679799E+02  0.70963720241E+02  0.00000000000E+00 0.  1.
         11    1    1    2    0    0  0.48479902493E+02 -0.49791616704E+02 -0.31982993267E+02  0.76501097365E+02  0.00000000000E+00 0. -1.
</event>
<event>
 7    1  0.2670433E-009  0.8530840E+02  0.7561462E-02  0.1314628E+00
          1   -1    0    0  501    0  0.00000000000E+00  0.00000000000E+00  0.32765083554E+03  0.32765083554E+03  0.00000000000E+00 0. -1.
         -1   -1    0    0    0  501 -0.00000000000E+00 -0.00000000000E+00 -0.43483389229E+02  0.43483389229E+02  0.00000000000E+00 0.  1.
         25    2    1    2    0    0 -0.24960080403E+02 -0.70122437637E+01  0.95875137126E+02  0.15972376381E+03  0.12508981425E+03 0.  0.
          5    1    3    3  502    0 -0.37768868606E+02  0.21656029009E+02  0.11478275107E+03  0.12283331540E+03  0.41800000000E+01 0. -1.
         -5    1    3    3    0  502  0.12808788203E+02 -0.28668272773E+02 -0.18907613944E+02  0.36890448413E+02  0.41800000000E+01 0. -1.
        -11    1    1    2    0    0 -0.32354034001E+02  0.17732702549E+02  0.59122445630E+02  0.69689998085E+02  0.00000000000E+00 0.  1.
         11    1    1    2    0    0  0.57314114404E+02 -0.10720458785E+02  0.12916986355E+03  0.14172046287E+03  0.00000000000E+00 0. -1.
</event>
<event>
 7    1  0.2670433E-009  0.1199737E+03  0.7561462E-02  0.1243140E+00
         -1   -1    0    0    0  501 -0.00000000000E+00  0.00000000000E+00  0.12735872318E+03  0.12735872318E+03  0.00000000000E+00 0.  1.
          1   -1    0    0  501    0  0.00000000000E+00 -0.00000000000E+00 -0.31793189941E+03  0.31793189941E+03  0.00000000000E+00 0. -1.
         25    2    1    2    0    0 -0.75838744279E+02 -0.21221403795E+02 -0.26597140028E+03  0.30428624503E+03  0.12508984785E+03 0.  0.
          5    1    3    3  502    0 -0.21860983762E+02 -0.69446671142E+02 -0.16058383938E+03  0.17636718690E+03  0.41800000000E+01 0.  1.
         -5    1    3    3    0  502 -0.53977760517E+02  0.48225267347E+02 -0.10538756090E+03  0.12791905814E+03  0.41800000000E+01 0.  1.
        -11    1    1    2    0    0  0.62297820616E+02 -0.75165012280E+01  0.40229055705E+01  0.62878454287E+02  0.00000000000E+00 0. -1.
         11    1    1    2    0    0  0.13540923663E+02  0.28737905023E+02  0.71375318478E+02  0.78125923269E+02  0.00000000000E+00 0.  1.
</event>
<event>
 7    1  0.2670433E-009  0.1184258E+03  0.7561462E-02  0.1245717E+00
         -1   -1    0    0    0  501 -0.00000000000E+00  0.00000000000E+00  0.50164292350E+03  0.50164292350E+03  0.00000000000E+00 0.  1.
          1   -1    0    0  501    0  0.00000000000E+00 -0.00000000000E+00 -0.37477485886E+02  0.37477485886E+02  0.00000000000E+00 0. -1.
         25    2    1    2    0    0 -0.84396342378E+00 -0.62846433166E+02  0.36584281624E+03  0.39171275280E+03  0.12509007986E+03 0.  0.
          5    1    3    3  502    0  0.10482700326E+02  0.32493436105E+02  0.44124637790E+02  0.55947890543E+02  0.41800000000E+01 0.  1.
         -5    1    3    3    0  502 -0.11326663750E+02 -0.95339869271E+02  0.32171817845E+03  0.33576486226E+03  0.41800000000E+01 0.  1.
        -11    1    1    2    0    0  0.41351184422E+02  0.47645803407E+02  0.75839440768E+02  0.98649195696E+02  0.00000000000E+00 0.  1.
         11    1    1    2    0    0 -0.40507220998E+02  0.15200629758E+02  0.22483180612E+02  0.48758460892E+02  0.00000000000E+00 0. -1.
</event>
<event>
 7    1  0.2670433E-009  0.1649880E+03  0.7561462E-02  0.1183178E+00
         -1   -1    0    0    0  501 -0.00000000000E+00  0.00000000000E+00  0.67257044914E+03  0.67257044914E+03  0.00000000000E+00 0.  1.
          1   -1    0    0  501    0  0.00000000000E+00 -0.00000000000E+00 -0.51905773741E+02  0.51905773741E+02  0.00000000000E+00 0. -1.
         25    2    1    2    0    0 -0.21355973455E+02 -0.14869075317E+03  0.34342918219E+03  0.39516548110E+03  0.12508851504E+03 0.  0.
          5    1    3    3  502    0 -0.30575148771E+02 -0.14546731670E+03  0.18954796709E+03  0.24091800302E+03  0.41800000000E+01 0.  1.
         -5    1    3    3    0  502  0.92191753156E+01 -0.32234364766E+01  0.15388121510E+03  0.15424747809E+03  0.41800000000E+01 0.  1.
        -11    1    1    2    0    0  0.52515040883E+02  0.90106614062E+02  0.21196982098E+03  0.23623766936E+03  0.00000000000E+00 0.  1.
         11    1    1    2    0    0 -0.31159067428E+02  0.58584139111E+02  0.65265672233E+02  0.93073072424E+02  0.00000000000E+00 0. -1.
</event>
<event>
 7    1  0.2670433E-009  0.1205152E+03  0.7561462E-02  0.1242250E+00
          1   -1    0    0  501    0  0.00000000000E+00  0.00000000000E+00  0.27419850934E+03  0.27419850934E+03  0.00000000000E+00 0. -1.
         -1   -1    0    0    0  501 -0.00000000000E+00 -0.00000000000E+00 -0.90530190677E+02  0.90530190677E+02  0.00000000000E+00 0.  1.
         25    2    1    2    0    0  0.11066284009E+03  0.25111589391E+02  0.85042179611E+02  0.18909394678E+03  0.12508993683E+03 0.  0.
          5    1    3    3  502    0  0.88420654212E+02  0.37153778430E+02 -0.43494877997E+01  0.96098937492E+02  0.41800000000E+01 0.  1.
         -5    1    3    3    0  502  0.22242185879E+02 -0.12042189039E+02  0.89391667411E+02  0.92995009286E+02  0.41800000000E+01 0.  1.
        -11    1    1    2    0    0 -0.24732814173E+02 -0.22481833748E+02  0.81346086119E+02  0.87945043479E+02  0.00000000000E+00 0. -1.
         11    1    1    2    0    0 -0.85930025918E+02 -0.26297556429E+01  0.17280052935E+02  0.87689709763E+02  0.00000000000E+00 0.  1.
</event>
<event>
 7    1  0.2670433E-009  0.1270288E+03  0.7561462E-02  0.1231932E+00
          2   -1    0    0  501    0  0.00000000000E+00  0.00000000000E+00  0.47635926696E+02  0.47635926696E+02  0.00000000000E+00 0. -1.
         -2   -1    0    0    0  501 -0.00000000000E+00 -0.00000000000E+00 -0.57001746819E+03  0.57001746819E+03  0.00000000000E+00 0.  1.
         25    2    1    2    0    0 -0.41126878351E+02 -0.88237880567E+02 -0.42322410171E+03  0.45193441816E+03  0.12509490138E+03 0.  0.
          5    1    3    3  502    0 -0.68332614078E+02 -0.84498369616E+02 -0.40341642809E+03  0.41781767252E+03  0.41800000000E+01 0. -1.
         -5    1    3    3    0  502  0.27205735727E+02 -0.37395109509E+01 -0.19807673624E+02  0.34116745639E+02  0.41800000000E+01 0. -1.
        -11    1    1    2    0    0  0.54288975857E+02  0.39748455478E+02 -0.16972590802E+02  0.69392373147E+02  0.00000000000E+00 0. -1.
         11    1    1    2    0    0 -0.13162097507E+02  0.48489425089E+02 -0.82184848979E+02  0.96326603584E+02  0.00000000000E+00 0.  1.
</event>
<event>
 7    1  0.2670433E-009  0.1310322E+03  0.7561462E-02  0.1225932E+00
         -3   -1    0    0    0  501 -0.00000000000E+00  0.00000000000E+00  0.24653450426E+03  0.24653450426E+03  0.00000000000E+00 0.  1.
          3   -1    0    0  501    0  0.00000000000E+00 -0.00000000000E+00 -0.10289541587E+03  0.10289541587E+03  0.00000000000E+00 0. -1.
         25    2    1    2    0    0 -0.22263167625E+02  0.10233275742E+03  0.17203799094E+02  0.16405087025E+03  0.12509626475E+03 0.  0.
          5    1    3    3  502    0 -0.52479650752E+02  0.71338479177E+02 -0.35690419182E+02  0.95574948473E+02  0.41800000000E+01 0.  1.
         -5    1    3    3    0  502  0.30216483127E+02  0.30994278239E+02  0.52894218276E+02  0.68475921776E+02  0.41800000000E+01 0.  1.
        -11    1    1    2    0    0  0.24568451885E+02  0.28274646163E+01  0.59440526477E+01  0.25434919816E+02  0.00000000000E+00 0.  1.
         11    1    1    2    0    0 -0.23052842598E+01 -0.10516022203E+03  0.12049123665E+03  0.15994413007E+03  0.00000000000E+00 0. -1.
</event>
<event>
 7    1  0.2670433E-009  0.1895233E+03  0.7561462E-02  0.1158892E+00
          1   -1    0    0  501    0  0.00000000000E+00  0.00000000000E+00  0.13829356192E+03  0.13829356192E+03  0.00000000000E+00 0. -1.
         -1   -1    0    0    0  501 -0.00000000000E+00 -0.00000000000E+00 -0.33276614760E+03  0.33276614760E+03  0.00000000000E+00 0.  1.
         25    2    1    2    0    0  0.82482423592E+02  0.15664758143E+03 -0.42292460044E+02  0.22085563952E+03  0.12508695519E+03 0.  0.
          5    1    3    3  502    0  0.55621342419E+02  0.14716049930E+03 -0.77458785442E+02  0.17540604930E+03  0.41800000000E+01 0.  1.
         -5    1    3    3    0  502  0.26861081173E+02  0.94870821294E+01  0.35166325399E+02  0.45449590220E+02  0.41800000000E+01 0.  1.
        -11    1    1    2    0    0 -0.35969808478E+02 -0.76304063966E+01 -0.55525302664E+02  0.66596617479E+02  0.00000000000E+00 0.  1.
         11    1    1    2    0    0 -0.46512615114E+02 -0.14901717503E+03 -0.96654822971E+02  0.18360745253E+03  0.00000000000E+00 0. -1.
</event>
<event>
 7    1  0.2670433E-009  0.9088157E+02  0.7561462E-02  0.1300731E+00
         -2   -1    0    0    0  501 -0.00000000000E+00  0.00000000000E+00  0.26213092797E+02  0.26213092797E+02  0.00000000000E+00 0.  1.
          2   -1    0    0  501    0  0.00000000000E+00 -0.00000000000E+00 -0.58450298906E+03  0.58450298906E+03  0.00000000000E+00 0. -1.
         25    2    1    2    0    0  0.58602696385E+02 -0.12560283305E+02 -0.33258275767E+03  0.36034904070E+03  0.12509238065E+03 0.  0.
          5    1    3    3  502    0  0.60551161958E+01 -0.19312153791E+02  0.27345679894E+01  0.20846438024E+02  0.41800000000E+01 0.  1.
         -5    1    3    3    0  502  0.52547580189E+02  0.67518704862E+01 -0.33531732566E+03  0.33950260268E+03  0.41800000000E+01 0.  1.
        -11    1    1    2    0    0 -0.70609537202E+02 -0.19885673835E+02 -0.16309142555E+03  0.17882941552E+03  0.00000000000E+00 0. -1.
         11    1    1    2    0    0  0.12006840818E+02  0.32445957140E+02 -0.62615713046E+02  0.71537625635E+02  0.00000000000E+00 0.  1.
</event>
<event>
 7    1  0.2692572E-009  0.2207954E+03  0.7561462E-02  0.1133291E+00
          2   -1    0    0  501    0  0.00000000000E+00  0.00000000000E+00  0.20372758074E+03  0.20372758074E+03  0.00000000000E+00 0.  1.
         -2   -1    0    0    0  501 -0.00000000000E+00 -0.00000000000E+00 -0.28959620175E+03  0.28959620175E+03  0.00000000000E+00 0. -1.
         25    2    1    2    0    0 -0.60302372368E+02 -0.19082618186E+03 -0.12967548003E+03  0.26928576713E+03  0.12509231177E+03 0.  0.
          5    1    3    3  502    0  0.29485998234E+02 -0.19605993680E+02  0.13780902598E+01  0.35681796659E+02  0.41800000000E+01 0. -1.
         -5    1    3    3    0  502 -0.89788370602E+02 -0.17122018818E+03 -0.13105357029E+03  0.23360397048E+03  0.41800000000E+01 0. -1.
        -11    1    1    2    0    0  0.70454207007E+02  0.10697110749E+03 -0.16847688001E+01  0.12809938161E+03  0.00000000000E+00 0. -1.
         11    1    1    2    0    0 -0.10151834639E+02  0.83855074366E+02  0.45491627827E+02  0.95938633749E+02  0.00000000000E+00 0.  1.
</event>
<event>
 7    1  0.2670433E-009  0.9253873E+02  0.7561462E-02  0.1296818E+00
         -1   -1    0    0    0  501 -0.00000000000E+00  0.00000000000E+00  0.14737368233E+03  0.14737368233E+03  0.00000000000E+00 0.  1.
          1   -1    0    0  501    0  0.00000000000E+00 -0.00000000000E+00 -0.72206727457E+02  0.72206727457E+02  0.00000000000E+00 0. -1.
         25    2    1    2    0    0  0.86410027403E+01  0.27431457169E+01  0.52664434906E+02  0.13602600410E+03  0.12508932532E+03 0.  0.
          5    1    3    3  502    0  0.24030313629E+02  0.52843049528E+02  0.59232151045E+02  0.83040736834E+02  0.41800000000E+01 0.  1.
         -5    1    3    3    0  502 -0.15389310888E+02 -0.50099903811E+02 -0.65677161384E+01  0.52985267262E+02  0.41800000000E+01 0.  1.
        -11    1    1    2    0    0 -0.34698261174E+02  0.19708270535E+02  0.27964743868E+02  0.48727940195E+02  0.00000000000E+00 0.  1.
         11    1    1    2    0    0  0.26057258434E+02 -0.22451416252E+02 -0.54622239041E+01  0.34826465494E+02  0.00000000000E+00 0. -1.
</event>
<event>
 7    1  0.2670433E-009  0.3374079E+03  0.7561462E-02  0.1067905E+00
         -2   -1    0    0    0  501 -0.00000000000E+00  0.00000000000E+00  0.68948303816E+02  0.68948303816E+02  0.00000000000E+00 0.  1.
          2   -1    0    0  501    0  0.00000000000E+00 -0.00000000000E+00 -0.24826462459E+04  0.24826462459E+04  0.00000000000E+00 0. -1.
         25    2    1    2    0    0  0.14561043950E+03  0.29524438987E+03 -0.52456978835E+03  0.63181691026E+03  0.12508994922E+03 0.  0.
          5    1    3    3  502    0  0.47073694795E+02  0.18925152827E+03 -0.21644497041E+03  0.29137256444E+03  0.41800000000E+01 0. -1.
         -5    1    3    3    0  502  0.98536744709E+02  0.10599286160E+03 -0.30812481794E+03  0.34044434581E+03  0.41800000000E+01 0. -1.
        -11    1    1    2    0    0 -0.11233349558E+00 -0.48673366367E+02 -0.16459249138E+03  0.17163856627E+03  0.00000000000E+00 0.  1.
         11    1    1    2    0    0 -0.14549810601E+03 -0.24657102350E+03 -0.17245356624E+04  0.17481390732E+04  0.00000000000E+00 0. -1.
</event>
<event>
 7    1  0.2670433E-009  0.2697737E+03  0.7561462E-02  0.1101409E+00
         -2   -1    0    0    0  501 -0.00000000000E+00  0.00000000000E+00  0.52790427052E+02  0.52790427052E+02  0.00000000000E+00 0. -1.
          2   -1    0    0  501    0  0.00000000000E+00 -0.00000000000E+00 -0.15607776652E+04  0.15607776652E+04  0.00000000000E+00 0.  1.
         25    2    1    2    0    0  0.17042562102E+03  0.19242882630E+03 -0.58228384979E+03  0.64867234075E+03  0.12509028114E+03 0.  0.
          5    1    3    3  502    0 -0.49377237421E+01  0.63179637371E+02 -0.88283287535E+02  0.10875412154E+03  0.41800000000E+01 0. -1.
         -5    1    3    3    0  502  0.17536334476E+03  0.12924918893E+03 -0.49400056226E+03  0.53991821921E+03  0.41800000000E+01 0. -1.
        -11    1    1    2    0    0 -0.11655641684E+03 -0.14756675100E+03 -0.79096618128E+03  0.81301220423E+03  0.00000000000E+00 0.  1.
         11    1    1    2    0    0 -0.53869204172E+02 -0.44862075301E+02 -0.13473720705E+03  0.15188354724E+03  0.00000000000E+00 0. -1.
</event>
<event>
 7    1  0.2670433E-009  0.1166037E+03  0.7561462E-02  0.1248807E+00
          2   -1    0    0  501    0  0.00000000000E+00  0.00000000000E+00  0.37523482342E+03  0.37523482342E+03  0.00000000000E+00 0. -1.
         -2   -1    0    0    0  501 -0.00000000000E+00 -0.00000000000E+00 -0.60468066139E+02  0.60468066139E+02  0.00000000000E+00 0.  1.
         25    2    1    2    0    0 -0.31256680919E+02  0.60577807704E+02  0.55495590388E+02  0.15288835650E+03  0.12509371732E+03 0.  0.
          5    1    3    3  502    0 -0.69431349426E+02  0.34383496512E+02  0.69680061013E+02  0.10428672216E+03  0.41800000000E+01 0.  1.
         -5    1    3    3    0  502  0.38174668507E+02  0.26194311192E+02 -0.14184470625E+02  0.48601634348E+02  0.41800000000E+01 0.  1.
        -11    1    1    2    0    0  0.20863391669E+02  0.19394550730E+02  0.10424620275E+03  0.10806803643E+03  0.00000000000E+00 0.  1.
         11    1    1    2    0    0  0.10393289250E+02 -0.79972358434E+02  0.15502496415E+03  0.17474649663E+03  0.00000000000E+00 0. -1.
</event>
<event>
 7    1  0.2670433E-009  0.1208585E+03  0.7561462E-02  0.1241687E+00
         -2   -1    0    0    0  501 -0.00000000000E+00  0.00000000000E+00  0.10688800542E+02  0.10688800542E+02  0.00000000000E+00 0. -1.
          2   -1    0    0  501    0  0.00000000000E+00 -0.00000000000E+00 -0.20069940466E+04  0.20069940466E+04  0.00000000000E+00 0.  1.
         25    2    1    2    0    0 -0.48730268418E+02  0.67001401368E+02 -0.14688005213E+04  0.14764438167E+04  0.12509015039E+03 0.  0.
          5    1    3    3  502    0 -0.61958457021E+02  0.10335896731E+02 -0.31833658331E+03  0.32450167000E+03  0.41800000000E+01 0.  1.
         -5    1    3    3    0  502  0.13228188603E+02  0.56665504637E+02 -0.11504639379E+04  0.11519421467E+04  0.41800000000E+01 0.  1.
        -11    1    1    2    0    0  0.33019937265E+02  0.15474202617E+02 -0.13369347703E+03  0.13857746211E+03  0.00000000000E+00 0. -1.
         11    1    1    2    0    0  0.15710331153E+02 -0.82475603985E+02 -0.39381124773E+03  0.40266156831E+03  0.00000000000E+00 0.  1.
</event>
<event>
 7    1  0.2670433E-009  0.1874853E+03  0.7561462E-02  0.1160749E+00
         -2   -1    0    0    0  501 -0.00000000000E+00  0.00000000000E+00  0.68625081406E+02  0.68625081406E+02  0.00000000000E+00 0.  1.
          2   -1    0    0  501    0  0.00000000000E+00 -0.00000000000E+00 -0.65506639219E+03  0.65506639219E+03  0.00000000000E+00 0. -1.
         25    2    1    2    0    0  0.14729051537E+03  0.90671759459E+02 -0.36715266606E+03  0.42469157320E+03  0.12508392493E+03 0.  0.
          5    1    3    3  502    0  0.41231425829E+02  0.20528638796E+02 -0.24145865710E+03  0.24584794279E+03  0.41800000000E+01 0. -1.
         -5    1    3    3    0  502  0.10605908955E+03  0.70143120664E+02 -0.12569400896E+03  0.17884363041E+03  0.41800000000E+01 0. -1.
        -11    1    1    2    0    0 -0.88334479981E+02 -0.10849377713E+03 -0.16963784233E+03  0.21988832980E+03  0.00000000000E+00 0. -1.
         11    1    1    2    0    0 -0.58956035393E+02  0.17822017673E+02 -0.49650802394E+02  0.79111570593E+02  0.00000000000E+00 0.  1.
</event>
<event>
 7    1  0.2670433E-009  0.1229265E+03  0.7561462E-02  0.1238346E+00
         -2   -1    0    0    0  501 -0.00000000000E+00  0.00000000000E+00  0.30606944362E+02  0.30606944362E+02  0.00000000000E+00 0.  1.
          2   -1    0    0  501    0  0.00000000000E+00 -0.00000000000E+00 -0.54454720747E+03  0.54454720747E+03  0.00000000000E+00 0. -1.
         25    2    1    2    0    0  0.60293815084E+02  0.32419710423E+02 -0.25428015819E+03  0.29153182795E+03  0.12508407611E+03 0.  0.
          5    1    3    3  502    0 -0.17955588320E+01 -0.43165677975E+02 -0.96990570039E+02  0.10625978949E+03  0.41800000000E+01 0.  1.
         -5    1    3    3    0  502  0.62089373916E+02  0.75585388398E+02 -0.15728958815E+03  0.18527203845E+03  0.41800000000E+01 0.  1.
        -11    1    1    2    0    0 -0.32543166065E+02 -0.58189308886E+02 -0.10488593882E+03  0.12428239412E+03  0.00000000000E+00 0.  1.
         11    1    1    2    0    0 -0.27750649019E+02  0.25769598463E+02 -0.15477416610E+03  0.15933992977E+03  0.00000000000E+00 0. -1.
</event>
<event>
 7    1  0.2670433E-009  0.1214892E+03  0.7561462E-02  0.1240660E+00
          1   -1    0    0  501    0  0.00000000000E+00  0.00000000000E+00  0.41038429584E+03  0.41038429584E+03  0.00000000000E+00 0. -1.
         -1   -1    0    0    0  501 -0.00000000000E+00 -0.00000000000E+00 -0.61755882448E+02  0.61755882448E+02  0.00000000000E+00 0.  1.
         25    2    1    2    0    0 -0.13631006851E+02 -0.95709139214E+02  0.97843102574E+02  0.18592353778E+03  0.12509294746E+03 0.  0.
          5    1    3    3  502    0  0.27438153261E+00 -0.96872364142E+02  0.10677322494E+02  0.97549002226E+02  0.41800000000E+01 0. -1.
         -5    1    3    3    0  502 -0.13905388383E+02  0.11632249273E+01  0.87165780080E+02  0.88374535559E+02  0.41800000000E+01 0. -1.
        -11    1    1    2    0    0  0.15282819034E+02 -0.14594951836E+02  0.81222475688E+02  0.83926561550E+02  0.00000000000E+00 0. -1.
         11    1    1    2    0    0 -0.16518121831E+01  0.11030409105E+03  0.16956283513E+03  0.20229007896E+03  0.00000000000E+00 0.  1.
</event>
<event>
 7    1  0.2670433E-009  0.1291285E+03  0.7561462E-02  0.1228755E+00
          1   -1    0    0  501    0  0.00000000000E+00  0.00000000000E+00  0.48000044288E+02  0.48000044288E+02  0.00000000000E+00 0. -1.
         -1   -1    0    0    0  501 -0.00000000000E+00 -0.00000000000E+00 -0.41846964777E+03  0.41846964777E+03  0.00000000000E+00 0.  1.
         25    2    1    2    0    0  0.61084222636E+02  0.66377636286E+02 -0.21442794231E+03  0.26412952897E+03  0.12509113789E+03 0.  0.
          5    1    3    3  502    0  0.18528797133E+02 -0.37417831984E+02 -0.57631184413E+02  0.71289804955E+02  0.41800000000E+01 0.  1.
         -5    1    3    3    0  502  0.42555425503E+02  0.10379546827E+03 -0.15679675789E+03  0.19283972402E+03  0.41800000000E+01 0.  1.
        -11    1    1    2    0    0 -0.62771220407E+02 -0.33568752053E+02 -0.39819226774E+02  0.81563828053E+02  0.00000000000E+00 0.  1.
         11    1    1    2    0    0  0.16869977713E+01 -0.32808884233E+02 -0.11622243441E+03  0.12077633504E+03  0.00000000000E+00 0. -1.
</event>
<event>
 7    1  0.2670433E-009  0.7886720E+02  0.7561462E-02  0.1332297E+00
         -2   -1    0    0    0  501 -0.00000000000E+00  0.00000000000E+00  0.25927605021E+02  0.25927605021E+02  0.00000000000E+00 0.  1.
          2   -1    0    0  501    0  0.00000000000E+00 -0.00000000000E+00 -0.49339794233E+03  0.49339794233E+03  0.00000000000E+00 0. -1.
         25    2    1    2    0    0  0.19249263869E+02  0.39072768069E+02 -0.30642023800E+03  0.33382312550E+03  0.12508917418E+03 0.  0.
          5    1    3    3  502    0 -0.46705957715E+00  0.45422988818E+02 -0.30916681693E+03  0.31251409432E+03  0.41800000000E+01 0.  1.
         -5    1    3    3    0  502  0.19716323446E+02 -0.63502207489E+01  0.27465789334E+01  0.21309031175E+02  0.41800000000E+01 0.  1.
        -11    1    1    2    0    0  0.24202677516E+02 -0.40867805683E+02 -0.98068252723E+02  0.10896480777E+03  0.00000000000E+00 0. -1.
         11    1    1    2    0    0 -0.43451941385E+02  0.17950376144E+01 -0.62981846590E+02  0.76537614086E+02  0.00000000000E+00 0.  1.
</event>
<event>
 7    1  0.2670433E-009  0.1626826E+03  0.7561462E-02  0.1185701E+00
          2   -1    0    0  501    0  0.00000000000E+00  0.00000000000E+00  0.24912755390E+03  0.24912755390E+03  0.00000000000E+00 0. -1.
         -2   -1    0    0    0  501 -0.00000000000E+00 -0.00000000000E+00 -0.11576733072E+03  0.11576733072E+03  0.00000000000E+00 0.  1.
         25    2    1    2    0    0 -0.74961068605E+02 -0.96271618130E+02  0.11851686420E+03  0.21113274398E+03  0.12507358721E+03 0.  0.
          5    1    3    3  502    0 -0.65358380772E+02 -0.12665891605E+03  0.96686344458E+02  0.17227861317E+03  0.41800000000E+01 0. -1.
         -5    1    3    3    0  502 -0.96026878324E+01  0.30387297922E+02  0.21830519744E+02  0.38854130809E+02  0.41800000000E+01 0. -1.
        -11    1    1    2    0    0  0.85443503430E+02  0.10612609436E+03  0.50174142506E+01  0.13633970305E+03  0.00000000000E+00 0.  1.
         11    1    1    2    0    0 -0.10482434826E+02 -0.98544762322E+01  0.98259447248E+01  0.17422437586E+02  0.00000000000E+00 0. -1.
</event>
<event>
 7    1  0.2670433E-009  0.1579303E+03  0.7561462E-02  0.1191053E+00
         -3   -1    0    0    0  501 -0.00000000000E+00  0.00000000000E+00  0.45509764125E+02  0.45509764125E+02  0.00000000000E+00 0.  1.
          3   -1    0    0  501    0  0.00000000000E+00 -0.00000000000E+00 -0.62184051606E+03  0.62184051606E+03  0.00000000000E+00 0. -1.
         25    2    1    2    0    0 -0.91811347777E+02 -0.81013155550E+02 -0.33502666684E+03  0.37799814607E+03  0.12508907220E+03 0.  0.
          5    1    3    3  502    0  0.29032211421E+02 -0.21857741229E+02 -0.10842883353E+03  0.11443301312E+03  0.41800000000E+01 0. -1.
         -5    1    3    3    0  502 -0.12084355920E+03 -0.59155414322E+02 -0.22659783331E+03  0.26356513295E+03  0.41800000000E+01 0. -1.
        -11    1    1    2    0    0  0.25119822001E+02  0.73358975223E+02 -0.18888365574E+03  0.20418026376E+03  0.00000000000E+00 0. -1.
         11    1    1    2    0    0  0.66691525776E+02  0.76541803269E+01 -0.52420429359E+02  0.85171870362E+02  0.00000000000E+00 0.  1.
</event>
<event>
 7    1  0.2670433E-009  0.1107359E+03  0.7561462E-02  0.1259213E+00
         -2   -1    0    0    0  501 -0.00000000000E+00  0.00000000000E+00  0.15465907718E+03  0.15465907718E+03  0.00000000000E+00 0.  1.
          2   -1    0    0  501    0  0.00000000000E+00 -0.00000000000E+00 -0.11272253408E+03  0.11272253408E+03  0.00000000000E+00 0. -1.
         25    2    1    2    0    0  0.40622476126E+02 -0.13211192049E+02  0.83190034857E+02  0.15618058982E+03  0.12508826314E+03 0.  0.
          5    1    3    3  502    0  0.84504910998E+02 -0.29946014015E+01  0.67539421869E+02  0.10830093964E+03  0.41800000000E+01 0. -1.
         -5    1    3    3    0  502 -0.43882434872E+02 -0.10216590648E+02  0.15650612988E+02  0.47879650183E+02  0.41800000000E+01 0. -1.
        -11    1    1    2    0    0  0.20676649191E+02  0.21353415776E+02  0.94972915195E+01  0.31204017903E+02  0.00000000000E+00 0.  1.
         11    1    1    2    0    0 -0.61299125317E+02 -0.81422237265E+01 -0.50750783280E+02  0.79997003541E+02  0.00000000000E+00 0. -1.
</event>
<event>
 7    1  0.2670433E-009  0.9261005E+02  0.7561462E-02  0.1296651E+00
          1   -1    0    0  501    0  0.00000000000E+00  0.00000000000E+00  0.11306385266E+03  0.11306385266E+03  0.00000000000E+00 0. -1.
         -1   -1    0    0    0  501 -0.00000000000E+00 -0.00000000000E+00 -0.13553181096E+03  0.13553181096E+03  0.00000000000E+00 0.  1.
         25    2    1    2    0    0  0.57058479555E+02 -0.35782959094E+01 -0.17016368612E+02  0.13858335027E+03  0.12508922368E+03 0.  0.
          5    1    3    3  502    0  0.69935047597E+02  0.16509608666E+02 -0.57013095275E+02  0.91822891991E+02  0.41800000000E+01 0.  1.
         -5    1    3    3    0  502 -0.12876568043E+02 -0.20087904575E+02  0.39996726662E+02  0.46760458279E+02  0.41800000000E+01 0.  1.
        -11    1    1    2    0    0 -0.10763212027E+01 -0.25781089185E+02 -0.32293036271E+02  0.41335979709E+02  0.00000000000E+00 0. -1.
         11    1    1    2    0    0 -0.55982158352E+02  0.29359385094E+02  0.26841446588E+02  0.68676333637E+02  0.00000000000E+00 0.  1.
</event>
<event>
 7    1  0.2670433E-009  0.1038524E+03  0.7561462E-02  0.1272397E+00
         -2   -1    0    0    0  501 -0.00000000000E+00  0.00000000000E+00  0.92035048041E+02  0.92035048041E+02  0.00000000000E+00 0.  1.
          2   -1    0    0  501    0  0.00000000000E+00 -0.00000000000E+00 -0.23812078506E+03  0.23812078506E+03  0.00000000000E+00 0. -1.
         25    2    1    2    0    0  0.36478801898E+01  0.40368098706E+02 -0.18226256642E+03  0.22474512035E+03  0.12509130897E+03 0.  0.
          5    1    3    3  502    0  0.63823588335E+02  0.26800747236E+02 -0.88531870433E+02  0.11245930358E+03  0.41800000000E+01 0.  1.
         -5    1    3    3    0  502 -0.60175708145E+02  0.13567351470E+02 -0.93730695990E+02  0.11228581677E+03  0.41800000000E+01 0.  1.
        -11    1    1    2    0    0 -0.35748193098E+01  0.17903586577E+02  0.43024674089E+02  0.46737996597E+02  0.00000000000E+00 0.  1.
         11    1    1    2    0    0 -0.73060879923E-01 -0.58271685283E+02 -0.68478446846E+01  0.58672716150E+02  0.00000000000E+00 0. -1.
</event>
<event>
 7    1  0.2835073E-009  0.1711116E+03  0.7561462E-02  0.1176694E+00
          2   -1    0    0  501    0  0.00000000000E+00  0.00000000000E+00  0.87635659516E+03  0.87635659516E+03  0.00000000000E+00 0. -1.
         -2   -1    0    0    0  501 -0.00000000000E+00 -0.00000000000E+00 -0.44708242569E+02  0.44708242569E+02  0.00000000000E+00 0.  1.
         25    2    1    2    0    0  0.55589638368E+02 -0.13696482906E+03  0.60897786970E+03  0.63902344525E+03  0.12508935003E+03 0.  0.
          5    1    3    3  502    0 -0.31677601957E+02 -0.58514109788E+02  0.13297928023E+03  0.14875595074E+03  0.41800000000E+01 0. -1.
         -5    1    3    3    0  502  0.87267240325E+02 -0.78450719275E+02  0.47599858948E+03  0.49026749451E+03  0.41800000000E+01 0. -1.
        -11    1    1    2    0    0  0.59379020786E+01  0.56645816562E+02  0.29888362413E+02  0.64322013517E+02  0.00000000000E+00 0.  1.
         11    1    1    2    0    0 -0.61527540447E+02  0.80319012501E+02  0.19278212047E+03  0.21771937896E+03  0.00000000000E+00 0. -1.
</event>
<event>
 7    1  0.2670433E-009  0.1791379E+03  0.7561462E-02  0.1168640E+00
          2   -1    0    0  501    0  0.00000000000E+00  0.00000000000E+00  0.34555929654E+03  0.34555929654E+03  0.00000000000E+00 0. -1.
         -2   -1    0    0    0  501 -0.00000000000E+00 -0.00000000000E+00 -0.10273103856E+03  0.10273103856E+03  0.00000000000E+00 0.  1.
         25    2    1    2    0    0  0.16242061051E+02  0.15066401806E+03  0.10331325024E+03  0.22200168953E+03  0.12509065349E+03 0.  0.
          5    1    3    3  502    0  0.77354975922E+01 -0.15585577107E+02  0.40056716665E+02  0.43872099184E+02  0.41800000000E+01 0.  1.
         -5    1    3    3    0  502  0.85065634588E+01  0.16624959517E+03  0.63256533574E+02  0.17812959034E+03  0.41800000000E+01 0.  1.
        -11    1    1    2    0    0 -0.50935050748E+02 -0.10302876185E+03  0.11461491639E+03  0.16231415287E+03  0.00000000000E+00 0. -1.
         11    1    1    2    0    0  0.34692989697E+02 -0.47635256214E+02  0.24900091352E+02  0.63974492714E+02  0.00000000000E+00 0.  1.
</event>
<event>
 7    1  0.2670433E-009  0.7987585E+02  0.7561462E-02  0.1329404E+00
         -1   -1    0    0    0  501 -0.00000000000E+00  0.00000000000E+00  0.69837805563E+02  0.69837805563E+02  0.00000000000E+00 0.  1.
          1   -1    0    0  501    0  0.00000000000E+00 -0.00000000000E+00 -0.17683647162E+03  0.17683647162E+03  0.00000000000E+00 0. -1.
         25    2    1    2    0    0  0.16582545473E+02  0.26708897717E+01 -0.46101490095E+02  0.13436821606E+03  0.12508939056E+03 0.  0.
          5    1    3    3  502    0 -0.27848008921E+02  0.40272202829E+02 -0.56728075103E+02  0.75052706989E+02  0.41800000000E+01 0. -1.
         -5    1    3    3    0  502  0.44430554394E+02 -0.37601313057E+02  0.10626585008E+02  0.59315509071E+02  0.41800000000E+01 0. -1.
        -11    1    1    2    0    0 -0.44663875868E+01 -0.25778973737E+02  0.16295588894E+02  0.30822886341E+02  0.00000000000E+00 0.  1.
         11    1    1    2    0    0 -0.12116157886E+02  0.23108083965E+02 -0.77192764855E+02  0.81483174781E+02  0.00000000000E+00 0. -1.
</event>
<event>
 7    1  0.2670433E-009  0.1149143E+03  0.7561462E-02  0.1251731E+00
         -2   -1    0    0    0  501 -0.00000000000E+00  0.00000000000E+00  0.13822842704E+02  0.13822842704E+02  0.00000000000E+00 0.  1.
          2   -1    0    0  501    0  0.00000000000E+00 -0.00000000000E+00 -0.13088779431E+04  0.13088779431E+04  0.00000000000E+00 0. -1.
         25    2    1    2    0    0  0.67293718929E+02  0.38408774221E+02 -0.81581146350E+03  0.82897489334E+03  0.12508937313E+03 0.  0.
          5    1    3    3  502    0  0.70658270467E+02  0.64842860529E+02 -0.36676377480E+03  0.37911782687E+03  0.41800000000E+01 0.  1.
         -5    1    3    3    0  502 -0.33645515379E+01 -0.26434086309E+02 -0.44904768870E+03  0.44985706647E+03  0.41800000000E+01 0.  1.
        -11    1    1    2    0    0  0.23481123437E+01 -0.37134733955E+02 -0.77270558985E+02  0.85762703918E+02  0.00000000000E+00 0.  1.
         11    1    1    2    0    0 -0.69641831273E+02 -0.12740402656E+01 -0.40197307789E+03  0.40796318852E+03  0.00000000000E+00 0. -1.
</event>
<event>
 7    1  0.2670433E-009  0.1476415E+03  0.7561462E-02  0.1203401E+00
         -1   -1    0    0    0  501 -0.00000000000E+00  0.00000000000E+00  0.12325754316E+03  0.12325754316E+03  0.00000000000E+00 0.  1.
          1   -1    0    0  501    0  0.00000000000E+00 -0.00000000000E+00 -0.24578908139E+03  0.24578908139E+03  0.00000000000E+00 0. -1.
         25    2    1    2    0    0 -0.12487612850E+03 -0.46594641709E+01 -0.12339983799E+03  0.21561732407E+03  0.12509017687E+03 0.  0.
          5    1    3    3  502    0 -0.98763209135E+02 -0.54198154157E+02 -0.11079361612E+03  0.15806425644E+03  0.41800000000E+01 0. -1.
         -5    1    3    3    0  502 -0.26112919362E+02  0.49538689986E+02 -0.12606221869E+02  0.57553067624E+02  0.41800000000E+01 0. -1.
        -11    1    1    2    0    0  0.62101498880E+02  0.11803246713E+02 -0.43053811494E+02  0.76482308283E+02  0.00000000000E+00 0. -1.
         11    1    1    2    0    0  0.62774629617E+02 -0.71437825418E+01  0.43922111246E+02  0.76946992201E+02  0.00000000000E+00 0.  1.
</event>
<event>
 7    1  0.2670433E-009  0.7332454E+02  0.7561462E-02  0.1349139E+00
         -1   -1    0    0    0  501 -0.00000000000E+00  0.00000000000E+00  0.12497842355E+02  0.12497842355E+02  0.00000000000E+00 0.  1.
          1   -1    0    0  501    0  0.00000000000E+00 -0.00000000000E+00 -0.11433239008E+04  0.11433239008E+04  0.00000000000E+00 0. -1.
         25    2    1    2    0    0  0.28757288828E+02 -0.25621706664E+02 -0.67654678753E+03  0.68909051247E+03  0.12508687035E+03 0.  0.
          5    1    3    3  502    0  0.12015503619E+02 -0.30313050784E+01 -0.11859109275E+01  0.13131638223E+02  0.41800000000E+01 0.  1.
         -5    1    3    3    0  502  0.16741785209E+02 -0.22590401585E+02 -0.67536087661E+03  0.67595887424E+03  0.41800000000E+01 0.  1.
        -11    1    1    2    0    0 -0.24485904839E+02 -0.35910453745E+02 -0.14556122676E+03  0.15191178677E+03  0.00000000000E+00 0.  1.
         11    1    1    2    0    0 -0.42713839896E+01  0.61532160408E+02 -0.30871804415E+03  0.31481944392E+03  0.00000000000E+00 0. -1.
</event>
<event>
 7    1  0.2670433E-009  0.8469167E+02  0.7561462E-02  0.1316241E+00
          3   -1    0    0  501    0  0.00000000000E+00  0.00000000000E+00  0.19402694835E+03  0.19402694835E+03  0.00000000000E+00 0. -1.
         -3   -1    0    0    0  501 -0.00000000000E+00 -0.00000000000E+00 -0.62625753280E+02  0.62625753280E+02  0.00000000000E+00 0.  1.
         25    2    1    2    0    0 -0.10999946972E+02 -0.75106534782E+01  0.10367459367E+03  0.16301308541E+03  0.12508971138E+03 0.  0.
          5    1    3    3  502    0 -0.59569729459E+02 -0.31830921259E+02  0.76493383189E+02  0.10212967388E+03  0.41800000000E+01 0.  1.
         -5    1    3    3    0  502  0.48569782487E+02  0.24320267781E+02  0.27181210485E+02  0.60883411527E+02  0.41800000000E+01 0.  1.
        -11    1    1    2    0    0 -0.14918845337E+02 -0.81014587298E+01 -0.26541410250E+02  0.31506380906E+02  0.00000000000E+00 0.  1.
         11    1    1    2    0    0  0.25918792309E+02  0.15612112208E+02  0.54268011645E+02  0.62133235312E+02  0.00000000000E+00 0. -1.
</event>
<event>
 7    1  0.2729191E-009  0.2896584E+03  0.7561462E-02  0.1090528E+00
          2   -1    0    0  501    0  0.00000000000E+00  0.00000000000E+00  0.41069075046E+03  0.41069075046E+03  0.00000000000E+00 0. -1.
         -2   -1    0    0    0  501 -0.00000000000E+00 -0.00000000000E+00 -0.26316752631E+03  0.26316752631E+03  0.00000000000E+00 0.  1.
         25    2    1    2    0    0  0.16488430922E+03  0.21892002448E+03 -0.73497173750E+02  0.31010517637E+03  0.12510225145E+03 0.  0.
          5    1    3    3  502    0  0.47606033603E+02  0.52747026208E+01 -0.42903798333E+02  0.64438848799E+02  0.41800000000E+01 0. -1.
         -5    1    3    3    0  502  0.11727827561E+03  0.21364532186E+03 -0.30593375416E+02  0.24566632757E+03  0.41800000000E+01 0. -1.
        -11    1    1    2    0    0 -0.27044437910E+02 -0.10570228021E+03  0.66647312517E+02  0.12785240682E+03  0.00000000000E+00 0.  1.
         11    1    1    2    0    0 -0.13783987130E+03 -0.11321774427E+03  0.15437308539E+03  0.23590069358E+03  0.00000000000E+00 0. -1.
</event>
<event>
 7    1  0.2670433E-009  0.1322950E+03  0.7561462E-02  0.1224090E+00
         -2   -1    0    0    0  501 -0.00000000000E+00  0.00000000000E+00  0.21117203145E+02  0.21117203145E+02  0.00000000000E+00 0. -1.
          2   -1    0    0  501    0  0.00000000000E+00 -0.00000000000E+00 -0.84461352131E+03  0.84461352131E+03  0.00000000000E+00 0.  1.
         25    2    1    2    0    0 -0.67130468170E+02 -0.36904163923E+02 -0.39705299317E+03  0.42328175161E+03  0.12509174548E+03 0.  0.
          5    1    3    3  502    0 -0.89486359349E+02 -0.64892357447E+02 -0.29826863245E+03  0.31812022267E+03  0.41800000000E+01 0. -1.
         -5    1    3    3    0  502  0.22355891179E+02  0.27988193523E+02 -0.98784360717E+02  0.10516152894E+03  0.41800000000E+01 0. -1.
        -11    1    1    2    0    0  0.12329450840E+02  0.57918598646E+02 -0.21827263770E+03  0.22616260477E+03  0.00000000000E+00 0.  1.
         11    1    1    2    0    0  0.54801017330E+02 -0.21014434722E+02 -0.20817068729E+03  0.21628636807E+03  0.00000000000E+00 0. -1.
</event>
<event>
 7    1  0.2670433E-009  0.1123063E+03  0.7561462E-02  0.1256358E+00
         -1   -1    0    0    0  501 -0.00000000000E+00  0.00000000000E+00  0.18277493399E+03  0.18277493399E+03  0.00000000000E+00 0.  1.
          1   -1    0    0  501    0  0.00000000000E+00 -0.00000000000E+00 -0.79382750993E+02  0.79382750993E+02  0.00000000000E+00 0. -1.
         25    2    1    2    0    0 -0.20082040726E+02  0.66829068459E+01  0.16034338079E+02  0.12787955504E+03  0.12509248977E+03 0.  0.
          5    1    3    3  502    0  0.17008312463E+02 -0.53279290240E+02  0.39514027636E+01  0.56223228697E+02  0.41800000000E+01 0.  1.
         -5    1    3    3    0  502 -0.37090353189E+02  0.59962197085E+02  0.12082935316E+02  0.71656326342E+02  0.41800000000E+01 0.  1.
        -11    1    1    2    0    0  0.25963268502E+02  0.41720090952E+02  0.62632623530E+02  0.79608434419E+02  0.00000000000E+00 0.  1.
         11    1    1    2    0    0 -0.58812277768E+01 -0.48402997798E+02  0.24725221386E+02  0.54669695523E+02  0.00000000000E+00 0. -1.
</event>
<event>
 7    1  0.2838762E-009  0.1734156E+03  0.7561462E-02  0.1174332E+00
          2   -1    0    0  501    0  0.00000000000E+00  0.00000000000E+00  0.10624336520E+04  0.10624336520E+04  0.00000000000E+00 0. -1.
         -2   -1    0    0    0  501 -0.00000000000E+00 -0.00000000000E+00 -0.44894111464E+02  0.44894111464E+02  0.00000000000E+00 0.  1.
         25    2    1    2    0    0 -0.13376086383E+03  0.80812295356E+02  0.79695652605E+03  0.82170970746E+03  0.12507814815E+03 0.  0.
          5    1    3    3  502    0 -0.81644895281E+02 -0.10063378891E+02  0.50112993142E+03  0.50785415336E+03  0.41800000000E+01 0.  1.
         -5    1    3    3    0  502 -0.52115968548E+02  0.90875674247E+02  0.29582659464E+03  0.31385555410E+03  0.41800000000E+01 0.  1.
        -11    1    1    2    0    0  0.10255075293E+03 -0.76868264386E+02  0.21945739316E+03  0.25413959630E+03  0.00000000000E+00 0. -1.
         11    1    1    2    0    0  0.31210110895E+02 -0.39440309694E+01  0.11256213349E+01  0.31478459711E+02  0.00000000000E+00 0.  1.
</event>
<event>
 7    1  0.2670433E-009  0.1161130E+03  0.7561462E-02  0.1249651E+00
          1   -1    0    0  501    0  0.00000000000E+00  0.00000000000E+00  0.35492987448E+03  0.35492987448E+03  0.00000000000E+00 0. -1.
         -1   -1    0    0    0  501 -0.00000000000E+00 -0.00000000000E+00 -0.43601623670E+02  0.43601623670E+02  0.00000000000E+00 0.  1.
         25    2    1    2    0    0  0.30169775223E+01  0.48730674549E+02  0.11495772578E+03  0.17676654954E+03  0.12508938214E+03 0.  0.
          5    1    3    3  502    0 -0.65323706170E+01  0.88783153237E+02  0.96780672142E+02  0.13156401888E+03  0.41800000000E+01 0. -1.
         -5    1    3    3    0  502  0.95493481393E+01 -0.40052478688E+02  0.18177053636E+02  0.45202530657E+02  0.41800000000E+01 0. -1.
        -11    1    1    2    0    0 -0.16967550036E+02 -0.72335539290E+02  0.12648210194E+03  0.14669032043E+03  0.00000000000E+00 0.  1.
         11    1    1    2    0    0  0.13950572514E+02  0.23604864741E+02  0.69888423097E+02  0.75074628177E+02  0.00000000000E+00 0. -1.
</event>
<event>
 7    1  0.2919891E-009  0.9678512E+02  0.7561462E-02  0.1287205E+00
         -2   -1    0    0    0  501 -0.00000000000E+00  0.00000000000E+00  0.32396446745E+02  0.32396446745E+02  0.00000000000E+00 0.  1.
          2   -1    0    0  501    0  0.00000000000E+00 -0.00000000000E+00 -0.58949845666E+03  0.58949845666E+03  0.00000000000E+00 0. -1.
         25    2    1    2    0    0  0.20405591753E+02 -0.80550348662E+02 -0.35730451487E+03  0.38758469378E+03  0.12510248464E+03 0.  0.
          5    1    3    3  502    0  0.46601409014E+02 -0.49005022103E+02 -0.70300133846E+02  0.97635878304E+02  0.41800000000E+01 0.  1.
         -5    1    3    3    0  502 -0.26195817260E+02 -0.31545326559E+02 -0.28700438102E+03  0.28994881548E+03  0.41800000000E+01 0.  1.
        -11    1    1    2    0    0 -0.17527137541E+02  0.36866949682E+02 -0.18287424209E+03  0.18737492081E+03  0.00000000000E+00 0. -1.
         11    1    1    2    0    0 -0.28784542119E+01  0.43683398980E+02 -0.16923252953E+02  0.46935288810E+02  0.00000000000E+00 0.  1.
</event>
<event>
 7    1  0.2670433E-009  0.1303076E+03  0.7561462E-02  0.1227000E+00
          1   -1    0    0  501    0  0.00000000000E+00  0.00000000000E+00  0.66480263504E+02  0.66480263504E+02  0.00000000000E+00 0. -1.
         -1   -1    0    0    0  501 -0.00000000000E+00 -0.00000000000E+00 -0.35776355943E+03  0.35776355943E+03  0.00000000000E+00 0.  1.
         25    2    1    2    0    0 -0.41125540992E+02 -0.98895874044E+02 -0.12879961967E+03  0.20906607238E+03  0.12509027368E+03 0.  0.
          5    1    3    3  502    0 -0.58637055190E+02 -0.21005143045E+02 -0.11071535665E+03  0.12710186023E+03  0.41800000000E+01 0. -1.
         -5    1    3    3    0  502  0.17511514198E+02 -0.77890730999E+02 -0.18084263027E+02  0.81964212155E+02  0.41800000000E+01 0. -1.
        -11    1    1    2    0    0  0.52852689695E+02  0.84627529546E+02 -0.72542368239E+02  0.12335972096E+03  0.00000000000E+00 0. -1.
         11    1    1    2    0    0 -0.11727148703E+02  0.14268344498E+02 -0.89941308012E+02  0.91818029593E+02  0.00000000000E+00 0.  1.
</event>
<event>
 7    1  0.2670433E-009  0.1393467E+03  0.7561462E-02  0.1214211E+00
          2   -1    0    0  501    0  0.00000000000E+00  0.00000000000E+00  0.48019020923E+03  0.48019020923E+03  0.00000000000E+00 0. -1.
         -2   -1    0    0    0  501 -0.00000000000E+00 -0.00000000000E+00 -0.65018841631E+02  0.65018841631E+02  0.00000000000E+00 0.  1.
         25    2    1    2    0    0 -0.75569434607E+02 -0.53540849864E+02  0.38248974431E+03  0.41294541016E+03  0.12509254660E+03 0.  0.
          5    1    3    3  502    0 -0.33751258771E+02 -0.91889465219E+02  0.26127853258E+03  0.27904617051E+03  0.41800000000E+01 0. -1.
         -5    1    3    3    0  502 -0.41818175836E+02  0.38348615354E+02  0.12121121173E+03  0.13389923965E+03  0.41800000000E+01 0. -1.
        -11    1    1    2    0    0  0.50092668399E+02  0.75215596037E+02  0.38646861754E+02  0.98286526228E+02  0.00000000000E+00 0.  1.
         11    1    1    2    0    0  0.25476766208E+02 -0.21674746172E+02 -0.59652384673E+01  0.33977114474E+02  0.00000000000E+00 0. -1.
</event>
<event>
 7    1  0.2670433E-009  0.1588703E+03  0.7561462E-02  0.1189978E+00
          2   -1    0    0  501    0  0.00000000000E+00  0.00000000000E+00  0.17661050314E+03  0.17661050314E+03  0.00000000000E+00 0.  1.
         -2   -1    0    0    0  501 -0.00000000000E+00 -0.00000000000E+00 -0.19977423798E+03  0.19977423798E+03  0.00000000000E+00 0. -1.
         25    2    1    2    0    0 -0.13607822842E+03  0.12335202110E+02 -0.80964373738E+02  0.20216793416E+03  0.12508877778E+03 0.  0.
          5    1    3    3  502    0 -0.15085436443E+03  0.33707422862E+02 -0.83488994574E+02  0.17573023143E+03  0.41800000000E+01 0.  1.
         -5    1    3    3    0  502  0.14776136008E+02 -0.21372220752E+02  0.25246208369E+01  0.26437702729E+02  0.41800000000E+01 0.  1.
        -11    1    1    2    0    0  0.46189456577E+02 -0.10791523911E+01  0.68891324420E+02  0.82949653701E+02  0.00000000000E+00 0.  1.
         11    1    1    2    0    0  0.89888771844E+02 -0.11256049719E+02 -0.11090685517E+02  0.91267153260E+02  0.00000000000E+00 0. -1.
</event>
<event>
 7    1  0.2670433E-009  0.1161213E+03  0.7561462E-02  0.1249636E+00
         -2   -1    0    0    0  501 -0.00000000000E+00  0.00000000000E+00  0.68203397007E+02  0.68203397007E+02  0.00000000000E+00 0.  1.
          2   -1    0    0  501    0  0.00000000000E+00 -0.00000000000E+00 -0.25455357173E+03  0.25455357173E+03  0.00000000000E+00 0. -1.
         25    2    1    2    0    0  0.55683442254E+02  0.40968869299E+02 -0.13310775878E+03  0.19530713067E+03  0.12509238926E+03 0.  0.
          5    1    3    3  502    0 -0.35063940775E+02 -0.42227782261E+01 -0.12499995020E+02  0.37696605605E+02  0.41800000000E+01 0. -1.
         -5    1    3    3    0  502  0.90747383029E+02  0.45191647525E+02 -0.12060776376E+03  0.15761052506E+03  0.41800000000E+01 0. -1.
        -11    1    1    2    0    0 -0.66459313859E+02 -0.16497288258E+02 -0.68291406984E+00  0.68479685236E+02  0.00000000000E+00 0.  1.
         11    1    1    2    0    0  0.10775871604E+02 -0.24471581042E+02 -0.52559501874E+02  0.58970152829E+02  0.00000000000E+00 0. -1.
</event>
<event>
 7    1  0.2670433E-009  0.7568521E+02  0.7561462E-02  0.1341762E+00
          3   -1    0    0  501    0  0.00000000000E+00  0.00000000000E+00  0.13598298907E+03  0.13598298907E+03  0.00000000000E+00 0.  1.
         -3   -1    0    0    0  501 -0.00000000000E+00 -0.00000000000E+00 -0.96933774266E+02  0.96933774266E+02  0.00000000000E+00 0. -1.
         25    2    1    2    0    0  0.15816796937E+02  0.90524819475E+01  0.56624100379E+02  0.13851956465E+03  0.12509701257E+03 0.  0.
          5    1    3    3  502    0  0.51336376221E+01  0.54276808902E+02 -0.11572402279E+02  0.55890241673E+02  0.41800000000E+01 0.  1.
         -5    1    3    3    0  502  0.10683159315E+02 -0.45224326954E+02  0.68196502659E+02  0.82629322981E+02  0.41800000000E+01 0.  1.
        -11    1    1    2    0    0  0.15245020638E+02 -0.11172474276E+02 -0.47556154829E+02  0.51174434025E+02  0.00000000000E+00 0. -1.
         11    1    1    2    0    0 -0.31061817575E+02  0.21199923286E+01  0.29981269253E+02  0.43222764657E+02  0.00000000000E+00 0.  1.
</event>
<event>
 7    1  0.2670433E-009  0.9214616E+02  0.7561462E-02  0.1297736E+00
          1   -1    0    0  501    0  0.00000000000E+00  0.00000000000E+00  0.92428297985E+02  0.92428297985E+02  0.00000000000E+00 0. -1.
         -1   -1    0    0    0  501 -0.00000000000E+00 -0.00000000000E+00 -0.20596756654E+03  0.20596756654E+03  0.00000000000E+00 0.  1.
         25    2    1    2    0    0 -0.17336064070E+02  0.10888591212E+02  0.27420785073E+02  0.12968609608E+03  0.12508990177E+03 0.  0.
          5    1    3    3  502    0  0.19728260576E+01  0.58804997816E+02  0.45815723550E+02  0.74689174150E+02  0.41800000000E+01 0.  1.
         -5    1    3    3    0  502 -0.19308890128E+02 -0.47916406603E+02 -0.18394938478E+02  0.54996921926E+02  0.41800000000E+01 0.  1.
        -11    1    1    2    0    0  0.35084444949E+02 -0.30883431020E+02 -0.13275549740E+03  0.14074347828E+03  0.00000000000E+00 0.  1.
         11    1    1    2    0    0 -0.17748380879E+02  0.19994839807E+02 -0.82045562260E+01  0.27966290165E+02  0.00000000000E+00 0. -1.
</event>
<event>
 7    1  0.2670433E-009  0.1121723E+03  0.7561462E-02  0.1256599E+00
          1   -1    0    0  501    0  0.00000000000E+00  0.00000000000E+00  0.25585291674E+03  0.25585291674E+03  0.00000000000E+00 0. -1.
         -1   -1    0    0    0  501 -0.00000000000E+00 -0.00000000000E+00 -0.59596094450E+02  0.59596094450E+02  0.00000000000E+00 0.  1.
         25    2    1    2    0    0  0.33505695988E+02 -0.15489143148E+02  0.16341119522E+03  0.20907548944E+03  0.12508715498E+03 0.  0.
          5    1    3    3  502    0 -0.16027124168E+02  0.44417815208E+02  0.35056271467E+02  0.58959524982E+02  0.41800000000E+01 0. -1.
         -5    1    3    3    0  502  0.49532820156E+02 -0.59906958356E+02  0.12835492375E+03  0.15011596445E+03  0.41800000000E+01 0. -1.
        -11    1    1    2    0    0 -0.11934154696E+02  0.53810847144E+02  0.75270888983E+01  0.55629923476E+02  0.00000000000E+00 0.  1.
         11    1    1    2    0    0 -0.21571541292E+02 -0.38321703995E+02  0.25318538166E+02  0.50743598273E+02  0.00000000000E+00 0. -1.
</event>
<event>
 7    1  0.2670433E-009  0.1048259E+03  0.7561462E-02  0.1270463E+00
          2   -1    0    0  501    0  0.00000000000E+00  0.00000000000E+00  0.75913454797E+03  0.75913454797E+03  0.00000000000E+00 0. -1.
         -2   -1    0    0    0  501 -0.00000000000E+00 -0.00000000000E+00 -0.19602168777E+02  0.19602168777E+02  0.00000000000E+00 0.  1.
         25    2    1    2    0    0  0.40451594145E+02 -0.33600705469E+02  0.44834203253E+03  0.46842641742E+03  0.12508953404E+03 0.  0.
          5    1    3    3  502    0  0.56183877477E+02 -0.67159942699E+02  0.21601721834E+03  0.23312656865E+03  0.41800000000E+01 0.  1.
         -5    1    3    3    0  502 -0.15732283331E+02  0.33559237230E+02  0.23232481419E+03  0.23529984877E+03  0.41800000000E+01 0.  1.
        -11    1    1    2    0    0 -0.70736299481E+01  0.47870998748E+02  0.25313217423E+03  0.25771605769E+03  0.00000000000E+00 0. -1.
         11    1    1    2    0    0 -0.33377964197E+02 -0.14270293279E+02  0.38058172432E+02  0.52594241634E+02  0.00000000000E+00 0.  1.
</event>
<event>
 7    1  0.2670433E-009  0.9517627E+02  0.7561462E-02  0.1290780E+00
         -2   -1    0    0    0  501 -0.00000000000E+00  0.00000000000E+00  0.53352896617E+02  0.53352896617E+02  0.00000000000E+00 0.  1.
          2   -1    0    0  501    0  0.00000000000E+00 -0.00000000000E+00 -0.28989130563E+03  0.28989130563E+03  0.00000000000E+00 0. -1.
         25    2    1    2    0    0  0.58667371537E+02 -0.71831771823E+01 -0.15089059460E+03  0.20471823955E+03  0.12509247599E+03 0.  0.
          5    1    3    3  502    0 -0.31397036633E+01  0.15920881037E+02  0.17247707242E+02  0.24047619367E+02  0.41800000000E+01 0.  1.
         -5    1    3    3    0  502  0.61807075200E+02 -0.23104058220E+02 -0.16813830185E+03  0.18067062019E+03  0.41800000000E+01 0.  1.
        -11    1    1    2    0    0 -0.76052382716E+02 -0.16772240236E+02 -0.51658504608E+02  0.93455198131E+02  0.00000000000E+00 0. -1.
         11    1    1    2    0    0  0.17385011179E+02  0.23955417419E+02 -0.33989309796E+02  0.45070764557E+02  0.00000000000E+00 0.  1.
</event>
<event>
 7    1  0.2670433E-009  0.1890774E+03  0.7561462E-02  0.1159296E+00
          2   -1    0    0  501    0  0.00000000000E+00  0.00000000000E+00  0.85426303659E+03  0.85426303659E+03  0.00000000000E+00 0. -1.
         -2   -1    0    0    0  501 -0.00000000000E+00 -0.00000000000E+00 -0.91025365006E+02  0.91025365006E+02  0.00000000000E+00 0.  1.
         25    2    1    2    0    0  0.14362851723E+03  0.11232306825E+03  0.69712951636E+03  0.73135857139E+03  0.12510065843E+03 0.  0.
          5    1    3    3  502    0  0.55213355477E+02  0.33323279678E+02  0.47641397803E+03  0.48077719003E+03  0.41800000000E+01 0.  1.
         -5    1    3    3    0  502  0.88415161750E+02  0.78999788575E+02  0.22071553833E+03  0.25058138136E+03  0.41800000000E+01 0.  1.
        -11    1    1    2    0    0 -0.20698469673E+02 -0.55936988697E+02  0.49808504948E+02  0.77706245028E+02  0.00000000000E+00 0.  1.
         11    1    1    2    0    0 -0.12293004755E+03 -0.56386079556E+02  0.16299650274E+02  0.13622358518E+03  0.00000000000E+00 0. -1.
</event>
<event>
 7    1  0.2670433E-009  0.8282464E+02  0.7561462E-02  0.1321221E+00
          1   -1    0    0  501    0  0.00000000000E+00  0.00000000000E+00  0.47913836366E+03  0.47913836366E+03  0.00000000000E+00 0. -1.
         -1   -1    0    0    0  501 -0.00000000000E+00 -0.00000000000E+00 -0.20152731221E+02  0.20152731221E+02  0.00000000000E+00 0.  1.
         25    2    1    2    0    0 -0.32518088099E+01 -0.75238226878E+01  0.33279801190E+03  0.35562413463E+03  0.12508727449E+03 0.  0.
          5    1    3    3  502    0 -0.18421716824E+02  0.47992257259E+02  0.72294851552E+02  0.88806724793E+02  0.41800000000E+01 0. -1.
         -5    1    3    3    0  502  0.15169908015E+02 -0.55516079946E+02  0.26050316035E+03  0.26681740984E+03  0.41800000000E+01 0. -1.
        -11    1    1    2    0    0  0.29109557333E+02  0.90037044970E+01  0.10748410633E+03  0.11171958708E+03  0.00000000000E+00 0. -1.
         11    1    1    2    0    0 -0.25857748523E+02 -0.14798818092E+01  0.18703514208E+02  0.31947373172E+02  0.00000000000E+00 0.  1.
</event>
<event>
 7    1  0.2670433E-009  0.1495727E+03  0.7561462E-02  0.1200999E+00
         -1   -1    0    0    0  501 -0.00000000000E+00  0.00000000000E+00  0.29092335955E+02  0.29092335955E+02  0.00000000000E+00 0.  1.
          1   -1    0    0  501    0  0.00000000000E+00 -0.00000000000E+00 -0.86898512503E+03  0.86898512503E+03  0.00000000000E+00 0. -1.
         25    2    1    2    0    0 -0.39487041666E+02 -0.96346091996E+02 -0.59710220050E+03  0.61888600580E+03  0.12508818662E+03 0.  0.
          5    1    3    3  502    0 -0.84821370203E+02 -0.54927907260E+02 -0.36256654411E+03  0.37640896794E+03  0.41800000000E+01 0. -1.
         -5    1    3    3    0  502  0.45334328537E+02 -0.41418184736E+02 -0.23453565639E+03  0.24247703786E+03  0.41800000000E+01 0. -1.
        -11    1    1    2    0    0  0.57100376326E+02  0.23898050325E+02 -0.90705996774E+02  0.10981415044E+03  0.00000000000E+00 0.  1.
         11    1    1    2    0    0 -0.17613334660E+02  0.72448041671E+02 -0.15208459181E+03  0.16937730475E+03  0.00000000000E+00 0. -1.
</event>
<event>
 7    1  0.2670433E-009  0.1136420E+03  0.7561462E-02  0.1253970E+00
         -1   -1    0    0    0  501 -0.00000000000E+00  0.00000000000E+00  0.35073176986E+02  0.35073176986E+02  0.00000000000E+00 0.  1.
          1   -1    0    0  501    0  0.00000000000E+00 -0.00000000000E+00 -0.50226766681E+03  0.50226766681E+03  0.00000000000E+00 0. -1.
         25    2    1    2    0    0  0.18842768059E+02 -0.69441032550E+02 -0.30877235135E+03  0.34082981807E+03  0.12508993969E+03 0.  0.
          5    1    3    3  502    0  0.64096344097E+02 -0.44157876736E+02 -0.10648940974E+03  0.13196865609E+03  0.41800000000E+01 0. -1.
         -5    1    3    3    0  502 -0.45253576038E+02 -0.25283155814E+02 -0.20228294162E+03  0.20886116198E+03  0.41800000000E+01 0. -1.
        -11    1    1    2    0    0  0.21846633888E+02  0.44587162184E+02 -0.13407791595E+03  0.14297614482E+03  0.00000000000E+00 0. -1.
         11    1    1    2    0    0 -0.40689401947E+02  0.24853870366E+02 -0.24344222518E+02  0.53534880900E+02  0.00000000000E+00 0.  1.
</event>
<event>
 7    1  0.2670433E-009  0.1216783E+03  0.7561462E-02  0.1240354E+00
          1   -1    0    0  501    0  0.00000000000E+00  0.00000000000E+00  0.50594881520E+03  0.50594881520E+03  0.00000000000E+00 0. -1.
         -1   -1    0    0    0  501 -0.00000000000E+00 -0.00000000000E+00 -0.34704609465E+02  0.34704609465E+02  0.00000000000E+00 0.  1.
         25    2    1    2    0    0 -0.67784888017E+02 -0.31918049125E+02  0.24073668087E+03  0.28145240468E+03  0.12509098160E+03 0.  0.
          5    1    3    3  502    0 -0.88687445035E+02  0.12023001898E+02  0.10987638109E+03  0.14177555150E+03  0.41800000000E+01 0.  1.
         -5    1    3    3    0  502  0.20902557017E+02 -0.43941051023E+02  0.13086029978E+03  0.13967685317E+03  0.41800000000E+01 0.  1.
        -11    1    1    2    0    0  0.59964498450E+02  0.54495790276E+02  0.11158106573E+03  0.13789802922E+03  0.00000000000E+00 0.  1.
         11    1    1    2    0    0  0.78203895677E+01 -0.22577741151E+02  0.11892645913E+03  0.12130299077E+03  0.00000000000E+00 0. -1.
</event>
<event>
 7    1  0.2670433E-009  0.8732649E+02  0.7561462E-02  0.1309458E+00
         -2   -1    0    0    0  501 -0.00000000000E+00  0.00000000000E+00  0.19206985409E+02  0.19206985409E+02  0.00000000000E+00 0. -1.
          2   -1    0    0  501    0  0.00000000000E+00 -0.00000000000E+00 -0.89740722746E+03  0.89740722746E+03  0.00000000000E+00 0.  1.
         25    2    1    2    0    0 -0.51099474454E+02 -0.12463534924E+02 -0.67131976689E+03  0.68489839447E+03  0.12509630423E+03 0.  0.
          5    1    3    3  502    0  0.83840712177E+01 -0.99081444037E+01 -0.54518296291E+03  0.54535346283E+03  0.41800000000E+01 0. -1.
         -5    1    3    3    0  502 -0.59483545672E+02 -0.25553905205E+01 -0.12613680398E+03  0.13954493163E+03  0.41800000000E+01 0. -1.
        -11    1    1    2    0    0  0.75346499655E+02  0.33238239375E+01 -0.12665915885E+03  0.14741331465E+03  0.00000000000E+00 0. -1.
         11    1    1    2    0    0 -0.24247025201E+02  0.91397109867E+01 -0.80221316311E+02  0.84302503751E+02  0.00000000000E+00 0.  1.
</event>
<event>
 7    1  0.2670433E-009  0.1515617E+03  0.7561462E-02  0.1198567E+00
          2   -1    0    0  501    0  0.00000000000E+00  0.00000000000E+00  0.14644895289E+03  0.14644895289E+03  0.00000000000E+00 0. -1.
         -2   -1    0    0    0  501 -0.00000000000E+00 -0.00000000000E+00 -0.29453844863E+03  0.29453844863E+03  0.00000000000E+00 0.  1.
         25    2    1    2    0    0 -0.91453706882E+02  0.11835711993E+03  0.26366526398E+02  0.19676019555E+03  0.12508873849E+03 0.  0.
          5    1    3    3  502    0 -0.21992195662E+02  0.32387339932E+02  0.68004029512E+02  0.78578730505E+02  0.41800000000E+01 0. -1.
         -5    1    3    3    0  502 -0.69461511220E+02  0.85969780001E+02 -0.41637503114E+02  0.11818146504E+03  0.41800000000E+01 0. -1.
        -11    1    1    2    0    0  0.52806671424E+02 -0.41647436353E+02 -0.13259224307E+03  0.14867332115E+03  0.00000000000E+00 0.  1.
         11    1    1    2    0    0  0.38647035459E+02 -0.76709683580E+02 -0.41863779075E+02  0.95553884814E+02  0.00000000000E+00 0. -1.
</event>
<event>
 7    1  0.2670433E-009  0.1178260E+03  0.7561462E-02  0.1246727E+00
          2   -1    0    0  501    0  0.00000000000E+00  0.00000000000E+00  0.27928361376E+03  0.27928361376E+03  0.00000000000E+00 0. -1.
         -2   -1    0    0    0  501 -0.00000000000E+00 -0.00000000000E+00 -0.10169544122E+03  0.10169544122E+03  0.00000000000E+00 0.  1.
         25    2    1    2    0    0  0.89701298739E+02 -0.41157708362E+02  0.18581337363E+03  0.24477209356E+03  0.12508592252E+03 0.  0.
          5    1    3    3  502    0  0.68884457984E+02 -0.36581909398E+02  0.20272065920E+03  0.21724742280E+03  0.41800000000E+01 0.  1.
         -5    1    3    3    0  502  0.20816840755E+02 -0.45757989640E+01 -0.16907285570E+02  0.27524670762E+02  0.41800000000E+01 0.  1.
        -11    1    1    2    0    0 -0.53142074296E+01 -0.26895945963E+02  0.75934087683E+00  0.27426434482E+02  0.00000000000E+00 0.  1.
         11    1    1    2    0    0 -0.84387091309E+02  0.68053654325E+02 -0.89845419584E+01  0.10878052694E+03  0.00000000000E+00 0. -1.
</event>
<event>
 7    1  0.2670433E-009  0.1079531E+03  0.7561462E-02  0.1264408E+00
         -1   -1    0    0    0  501 -0.00000000000E+00  0.00000000000E+00  0.60491042554E+02  0.60491042554E+02  0.00000000000E+00 0.  1.
          1   -1    0    0  501    0  0.00000000000E+00 -0.00000000000E+00 -0.38806346851E+03  0.38806346851E+03  0.00000000000E+00 0. -1.
         25    2    1    2    0    0 -0.43226714161E+02 -0.59110530459E+02 -0.59780195604E+02  0.15679252225E+03  0.12509044576E+03 0.  0.
          5    1    3    3  502    0 -0.65822812361E+02 -0.70654908320E+02 -0.78881899241E+02  0.12475810645E+03  0.41800000000E+01 0. -1.
         -5    1    3    3    0  502  0.22596098200E+02  0.11544377861E+02  0.19101703637E+02  0.32034415804E+02  0.41800000000E+01 0. -1.
        -11    1    1    2    0    0  0.14980002369E+02  0.63238038877E+02 -0.24957574667E+03  0.25789824226E+03  0.00000000000E+00 0.  1.
         11    1    1    2    0    0  0.28246711792E+02 -0.41275084182E+01 -0.18216483675E+02  0.33863746549E+02  0.00000000000E+00 0. -1.
</event>
<event>
 7    1  0.2670433E-009  0.9873268E+02  0.7561462E-02  0.1282984E+00
         -2   -1    0    0    0  501 -0.00000000000E+00  0.00000000000E+00  0.19182046366E+03  0.19182046366E+03  0.00000000000E+00 0.  1.
          2   -1    0    0  501    0  0.00000000000E+00 -0.00000000000E+00 -0.90558400777E+02  0.90558400777E+02  0.00000000000E+00 0. -1.
         25    2    1    2    0    0 -0.16704311635E+02 -0.64108143691E+02  0.94571709151E+02  0.17023621018E+03  0.12509065101E+03 0.  0.
          5    1    3    3  502    0  0.43277936524E+02 -0.11900503110E+02  0.76166547612E+02  0.88506593761E+02  0.41800000000E+01 0. -1.
         -5    1    3    3    0  502 -0.59982248159E+02 -0.52207640581E+02  0.18405161539E+02  0.81729616423E+02  0.41800000000E+01 0. -1.
        -11    1    1    2    0    0  0.13440890980E+02  0.62786562601E+01 -0.36821953414E+02  0.39698051942E+02  0.00000000000E+00 0. -1.
         11    1    1    2    0    0  0.32634206554E+01  0.57829487431E+02  0.43512307145E+02  0.72444602311E+02  0.00000000000E+00 0.  1.
</event>
<event>
 7    1  0.2670433E-009  0.7407420E+02  0.7561462E-02  0.1346762E+00
          1   -1    0    0  501    0  0.00000000000E+00  0.00000000000E+00  0.36768926222E+03  0.36768926222E+03  0.00000000000E+00 0. -1.
         -1   -1    0    0    0  501 -0.00000000000E+00 -0.00000000000E+00 -0.53939480110E+02  0.53939480110E+02  0.00000000000E+00 0.  1.
         25    2    1    2    0    0 -0.25631579454E+01  0.37505971692E+01  0.30537435625E+03  0.33003522462E+03  0.12509642391E+03 0.  0.
          5    1    3    3  502    0  0.29866652906E+02  0.23359631469E+02  0.28354838717E+03  0.28610286542E+03  0.41800000000E+01 0.  1.
         -5    1    3    3    0  502 -0.32429810851E+02 -0.19609034300E+02  0.21825969080E+02  0.43932359193E+02  0.41800000000E+01 0.  1.
        -11    1    1    2    0    0  0.27202112318E+02  0.22915726606E+02 -0.24033145654E+02  0.42926419958E+02  0.00000000000E+00 0.  1.
         11    1    1    2    0    0 -0.24638954372E+02 -0.26666323776E+02  0.32408571516E+02  0.48667097756E+02  0.00000000000E+00 0. -1.
</event>
<event>
 7    1  0.2670433E-009  0.3786443E+03  0.7561462E-02  0.1051436E+00
          1   -1    0    0  501    0  0.00000000000E+00  0.00000000000E+00  0.13487105041E+04  0.13487105041E+04  0.00000000000E+00 0. -1.
         -1   -1    0    0    0  501 -0.00000000000E+00 -0.00000000000E+00 -0.13532790065E+03  0.13532790065E+03  0.00000000000E+00 0.  1.
         25    2    1    2    0    0  0.36361432398E+03 -0.97533126494E+02  0.31757161912E+03  0.50816108565E+03  0.12509143989E+03 0.  0.
          5    1    3    3  502    0  0.56251082888E+02 -0.28301521865E+02  0.12187140430E+03  0.13724165567E+03  0.41800000000E+01 0.  1.
         -5    1    3    3    0  502  0.30736324109E+03 -0.69231604629E+02  0.19570021482E+03  0.37091942998E+03  0.41800000000E+01 0.  1.
        -11    1    1    2    0    0 -0.24554179300E+03  0.87196635476E+02  0.51688468043E+03  0.57884695578E+03  0.00000000000E+00 0.  1.
         11    1    1    2    0    0 -0.11807253097E+03  0.10336491017E+02  0.37892630391E+03  0.39703036334E+03  0.00000000000E+00 0. -1.
</event>
<event>
 7    1  0.2670433E-009  0.2324575E+03  0.7561462E-02  0.1124922E+00
         -2   -1    0    0    0  501 -0.00000000000E+00  0.00000000000E+00  0.32082876962E+02  0.32082876962E+02  0.00000000000E+00 0.  1.
          2   -1    0    0  501    0  0.00000000000E+00 -0.00000000000E+00 -0.18255525286E+04  0.18255525286E+04  0.00000000000E+00 0. -1.
         25    2    1    2    0    0 -0.10390589335E+03 -0.18778197198E+03 -0.10243048113E+04  0.10539960857E+04  0.12509555790E+03 0.  0.
          5    1    3    3  502    0 -0.12268624519E+03 -0.10321944698E+03 -0.61180271097E+03  0.63247624346E+03  0.41800000000E+01 0.  1.
         -5    1    3    3    0  502  0.18780351832E+02 -0.84562524996E+02 -0.41250210034E+03  0.42151984228E+03  0.41800000000E+01 0.  1.
        -11    1    1    2    0    0  0.69619809356E+02  0.87459342900E+02 -0.53556067866E+03  0.54710263666E+03  0.00000000000E+00 0. -1.
         11    1    1    2    0    0  0.34286083997E+02  0.10032262908E+03 -0.23360416169E+03  0.25653668319E+03  0.00000000000E+00 0.  1.
</event>
<event>
 7    1  0.2670433E-009  0.9193868E+02  0.7561462E-02  0.1298224E+00
         -1   -1    0    0    0  501 -0.00000000000E+00  0.00000000000E+00  0.65515941647E+03  0.65515941647E+03  0.00000000000E+00 0.  1.
          1   -1    0    0  501    0  0.00000000000E+00 -0.00000000000E+00 -0.24722564577E+02  0.24722564577E+02  0.00000000000E+00 0. -1.
         25    2    1    2    0    0 -0.16557917643E+02 -0.13213552451E+02  0.51761488764E+03  0.53293528246E+03  0.12508429470E+03 0.  0.
          5    1    3    3  502    0 -0.20071467692E+02  0.38567714692E+02  0.71454849188E+02  0.83747240577E+02  0.41800000000E+01 0. -1.
         -5    1    3    3    0  502  0.35135500487E+01 -0.51781267143E+02  0.44616003845E+03  0.44918804188E+03  0.41800000000E+01 0. -1.
        -11    1    1    2    0    0  0.45388799319E+02  0.30340992199E+02  0.93420849962E+02  0.10820431654E+03  0.00000000000E+00 0.  1.
         11    1    1    2    0    0 -0.28830881677E+02 -0.17127439748E+02  0.19401114295E+02  0.38742382044E+02  0.00000000000E+00 0. -1.
</event>
<event>
 7    1  0.2670433E-009  0.1470185E+03  0.7561462E-02  0.1204185E+00
         -2   -1    0    0    0  501 -0.00000000000E+00  0.00000000000E+00  0.17464169064E+02  0.17464169064E+02  0.00000000000E+00 0.  1.
          2   -1    0    0  501    0  0.00000000000E+00 -0.00000000000E+00 -0.16500800854E+04  0.16500800854E+04  0.00000000000E+00 0. -1.
         25    2    1    2    0    0 -0.12322252030E+03  0.32353985511E+02 -0.73571390077E+03  0.75706985881E+03  0.12509699216E+03 0.  0.
          5    1    3    3  502    0 -0.59400846903E+02  0.41859545478E+02 -0.13938993693E+03  0.15725046607E+03  0.41800000000E+01 0.  1.
         -5    1    3    3    0  502 -0.63821673393E+02 -0.95055599669E+01 -0.59632396384E+03  0.59981939274E+03  0.41800000000E+01 0.  1.
        -11    1    1    2    0    0  0.82040284055E+02 -0.64488025199E+02 -0.58866799002E+03  0.59784556206E+03  0.00000000000E+00 0.  1.
         11    1    1    2    0    0  0.41182236241E+02  0.32134039688E+02 -0.30823402557E+03  0.31262883362E+03  0.00000000000E+00 0. -1.
</event>
<event>
 7    1  0.2670433E-009  0.9535757E+02  0.7561462E-02  0.1290373E+00
          1   -1    0    0  501    0  0.00000000000E+00  0.00000000000E+00  0.62632736936E+02  0.62632736936E+02  0.00000000000E+00 0. -1.
         -1   -1    0    0    0  501 -0.00000000000E+00 -0.00000000000E+00 -0.19708272561E+03  0.19708272561E+03  0.00000000000E+00 0.  1.
         25    2    1    2    0    0 -0.16381076664E+02 -0.40432994833E+01 -0.10029394213E+03  0.16121809550E+03  0.12509081319E+03 0.  0.
          5    1    3    3  502    0  0.41701002739E+02 -0.39044940660E+02 -0.35844037475E+02  0.67570322207E+02  0.41800000000E+01 0. -1.
         -5    1    3    3    0  502 -0.58082079403E+02  0.35001641177E+02 -0.64449904654E+02  0.93647773293E+02  0.41800000000E+01 0. -1.
        -11    1    1    2    0    0  0.39463904596E+02  0.11720359159E+02 -0.53437820717E+02  0.67456410131E+02  0.00000000000E+00 0.  1.
         11    1    1    2    0    0 -0.23082827932E+02 -0.76770596754E+01  0.19281774176E+02  0.31040956911E+02  0.00000000000E+00 0. -1.
</event>
<event>
 7    1  0.2670433E-009  0.1597678E+03  0.7561462E-02  0.1188959E+00
         -2   -1    0    0    0  501 -0.00000000000E+00  0.00000000000E+00  0.19528970979E+03  0.19528970979E+03  0.00000000000E+00 0. -1.
          2   -1    0    0  501    0  0.00000000000E+00 -0.00000000000E+00 -0.14247177431E+03  0.14247177431E+03  0.00000000000E+00 0.  1.
         25    2    1    2    0    0  0.28089619008E+02 -0.11968728663E+03  0.49015327434E+02  0.18210997031E+03  0.12508983047E+03 0.  0.
          5    1    3    3  502    0 -0.41800135889E+02 -0.49814590274E+02  0.51664582097E+02  0.83159161899E+02  0.41800000000E+01 0.  1.
         -5    1    3    3    0  502  0.69889754896E+02 -0.69872696356E+02 -0.26492546629E+01  0.98950808414E+02  0.41800000000E+01 0.  1.
        -11    1    1    2    0    0 -0.17853531710E+02 -0.13183060965E+02 -0.18290475348E+01  0.22268522758E+02  0.00000000000E+00 0. -1.
         11    1    1    2    0    0 -0.10236087298E+02  0.13287034760E+03  0.56316555830E+01  0.13338299104E+03  0.00000000000E+00 0.  1.
</event>
<event>
 7    1  0.2670433E-009  0.8911826E+02  0.7561462E-02  0.1305001E+00
          2   -1    0    0  501    0  0.00000000000E+00  0.00000000000E+00  0.43518391118E+02  0.43518391118E+02  0.00000000000E+00 0. -1.
         -2   -1    0    0    0  501 -0.00000000000E+00 -0.00000000000E+00 -0.28516442868E+03  0.28516442868E+03  0.00000000000E+00 0.  1.
         25    2    1    2    0    0  0.23025890953E+02 -0.30190135708E+01 -0.11886746719E+03  0.17411676820E+03  0.12509143901E+03 0.  0.
          5    1    3    3  502    0 -0.49351119002E+02  0.23516203055E+01 -0.25411991041E+02  0.55716288045E+02  0.41800000000E+01 0. -1.
         -5    1    3    3    0  502  0.72377009956E+02 -0.53706338763E+01 -0.93455476151E+02  0.11840048016E+03  0.41800000000E+01 0. -1.
        -11    1    1    2    0    0 -0.36373629939E+01  0.25792470852E+02  0.21223675456E+01  0.26134008613E+02  0.00000000000E+00 0. -1.
         11    1    1    2    0    0 -0.19388527959E+02 -0.22773457281E+02 -0.12490093791E+03  0.12843204298E+03  0.00000000000E+00 0.  1.
</event>
<event>
 7    1  0.2670433E-009  0.1014621E+03  0.7561462E-02  0.1277251E+00
         -2   -1    0    0    0  501 -0.00000000000E+00  0.00000000000E+00  0.44038094974E+03  0.44038094974E+03  0.00000000000E+00 0. -1.
          2   -1    0    0  501    0  0.00000000000E+00 -0.00000000000E+00 -0.30338542186E+02  0.30338542186E+02  0.00000000000E+00 0.  1.
         25    2    1    2    0    0 -0.37684206577E+02 -0.96889787293E+00  0.20418589818E+03  0.24240319482E+03  0.12508552936E+03 0.  0.
          5    1    3    3  502    0 -0.62844185087E+02  0.26427911203E+02  0.19078918618E+03  0.20264701343E+03  0.41800000000E+01 0. -1.
         -5    1    3    3    0  502  0.25159978510E+02 -0.27396809075E+02  0.13396712002E+02  0.39756181388E+02  0.41800000000E+01 0. -1.
        -11    1    1    2    0    0 -0.25340563025E+02  0.18959155951E+02  0.49178730382E+02  0.58481973725E+02  0.00000000000E+00 0.  1.
         11    1    1    2    0    0  0.63024769602E+02 -0.17990258078E+02  0.15667777899E+03  0.16983432338E+03  0.00000000000E+00 0. -1.
</event>
<event>
 7    1  0.2670433E-009  0.7962839E+02  0.7561462E-02  0.1330109E+00
          2   -1    0    0  501    0  0.00000000000E+00  0.00000000000E+00  0.48262634528E+03  0.48262634528E+03  0.00000000000E+00 0. -1.
         -2   -1    0    0    0  501 -0.00000000000E+00 -0.00000000000E+00 -0.63628508870E+02  0.63628508870E+02  0.00000000000E+00 0.  1.
         25    2    1    2    0    0  0.51200291722E+02  0.34732094080E+02  0.41130516609E+03  0.43433537303E+03  0.12508992118E+03 0.  0.
          5    1    3    3  502    0  0.69610726169E+02  0.18502773485E+02  0.10723150505E+03  0.12924424126E+03  0.41800000000E+01 0.  1.
         -5    1    3    3    0  502 -0.18410434446E+02  0.16229320595E+02  0.30407366105E+03  0.30509113177E+03  0.41800000000E+01 0.  1.
        -11    1    1    2    0    0 -0.44458651512E+02 -0.27271741734E+02  0.47692869696E+02  0.70674814547E+02  0.00000000000E+00 0. -1.
         11    1    1    2    0    0 -0.67416402108E+01 -0.74603523466E+01 -0.40000199381E+02  0.41244666569E+02  0.00000000000E+00 0.  1.
</event>
<event>
 7    1  0.2670433E-009  0.7425155E+02  0.7561462E-02  0.1346205E+00
         -1   -1    0    0    0  501 -0.00000000000E+00  0.00000000000E+00  0.20010210468E+03  0.20010210468E+03  0.00000000000E+00 0.  1.
          1   -1    0    0  501    0  0.00000000000E+00 -0.00000000000E+00 -0.84355583076E+02  0.84355583076E+02  0.00000000000E+00 0. -1.
         25    2    1    2    0    0 -0.61798250756E+02  0.12695969264E+02  0.97333185489E+02  0.17059271170E+03  0.12509161785E+03 0.  0.
          5    1    3    3  502    0  0.32386969813E+00 -0.14532951230E+02 -0.25825899465E+02  0.29929267385E+02  0.41800000000E+01 0. -1.
         -5    1    3    3    0  502 -0.62122120454E+02  0.27228920494E+02  0.12315908495E+03  0.14066344432E+03  0.41800000000E+01 0. -1.
        -11    1    1    2    0    0  0.40590494605E+02 -0.16606216156E+02  0.55638195026E+02  0.70844642797E+02  0.00000000000E+00 0.  1.
         11    1    1    2    0    0  0.21207756151E+02  0.39102468921E+01 -0.37224858915E+02  0.43020333250E+02  0.00000000000E+00 0. -1.
</event>
<event>
 7    1  0.2670433E-009  0.1147661E+03  0.7561462E-02  0.1251990E+00
          1   -1    0    0  501    0  0.00000000000E+00  0.00000000000E+00  0.45557852295E+03  0.45557852295E+03  0.00000000000E+00 0. -1.
         -1   -1    0    0    0  501 -0.00000000000E+00 -0.00000000000E+00 -0.40999256492E+02  0.40999256492E+02  0.00000000000E+00 0.  1.
         25    2    1    2    0    0 -0.65472219835E+02 -0.19659032330E+02  0.31908394541E+03  0.34947828350E+03  0.12508963703E+03 0.  0.
          5    1    3    3  502    0  0.16911865276E+02 -0.40481191308E+02  0.18880458960E+03  0.19387981714E+03  0.41800000000E+01 0.  1.
         -5    1    3    3    0  502 -0.82384085112E+02  0.20822158978E+02  0.13027935581E+03  0.15559846636E+03  0.41800000000E+01 0.  1.
        -11    1    1    2    0    0  0.43683710923E+02 -0.25258913458E+02  0.15470158291E+02  0.52778831994E+02  0.00000000000E+00 0.  1.
         11    1    1    2    0    0  0.21788508912E+02  0.44917945788E+02  0.80025162748E+02  0.94320663946E+02  0.00000000000E+00 0. -1.
</event>
<event>
 7    1  0.2670433E-009  0.1878798E+03  0.7561462E-02  0.1160388E+00
          1   -1    0    0  501    0  0.00000000000E+00  0.00000000000E+00  0.12569335126E+03  0.12569335126E+03  0.00000000000E+00 0. -1.
         -1   -1    0    0    0  501 -0.00000000000E+00 -0.00000000000E+00 -0.36911128988E+03  0.36911128988E+03  0.00000000000E+00 0.  1.
         25    2    1    2    0    0  0.92367447526E+02  0.13654281318E+03 -0.29685426969E+02  0.20905785082E+03  0.12509306625E+03 0.  0.
          5    1    3    3  502    0 -0.36205798398E+01  0.10553881485E+03 -0.20791051262E+02  0.10770928582E+03  0.41800000000E+01 0.  1.
         -5    1    3    3    0  502  0.95988027365E+02  0.31003998327E+02 -0.88943757068E+01  0.10134856501E+03  0.41800000000E+01 0.  1.
        -11    1    1    2    0    0 -0.30083302742E+01 -0.29616598319E+02  0.97248533175E+00  0.29784873254E+02  0.00000000000E+00 0.  1.
         11    1    1    2    0    0 -0.89359117251E+02 -0.10692621486E+03 -0.21470499698E+03  0.25596191706E+03  0.00000000000E+00 0. -1.
</event>
<event>
 7    1  0.2670433E-009  0.3192797E+03  0.7561462E-02  0.1075981E+00
         -3   -1    0    0    0  501 -0.00000000000E+00  0.00000000000E+00  0.85034892520E+03  0.85034892520E+03  0.00000000000E+00 0.  1.
          3   -1    0    0  501    0  0.00000000000E+00 -0.00000000000E+00 -0.16707930169E+03  0.16707930169E+03  0.00000000000E+00 0. -1.
         25    2    1    2    0    0 -0.20234181202E+03  0.23174755413E+03  0.60025172645E+03  0.68600163532E+03  0.12508785241E+03 0.  0.
          5    1    3    3  502    0 -0.16557572132E+03  0.99695253177E+02  0.38431574650E+03  0.43019824314E+03  0.41800000000E+01 0. -1.
         -5    1    3    3    0  502 -0.36766090699E+02  0.13205230095E+03  0.21593597995E+03  0.25580339218E+03  0.41800000000E+01 0. -1.
        -11    1    1    2    0    0  0.15156143477E+03 -0.18417933580E+03  0.23163131071E+02  0.23964437587E+03  0.00000000000E+00 0. -1.
         11    1    1    2    0    0  0.50780377248E+02 -0.47568218331E+02  0.59854765995E+02  0.91782215711E+02  0.00000000000E+00 0.  1.
</event>
<event>
 7    1  0.2670433E-009  0.2631979E+03  0.7561462E-02  0.1105237E+00
          2   -1    0    0  501    0  0.00000000000E+00  0.00000000000E+00  0.27331468692E+03  0.27331468692E+03  0.00000000000E+00 0.  1.
         -2   -1    0    0    0  501 -0.00000000000E+00 -0.00000000000E+00 -0.45478213070E+03  0.45478213070E+03  0.00000000000E+00 0. -1.
         25    2    1    2    0    0  0.20199414984E+03 -0.16354145887E+03  0.12667638005E+03  0.31502676129E+03  0.12509000651E+03 0.  0.
          5    1    3    3  502    0 -0.71934426040E+00 -0.10910544715E+02 -0.19064823744E+02  0.22371798017E+02  0.41800000000E+01 0. -1.
         -5    1    3    3    0  502  0.20271349410E+03 -0.15263091416E+03  0.14574120379E+03  0.29265496328E+03  0.41800000000E+01 0. -1.
        -11    1    1    2    0    0 -0.13089044336E+03  0.91622715515E+02 -0.24917936190E+03  0.29600233877E+03  0.00000000000E+00 0.  1.
         11    1    1    2    0    0 -0.71103706484E+02  0.71918743359E+02 -0.58964461935E+02  0.11706771756E+03  0.00000000000E+00 0. -1.
</event>
<event>
 7    1  0.2670433E-009  0.1142111E+03  0.7561462E-02  0.1252964E+00
         -1   -1    0    0    0  501 -0.00000000000E+00  0.00000000000E+00  0.41013416340E+02  0.41013416340E+02  0.00000000000E+00 0.  1.
          1   -1    0    0  501    0  0.00000000000E+00 -0.00000000000E+00 -0.39305351615E+03  0.39305351615E+03  0.00000000000E+00 0. -1.
         25    2    1    2    0    0  0.56348901687E+02  0.29459089935E+02 -0.21908539528E+03  0.26016977485E+03  0.12508742789E+03 0.  0.
          5    1    3    3  502    0 -0.53416308292E+01  0.51490843870E+02 -0.29915657312E+02  0.59935456741E+02  0.41800000000E+01 0.  1.
         -5    1    3    3    0  502  0.61690532516E+02 -0.22031753935E+02 -0.18916973797E+03  0.20023431811E+03  0.41800000000E+01 0.  1.
        -11    1    1    2    0    0 -0.80678417702E+02 -0.31092347382E+02 -0.92152347031E+02  0.12636374564E+03  0.00000000000E+00 0. -1.
         11    1    1    2    0    0  0.24329516016E+02  0.16332574474E+01 -0.40802357496E+02  0.47533412003E+02  0.00000000000E+00 0.  1.
</event>
<event>
 7    1  0.2670433E-009  0.1180132E+03  0.7561462E-02  0.1246411E+00
          2   -1    0    0  501    0  0.00000000000E+00  0.00000000000E+00  0.32420634055E+03  0.32420634055E+03  0.00000000000E+00 0. -1.
         -2   -1    0    0    0  501 -0.00000000000E+00 -0.00000000000E+00 -0.78233925929E+02  0.78233925929E+02  0.00000000000E+00 0.  1.
         25    2    1    2    0    0 -0.88808062370E+02 -0.49804600305E+02  0.22259774479E+03  0.27489164826E+03  0.12509313389E+03 0.  0.
          5    1    3    3  502    0 -0.16715424520E+02  0.20557642421E+02 -0.37682848881E+01  0.27086794750E+02  0.41800000000E+01 0. -1.
         -5    1    3    3    0  502 -0.72092637850E+02 -0.70362242727E+02  0.22636602968E+03  0.24780485351E+03  0.41800000000E+01 0. -1.
        -11    1    1    2    0    0  0.86920307628E+02  0.35403648182E+02  0.42916281438E+02  0.10320060753E+03  0.00000000000E+00 0. -1.
         11    1    1    2    0    0  0.18877547427E+01  0.14400952124E+02 -0.19541611605E+02  0.24348010682E+02  0.00000000000E+00 0.  1.
</event>
<event>
 7    1  0.2771704E-009  0.1612274E+03  0.7561462E-02  0.1187318E+00
         -1   -1    0    0    0  501 -0.00000000000E+00  0.00000000000E+00  0.43504641855E+02  0.43504641855E+02  0.00000000000E+00 0.  1.
          1   -1    0    0  501    0  0.00000000000E+00 -0.00000000000E+00 -0.70291544511E+03  0.70291544511E+03  0.00000000000E+00 0. -1.
         25    2    1    2    0    0 -0.28924032467E+02  0.12953341718E+03 -0.41853886516E+03  0.45654969617E+03  0.12508931850E+03 0.  0.
          5    1    3    3  502    0 -0.25940227335E+02 -0.86666369402E+01 -0.16901219930E+03  0.17126179347E+03  0.41800000000E+01 0. -1.
         -5    1    3    3    0  502 -0.29838051318E+01  0.13820005412E+03 -0.24952666586E+03  0.28528790270E+03  0.41800000000E+01 0. -1.
        -11    1    1    2    0    0  0.32550720969E+02 -0.62377310904E+01 -0.26055105733E+02  0.42158359307E+02  0.00000000000E+00 0.  1.
         11    1    1    2    0    0 -0.36266885020E+01 -0.12329568609E+03 -0.21481683236E+03  0.24771203149E+03  0.00000000000E+00 0. -1.
</event>
<event>
 7    1  0.2670433E-009  0.1136024E+03  0.7561462E-02  0.1254041E+00
         -4   -1    0    0    0  501 -0.00000000000E+00  0.00000000000E+00  0.20291519632E+03  0.20291519632E+03  0.00000000000E+00 0.  1.
          4   -1    0    0  501    0  0.00000000000E+00 -0.00000000000E+00 -0.93089867322E+02  0.93089867322E+02  0.00000000000E+00 0. -1.
         25    2    1    2    0    0  0.49442567493E+02 -0.66303808421E+02  0.58662066798E+02  0.16103164622E+03  0.12509672463E+03 0.  0.
          5    1    3    3  502    0  0.56367661223E+02  0.67594174690E+01  0.65998746076E+02  0.87156811782E+02  0.41800000000E+01 0. -1.
         -5    1    3    3    0  502 -0.69250937297E+01 -0.73063225890E+02 -0.73366792783E+01  0.73874834439E+02  0.41800000000E+01 0. -1.
        -11    1    1    2    0    0  0.21773684202E+01  0.37684390474E+02 -0.19838403582E+02  0.42642894781E+02  0.00000000000E+00 0. -1.
         11    1    1    2    0    0 -0.51619935914E+02  0.28619417947E+02  0.71001665786E+02  0.92330522644E+02  0.00000000000E+00 0.  1.
</event>
<event>
 7    1  0.2670433E-009  0.1352060E+03  0.7561462E-02  0.1219929E+00
         -1   -1    0    0    0  501 -0.00000000000E+00  0.00000000000E+00  0.22782357382E+02  0.22782357382E+02  0.00000000000E+00 0.  1.
          1   -1    0    0  501    0  0.00000000000E+00 -0.00000000000E+00 -0.10535495401E+04  0.10535495401E+04  0.00000000000E+00 0. -1.
         25    2    1    2    0    0  0.87063420246E+02  0.33418867223E+02 -0.72434586083E+03  0.74095965895E+03  0.12508968882E+03 0.  0.
          5    1    3    3  502    0  0.10561218615E+03  0.10523761264E+02 -0.35847315687E+03  0.37387853644E+03  0.41800000000E+01 0.  1.
         -5    1    3    3    0  502 -0.18548765908E+02  0.22895105959E+02 -0.36587270396E+03  0.36708112251E+03  0.41800000000E+01 0.  1.
        -11    1    1    2    0    0 -0.10815057840E+03 -0.21690763335E+02 -0.27022270352E+03  0.29186871418E+03  0.00000000000E+00 0.  1.
         11    1    1    2    0    0  0.21087158158E+02 -0.11728103888E+02 -0.36198618416E+02  0.43503524400E+02  0.00000000000E+00 0. -1.
</event>
<event>
 7    1  0.2670433E-009  0.1058263E+03  0.7561462E-02  0.1268500E+00
         -1   -1    0    0    0  501 -0.00000000000E+00  0.00000000000E+00  0.15693293637E+02  0.15693293637E+02  0.00000000000E+00 0.  1.
          1   -1    0    0  501    0  0.00000000000E+00 -0.00000000000E+00 -0.11566512283E+04  0.11566512283E+04  0.00000000000E+00 0. -1.
         25    2    1    2    0    0  0.45324519532E+02 -0.16626503123E+02 -0.90598869380E+03  0.91585691807E+03  0.12509048095E+03 0.  0.
          5    1    3    3  502    0 -0.23746427201E+02 -0.36319399807E+02 -0.14334963705E+03  0.14983184725E+03  0.41800000000E+01 0.  1.
         -5    1    3    3    0  502  0.69070946734E+02  0.19692896684E+02 -0.76263905674E+03  0.76602507083E+03  0.41800000000E+01 0.  1.
        -11    1    1    2    0    0 -0.59065315167E+02 -0.15590565189E+02 -0.18943358339E+03  0.19903984449E+03  0.00000000000E+00 0.  1.
         11    1    1    2    0    0  0.13740795635E+02  0.32217068312E+02 -0.45535657493E+02  0.57447759388E+02  0.00000000000E+00 0. -1.
</event>
<event>
 7    1  0.2670433E-009  0.3812140E+03  0.7561462E-02  0.1050486E+00
          2   -1    0    0  501    0  0.00000000000E+00  0.00000000000E+00  0.36682693707E+03  0.36682693707E+03  0.00000000000E+00 0. -1.
         -2   -1    0    0    0  501 -0.00000000000E+00 -0.00000000000E+00 -0.66470882719E+03  0.66470882719E+03  0.00000000000E+00 0.  1.
         25    2    1    2    0    0  0.35323470762E+03  0.11913948256E+03 -0.46805624575E+03  0.61130836448E+03  0.12510912171E+03 0.  0.
          5    1    3    3  502    0 -0.76871959938E+01  0.15207436723E+01 -0.31738697079E+02  0.32957896411E+02  0.41800000000E+01 0.  1.
         -5    1    3    3    0  502  0.36092190361E+03  0.11761873889E+03 -0.43631754867E+03  0.57835046807E+03  0.41800000000E+01 0.  1.
        -11    1    1    2    0    0 -0.27924553009E+03 -0.81432722456E+02  0.17053794769E+03  0.33718325279E+03  0.00000000000E+00 0. -1.
         11    1    1    2    0    0 -0.73989177531E+02 -0.37706760104E+02 -0.36359205960E+00  0.83044146985E+02  0.00000000000E+00 0.  1.
</event>
<event>
 7    1  0.2670433E-009  0.2022496E+03  0.7561462E-02  0.1147855E+00
         -2   -1    0    0    0  501 -0.00000000000E+00  0.00000000000E+00  0.91826351861E+02  0.91826351861E+02  0.00000000000E+00 0.  1.
          2   -1    0    0  501    0  0.00000000000E+00 -0.00000000000E+00 -0.92162414245E+03  0.92162414245E+03  0.00000000000E+00 0. -1.
         25    2    1    2    0    0 -0.11582838315E+03 -0.14016342299E+03 -0.77065473709E+03  0.80163475566E+03  0.12509020025E+03 0.  0.
          5    1    3    3  502    0 -0.11213707501E+03 -0.38215064440E+02 -0.40486099874E+03  0.42185899948E+03  0.41800000000E+01 0. -1.
         -5    1    3    3    0  502 -0.36913081396E+01 -0.10194835855E+03 -0.36579373836E+03  0.37977575619E+03  0.41800000000E+01 0. -1.
        -11    1    1    2    0    0  0.81055217047E+02  0.11598994011E+03 -0.30587636452E+01  0.14153787639E+03  0.00000000000E+00 0.  1.
         11    1    1    2    0    0  0.34773166099E+02  0.24173482881E+02 -0.56084289847E+02  0.70277862252E+02  0.00000000000E+00 0. -1.
</event>
<event>
 7    1  0.2670433E-009  0.1109354E+03  0.7561462E-02  0.1258847E+00
          2   -1    0    0  501    0  0.00000000000E+00  0.00000000000E+00  0.68351899853E+03  0.68351899853E+03  0.00000000000E+00 0. -1.
         -2   -1    0    0    0  501 -0.00000000000E+00 -0.00000000000E+00 -0.28404849554E+02  0.28404849554E+02  0.00000000000E+00 0.  1.
         25    2    1    2    0    0  0.17635768710E+02  0.61897552433E+02  0.50862869998E+03  0.52772469492E+03  0.12509145395E+03 0.  0.
          5    1    3    3  502    0  0.36209443573E+02 -0.26348312974E+02  0.24428716360E+03  0.24839293086E+03  0.41800000000E+01 0. -1.
         -5    1    3    3    0  502 -0.18573674863E+02  0.88245865406E+02  0.26434153638E+03  0.27933176406E+03  0.41800000000E+01 0. -1.
        -11    1    1    2    0    0  0.21335677934E+02 -0.26003129411E+02  0.61479256048E+01  0.34193140851E+02  0.00000000000E+00 0.  1.
         11    1    1    2    0    0 -0.38971446643E+02 -0.35894423022E+02  0.14033752339E+03  0.15000601231E+03  0.00000000000E+00 0. -1.
</event>
<event>
 7    1  0.2670433E-009  0.9321063E+02  0.7561462E-02  0.1295258E+00
         -1   -1    0    0    0  501 -0.00000000000E+00  0.00000000000E+00  0.66803508435E+02  0.66803508435E+02  0.00000000000E+00 0.  1.
          1   -1    0    0  501    0  0.00000000000E+00 -0.00000000000E+00 -0.21725129496E+03  0.21725129496E+03  0.00000000000E+00 0. -1.
         25    2    1    2    0    0 -0.29569925445E+02 -0.23977244911E+02 -0.14031521548E+03  0.19179359590E+03  0.12508850855E+03 0.  0.
          5    1    3    3  502    0 -0.40735543377E+01  0.47509588866E+02 -0.85814289018E+02  0.98261485226E+02  0.41800000000E+01 0.  1.
         -5    1    3    3    0  502 -0.25496371107E+02 -0.71486833777E+02 -0.54500926458E+02  0.93532110678E+02  0.41800000000E+01 0.  1.
        -11    1    1    2    0    0  0.87664681030E+00  0.32576130710E+02 -0.38889114041E+02  0.50737914744E+02  0.00000000000E+00 0. -1.
         11    1    1    2    0    0  0.28693278635E+02 -0.85988857990E+01  0.28756542992E+02  0.41523292748E+02  0.00000000000E+00 0.  1.
</event>
<event>
 7    1  0.2670433E-009  0.2190597E+03  0.7561462E-02  0.1134586E+00
          2   -1    0    0  501    0  0.00000000000E+00  0.00000000000E+00  0.11805112290E+03  0.11805112290E+03  0.00000000000E+00 0. -1.
         -2   -1    0    0    0  501 -0.00000000000E+00 -0.00000000000E+00 -0.46285609600E+03  0.46285609600E+03  0.00000000000E+00 0.  1.
         25    2    1    2    0    0 -0.16535073320E+03 -0.11833492345E+03 -0.23417539757E+03  0.33441021721E+03  0.12509219587E+03 0.  0.
          5    1    3    3  502    0  0.82641633923E+01 -0.19906832784E+02 -0.77786140841E+02  0.80825333250E+02  0.41800000000E+01 0. -1.
         -5    1    3    3    0  502 -0.17361489659E+03 -0.98428090663E+02 -0.15638925673E+03  0.25358488396E+03  0.41800000000E+01 0. -1.
        -11    1    1    2    0    0  0.12500669932E+03  0.12367738688E+03 -0.10651726792E+03  0.20559352924E+03  0.00000000000E+00 0.  1.
         11    1    1    2    0    0  0.40344033883E+02 -0.53424634304E+01 -0.41123076148E+01  0.40903472461E+02  0.00000000000E+00 0. -1.
</event>
<event>
 7    1  0.2670433E-009  0.1140582E+03  0.7561462E-02  0.1253234E+00
          1   -1    0    0  501    0  0.00000000000E+00  0.00000000000E+00  0.43907198891E+03  0.43907198891E+03  0.00000000000E+00 0. -1.
         -1   -1    0    0    0  501 -0.00000000000E+00 -0.00000000000E+00 -0.32171961583E+02  0.32171961583E+02  0.00000000000E+00 0.  1.
         25    2    1    2    0    0 -0.31226231975E+02  0.23069253344E+02  0.28499010993E+03  0.31364701213E+03  0.12509123650E+03 0.  0.
          5    1    3    3  502    0 -0.78138169897E+02  0.26433618424E+02  0.16054071997E+03  0.18054114475E+03  0.41800000000E+01 0.  1.
         -5    1    3    3    0  502  0.46911937922E+02 -0.33643650804E+01  0.12444938996E+03  0.13310586739E+03  0.41800000000E+01 0.  1.
        -11    1    1    2    0    0 -0.28729941413E+02 -0.25335825279E+02  0.61504364436E+02  0.72457576697E+02  0.00000000000E+00 0.  1.
         11    1    1    2    0    0  0.59956173388E+02  0.22665719351E+01  0.60405552964E+02  0.85139361664E+02  0.00000000000E+00 0. -1.
</event>
<event>
 7    1  0.2670433E-009  0.1286597E+03  0.7561462E-02  0.1229458E+00
          2   -1    0    0  501    0  0.00000000000E+00  0.00000000000E+00  0.79013659411E+03  0.79013659411E+03  0.00000000000E+00 0. -1.
         -2   -1    0    0    0  501 -0.00000000000E+00 -0.00000000000E+00 -0.24414753361E+02  0.24414753361E+02  0.00000000000E+00 0.  1.
         25    2    1    2    0    0 -0.74904486742E+02 -0.37951606631E+02  0.47944772761E+03  0.50256180737E+03  0.12508892889E+03 0.  0.
          5    1    3    3  502    0 -0.71333946787E+01 -0.61023241763E+02  0.34231705675E+03  0.34781196227E+03  0.41800000000E+01 0. -1.
         -5    1    3    3    0  502 -0.67771092064E+02  0.23071635132E+02  0.13713067087E+03  0.15474984510E+03  0.41800000000E+01 0. -1.
        -11    1    1    2    0    0 -0.20512506535E+02  0.16257715584E+02  0.61930363134E+02  0.67234262978E+02  0.00000000000E+00 0. -1.
         11    1    1    2    0    0  0.95416993277E+02  0.21693891047E+02  0.22434375000E+03  0.24475527712E+03  0.00000000000E+00 0.  1.
</event>
<event>
 7    1  0.2670433E-009  0.7386137E+02  0.7561462E-02  0.1347434E+00
          3   -1    0    0  501    0  0.00000000000E+00  0.00000000000E+00  0.10631334537E+03  0.10631334537E+03  0.00000000000E+00 0. -1.
         -3   -1    0    0    0  501 -0.00000000000E+00 -0.00000000000E+00 -0.11946807090E+03  0.11946807090E+03  0.00000000000E+00 0.  1.
         25    2    1    2    0    0 -0.19734183299E+02  0.20453654141E+02  0.39190698815E+01  0.12833798056E+03  0.12508992041E+03 0.  0.
          5    1    3    3  502    0  0.13882222859E+02  0.11171020892E+02  0.59687351073E+02  0.62430442073E+02  0.41800000000E+01 0. -1.
         -5    1    3    3    0  502 -0.33616406158E+02  0.92826332487E+01 -0.55768281192E+02  0.65907538492E+02  0.41800000000E+01 0. -1.
        -11    1    1    2    0    0 -0.72702665368E+01  0.33330026560E+02  0.23753734585E+01  0.34196342569E+02  0.00000000000E+00 0. -1.
         11    1    1    2    0    0  0.27004449836E+02 -0.53783680701E+02 -0.19449168872E+02  0.63247093138E+02  0.00000000000E+00 0.  1.
</event>
<event>
 7    1  0.2670433E-009  0.1262817E+03  0.7561462E-02  0.1233080E+00
         -1   -1    0    0    0  501 -0.00000000000E+00  0.00000000000E+00  0.14579914636E+03  0.14579914636E+03  0.00000000000E+00 0.  1.
          1   -1    0    0  501    0  0.00000000000E+00 -0.00000000000E+00 -0.19120551458E+03  0.19120551458E+03  0.00000000000E+00 0. -1.
         25    2    1    2    0    0  0.98819952428E+02 -0.43159404651E+02 -0.89735223821E+02  0.18795146300E+03  0.12508087321E+03 0.  0.
          5    1    3    3  502    0  0.84753261757E+02 -0.28371948258E+02  0.62878457265E+01  0.89694438124E+02  0.41800000000E+01 0.  1.
         -5    1    3    3    0  502  0.14066690671E+02 -0.14787456393E+02 -0.96023069547E+02  0.98257024880E+02  0.41800000000E+01 0.  1.
        -11    1    1    2    0    0 -0.83521933935E+02  0.71568364231E+02  0.35955252465E+02  0.11571829755E+03  0.00000000000E+00 0.  1.
         11    1    1    2    0    0 -0.15298018493E+02 -0.28408959580E+02  0.83736031311E+01  0.33334900385E+02  0.00000000000E+00 0. -1.
</event>
<event>
 7    1  0.2670433E-009  0.5186418E+02  0.7561462E-02  0.1435538E+00
          2   -1    0    0  501    0  0.00000000000E+00  0.00000000000E+00  0.11141103890E+03  0.11141103890E+03  0.00000000000E+00 0. -1.
         -2   -1    0    0    0  501 -0.00000000000E+00 -0.00000000000E+00 -0.10503494760E+03  0.10503494760E+03  0.00000000000E+00 0.  1.
         25    2    1    2    0    0 -0.40008411835E+00  0.70252268290E+01 -0.18440773784E+02  0.12664120504E+03  0.12509364012E+03 0.  0.
          5    1    3    3  502    0  0.13047983131E+02 -0.34131949530E+01  0.52087363407E+02  0.53967264061E+02  0.41800000000E+01 0.  1.
         -5    1    3    3    0  502 -0.13448067249E+02  0.10438421782E+02 -0.70528137191E+02  0.72673940981E+02  0.41800000000E+01 0.  1.
        -11    1    1    2    0    0  0.26043772739E+02 -0.28517118657E+02 -0.11625765303E+02  0.40331905160E+02  0.00000000000E+00 0.  1.
         11    1    1    2    0    0 -0.25643688620E+02  0.21491891828E+02  0.36442630385E+02  0.49472876304E+02  0.00000000000E+00 0. -1.
</event>
<event>
 7    1  0.2670433E-009  0.2757632E+03  0.7561462E-02  0.1098026E+00
         -4   -1    0    0    0  501 -0.00000000000E+00  0.00000000000E+00  0.87142751486E+02  0.87142751486E+02  0.00000000000E+00 0.  1.
          4   -1    0    0  501    0  0.00000000000E+00 -0.00000000000E+00 -0.88319153475E+03  0.88319153475E+03  0.00000000000E+00 0. -1.
         25    2    1    2    0    0  0.14560188206E+03  0.20852568416E+03 -0.37113881150E+03  0.46698466697E+03  0.12509113785E+03 0.  0.
          5    1    3    3  502    0  0.11865260704E+03  0.64152950562E+02 -0.15340176254E+03  0.20431254336E+03  0.41800000000E+01 0. -1.
         -5    1    3    3    0  502  0.26949275015E+02  0.14437273360E+03 -0.21773704895E+03  0.26267212360E+03  0.41800000000E+01 0. -1.
        -11    1    1    2    0    0 -0.16300489729E+02  0.74541868311E+01 -0.23819575422E+02  0.29810116404E+02  0.00000000000E+00 0.  1.
         11    1    1    2    0    0 -0.12930139233E+03 -0.21597987099E+03 -0.40109039634E+03  0.47353950286E+03  0.00000000000E+00 0. -1.
</event>
<event>
 7    1  0.2670433E-009  0.1357042E+03  0.7561462E-02  0.1219229E+00
          2   -1    0    0  501    0  0.00000000000E+00  0.00000000000E+00  0.45896769937E+03  0.45896769937E+03  0.00000000000E+00 0. -1.
         -2   -1    0    0    0  501 -0.00000000000E+00 -0.00000000000E+00 -0.48164963930E+02  0.48164963930E+02  0.00000000000E+00 0.  1.
         25    2    1    2    0    0  0.90048189505E+02  0.18443296560E+02  0.14629128492E+03  0.21330051560E+03  0.12508852181E+03 0.  0.
          5    1    3    3  502    0  0.11921562240E+03  0.22023572437E+02  0.95151579708E+02  0.15417100210E+03  0.41800000000E+01 0.  1.
         -5    1    3    3    0  502 -0.29167432898E+02 -0.35802758767E+01  0.51139705210E+02  0.59129513496E+02  0.41800000000E+01 0.  1.
        -11    1    1    2    0    0 -0.99130054853E+02  0.81020026208E+00  0.24739051526E+03  0.26651358547E+03  0.00000000000E+00 0. -1.
         11    1    1    2    0    0  0.90818653477E+01 -0.19253496823E+02  0.17120935255E+02  0.27318562226E+02  0.00000000000E+00 0.  1.
</event>
<event>
 7    1  0.2670433E-009  0.1455073E+03  0.7561462E-02  0.1206105E+00
         -1   -1    0    0    0  501 -0.00000000000E+00  0.00000000000E+00  0.97841497884E+02  0.97841497884E+02  0.00000000000E+00 0.  1.
          1   -1    0    0  501    0  0.00000000000E+00 -0.00000000000E+00 -0.30222494512E+03  0.30222494512E+03  0.00000000000E+00 0. -1.
         25    2    1    2    0    0  0.37362959648E+02  0.10649197868E+03 -0.19145960083E+03  0.25503039494E+03  0.12508873377E+03 0.  0.
          5    1    3    3  502    0  0.24053153204E+02 -0.24309823829E+02 -0.23564224136E+02  0.41740469245E+02  0.41800000000E+01 0. -1.
         -5    1    3    3    0  502  0.13309806443E+02  0.13080180251E+03 -0.16789537669E+03  0.21328992569E+03  0.41800000000E+01 0. -1.
        -11    1    1    2    0    0  0.95747226128E+01 -0.52976904185E+02  0.30281360106E+02  0.61767211852E+02  0.00000000000E+00 0.  1.
         11    1    1    2    0    0 -0.46937682260E+02 -0.53515074498E+02 -0.43205206517E+02  0.83268836215E+02  0.00000000000E+00 0. -1.
</event>
<event>
 7    1  0.2670433E-009  0.9130068E+02  0.7561462E-02  0.1299732E+00
         -4   -1    0    0    0  501 -0.00000000000E+00  0.00000000000E+00  0.54332609025E+02  0.54332609025E+02  0.00000000000E+00 0.  1.
          4   -1    0    0  501    0  0.00000000000E+00 -0.00000000000E+00 -0.23698401799E+03  0.23698401799E+03  0.00000000000E+00 0. -1.
         25    2    1    2    0    0 -0.75879451900E+01  0.27579892423E+02 -0.78929982545E+02  0.15064797525E+03  0.12508654174E+03 0.  0.
          5    1    3    3  502    0 -0.42318977667E+02 -0.98179463266E+00  0.16061649584E+02  0.45467667400E+02  0.41800000000E+01 0.  1.
         -5    1    3    3    0  502  0.34731032477E+02  0.28561687056E+02 -0.94991632129E+02  0.10518030785E+03  0.41800000000E+01 0.  1.
        -11    1    1    2    0    0  0.41562924966E+02 -0.40993311414E+02 -0.67201854840E+02  0.89016951230E+02  0.00000000000E+00 0.  1.
         11    1    1    2    0    0 -0.33974979776E+02  0.13413418991E+02 -0.36519571578E+02  0.51651700534E+02  0.00000000000E+00 0. -1.
</event>
<event>
 7    1  0.2670433E-009  0.1077383E+03  0.7561462E-02  0.1264816E+00
          2   -1    0    0  501    0  0.00000000000E+00  0.00000000000E+00  0.70705556183E+03  0.70705556183E+03  0.00000000000E+00 0. -1.
         -2   -1    0    0    0  501 -0.00000000000E+00 -0.00000000000E+00 -0.20087383018E+02  0.20087383018E+02  0.00000000000E+00 0.  1.
         25    2    1    2    0    0 -0.13604699756E+02  0.42702327061E+02  0.33898696427E+03  0.36410027304E+03  0.12509304652E+03 0.  0.
          5    1    3    3  502    0  0.46841482241E+02  0.43176057416E+01  0.22126549045E+03  0.22624910131E+03  0.41800000000E+01 0.  1.
         -5    1    3    3    0  502 -0.60446181997E+02  0.38384721320E+02  0.11772147382E+03  0.13785117173E+03  0.41800000000E+01 0.  1.
        -11    1    1    2    0    0  0.40109860461E+02 -0.54371401034E+02  0.29525113426E+03  0.30288328187E+03  0.00000000000E+00 0. -1.
         11    1    1    2    0    0 -0.26505160705E+02  0.11669073972E+02  0.52730080282E+02  0.60159389939E+02  0.00000000000E+00 0.  1.
</event>
<event>
 7    1  0.2670433E-009  0.1421974E+03  0.7561462E-02  0.1210402E+00
         -2   -1    0    0    0  501 -0.00000000000E+00  0.00000000000E+00  0.46925236444E+02  0.46925236444E+02  0.00000000000E+00 0.  1.
          2   -1    0    0  501    0  0.00000000000E+00 -0.00000000000E+00 -0.54833971779E+03  0.54833971779E+03  0.00000000000E+00 0. -1.
         25    2    1    2    0    0  0.89809275073E+02 -0.75842370304E+02 -0.25424022229E+03  0.30676246909E+03  0.12508937121E+03 0.  0.
          5    1    3    3  502    0  0.57334416085E+02 -0.10135807606E+03 -0.23211841352E+03  0.25972509533E+03  0.41800000000E+01 0.  1.
         -5    1    3    3    0  502  0.32474858988E+02  0.25515705756E+02 -0.22121808767E+02  0.47037373754E+02  0.41800000000E+01 0.  1.
        -11    1    1    2    0    0 -0.50951321146E+02  0.70722509815E+02 -0.85326751390E+02  0.12197690365E+03  0.00000000000E+00 0.  1.
         11    1    1    2    0    0 -0.38857953927E+02  0.51198604883E+01 -0.16184750766E+03  0.16652558149E+03  0.00000000000E+00 0. -1.
</event>
<event>
 7    1  0.2670433E-009  0.9173138E+02  0.7561462E-02  0.1298712E+00
          2   -1    0    0  501    0  0.00000000000E+00  0.00000000000E+00  0.21183679352E+03  0.21183679352E+03  0.00000000000E+00 0. -1.
         -2   -1    0    0    0  501 -0.00000000000E+00 -0.00000000000E+00 -0.77011594368E+02  0.77011594368E+02  0.00000000000E+00 0.  1.
         25    2    1    2    0    0 -0.36120426130E+02 -0.52125868803E+02  0.67079463612E+02  0.15546369623E+03  0.12509002768E+03 0.  0.
          5    1    3    3  502    0 -0.30877306132E+01  0.13826554894E+02  0.79226005571E+02  0.80591190954E+02  0.41800000000E+01 0. -1.
         -5    1    3    3    0  502 -0.33032695517E+02 -0.65952423696E+02 -0.12146541959E+02  0.74872505274E+02  0.41800000000E+01 0. -1.
        -11    1    1    2    0    0  0.57596259994E+02  0.40293038254E+02  0.10451375411E+02  0.71063980644E+02  0.00000000000E+00 0.  1.
         11    1    1    2    0    0 -0.21475833864E+02  0.11832830549E+02  0.57294360131E+02  0.62320711017E+02  0.00000000000E+00 0. -1.
</event>
<event>
 7    1  0.2670433E-009  0.1219485E+03  0.7561462E-02  0.1239917E+00
          2   -1    0    0  501    0  0.00000000000E+00  0.00000000000E+00  0.40393731477E+03  0.40393731477E+03  0.00000000000E+00 0. -1.
         -2   -1    0    0    0  501 -0.00000000000E+00 -0.00000000000E+00 -0.54596847986E+02  0.54596847986E+02  0.00000000000E+00 0.  1.
         25    2    1    2    0    0 -0.85468832432E+02 -0.60362724569E+02  0.22946542322E+03  0.28151305767E+03  0.12508653545E+03 0.  0.
          5    1    3    3  502    0 -0.26777500030E+01 -0.49273770650E+02  0.17460120745E+03  0.18148864664E+03  0.41800000000E+01 0. -1.
         -5    1    3    3    0  502 -0.82791082429E+02 -0.11088953919E+02  0.54864215776E+02  0.10002441103E+03  0.41800000000E+01 0. -1.
        -11    1    1    2    0    0  0.43456140977E+02  0.52233805026E+02  0.11550290045E+03  0.13400644234E+03  0.00000000000E+00 0. -1.
         11    1    1    2    0    0  0.42012691455E+02  0.81289195427E+01  0.43721431197E+01  0.43014662752E+02  0.00000000000E+00 0.  1.
</event>
<event>
 7    1  0.2670433E-009  0.1001505E+03  0.7561462E-02  0.1279980E+00
          1   -1    0    0  501    0  0.00000000000E+00  0.00000000000E+00  0.27627363290E+02  0.27627363290E+02  0.00000000000E+00 0. -1.
         -1   -1    0    0    0  501 -0.00000000000E+00 -0.00000000000E+00 -0.56465410033E+03  0.56465410033E+03  0.00000000000E+00 0.  1.
         25    2    1    2    0    0 -0.24947763596E+02  0.82593535755E+01 -0.16950657545E+03  0.21228694553E+03  0.12507062121E+03 0.  0.
          5    1    3    3  502    0  0.26226687737E+02  0.36515969367E+02 -0.13913507607E+03  0.14627814929E+03  0.41800000000E+01 0.  1.
         -5    1    3    3    0  502 -0.51174451333E+02 -0.28256615791E+02 -0.30371499382E+02  0.66008796231E+02  0.41800000000E+01 0.  1.
        -11    1    1    2    0    0 -0.82981553406E+01 -0.45713830720E+02 -0.17275452645E+03  0.17889309687E+03  0.00000000000E+00 0.  1.
         11    1    1    2    0    0  0.33245918936E+02  0.37454477145E+02 -0.19476563514E+03  0.20110142122E+03  0.00000000000E+00 0. -1.
</event>
<event>
 7    1  0.2670433E-009  0.2089357E+03  0.7561462E-02  0.1142412E+00
         -2   -1    0    0    0  501 -0.00000000000E+00  0.00000000000E+00  0.86627281239E+02  0.86627281239E+02  0.00000000000E+00 0.  1.
          2   -1    0    0  501    0  0.00000000000E+00 -0.00000000000E+00 -0.61348580613E+03  0.61348580613E+03  0.00000000000E+00 0. -1.
         25    2    1    2    0    0 -0.20062864910E+03 -0.28740190240E+02 -0.22428045865E+03  0.32714926546E+03  0.12508822641E+03 0.  0.
          5    1    3    3  502    0 -0.18982746373E+03 -0.16324519145E+02 -0.12843831047E+03  0.22981476869E+03  0.41800000000E+01 0.  1.
         -5    1    3    3    0  502 -0.10801185371E+02 -0.12415671095E+02 -0.95842148183E+02  0.97334496775E+02  0.41800000000E+01 0.  1.
        -11    1    1    2    0    0  0.72019200868E+02  0.37900525235E+02 -0.71415934068E+02  0.10827488511E+03  0.00000000000E+00 0.  1.
         11    1    1    2    0    0  0.12860944823E+03 -0.91603349955E+01 -0.23116213217E+03  0.26468893679E+03  0.00000000000E+00 0. -1.
</event>
<event>
 7    1  0.2670433E-009  0.1019194E+03  0.7561462E-02  0.1276311E+00
          2   -1    0    0  501    0  0.00000000000E+00  0.00000000000E+00  0.20453381342E+03  0.20453381342E+03  0.00000000000E+00 0. -1.
         -2   -1    0    0    0  501 -0.00000000000E+00 -0.00000000000E+00 -0.66933016301E+02  0.66933016301E+02  0.00000000000E+00 0.  1.
         25    2    1    2    0    0 -0.32372002797E+01  0.63254829660E+01  0.12442443857E+03  0.17657830942E+03  0.12509183525E+03 0.  0.
          5    1    3    3  502    0  0.12176788127E+02 -0.50324974914E+02  0.18025183798E+02  0.54984151536E+02  0.41800000000E+01 0.  1.
         -5    1    3    3    0  502 -0.15413988407E+02  0.56650457880E+02  0.10639925477E+03  0.12159415789E+03  0.41800000000E+01 0.  1.
        -11    1    1    2    0    0 -0.42775409380E+02 -0.16608915508E+02  0.13175376174E+02  0.47740781930E+02  0.00000000000E+00 0. -1.
         11    1    1    2    0    0  0.46012609659E+02  0.10283432542E+02  0.98237948621E-03  0.47147738371E+02  0.00000000000E+00 0.  1.
</event>
<event>
 7    1  0.2670433E-009  0.1063167E+03  0.7561462E-02  0.1267547E+00
         -1   -1    0    0    0  501 -0.00000000000E+00  0.00000000000E+00  0.23104840353E+02  0.23104840353E+02  0.00000000000E+00 0.  1.
          1   -1    0    0  501    0  0.00000000000E+00 -0.00000000000E+00 -0.55080919699E+03  0.55080919699E+03  0.00000000000E+00 0. -1.
         25    2    1    2    0    0 -0.82520524723E+01 -0.26645931103E+02 -0.32426371418E+03  0.34867188277E+03  0.12508806294E+03 0.  0.
          5    1    3    3  502    0 -0.33069164534E+02  0.36082258566E+02 -0.69580448173E+02  0.85172825444E+02  0.41800000000E+01 0.  1.
         -5    1    3    3    0  502  0.24817112062E+02 -0.62728189669E+02 -0.25468326600E+03  0.26349905733E+03  0.41800000000E+01 0.  1.
        -11    1    1    2    0    0 -0.41902301803E+02  0.10007137998E+02 -0.10547142583E+03  0.11393053749E+03  0.00000000000E+00 0.  1.
         11    1    1    2    0    0  0.50154354276E+02  0.16638793106E+02 -0.97969216631E+02  0.11131161708E+03  0.00000000000E+00 0. -1.
</event>
<event>
 7    1  0.2670433E-009  0.1033185E+03  0.7561462E-02  0.1273468E+00
         -2   -1    0    0    0  501 -0.00000000000E+00  0.00000000000E+00  0.16319421384E+02  0.16319421384E+02  0.00000000000E+00 0.  1.
          2   -1    0    0  501    0  0.00000000000E+00 -0.00000000000E+00 -0.97138561192E+03  0.97138561192E+03  0.00000000000E+00 0. -1.
         25    2    1    2    0    0  0.11358012924E+02  0.58713592490E+02 -0.53312939670E+03  0.55086362960E+03  0.12508994523E+03 0.  0.
          5    1    3    3  502    0 -0.45154934330E+02  0.11694113221E+02 -0.88004958239E+02  0.99689846289E+02  0.41800000000E+01 0.  1.
         -5    1    3    3    0  502  0.56512947254E+02  0.47019479270E+02 -0.44512443846E+03  0.45117378331E+03  0.41800000000E+01 0.  1.
        -11    1    1    2    0    0 -0.90459721876E+01  0.12217760068E+02 -0.86199101915E+01  0.17475872671E+02  0.00000000000E+00 0.  1.
         11    1    1    2    0    0 -0.23120407364E+01 -0.70931352559E+02 -0.41331688365E+03  0.41936553103E+03  0.00000000000E+00 0. -1.
</event>
<event>
 7    1  0.2670433E-009  0.8668690E+02  0.7561462E-02  0.1311079E+00
         -1   -1    0    0    0  501 -0.00000000000E+00  0.00000000000E+00  0.16334623523E+03  0.16334623523E+03  0.00000000000E+00 0.  1.
          1   -1    0    0  501    0  0.00000000000E+00 -0.00000000000E+00 -0.15030111198E+03  0.15030111198E+03  0.00000000000E+00 0. -1.
         25    2    1    2    0    0  0.93611332774E+01 -0.18007687842E+02 -0.10625638898E+03  0.16538424050E+03  0.12509843792E+03 0.  0.
          5    1    3    3  502    0  0.72967852716E+01 -0.55889058577E+02 -0.44902489343E+01  0.56696249253E+02  0.41800000000E+01 0.  1.
         -5    1    3    3    0  502  0.20643480058E+01  0.37881370734E+02 -0.10176614005E+03  0.10868799125E+03  0.41800000000E+01 0.  1.
        -11    1    1    2    0    0 -0.30029635155E+02 -0.19540586800E+02  0.88515905376E+02  0.95491774644E+02  0.00000000000E+00 0. -1.
         11    1    1    2    0    0  0.20668501878E+02  0.37548274643E+02  0.30785606853E+02  0.52771332064E+02  0.00000000000E+00 0.  1.
</event>
<event>
 7    1  0.2670433E-009  0.1362756E+03  0.7561462E-02  0.1218430E+00
         -4   -1    0    0    0  501 -0.00000000000E+00  0.00000000000E+00  0.35753238589E+03  0.35753238589E+03  0.00000000000E+00 0.  1.
          4   -1    0    0  501    0  0.00000000000E+00 -0.00000000000E+00 -0.59728305570E+02  0.59728305570E+02  0.00000000000E+00 0. -1.
         25    2    1    2    0    0 -0.47236677086E+02 -0.89574490351E+02  0.17328436956E+03  0.23649494813E+03  0.12508994673E+03 0.  0.
          5    1    3    3  502    0  0.30321341013E+02 -0.47947511767E+01  0.88126984180E+02  0.93414191108E+02  0.41800000000E+01 0. -1.
         -5    1    3    3    0  502 -0.77558018098E+02 -0.84779739174E+02  0.85157385383E+02  0.14308075703E+03  0.41800000000E+01 0. -1.
        -11    1    1    2    0    0  0.58793323519E+02  0.30189861242E+02  0.41498311010E+02  0.78039684962E+02  0.00000000000E+00 0. -1.
         11    1    1    2    0    0 -0.11556646434E+02  0.59384629108E+02  0.83021399744E+02  0.10272605836E+03  0.00000000000E+00 0.  1.
</event>
<event>
 7    1  0.2670433E-009  0.8981400E+02  0.7561462E-02  0.1303303E+00
         -2   -1    0    0    0  501 -0.00000000000E+00  0.00000000000E+00  0.28916063366E+03  0.28916063366E+03  0.00000000000E+00 0.  1.
          2   -1    0    0  501    0  0.00000000000E+00 -0.00000000000E+00 -0.61366841527E+02  0.61366841527E+02  0.00000000000E+00 0. -1.
         25    2    1    2    0    0  0.18885355554E+02 -0.39389682815E+02  0.20636540805E+03  0.24523963448E+03  0.12509033901E+03 0.  0.
          5    1    3    3  502    0 -0.15180457912E+02  0.38430485895E+02  0.10502085245E+03  0.11293449605E+03  0.41800000000E+01 0. -1.
         -5    1    3    3    0  502  0.34065813466E+02 -0.77820168710E+02  0.10134455561E+03  0.13230513843E+03  0.41800000000E+01 0. -1.
        -11    1    1    2    0    0  0.76181069929E+01  0.15896003343E+02  0.54224738253E+02  0.57017898199E+02  0.00000000000E+00 0.  1.
         11    1    1    2    0    0 -0.26503462547E+02  0.23493679472E+02 -0.32796354176E+02  0.48269942504E+02  0.00000000000E+00 0. -1.
</event>
<event>
 7    1  0.2670433E-009  0.1071353E+03  0.7561462E-02  0.1265969E+00
         -3   -1    0    0    0  501 -0.00000000000E+00  0.00000000000E+00  0.10578529211E+03  0.10578529211E+03  0.00000000000E+00 0.  1.
          3   -1    0    0  501    0  0.00000000000E+00 -0.00000000000E+00 -0.14442255833E+03  0.14442255833E+03  0.00000000000E+00 0. -1.
         25    2    1    2    0    0  0.26011153847E+02  0.31391797662E+02 -0.66939079827E+02  0.14761800709E+03  0.12509280764E+03 0.  0.
          5    1    3    3  502    0  0.55576114360E+02 -0.17470498008E+02 -0.68895187534E+02  0.90321326681E+02  0.41800000000E+01 0. -1.
         -5    1    3    3    0  502 -0.29564960513E+02  0.48862295670E+02  0.19561077079E+01  0.57296680407E+02  0.41800000000E+01 0. -1.
        -11    1    1    2    0    0 -0.36240972706E+01  0.31569726139E+02  0.97524073260E+01  0.33239902800E+02  0.00000000000E+00 0.  1.
         11    1    1    2    0    0 -0.22387056577E+02 -0.62961523801E+02  0.18549406277E+02  0.69349940553E+02  0.00000000000E+00 0. -1.
</event>
<event>
 7    1  0.2670433E-009  0.8530739E+02  0.7561462E-02  0.1314631E+00
         -1   -1    0    0    0  501 -0.00000000000E+00  0.00000000000E+00  0.25949541810E+03  0.25949541810E+03  0.00000000000E+00 0.  1.
          1   -1    0    0  501    0  0.00000000000E+00 -0.00000000000E+00 -0.54665385911E+02  0.54665385911E+02  0.00000000000E+00 0. -1.
         25    2    1    2    0    0  0.73307263812E+01  0.38752345895E+02  0.15701410378E+03  0.20458801896E+03  0.12508934749E+03 0.  0.
          5    1    3    3  502    0  0.19195680697E+01  0.71688542807E+02  0.38725172356E+02  0.81609088252E+02  0.41800000000E+01 0. -1.
         -5    1    3    3    0  502  0.54111583115E+01 -0.32936196912E+02  0.11828893143E+03  0.12297893071E+03  0.41800000000E+01 0. -1.
        -11    1    1    2    0    0  0.17300781897E+02 -0.36516520049E+02 -0.14181616340E+02  0.42823959798E+02  0.00000000000E+00 0. -1.
         11    1    1    2    0    0 -0.24631508279E+02 -0.22358258463E+01  0.61997544745E+02  0.66748825246E+02  0.00000000000E+00 0.  1.
</event>
<event>
 7    1  0.2670433E-009  0.1071749E+03  0.7561462E-02  0.1265893E+00
         -2   -1    0    0    0  501 -0.00000000000E+00  0.00000000000E+00  0.12995931944E+04  0.12995931944E+04  0.00000000000E+00 0.  1.
          2   -1    0    0  501    0  0.00000000000E+00 -0.00000000000E+00 -0.11829470124E+02  0.11829470124E+02  0.00000000000E+00 0. -1.
         25    2    1    2    0    0 -0.27266227969E+02  0.13266804520E+02  0.58492228253E+03  0.59891639967E+03  0.12508925576E+03 0.  0.
          5    1    3    3  502    0 -0.58966749549E+02  0.23801900712E+02  0.15377446457E+03  0.16645619960E+03  0.41800000000E+01 0.  1.
         -5    1    3    3    0  502  0.31700521580E+02 -0.10535096192E+02  0.43114781796E+03  0.43246020007E+03  0.41800000000E+01 0.  1.
        -11    1    1    2    0    0  0.10956213256E+02 -0.63347436117E+02  0.38584518572E+03  0.39116421566E+03  0.00000000000E+00 0. -1.
         11    1    1    2    0    0  0.16310014713E+02  0.50080631598E+02  0.31699625601E+03  0.32134204917E+03  0.00000000000E+00 0.  1.
</event>
<event>
 7    1  0.2670433E-009  0.1078843E+03  0.7561462E-02  0.1264539E+00
         -2   -1    0    0    0  501 -0.00000000000E+00  0.00000000000E+00  0.20920462630E+02  0.20920462630E+02  0.00000000000E+00 0.  1.
          2   -1    0    0  501    0  0.00000000000E+00 -0.00000000000E+00 -0.62650934368E+03  0.62650934368E+03  0.00000000000E+00 0. -1.
         25    2    1    2    0    0 -0.29893279691E+02  0.24487066389E+02 -0.36807284849E+03  0.39066347543E+03  0.12508838736E+03 0.  0.
          5    1    3    3  502    0 -0.20247549646E+02 -0.44381720779E+02 -0.23926176294E+03  0.24421990912E+03  0.41800000000E+01 0. -1.
         -5    1    3    3    0  502 -0.96457300450E+01  0.68868787168E+02 -0.12881108555E+03  0.14644356631E+03  0.41800000000E+01 0. -1.
        -11    1    1    2    0    0 -0.22059153440E+02  0.19213121897E+02 -0.61195883768E+02  0.67828360541E+02  0.00000000000E+00 0.  1.
         11    1    1    2    0    0  0.51952433131E+02 -0.43700188286E+02 -0.17632014880E+03  0.18893797034E+03  0.00000000000E+00 0. -1.
</event>
<event>
 7    1  0.2670433E-009  0.1508832E+03  0.7561462E-02  0.1199392E+00
          2   -1    0    0  501    0  0.00000000000E+00  0.00000000000E+00  0.67818728744E+03  0.67818728744E+03  0.00000000000E+00 0. -1.
         -2   -1    0    0    0  501 -0.00000000000E+00 -0.00000000000E+00 -0.37444270888E+02  0.37444270888E+02  0.00000000000E+00 0.  1.
         25    2    1    2    0    0 -0.32158141635E+02 -0.10931868364E+03  0.38319567239E+03  0.41889253835E+03  0.12508922689E+03 0.  0.
          5    1    3    3  502    0  0.44328139718E+02 -0.13899862219E+02  0.96762436809E+02  0.10741802324E+03  0.41800000000E+01 0.  1.
         -5    1    3    3    0  502 -0.76486281353E+02 -0.95418821422E+02  0.28643323558E+03  0.31147451511E+03  0.41800000000E+01 0.  1.
        -11    1    1    2    0    0  0.53246651479E+02  0.87414688963E+02  0.24163865939E+03  0.26242289430E+03  0.00000000000E+00 0. -1.
         11    1    1    2    0    0 -0.21088509844E+02  0.21903994679E+02  0.15908684774E+02  0.34316125678E+02  0.00000000000E+00 0.  1.
</event>
<event>
 7    1  0.2670433E-009  0.8985771E+02  0.7561462E-02  0.1303197E+00
          1   -1    0    0  501    0  0.00000000000E+00  0.00000000000E+00  0.82136189128E+02  0.82136189128E+02  0.00000000000E+00 0. -1.
         -1   -1    0    0    0  501 -0.00000000000E+00 -0.00000000000E+00 -0.20818560443E+03  0.20818560443E+03  0.00000000000E+00 0.  1.
         25    2    1    2    0    0  0.23459654418E+02 -0.47127770850E+02 -0.14514686411E+02  0.13649007633E+03  0.12508989825E+03 0.  0.
          5    1    3    3  502    0  0.70035312041E-01  0.30643985882E+02  0.30588489298E+02  0.43499274169E+02  0.41800000000E+01 0.  1.
         -5    1    3    3    0  502  0.23389619106E+02 -0.77771756732E+02 -0.45103175709E+02  0.92990802159E+02  0.41800000000E+01 0.  1.
        -11    1    1    2    0    0  0.12303012002E+02  0.14928873925E+02 -0.10319465022E+03  0.10499224360E+03  0.00000000000E+00 0.  1.
         11    1    1    2    0    0 -0.35762666419E+02  0.32198896925E+02 -0.83400786687E+01  0.48839473634E+02  0.00000000000E+00 0. -1.
</event>
<event>
 7    1  0.2670433E-009  0.1237635E+03  0.7561462E-02  0.1237014E+00
         -1   -1    0    0    0  501 -0.00000000000E+00  0.00000000000E+00  0.68831314282E+02  0.68831314282E+02  0.00000000000E+00 0.  1.
          1   -1    0    0  501    0  0.00000000000E+00 -0.00000000000E+00 -0.25643992419E+03  0.25643992419E+03  0.00000000000E+00 0. -1.
         25    2    1    2    0    0 -0.71534629938E+02 -0.15861301701E+02 -0.13034711690E+03  0.19495640301E+03  0.12509533971E+03 0.  0.
          5    1    3    3  502    0 -0.36551768615E+02 -0.69984085118E+02 -0.58519105440E+02  0.98365451558E+02  0.41800000000E+01 0.  1.
         -5    1    3    3    0  502 -0.34982861324E+02  0.54122783418E+02 -0.71828011460E+02  0.96590951447E+02  0.41800000000E+01 0.  1.
        -11    1    1    2    0    0  0.26769140001E+02  0.43641514716E+02  0.17240639341E+01  0.51226370743E+02  0.00000000000E+00 0.  1.
         11    1    1    2    0    0  0.44765489937E+02 -0.27780213015E+02 -0.58985556947E+02  0.79088464727E+02  0.00000000000E+00 0. -1.
</event>
<event>
 7    1  0.2670433E-009  0.1557624E+03  0.7561462E-02  0.1193566E+00
          3   -1    0    0  501    0  0.00000000000E+00  0.00000000000E+00  0.11463156792E+03  0.11463156792E+03  0.00000000000E+00 0. -1.
         -3   -1    0    0    0  501 -0.00000000000E+00 -0.00000000000E+00 -0.66655240991E+03  0.66655240991E+03  0.00000000000E+00 0.  1.
         25    2    1    2    0    0 -0.57954746194E+02 -0.11993716561E+03 -0.58889308034E+03  0.61659266205E+03  0.12509106491E+03 0.  0.
          5    1    3    3  502    0  0.11823231370E+02 -0.70719427333E+02 -0.43190076461E+03  0.43783189590E+03  0.41800000000E+01 0. -1.
         -5    1    3    3    0  502 -0.69777977564E+02 -0.49217738279E+02 -0.15699231573E+03  0.17876076615E+03  0.41800000000E+01 0. -1.
        -11    1    1    2    0    0  0.77231708589E+02  0.89891172585E+02  0.82970684024E+01  0.11880236136E+03  0.00000000000E+00 0.  1.
         11    1    1    2    0    0 -0.19276962395E+02  0.30045993027E+02  0.28675169948E+02  0.45788954429E+02  0.00000000000E+00 0. -1.
</event>
<event>
 7    1  0.3144218E-009  0.1139785E+03  0.7561462E-02  0.1253375E+00
          1   -1    0    0  501    0  0.00000000000E+00  0.00000000000E+00  0.60977462788E+03  0.60977462788E+03  0.00000000000E+00 0. -1.
         -1   -1    0    0    0  501 -0.00000000000E+00 -0.00000000000E+00 -0.34540064821E+02  0.34540064821E+02  0.00000000000E+00 0.  1.
         25    2    1    2    0    0 -0.63596004033E+02  0.57327432089E+02  0.21889516201E+03  0.26626283921E+03  0.12509964585E+03 0.  0.
          5    1    3    3  502    0 -0.37506723910E+02  0.90933871744E+02  0.10185716997E+03  0.14166184682E+03  0.41800000000E+01 0.  1.
         -5    1    3    3    0  502 -0.26089280123E+02 -0.33606439655E+02  0.11703799204E+03  0.12460099239E+03  0.41800000000E+01 0.  1.
        -11    1    1    2    0    0  0.38715810970E+02 -0.43709629354E+02  0.34069062862E+03  0.34565814058E+03  0.00000000000E+00 0. -1.
         11    1    1    2    0    0  0.24880193063E+02 -0.13617802735E+02  0.15648772427E+02  0.32393712918E+02  0.00000000000E+00 0.  1.
</event>
<event>
 7    1  0.2670433E-009  0.8729393E+02  0.7561462E-02  0.1309540E+00
          2   -1    0    0  501    0  0.00000000000E+00  0.00000000000E+00  0.75153785959E+02  0.75153785959E+02  0.00000000000E+00 0. -1.
         -2   -1    0    0    0  501 -0.00000000000E+00 -0.00000000000E+00 -0.15906298617E+03  0.15906298617E+03  0.00000000000E+00 0.  1.
         25    2    1    2    0    0  0.14782094976E+02  0.58298703518E+01 -0.57421462219E+02  0.13855424555E+03  0.12509019512E+03 0.  0.
          5    1    3    3  502    0  0.33232535079E+02 -0.28451224489E+02 -0.81496202109E+02  0.92590371643E+02  0.41800000000E+01 0. -1.
         -5    1    3    3    0  502 -0.18450440103E+02  0.34281094841E+02  0.24074739890E+02  0.45963873904E+02  0.41800000000E+01 0. -1.
        -11    1    1    2    0    0 -0.52991501507E+02 -0.12816703844E+01 -0.10731350714E+02  0.54082379747E+02  0.00000000000E+00 0. -1.
         11    1    1    2    0    0  0.38209406532E+02 -0.45481999674E+01 -0.15756387275E+02  0.41580146830E+02  0.00000000000E+00 0.  1.
</event>
<event>
 7    1  0.2670433E-009  0.1890751E+03  0.7561462E-02  0.1159298E+00
         -1   -1    0    0    0  501 -0.00000000000E+00  0.00000000000E+00  0.10565568842E+03  0.10565568842E+03  0.00000000000E+00 0.  1.
          1   -1    0    0  501    0  0.00000000000E+00 -0.00000000000E+00 -0.35945791618E+03  0.35945791618E+03  0.00000000000E+00 0. -1.
         25    2    1    2    0    0 -0.81527412737E+02  0.13845478924E+03 -0.15461450232E+03  0.25567543748E+03  0.12509131589E+03 0.  0.
          5    1    3    3  502    0 -0.70711309151E+02  0.15823655160E+03 -0.15527309140E+03  0.23273611842E+03  0.41800000000E+01 0.  1.
         -5    1    3    3    0  502 -0.10816103586E+02 -0.19781762367E+02  0.65858908044E+00  0.22939319055E+02  0.41800000000E+01 0.  1.
        -11    1    1    2    0    0  0.87897394839E+02 -0.14695175033E+03 -0.10079638555E+03  0.19869745918E+03  0.00000000000E+00 0. -1.
         11    1    1    2    0    0 -0.63699821014E+01  0.84969610970E+01  0.16086601099E+01  0.10740707947E+02  0.00000000000E+00 0.  1.
</event>
<event>
 7    1  0.2670433E-009  0.7628536E+02  0.7561462E-02  0.1339936E+00
         -1   -1    0    0    0  501 -0.00000000000E+00  0.00000000000E+00  0.14077905337E+03  0.14077905337E+03  0.00000000000E+00 0.  1.
          1   -1    0    0  501    0  0.00000000000E+00 -0.00000000000E+00 -0.91544808812E+02  0.91544808812E+02  0.00000000000E+00 0. -1.
         25    2    1    2    0    0  0.26658167264E+02  0.13037905696E+02  0.40270729797E+02  0.13472183258E+03  0.12509034986E+03 0.  0.
          5    1    3    3  502    0  0.10611364355E+02  0.33282356051E+02  0.79859437293E+02  0.87265791709E+02  0.41800000000E+01 0. -1.
         -5    1    3    3    0  502  0.16046802909E+02 -0.20244450355E+02 -0.39588707496E+02  0.47456040869E+02  0.41800000000E+01 0. -1.
        -11    1    1    2    0    0 -0.11894154638E+02 -0.50011946394E+02  0.21703431948E+02  0.55800579342E+02  0.00000000000E+00 0.  1.
         11    1    1    2    0    0 -0.14764012626E+02  0.36974040697E+02 -0.12739917184E+02  0.41801450264E+02  0.00000000000E+00 0. -1.
</event>
<event>
 7    1  0.2670433E-009  0.1173865E+03  0.7561462E-02  0.1247472E+00
         -1   -1    0    0    0  501 -0.00000000000E+00  0.00000000000E+00  0.30314655296E+03  0.30314655296E+03  0.00000000000E+00 0.  1.
          1   -1    0    0  501    0  0.00000000000E+00 -0.00000000000E+00 -0.89097828046E+02  0.89097828046E+02  0.00000000000E+00 0. -1.
         25    2    1    2    0    0 -0.91955647183E+02  0.60247391314E+00  0.21340923194E+03  0.26390555007E+03  0.12508571084E+03 0.  0.
          5    1    3    3  502    0 -0.74125837242E+02 -0.37403907202E+02  0.20454829217E+03  0.22079666721E+03  0.41800000000E+01 0.  1.
         -5    1    3    3    0  502 -0.17829809941E+02  0.38006381115E+02  0.88609397741E+01  0.43108882863E+02  0.41800000000E+01 0.  1.
        -11    1    1    2    0    0 -0.30946039727E+01  0.13062206357E+02  0.25788239880E+02  0.29072858903E+02  0.00000000000E+00 0.  1.
         11    1    1    2    0    0  0.95050251156E+02 -0.13664680270E+02 -0.25148746912E+02  0.99265972029E+02  0.00000000000E+00 0. -1.
</event>
<event>
 7    1  0.2670433E-009  0.1538752E+03  0.7561462E-02  0.1195790E+00
          2   -1    0    0  501    0  0.00000000000E+00  0.00000000000E+00  0.10018119217E+03  0.10018119217E+03  0.00000000000E+00 0. -1.
         -2   -1    0    0    0  501 -0.00000000000E+00 -0.00000000000E+00 -0.39178340080E+03  0.39178340080E+03  0.00000000000E+00 0.  1.
         25    2    1    2    0    0 -0.80642702312E+02 -0.12784511097E+03 -0.23145119206E+03  0.30342144290E+03  0.12508916768E+03 0.  0.
          5    1    3    3  502    0 -0.12633826511E+02 -0.50791996026E+02 -0.26615162745E+01  0.52573724440E+02  0.41800000000E+01 0. -1.
         -5    1    3    3    0  502 -0.68008875800E+02 -0.77053114941E+02 -0.22878967579E+03  0.25084771846E+03  0.41800000000E+01 0. -1.
        -11    1    1    2    0    0  0.38814540897E+02  0.79415142550E+02  0.15194719776E+02  0.89689536516E+02  0.00000000000E+00 0. -1.
         11    1    1    2    0    0  0.41828161414E+02  0.48429968417E+02 -0.75345736343E+02  0.98853613557E+02  0.00000000000E+00 0.  1.
</event>
<event>
 7    1  0.2670433E-009  0.1517140E+03  0.7561462E-02  0.1198383E+00
         -1   -1    0    0    0  501 -0.00000000000E+00  0.00000000000E+00  0.94905030130E+02  0.94905030130E+02  0.00000000000E+00 0.  1.
          1   -1    0    0  501    0  0.00000000000E+00 -0.00000000000E+00 -0.30800160346E+03  0.30800160346E+03  0.00000000000E+00 0. -1.
         25    2    1    2    0    0 -0.12512697704E+03 -0.78952497370E+01 -0.59187170105E+02  0.18673390122E+03  0.12508930173E+03 0.  0.
          5    1    3    3  502    0 -0.21987182421E+02  0.48894870002E+02  0.23316047997E+01  0.53824281549E+02  0.41800000000E+01 0. -1.
         -5    1    3    3    0  502 -0.10313979462E+03 -0.56790119739E+02 -0.61518774905E+02  0.13290961967E+03  0.41800000000E+01 0. -1.
        -11    1    1    2    0    0  0.38507247321E+02  0.21584968634E+02 -0.10910090230E+03  0.11769335516E+03  0.00000000000E+00 0. -1.
         11    1    1    2    0    0  0.86619729722E+02 -0.13689718897E+02 -0.44808500929E+02  0.98479377212E+02  0.00000000000E+00 0.  1.
</event>
<event>
 7    1  0.2670433E-009  0.1212878E+03  0.7561462E-02  0.1240988E+00
         -2   -1    0    0    0  501 -0.00000000000E+00  0.00000000000E+00  0.50239694483E+02  0.50239694483E+02  0.00000000000E+00 0.  1.
          2   -1    0    0  501    0  0.00000000000E+00 -0.00000000000E+00 -0.38982846608E+03  0.38982846608E+03  0.00000000000E+00 0. -1.
         25    2    1    2    0    0  0.32875481169E+02 -0.67388546717E+02 -0.11314885524E+03  0.18458795459E+03  0.12509211026E+03 0.  0.
          5    1    3    3  502    0  0.89179611905E+01 -0.91206067294E+02 -0.32967622165E+02  0.97480322395E+02  0.41800000000E+01 0. -1.
         -5    1    3    3    0  502  0.23957519979E+02  0.23817520577E+02 -0.80181233075E+02  0.87107632200E+02  0.41800000000E+01 0. -1.
        -11    1    1    2    0    0 -0.49398621239E+02  0.20900147634E+01 -0.76239815389E+02  0.90868594094E+02  0.00000000000E+00 0. -1.
         11    1    1    2    0    0  0.16523140070E+02  0.65298531954E+02 -0.15020010097E+03  0.16461161187E+03  0.00000000000E+00 0.  1.
</event>
<event>
 7    1  0.2670433E-009  0.1288389E+03  0.7561462E-02  0.1229189E+00
         -2   -1    0    0    0  501 -0.00000000000E+00  0.00000000000E+00  0.70054090312E+02  0.70054090312E+02  0.00000000000E+00 0.  1.
          2   -1    0    0  501    0  0.00000000000E+00 -0.00000000000E+00 -0.45052663622E+03  0.45052663622E+03  0.00000000000E+00 0. -1.
         25    2    1    2    0    0 -0.34087230916E+02  0.88654242947E+02 -0.35276893829E+03  0.38615376487E+03  0.12508913701E+03 0.  0.
          5    1    3    3  502    0  0.46672156334E+01 -0.14816299156E+02  0.38924790983E+00  0.16091287592E+02  0.41800000000E+01 0. -1.
         -5    1    3    3    0  502 -0.38754446549E+02  0.10347054210E+03 -0.35315818620E+03  0.37006247728E+03  0.41800000000E+01 0. -1.
        -11    1    1    2    0    0  0.60656625982E+01 -0.10043997120E+03 -0.16173021314E+02  0.10191440867E+03  0.00000000000E+00 0. -1.
         11    1    1    2    0    0  0.28021568318E+02  0.11785728250E+02 -0.11530586307E+02  0.32512552990E+02  0.00000000000E+00 0.  1.
</event>
<event>
 7    1  0.2670433E-009  0.8847959E+02  0.7561462E-02  0.1306576E+00
         -1   -1    0    0    0  501 -0.00000000000E+00  0.00000000000E+00  0.28477092142E+02  0.28477092142E+02  0.00000000000E+00 0.  1.
          1   -1    0    0  501    0  0.00000000000E+00 -0.00000000000E+00 -0.42189201121E+03  0.42189201121E+03  0.00000000000E+00 0. -1.
         25    2    1    2    0    0 -0.66790728550E+01  0.22783116981E+02 -0.18950211642E+03  0.22830222634E+03  0.12508866452E+03 0.  0.
          5    1    3    3  502    0  0.36163069505E+02  0.30861653121E+02 -0.17617133809E+03  0.18252129189E+03  0.41800000000E+01 0. -1.
         -5    1    3    3    0  502 -0.42842142360E+02 -0.80785361402E+01 -0.13330778330E+02  0.45780934450E+02  0.41800000000E+01 0. -1.
        -11    1    1    2    0    0  0.76711875619E+01  0.30852685631E+02 -0.51868872601E+02  0.60836792109E+02  0.00000000000E+00 0.  1.
         11    1    1    2    0    0 -0.99211470687E+00 -0.53635802612E+02 -0.15204393005E+03  0.16123008490E+03  0.00000000000E+00 0. -1.
</event>
<event>
 7    1  0.2670433E-009  0.1023748E+03  0.7561462E-02  0.1275380E+00
         -4   -1    0    0    0  501 -0.00000000000E+00  0.00000000000E+00  0.14998380202E+03  0.14998380202E+03  0.00000000000E+00 0.  1.
          4   -1    0    0  501    0  0.00000000000E+00 -0.00000000000E+00 -0.14754783658E+03  0.14754783658E+03  0.00000000000E+00 0. -1.
         25    2    1    2    0    0  0.25101045966E+02  0.14978923151E+01  0.98494059355E+02  0.16118800775E+03  0.12509271731E+03 0.  0.
          5    1    3    3  502    0  0.24697061150E+02 -0.52414086150E+02  0.12212698391E+02  0.59361634567E+02  0.41800000000E+01 0. -1.
         -5    1    3    3    0  502  0.40398481580E+00  0.53911978466E+02  0.86281360964E+02  0.10182637318E+03  0.41800000000E+01 0. -1.
        -11    1    1    2    0    0 -0.51576914527E+02 -0.24875917001E+02 -0.39152597968E+02  0.69367970177E+02  0.00000000000E+00 0.  1.
         11    1    1    2    0    0  0.26475868561E+02  0.23378024686E+02 -0.56905495947E+02  0.66975660678E+02  0.00000000000E+00 0. -1.
</event>
<event>
 7    1  0.2670433E-009  0.2251601E+03  0.7561462E-02  0.1130093E+00
          2   -1    0    0  501    0  0.00000000000E+00  0.00000000000E+00  0.12988039650E+04  0.12988039650E+04  0.00000000000E+00 0. -1.
         -2   -1    0    0    0  501 -0.00000000000E+00 -0.00000000000E+00 -0.55887287353E+02  0.55887287353E+02  0.00000000000E+00 0.  1.
         25    2    1    2    0    0 -0.14480512851E+03 -0.16631954118E+03  0.91515681982E+03  0.94962672345E+03  0.12509274156E+03 0.  0.
          5    1    3    3  502    0 -0.12464949630E+03 -0.16546256127E+03  0.90126977166E+03  0.92478107129E+03  0.41800000000E+01 0. -1.
         -5    1    3    3    0  502 -0.20155632208E+02 -0.85697991540E+00  0.13887048162E+02  0.24845652154E+02  0.41800000000E+01 0. -1.
        -11    1    1    2    0    0  0.12025981575E+03  0.11886995655E+03  0.17550704351E+03  0.24371132960E+03  0.00000000000E+00 0.  1.
         11    1    1    2    0    0  0.24545312759E+02  0.47449584633E+02  0.15225281434E+03  0.16135319933E+03  0.00000000000E+00 0. -1.
</event>
<event>
 7    1  0.2670433E-009  0.1675579E+03  0.7561462E-02  0.1180419E+00
         -2   -1    0    0    0  501 -0.00000000000E+00  0.00000000000E+00  0.95279739042E+02  0.95279739042E+02  0.00000000000E+00 0.  1.
          2   -1    0    0  501    0  0.00000000000E+00 -0.00000000000E+00 -0.50632357964E+03  0.50632357964E+03  0.00000000000E+00 0. -1.
         25    2    1    2    0    0 -0.15836023294E+03  0.18001280980E+02 -0.70138150581E+02  0.21440369775E+03  0.12509027119E+03 0.  0.
          5    1    3    3  502    0 -0.11397508285E+03  0.43838448200E+02 -0.97263791647E+02  0.15617248995E+03  0.41800000000E+01 0.  1.
         -5    1    3    3    0  502 -0.44385150097E+02 -0.25837167220E+02  0.27125641066E+02  0.58231207804E+02  0.41800000000E+01 0.  1.
        -11    1    1    2    0    0  0.11310198776E+03 -0.24369723900E+02 -0.31288180092E+03  0.33358801601E+03  0.00000000000E+00 0. -1.
         11    1    1    2    0    0  0.45258245184E+02  0.63684429199E+01 -0.28023889101E+02  0.53611604925E+02  0.00000000000E+00 0.  1.
</event>
<event>
 7    1  0.2670433E-009  0.2042595E+03  0.7561462E-02  0.1146194E+00
          2   -1    0    0  501    0  0.00000000000E+00  0.00000000000E+00  0.16492763513E+04  0.16492763513E+04  0.00000000000E+00 0. -1.
         -2   -1    0    0    0  501 -0.00000000000E+00 -0.00000000000E+00 -0.30852924505E+02  0.30852924505E+02  0.00000000000E+00 0.  1.
         25    2    1    2    0    0  0.19041471630E+03  0.17226896242E+02  0.10291008705E+04  0.10541578191E+04  0.12508227586E+03 0.  0.
          5    1    3    3  502    0  0.54369213455E+02  0.46475382297E+02  0.56793772155E+03  0.57243925485E+03  0.41800000000E+01 0.  1.
         -5    1    3    3    0  502  0.13604550284E+03 -0.29248486054E+02  0.46116314896E+03  0.48171856425E+03  0.41800000000E+01 0.  1.
        -11    1    1    2    0    0 -0.10450383777E+03  0.15646482184E+02  0.20307952175E+03  0.22892609434E+03  0.00000000000E+00 0.  1.
         11    1    1    2    0    0 -0.85910878527E+02 -0.32873378426E+02  0.38624303458E+03  0.39704536242E+03  0.00000000000E+00 0. -1.
</event>
<event>
 7    1  0.2670433E-009  0.1917586E+03  0.7561462E-02  0.1156885E+00
          2   -1    0    0  501    0  0.00000000000E+00  0.00000000000E+00  0.53724042527E+03  0.53724042527E+03  0.00000000000E+00 0. -1.
         -2   -1    0    0    0  501 -0.00000000000E+00 -0.00000000000E+00 -0.13618002922E+03  0.13618002922E+03  0.00000000000E+00 0.  1.
         25    2    1    2    0    0  0.17469792377E+03  0.13149575296E+02 -0.11847137841E+02  0.21559264950E+03  0.12509020722E+03 0.  0.
          5    1    3    3  502    0  0.18246176058E+03 -0.52330821813E+01  0.13477016283E+02  0.18308135238E+03  0.41800000000E+01 0.  1.
         -5    1    3    3    0  502 -0.77638368101E+01  0.18382657477E+02 -0.25324154124E+02  0.32511297114E+02  0.41800000000E+01 0.  1.
        -11    1    1    2    0    0 -0.12143771683E+03  0.11256986803E+02  0.35536090111E+03  0.37570628003E+03  0.00000000000E+00 0.  1.
         11    1    1    2    0    0 -0.53260206943E+02 -0.24406562098E+02  0.57546632785E+02  0.82121524961E+02  0.00000000000E+00 0. -1.
</event>
<event>
 7    1  0.2670433E-009  0.1314713E+03  0.7561462E-02  0.1225289E+00
         -1   -1    0    0    0  501 -0.00000000000E+00  0.00000000000E+00  0.26004015887E+02  0.26004015887E+02  0.00000000000E+00 0.  1.
          1   -1    0    0  501    0  0.00000000000E+00 -0.00000000000E+00 -0.92553965250E+03  0.92553965250E+03  0.00000000000E+00 0. -1.
         25    2    1    2    0    0 -0.76027261498E+02  0.57843945674E+02 -0.65476857919E+03  0.67342066194E+03  0.12508968415E+03 0.  0.
          5    1    3    3  502    0 -0.55965112072E+02 -0.31995501848E+02 -0.30037422005E+03  0.30724249442E+03  0.41800000000E+01 0.  1.
         -5    1    3    3    0  502 -0.20062149426E+02  0.89839447522E+02 -0.35439435914E+03  0.36617816751E+03  0.41800000000E+01 0.  1.
        -11    1    1    2    0    0  0.36572449001E+02 -0.48445705408E+00 -0.17719838091E+02  0.40641990435E+02  0.00000000000E+00 0.  1.
         11    1    1    2    0    0  0.39454812497E+02 -0.57359488620E+02 -0.22704721933E+03  0.23748101602E+03  0.00000000000E+00 0. -1.
</event>
<event>
 7    1  0.2670433E-009  0.7482744E+02  0.7561462E-02  0.1344406E+00
         -2   -1    0    0    0  501 -0.00000000000E+00  0.00000000000E+00  0.11364825029E+03  0.11364825029E+03  0.00000000000E+00 0.  1.
          2   -1    0    0  501    0  0.00000000000E+00 -0.00000000000E+00 -0.10711236377E+03  0.10711236377E+03  0.00000000000E+00 0. -1.
         25    2    1    2    0    0  0.44428520184E+01 -0.11597720150E+02 -0.98781878380E+01  0.12609560691E+03  0.12509307511E+03 0.  0.
          5    1    3    3  502    0 -0.16826602363E+02  0.23620302897E+02  0.47233655494E+02  0.55583665472E+02  0.41800000000E+01 0. -1.
         -5    1    3    3    0  502  0.21269454381E+02 -0.35218023047E+02 -0.57111843332E+02  0.70511941441E+02  0.41800000000E+01 0. -1.
        -11    1    1    2    0    0 -0.25370083022E+02  0.37763916690E+02 -0.15824652798E+02  0.48168186104E+02  0.00000000000E+00 0. -1.
         11    1    1    2    0    0  0.20927231004E+02 -0.26166196540E+02  0.32238727149E+02  0.46496821043E+02  0.00000000000E+00 0.  1.
</event>
<event>
 7    1  0.2670433E-009  0.9639298E+02  0.7561462E-02  0.1288069E+00
          2   -1    0    0  501    0  0.00000000000E+00  0.00000000000E+00  0.24188195816E+03  0.24188195816E+03  0.00000000000E+00 0. -1.
         -2   -1    0    0    0  501 -0.00000000000E+00 -0.00000000000E+00 -0.58003062257E+02  0.58003062257E+02  0.00000000000E+00 0.  1.
         25    2    1    2    0    0 -0.24132602057E+02  0.35684315463E+02  0.77088489415E+02  0.15312483006E+03  0.12509526582E+03 0.  0.
          5    1    3    3  502    0 -0.67237873129E+01 -0.42527792865E+02  0.21109118131E+01  0.43309939165E+02  0.41800000000E+01 0. -1.
         -5    1    3    3    0  502 -0.17408814744E+02  0.78212108329E+02  0.74977577602E+02  0.10981489090E+03  0.41800000000E+01 0. -1.
        -11    1    1    2    0    0  0.37428702540E+02 -0.75615305142E+01  0.28799452874E+01  0.38293323209E+02  0.00000000000E+00 0.  1.
         11    1    1    2    0    0 -0.13296100483E+02 -0.28122784949E+02  0.10391046120E+03  0.10846686715E+03  0.00000000000E+00 0. -1.
</event>
<event>
 7    1  0.2670433E-009  0.1005853E+03  0.7561462E-02  0.1279070E+00
         -2   -1    0    0    0  501 -0.00000000000E+00  0.00000000000E+00  0.14791600439E+03  0.14791600439E+03  0.00000000000E+00 0.  1.
          2   -1    0    0  501    0  0.00000000000E+00 -0.00000000000E+00 -0.12027379659E+03  0.12027379659E+03  0.00000000000E+00 0. -1.
         25    2    1    2    0    0 -0.31859394920E+02  0.48224943446E+02 -0.23780367208E+02  0.13983296233E+03  0.12508830990E+03 0.  0.
          5    1    3    3  502    0 -0.28051641143E+02 -0.30428401394E+02  0.23612267408E+02  0.47830887033E+02  0.41800000000E+01 0.  1.
         -5    1    3    3    0  502 -0.38077537767E+01  0.78653344839E+02 -0.47392634616E+02  0.92002075298E+02  0.41800000000E+01 0.  1.
        -11    1    1    2    0    0  0.18615799433E+02  0.99129905128E+01  0.64027604009E+02  0.67411790100E+02  0.00000000000E+00 0.  1.
         11    1    1    2    0    0  0.13243595487E+02 -0.58137933958E+02 -0.12605028994E+02  0.60945048546E+02  0.00000000000E+00 0. -1.
</event>
<event>
 7    1  0.2670433E-009  0.8340998E+02  0.7561462E-02  0.1319644E+00
         -2   -1    0    0    0  501 -0.00000000000E+00  0.00000000000E+00  0.17468294046E+03  0.17468294046E+03  0.00000000000E+00 0.  1.
          2   -1    0    0  501    0  0.00000000000E+00 -0.00000000000E+00 -0.92441783214E+02  0.92441783214E+02  0.00000000000E+00 0. -1.
         25    2    1    2    0    0 -0.52893111258E+02 -0.17701473540E+02  0.85464384196E+02  0.16143036124E+03  0.12507828420E+03 0.  0.
          5    1    3    3  502    0 -0.22561103801E+02  0.27563953743E+02 -0.21142719459E+02  0.41632462536E+02  0.41800000000E+01 0. -1.
         -5    1    3    3    0  502 -0.30332007456E+02 -0.45265427283E+02  0.10660710366E+03  0.11979789870E+03  0.41800000000E+01 0. -1.
        -11    1    1    2    0    0  0.20936289258E+02  0.34385065388E+02 -0.38177231526E+02  0.55481185429E+02  0.00000000000E+00 0.  1.
         11    1    1    2    0    0  0.31956822000E+02 -0.16683591848E+02  0.34954004573E+02  0.50213177005E+02  0.00000000000E+00 0. -1.
</event>
<event>
 7    1  0.2670433E-009  0.1283168E+03  0.7561462E-02  0.1229975E+00
          1   -1    0    0  501    0  0.00000000000E+00  0.00000000000E+00  0.27690095921E+02  0.27690095921E+02  0.00000000000E+00 0. -1.
         -1   -1    0    0    0  501 -0.00000000000E+00 -0.00000000000E+00 -0.80041336647E+03  0.80041336647E+03  0.00000000000E+00 0.  1.
         25    2    1    2    0    0  0.31683634740E+02 -0.85183464725E+02 -0.54920633971E+03  0.57055746816E+03  0.12509254782E+03 0.  0.
          5    1    3    3  502    0  0.17304918849E+02 -0.11757629660E+03 -0.42626883038E+03  0.44254517723E+03  0.41800000000E+01 0. -1.
         -5    1    3    3    0  502  0.14378715891E+02  0.32392831876E+02 -0.12293750934E+03  0.12801229093E+03  0.41800000000E+01 0. -1.
        -11    1    1    2    0    0 -0.31014963136E+02  0.20131991001E+02 -0.16800452345E+03  0.17202541934E+03  0.00000000000E+00 0.  1.
         11    1    1    2    0    0 -0.66867160428E+00  0.65051473724E+02 -0.55512407385E+02  0.85520574887E+02  0.00000000000E+00 0. -1.
</event>
<event>
 7    1  0.2670433E-009  0.8943319E+02  0.7561462E-02  0.1304230E+00
          1   -1    0    0  501    0  0.00000000000E+00  0.00000000000E+00  0.28855937852E+03  0.28855937852E+03  0.00000000000E+00 0. -1.
         -1   -1    0    0    0  501 -0.00000000000E+00 -0.00000000000E+00 -0.47841757772E+02  0.47841757772E+02  0.00000000000E+00 0.  1.
         25    2    1    2    0    0 -0.68846785850E+01 -0.44090368778E+02  0.13858902230E+03  0.19195074343E+03  0.12508721511E+03 0.  0.
          5    1    3    3  502    0 -0.60720340137E+02 -0.31118049418E+01  0.89405629938E+02  0.10820111876E+03  0.41800000000E+01 0.  1.
         -5    1    3    3    0  502  0.53835661552E+02 -0.40978563836E+02  0.49183392360E+02  0.83749624673E+02  0.41800000000E+01 0.  1.
        -11    1    1    2    0    0 -0.76249158122E+01  0.71668812255E+01 -0.16402596073E+02  0.19456327649E+02  0.00000000000E+00 0.  1.
         11    1    1    2    0    0  0.14509594397E+02  0.36923487553E+02  0.11853119453E+03  0.12499406521E+03  0.00000000000E+00 0. -1.
</event>
<event>
 7    1  0.2670433E-009  0.1611562E+03  0.7561462E-02  0.1187398E+00
         -1   -1    0    0    0  501 -0.00000000000E+00  0.00000000000E+00  0.83010277752E+03  0.83010277752E+03  0.00000000000E+00 0.  1.
          1   -1    0    0  501    0  0.00000000000E+00 -0.00000000000E+00 -0.36544119656E+02  0.36544119656E+02  0.00000000000E+00 0. -1.
         25    2    1    2    0    0 -0.50014906319E+02  0.11540423145E+03  0.29215961820E+03  0.34179585928E+03  0.12509012522E+03 0.  0.
          5    1    3    3  502    0 -0.77514287099E+02  0.24787336185E+02  0.11614547863E+03  0.14188065881E+03  0.41800000000E+01 0. -1.
         -5    1    3    3    0  502  0.27499380780E+02  0.90616895268E+02  0.17601413957E+03  0.19991520047E+03  0.41800000000E+01 0. -1.
        -11    1    1    2    0    0  0.61851870013E+02 -0.49905615560E+02  0.18208184989E+03  0.19867064289E+03  0.00000000000E+00 0.  1.
         11    1    1    2    0    0 -0.11836963693E+02 -0.65498615893E+02  0.31931718978E+03  0.32618039500E+03  0.00000000000E+00 0. -1.
</event>
<event>
 7    1  0.2670433E-009  0.1026496E+03  0.7561462E-02  0.1274821E+00
          1   -1    0    0  501    0  0.00000000000E+00  0.00000000000E+00  0.74176219808E+02  0.74176219808E+02  0.00000000000E+00 0.  1.
         -1   -1    0    0    0  501 -0.00000000000E+00 -0.00000000000E+00 -0.18233158335E+03  0.18233158335E+03  0.00000000000E+00 0. -1.
         25    2    1    2    0    0  0.34932202907E+02  0.11122274544E+00 -0.82579580892E+02  0.15390649513E+03  0.12509017105E+03 0.  0.
          5    1    3    3  502    0  0.34048562131E+02 -0.50301731447E+02 -0.83456158210E+02  0.10330523468E+03  0.41800000000E+01 0.  1.
         -5    1    3    3    0  502  0.88364077602E+00  0.50412954193E+02  0.87657731804E+00  0.50601260451E+02  0.41800000000E+01 0.  1.
        -11    1    1    2    0    0 -0.39047096749E+02 -0.38721429269E+02 -0.31421142615E+02  0.63334927586E+02  0.00000000000E+00 0. -1.
         11    1    1    2    0    0  0.41148938413E+01  0.38610206524E+02  0.58453599696E+01  0.39266380433E+02  0.00000000000E+00 0.  1.
</event>
<event>
 7    1  0.2670433E-009  0.1283763E+03  0.7561462E-02  0.1229885E+00
          2   -1    0    0  501    0  0.00000000000E+00  0.00000000000E+00  0.65094507772E+03  0.65094507772E+03  0.00000000000E+00 0. -1.
         -2   -1    0    0    0  501 -0.00000000000E+00 -0.00000000000E+00 -0.33171595784E+02  0.33171595784E+02  0.00000000000E+00 0.  1.
         25    2    1    2    0    0  0.97888445316E+02 -0.11731660787E+02  0.31093408316E+03  0.34935281756E+03  0.12509039722E+03 0.  0.
          5    1    3    3  502    0  0.60163105818E+02 -0.42756106922E+02  0.28390640697E+03  0.29337348942E+03  0.41800000000E+01 0.  1.
         -5    1    3    3    0  502  0.37725339498E+02  0.31024446135E+02  0.27027676190E+02  0.55979328135E+02  0.41800000000E+01 0.  1.
        -11    1    1    2    0    0 -0.11154363924E+03  0.25490038764E+02  0.25912807835E+03  0.28326504642E+03  0.00000000000E+00 0. -1.
         11    1    1    2    0    0  0.13655193925E+02 -0.13758377977E+02  0.47711320424E+02  0.51498809523E+02  0.00000000000E+00 0.  1.
</event>
<event>
 7    1  0.2670433E-009  0.1372611E+03  0.7561462E-02  0.1217063E+00
         -2   -1    0    0    0  501 -0.00000000000E+00  0.00000000000E+00  0.58794067574E+02  0.58794067574E+02  0.00000000000E+00 0.  1.
          2   -1    0    0  501    0  0.00000000000E+00 -0.00000000000E+00 -0.37171731509E+03  0.37171731509E+03  0.00000000000E+00 0. -1.
         25    2    1    2    0    0  0.28743090379E+02  0.89729484368E+02 -0.20699940758E+03  0.25956383097E+03  0.12508829682E+03 0.  0.
          5    1    3    3  502    0  0.34389090343E+02 -0.16279965303E+02 -0.17009045053E+02  0.41885878509E+02  0.41800000000E+01 0.  1.
         -5    1    3    3    0  502 -0.56459999637E+01  0.10600944967E+03 -0.18999036253E+03  0.21767795246E+03  0.41800000000E+01 0.  1.
        -11    1    1    2    0    0  0.28441499738E+02 -0.58018561498E+02 -0.73815916491E+02  0.98101283952E+02  0.00000000000E+00 0. -1.
         11    1    1    2    0    0 -0.57184590117E+02 -0.31710922870E+02 -0.32107923447E+02  0.72846267743E+02  0.00000000000E+00 0.  1.
</event>
<event>
 7    1  0.2670433E-009  0.1691133E+03  0.7561462E-02  0.1178776E+00
          2   -1    0    0  501    0  0.00000000000E+00  0.00000000000E+00  0.55577186859E+03  0.55577186859E+03  0.00000000000E+00 0. -1.
         -2   -1    0    0    0  501 -0.00000000000E+00 -0.00000000000E+00 -0.77766672361E+02  0.77766672361E+02  0.00000000000E+00 0.  1.
         25    2    1    2    0    0 -0.13624691685E+03 -0.81777751024E+02  0.36817441818E+03  0.42006061074E+03  0.12509073341E+03 0.  0.
          5    1    3    3  502    0 -0.99290732347E+02 -0.63010400983E+02  0.35846626131E+03  0.37728569157E+03  0.41800000000E+01 0. -1.
         -5    1    3    3    0  502 -0.36956184507E+02 -0.18767350042E+02  0.97081568631E+01  0.42774919177E+02  0.41800000000E+01 0. -1.
        -11    1    1    2    0    0  0.13066150847E+03  0.39856365983E+02  0.63172289728E+02  0.15050481020E+03  0.00000000000E+00 0.  1.
         11    1    1    2    0    0  0.55854083870E+01  0.41921385041E+02  0.46658488325E+02  0.62973120006E+02  0.00000000000E+00 0. -1.
</event>
<event>
 7    1  0.2670433E-009  0.1701956E+03  0.7561462E-02  0.1177644E+00
          1   -1    0    0  501    0  0.00000000000E+00  0.00000000000E+00  0.61661358988E+02  0.61661358988E+02  0.00000000000E+00 0. -1.
         -1   -1    0    0    0  501 -0.00000000000E+00 -0.00000000000E+00 -0.47809198251E+03  0.47809198251E+03  0.00000000000E+00 0.  1.
         25    2    1    2    0    0  0.81241834705E+02  0.10533375346E+03 -0.23335997239E+03  0.29631026996E+03  0.12508982389E+03 0.  0.
          5    1    3    3  502    0  0.10954432262E+03  0.50428941245E+02 -0.15204794961E+03  0.19411102007E+03  0.41800000000E+01 0. -1.
         -5    1    3    3    0  502 -0.28302487917E+02  0.54904812218E+02 -0.81312022788E+02  0.10219924988E+03  0.41800000000E+01 0. -1.
        -11    1    1    2    0    0 -0.65254578880E+02 -0.16171522336E+02 -0.56620192645E+02  0.87894962396E+02  0.00000000000E+00 0. -1.
         11    1    1    2    0    0 -0.15987255825E+02 -0.89162231127E+02 -0.12645045848E+03  0.15554810914E+03  0.00000000000E+00 0.  1.
</event>
<event>
 7    1  0.4154014E-009  0.1716105E+03  0.7561462E-02  0.1176179E+00
          2   -1    0    0  501    0  0.00000000000E+00  0.00000000000E+00  0.12775629440E+04  0.12775629440E+04  0.00000000000E+00 0. -1.
         -2   -1    0    0    0  501 -0.00000000000E+00 -0.00000000000E+00 -0.32805949741E+02  0.32805949741E+02  0.00000000000E+00 0.  1.
         25    2    1    2    0    0 -0.12144503808E+03  0.89024696644E+02  0.92405879570E+03  0.94456580329E+03  0.12508239267E+03 0.  0.
          5    1    3    3  502    0 -0.39224639854E+02  0.81096669259E+02  0.25626505914E+03  0.27166982732E+03  0.41800000000E+01 0.  1.
         -5    1    3    3    0  502 -0.82220398229E+02  0.79280273849E+01  0.66779373656E+03  0.67289597598E+03  0.41800000000E+01 0.  1.
        -11    1    1    2    0    0  0.12871872858E+02 -0.55098044390E+02  0.66496255002E+02  0.87311119199E+02  0.00000000000E+00 0.  1.
         11    1    1    2    0    0  0.10857316522E+03 -0.33926652254E+02  0.25420194354E+03  0.27849197123E+03  0.00000000000E+00 0. -1.
</event>
<event>
 7    1  0.2670433E-009  0.2185355E+03  0.7561462E-02  0.1134980E+00
          1   -1    0    0  501    0  0.00000000000E+00  0.00000000000E+00  0.21601004984E+03  0.21601004984E+03  0.00000000000E+00 0. -1.
         -1   -1    0    0    0  501 -0.00000000000E+00 -0.00000000000E+00 -0.24416734122E+03  0.24416734122E+03  0.00000000000E+00 0.  1.
         25    2    1    2    0    0  0.17220646140E+03  0.10045828765E+03 -0.45008917799E+02  0.23962679962E+03  0.12509303540E+03 0.  0.
          5    1    3    3  502    0  0.14215962914E+03  0.15418703139E+02 -0.12245586623E+02  0.14357758654E+03  0.41800000000E+01 0.  1.
         -5    1    3    3    0  502  0.30046832259E+02  0.85039584512E+02 -0.32763331176E+02  0.96049213076E+02  0.41800000000E+01 0.  1.
        -11    1    1    2    0    0 -0.29900493945E+02 -0.37910147703E+02  0.40873247032E+02  0.63260107176E+02  0.00000000000E+00 0. -1.
         11    1    1    2    0    0 -0.14230596746E+03 -0.62548139949E+02 -0.24021620612E+02  0.15729048427E+03  0.00000000000E+00 0.  1.
</event>
<event>
 7    1  0.2670433E-009  0.1366180E+03  0.7561462E-02  0.1217954E+00
          2   -1    0    0  501    0  0.00000000000E+00  0.00000000000E+00  0.87004585863E+03  0.87004585863E+03  0.00000000000E+00 0. -1.
         -2   -1    0    0    0  501 -0.00000000000E+00 -0.00000000000E+00 -0.23602799280E+02  0.23602799280E+02  0.00000000000E+00 0.  1.
         25    2    1    2    0    0 -0.31014038128E+02 -0.80763502038E+02  0.56398833520E+03  0.58413536081E+03  0.12508662474E+03 0.  0.
          5    1    3    3  502    0 -0.29553172345E+02  0.28708497499E+02  0.12500346448E+03  0.13168487520E+03  0.41800000000E+01 0. -1.
         -5    1    3    3    0  502 -0.14608657833E+01 -0.10947199954E+03  0.43898487072E+03  0.45245048561E+03  0.41800000000E+01 0. -1.
        -11    1    1    2    0    0  0.11869483629E+02  0.96654682385E+02  0.18659546175E+03  0.21047773900E+03  0.00000000000E+00 0.  1.
         11    1    1    2    0    0  0.19144554499E+02 -0.15891180347E+02  0.95859262403E+02  0.99035558101E+02  0.00000000000E+00 0. -1.
</event>
<event>
 7    1  0.2670433E-009  0.4272343E+03  0.7561462E-02  0.1034737E+00
         -2   -1    0    0    0  501 -0.00000000000E+00  0.00000000000E+00  0.76684733743E+02  0.76684733743E+02  0.00000000000E+00 0.  1.
          2   -1    0    0  501    0  0.00000000000E+00 -0.00000000000E+00 -0.25758396617E+04  0.25758396617E+04  0.00000000000E+00 0. -1.
         25    2    1    2    0    0 -0.42088389150E+03  0.50597301724E+02 -0.14920065810E+04  0.15560958017E+04  0.12508864649E+03 0.  0.
          5    1    3    3  502    0 -0.15208132309E+03  0.54138097259E+02 -0.39745915349E+03  0.42901155404E+03  0.41800000000E+01 0. -1.
         -5    1    3    3    0  502 -0.26880256841E+03 -0.35407955347E+01 -0.10945474275E+04  0.11270842477E+04  0.41800000000E+01 0. -1.
        -11    1    1    2    0    0  0.28606328109E+03 -0.28080844827E+02 -0.78059085524E+03  0.83183100322E+03  0.00000000000E+00 0. -1.
         11    1    1    2    0    0  0.13482061041E+03 -0.22516456897E+02 -0.22655749179E+03  0.26459759052E+03  0.00000000000E+00 0.  1.
</event>
<event>
 7    1  0.2670433E-009  0.9855305E+02  0.7561462E-02  0.1283368E+00
         -2   -1    0    0    0  501 -0.00000000000E+00  0.00000000000E+00  0.17109287769E+03  0.17109287769E+03  0.00000000000E+00 0.  1.
          2   -1    0    0  501    0  0.00000000000E+00 -0.00000000000E+00 -0.12678931499E+03  0.12678931499E+03  0.00000000000E+00 0. -1.
         25    2    1    2    0    0 -0.12091163638E+02 -0.95986048971E+02  0.46121298373E+02  0.16472593959E+03  0.12509173903E+03 0.  0.
          5    1    3    3  502    0  0.47614777335E+01 -0.59344527613E+02 -0.38409573836E+02  0.70973321678E+02  0.41800000000E+01 0. -1.
         -5    1    3    3    0  502 -0.16852641372E+02 -0.36641521359E+02  0.84530872209E+02  0.93752617911E+02  0.41800000000E+01 0. -1.
        -11    1    1    2    0    0  0.64241577909E+01  0.31872399915E+02  0.43595189869E+02  0.54384375140E+02  0.00000000000E+00 0.  1.
         11    1    1    2    0    0  0.56670058472E+01  0.64113649056E+02 -0.45412925543E+02  0.78771877957E+02  0.00000000000E+00 0. -1.
</event>
<event>
 7    1  0.2670433E-009  0.1530722E+03  0.7561462E-02  0.1196748E+00
         -2   -1    0    0    0  501 -0.00000000000E+00  0.00000000000E+00  0.24174444001E+03  0.24174444001E+03  0.00000000000E+00 0.  1.
          2   -1    0    0  501    0  0.00000000000E+00 -0.00000000000E+00 -0.13905567394E+03  0.13905567394E+03  0.00000000000E+00 0. -1.
         25    2    1    2    0    0  0.10175850194E+03  0.50352871186E+02 -0.43771234576E+02  0.17450871605E+03  0.12508863516E+03 0.  0.
          5    1    3    3  502    0 -0.21517847547E+02  0.38423293906E+02 -0.18951950526E+02  0.48125005002E+02  0.41800000000E+01 0. -1.
         -5    1    3    3    0  502  0.12327634949E+03  0.11929577280E+02 -0.24819284050E+02  0.12638371105E+03  0.41800000000E+01 0. -1.
        -11    1    1    2    0    0 -0.76883695177E+01  0.19405273561E+02  0.29812936873E+01  0.21084681166E+02  0.00000000000E+00 0. -1.
         11    1    1    2    0    0 -0.94070132424E+02 -0.69758144747E+02  0.14347870696E+03  0.18520671673E+03  0.00000000000E+00 0.  1.
</event>
<event>
 7    1  0.2670433E-009  0.3308691E+03  0.7561462E-02  0.1070753E+00
          2   -1    0    0  501    0  0.00000000000E+00  0.00000000000E+00  0.58037390042E+03  0.58037390042E+03  0.00000000000E+00 0. -1.
         -2   -1    0    0    0  501 -0.00000000000E+00 -0.00000000000E+00 -0.23113688408E+03  0.23113688408E+03  0.00000000000E+00 0.  1.
         25    2    1    2    0    0  0.29689978300E+03 -0.97652998237E+02  0.35046091916E+03  0.48595664435E+03  0.12508163385E+03 0.  0.
          5    1    3    3  502    0  0.19213407509E+03  0.11705286640E+01  0.21169781147E+03  0.28592010899E+03  0.41800000000E+01 0.  1.
         -5    1    3    3    0  502  0.10476570791E+03 -0.98823526901E+02  0.13876310769E+03  0.20003653536E+03  0.41800000000E+01 0.  1.
        -11    1    1    2    0    0 -0.49194592508E+02  0.55574216813E+02  0.27120449561E+01  0.74269486966E+02  0.00000000000E+00 0. -1.
         11    1    1    2    0    0 -0.24770519049E+03  0.42078781425E+02 -0.39359477750E+01  0.25128465318E+03  0.00000000000E+00 0.  1.
</event>
<event>
 7    1  0.2670433E-009  0.1348752E+03  0.7561462E-02  0.1220396E+00
          2   -1    0    0  501    0  0.00000000000E+00  0.00000000000E+00  0.28783129318E+02  0.28783129318E+02  0.00000000000E+00 0.  1.
         -2   -1    0    0    0  501 -0.00000000000E+00 -0.00000000000E+00 -0.86502586911E+03  0.86502586911E+03  0.00000000000E+00 0. -1.
         25    2    1    2    0    0  0.20054577780E+02 -0.11169510351E+03 -0.39722509285E+03  0.43164126296E+03  0.12509365797E+03 0.  0.
          5    1    3    3  502    0 -0.13536596512E+02 -0.72004315001E+02 -0.36038061613E+03  0.36777645617E+03  0.41800000000E+01 0.  1.
         -5    1    3    3    0  502  0.33591174292E+02 -0.39690788512E+02 -0.36844476714E+02  0.63864806798E+02  0.41800000000E+01 0.  1.
        -11    1    1    2    0    0 -0.55532045461E+02  0.63524192957E+02 -0.26982952924E+03  0.28271382353E+03  0.00000000000E+00 0. -1.
         11    1    1    2    0    0  0.35477467680E+02  0.48170910557E+02 -0.16918811770E+03  0.17945391193E+03  0.00000000000E+00 0.  1.
</event>
<event>
 7    1  0.2670433E-009  0.8938868E+02  0.7561462E-02  0.1304339E+00
         -2   -1    0    0    0  501 -0.00000000000E+00  0.00000000000E+00  0.58097546189E+03  0.58097546189E+03  0.00000000000E+00 0.  1.
          2   -1    0    0  501    0  0.00000000000E+00 -0.00000000000E+00 -0.24331491402E+02  0.24331491402E+02  0.00000000000E+00 0. -1.
         25    2    1    2    0    0 -0.38597995198E+02 -0.24435150634E+02  0.28439744787E+03  0.31403000223E+03  0.12508418014E+03 0.  0.
          5    1    3    3  502    0 -0.38814384771E+02 -0.62990143323E+02  0.93875210439E+02  0.11960076152E+03  0.41800000000E+01 0. -1.
         -5    1    3    3    0  502  0.21638957297E+00  0.38554992689E+02  0.19052223743E+03  0.19442924071E+03  0.41800000000E+01 0. -1.
        -11    1    1    2    0    0  0.37039951984E+01 -0.13704177867E+02  0.30281931974E-01  0.14195949719E+02  0.00000000000E+00 0. -1.
         11    1    1    2    0    0  0.34894000000E+02  0.38139328501E+02  0.27221624069E+03  0.27708100135E+03  0.00000000000E+00 0.  1.
</event>
<event>
 7    1  0.2670433E-009  0.1095833E+03  0.7561462E-02  0.1261343E+00
         -1   -1    0    0    0  501 -0.00000000000E+00  0.00000000000E+00  0.46983512888E+03  0.46983512888E+03  0.00000000000E+00 0. -1.
          1   -1    0    0  501    0  0.00000000000E+00 -0.00000000000E+00 -0.27292330744E+02  0.27292330744E+02  0.00000000000E+00 0.  1.
         25    2    1    2    0    0 -0.26237518192E+02  0.10998773635E+02  0.28292528054E+03  0.31065015355E+03  0.12508966045E+03 0.  0.
          5    1    3    3  502    0 -0.54859768337E+02  0.51095925556E+02  0.13235243514E+03  0.15216776031E+03  0.41800000000E+01 0.  1.
         -5    1    3    3    0  502  0.28622250145E+02 -0.40097151921E+02  0.15057284540E+03  0.15848239324E+03  0.41800000000E+01 0.  1.
        -11    1    1    2    0    0  0.15719367147E+02  0.39784884732E+02  0.54690363114E+02  0.69433215208E+02  0.00000000000E+00 0.  1.
         11    1    1    2    0    0  0.10518151044E+02 -0.50783658367E+02  0.10492715448E+03  0.11704409086E+03  0.00000000000E+00 0. -1.
</event>
<event>
 7    1  0.2670433E-009  0.1333315E+03  0.7561462E-02  0.1222595E+00
         -1   -1    0    0    0  501 -0.00000000000E+00  0.00000000000E+00  0.11230830293E+03  0.11230830293E+03  0.00000000000E+00 0.  1.
          1   -1    0    0  501    0  0.00000000000E+00 -0.00000000000E+00 -0.20223600763E+03  0.20223600763E+03  0.00000000000E+00 0. -1.
         25    2    1    2    0    0 -0.31935210233E+01  0.87080679673E+02 -0.10846184344E+03  0.18709510473E+03  0.12508942155E+03 0.  0.
          5    1    3    3  502    0  0.52226031541E+02  0.58369073191E+02 -0.94844284948E+02  0.12307484659E+03  0.41800000000E+01 0. -1.
         -5    1    3    3    0  502 -0.55419552564E+02  0.28711606482E+02 -0.13617558493E+02  0.64020258142E+02  0.41800000000E+01 0. -1.
        -11    1    1    2    0    0  0.46891261000E+02 -0.43633092814E+02  0.14648446778E+02  0.65705510725E+02  0.00000000000E+00 0.  1.
         11    1    1    2    0    0 -0.43697739976E+02 -0.43447586859E+02  0.38856919719E+01  0.61743695104E+02  0.00000000000E+00 0. -1.
</event>
<event>
 7    1  0.2670433E-009  0.1211276E+03  0.7561462E-02  0.1241248E+00
          3   -1    0    0  501    0  0.00000000000E+00  0.00000000000E+00  0.18982531738E+03  0.18982531738E+03  0.00000000000E+00 0. -1.
         -3   -1    0    0    0  501 -0.00000000000E+00 -0.00000000000E+00 -0.10094094900E+03  0.10094094900E+03  0.00000000000E+00 0.  1.
         25    2    1    2    0    0  0.63566179718E+02 -0.55267334607E+02  0.39769785026E+02  0.15596140076E+03  0.12508870951E+03 0.  0.
          5    1    3    3  502    0 -0.20681020542E+02  0.23316448439E+01 -0.26690067276E+02  0.34102393897E+02  0.41800000000E+01 0.  1.
         -5    1    3    3    0  502  0.84247200259E+02 -0.57598979451E+02  0.66459852302E+02  0.12185900686E+03  0.41800000000E+01 0.  1.
        -11    1    1    2    0    0  0.28485520806E+01 -0.19024511579E+02 -0.69646626249E+01  0.20458563372E+02  0.00000000000E+00 0.  1.
         11    1    1    2    0    0 -0.66414731798E+02  0.74291846185E+02  0.56079245979E+02  0.11434630225E+03  0.00000000000E+00 0. -1.
</event>
<event>
 7    1  0.2670433E-009  0.1268497E+03  0.7561462E-02  0.1232206E+00
          1   -1    0    0  501    0  0.00000000000E+00  0.00000000000E+00  0.45579898668E+03  0.45579898668E+03  0.00000000000E+00 0. -1.
         -1   -1    0    0    0  501 -0.00000000000E+00 -0.00000000000E+00 -0.88607818157E+02  0.88607818157E+02  0.00000000000E+00 0.  1.
         25    2    1    2    0    0 -0.96004602591E+02  0.39085346385E+02  0.11497562146E+02  0.16286276283E+03  0.12509011775E+03 0.  0.
          5    1    3    3  502    0 -0.51003106770E+02 -0.66797857875E+01 -0.51444708748E+02  0.72869519667E+02  0.41800000000E+01 0. -1.
         -5    1    3    3    0  502 -0.45001495820E+02  0.45765132173E+02  0.62942270894E+02  0.89993243158E+02  0.41800000000E+01 0. -1.
        -11    1    1    2    0    0 -0.16610566245E+02  0.41843847745E+01  0.52786289854E+02  0.55496057369E+02  0.00000000000E+00 0.  1.
         11    1    1    2    0    0  0.11261516884E+03 -0.43269731160E+02  0.30290731652E+03  0.32604798464E+03  0.00000000000E+00 0. -1.
</event>
<event>
 7    1  0.2670433E-009  0.1385853E+03  0.7561462E-02  0.1215245E+00
         -2   -1    0    0    0  501 -0.00000000000E+00  0.00000000000E+00  0.13978171467E+02  0.13978171467E+02  0.00000000000E+00 0. -1.
          2   -1    0    0  501    0  0.00000000000E+00 -0.00000000000E+00 -0.15691172612E+04  0.15691172612E+04  0.00000000000E+00 0.  1.
         25    2    1    2    0    0 -0.58203989996E+02 -0.69696077677E+02 -0.10753335261E+04  0.10863865046E+04  0.12509275469E+03 0.  0.
          5    1    3    3  502    0 -0.57816444978E+02 -0.10179980428E+03 -0.93805891536E+03  0.94534540912E+03  0.41800000000E+01 0.  1.
         -5    1    3    3    0  502 -0.38754501808E+00  0.32103726606E+02 -0.13727461074E+03  0.14104109546E+03  0.41800000000E+01 0.  1.
        -11    1    1    2    0    0  0.47669711751E+02 -0.87757865122E+01 -0.15556092958E+03  0.16293746856E+03  0.00000000000E+00 0.  1.
         11    1    1    2    0    0  0.10534278244E+02  0.78471864189E+02 -0.32424463401E+03  0.33377145949E+03  0.00000000000E+00 0. -1.
</event>
<event>
 7    1  0.2670433E-009  0.7893775E+02  0.7561462E-02  0.1332093E+00
         -2   -1    0    0    0  501 -0.00000000000E+00  0.00000000000E+00  0.83758437986E+02  0.83758437986E+02  0.00000000000E+00 0.  1.
          2   -1    0    0  501    0  0.00000000000E+00 -0.00000000000E+00 -0.21296064036E+03  0.21296064036E+03  0.00000000000E+00 0. -1.
         25    2    1    2    0    0 -0.61714239587E+02  0.43689009848E+02 -0.92357833499E+02  0.17290404200E+03  0.12509381032E+03 0.  0.
          5    1    3    3  502    0 -0.37339679660E+02  0.41504341352E+02 -0.12200366038E+03  0.13423571646E+03  0.41800000000E+01 0.  1.
         -5    1    3    3    0  502 -0.24374559927E+02  0.21846684963E+01  0.29645826882E+02  0.38668325534E+02  0.41800000000E+01 0.  1.
        -11    1    1    2    0    0  0.35133801442E+02 -0.15756051723E+02  0.28525695905E+02  0.47920272292E+02  0.00000000000E+00 0.  1.
         11    1    1    2    0    0  0.26580438145E+02 -0.27932958125E+02 -0.65370064778E+02  0.75894764053E+02  0.00000000000E+00 0. -1.
</event>
<event>
 7    1  0.2670433E-009  0.1629358E+03  0.7561462E-02  0.1185422E+00
          1   -1    0    0  501    0  0.00000000000E+00  0.00000000000E+00  0.10348415209E+03  0.10348415209E+03  0.00000000000E+00 0. -1.
         -1   -1    0    0    0  501 -0.00000000000E+00 -0.00000000000E+00 -0.49180430889E+03  0.49180430889E+03  0.00000000000E+00 0.  1.
         25    2    1    2    0    0  0.14455928779E+03 -0.50577748012E+02 -0.37844226629E+02  0.20133298747E+03  0.12508912852E+03 0.  0.
          5    1    3    3  502    0  0.13949858098E+03 -0.32351575055E+02 -0.73303905713E+02  0.16092673332E+03  0.41800000000E+01 0. -1.
         -5    1    3    3    0  502  0.50607068116E+01 -0.18226172958E+02  0.35459679083E+02  0.40406254155E+02  0.41800000000E+01 0. -1.
        -11    1    1    2    0    0 -0.21104524355E+02  0.32087570335E+02 -0.17148928510E+03  0.17573726988E+03  0.00000000000E+00 0.  1.
         11    1    1    2    0    0 -0.12345476344E+03  0.18490177677E+02 -0.17898664506E+03  0.21821820363E+03  0.00000000000E+00 0. -1.
</event>
<event>
 7    1  0.2670433E-009  0.1513574E+03  0.7561462E-02  0.1198815E+00
          4   -1    0    0  501    0  0.00000000000E+00  0.00000000000E+00  0.13769085622E+03  0.13769085622E+03  0.00000000000E+00 0. -1.
         -4   -1    0    0    0  501 -0.00000000000E+00 -0.00000000000E+00 -0.18494312700E+03  0.18494312700E+03  0.00000000000E+00 0.  1.
         25    2    1    2    0    0  0.90701125701E+02 -0.58919480054E+02  0.19600261265E+02  0.16652407410E+03  0.12509155719E+03 0.  0.
          5    1    3    3  502    0  0.12092865841E+03 -0.35998524285E+02  0.74090724584E+01  0.12645948335E+03  0.41800000000E+01 0.  1.
         -5    1    3    3    0  502 -0.30227532710E+02 -0.22920955769E+02  0.12191188807E+02  0.40064590746E+02  0.41800000000E+01 0.  1.
        -11    1    1    2    0    0 -0.58979386819E+01 -0.20980378518E+02 -0.22814656863E+02  0.31551078131E+02  0.00000000000E+00 0.  1.
         11    1    1    2    0    0 -0.84803187019E+02  0.79899858572E+02 -0.44037875186E+02  0.12455883100E+03  0.00000000000E+00 0. -1.
</event>
<event>
 7    1  0.2670433E-009  0.1182869E+03  0.7561462E-02  0.1245950E+00
          4   -1    0    0  501    0  0.00000000000E+00  0.00000000000E+00  0.54113047470E+02  0.54113047470E+02  0.00000000000E+00 0. -1.
         -4   -1    0    0    0  501 -0.00000000000E+00 -0.00000000000E+00 -0.37106381108E+03  0.37106381108E+03  0.00000000000E+00 0.  1.
         25    2    1    2    0    0 -0.68611110173E+02  0.61404173632E+02 -0.17430805898E+03  0.23347900568E+03  0.12510471490E+03 0.  0.
          5    1    3    3  502    0 -0.41493515949E+02  0.69894779520E+02 -0.18556535933E+03  0.20263012376E+03  0.41800000000E+01 0.  1.
         -5    1    3    3    0  502 -0.27117594224E+02 -0.84906058877E+01  0.11257300352E+02  0.30848881926E+02  0.41800000000E+01 0.  1.
        -11    1    1    2    0    0  0.55266234897E+02  0.79499369725E+01 -0.78215269451E+02  0.96099878215E+02  0.00000000000E+00 0.  1.
         11    1    1    2    0    0  0.13344875276E+02 -0.69354110605E+02 -0.64427435177E+02  0.95597974651E+02  0.00000000000E+00 0. -1.
</event>
<event>
 7    1  0.2670433E-009  0.9329607E+02  0.7561462E-02  0.1295061E+00
         -2   -1    0    0    0  501 -0.00000000000E+00  0.00000000000E+00  0.15123942116E+03  0.15123942116E+03  0.00000000000E+00 0.  1.
          2   -1    0    0  501    0  0.00000000000E+00 -0.00000000000E+00 -0.10266309867E+03  0.10266309867E+03  0.00000000000E+00 0. -1.
         25    2    1    2    0    0 -0.30897172279E+02  0.18793820573E+02  0.81377495950E+02  0.15355101336E+03  0.12509106247E+03 0.  0.
          5    1    3    3  502    0 -0.71796705487E+02  0.20431909174E+02  0.16241645579E+02  0.76508125597E+02  0.41800000000E+01 0. -1.
         -5    1    3    3    0  502  0.40899533209E+02 -0.16380886008E+01  0.65135850371E+02  0.77042887761E+02  0.41800000000E+01 0. -1.
        -11    1    1    2    0    0  0.38146671618E+02  0.11254430144E+02  0.15765235285E+02  0.42782863356E+02  0.00000000000E+00 0.  1.
         11    1    1    2    0    0 -0.72494993391E+01 -0.30048250717E+02 -0.48566408748E+02  0.57568643118E+02  0.00000000000E+00 0. -1.
</event>
<event>
 7    1  0.2670433E-009  0.1712398E+03  0.7561462E-02  0.1176561E+00
         -4   -1    0    0    0  501 -0.00000000000E+00  0.00000000000E+00  0.99487332822E+03  0.99487332822E+03  0.00000000000E+00 0. -1.
          4   -1    0    0  501    0  0.00000000000E+00 -0.00000000000E+00 -0.46701549311E+02  0.46701549311E+02  0.00000000000E+00 0.  1.
         25    2    1    2    0    0 -0.25687860281E+02 -0.15034017083E+03  0.74868159715E+03  0.77423126436E+03  0.12509150120E+03 0.  0.
          5    1    3    3  502    0 -0.66199055551E+02 -0.59118388454E+02  0.24202030267E+03  0.25781504633E+03  0.41800000000E+01 0.  1.
         -5    1    3    3    0  502  0.40511195270E+02 -0.91221782372E+02  0.50666129447E+03  0.51641621802E+03  0.41800000000E+01 0.  1.
        -11    1    1    2    0    0 -0.75716648385E+00  0.48601286034E+02  0.85127204764E+01  0.49346982838E+02  0.00000000000E+00 0.  1.
         11    1    1    2    0    0  0.26445026765E+02  0.10173888479E+03  0.19097746128E+03  0.21799663034E+03  0.00000000000E+00 0. -1.
</event>
<event>
 7    1  0.2670433E-009  0.1122149E+03  0.7561462E-02  0.1256522E+00
          2   -1    0    0  501    0  0.00000000000E+00  0.00000000000E+00  0.80120512022E+03  0.80120512022E+03  0.00000000000E+00 0. -1.
         -2   -1    0    0    0  501 -0.00000000000E+00 -0.00000000000E+00 -0.25766148868E+02  0.25766148868E+02  0.00000000000E+00 0.  1.
         25    2    1    2    0    0  0.25775531373E+02 -0.92288471364E+02  0.41283999158E+03  0.44189364706E+03  0.12510634154E+03 0.  0.
          5    1    3    3  502    0  0.27827401829E+02 -0.36639499423E+02  0.30185096692E+02  0.55185411775E+02  0.41800000000E+01 0. -1.
         -5    1    3    3    0  502 -0.20518704559E+01 -0.55648971941E+02  0.38265489489E+03  0.38670823528E+03  0.41800000000E+01 0. -1.
        -11    1    1    2    0    0  0.11794518009E+02 -0.86877611176E+01  0.14205299045E+02  0.20405351486E+02  0.00000000000E+00 0.  1.
         11    1    1    2    0    0 -0.37570049382E+02  0.10097623248E+03  0.34839368072E+03  0.36467227055E+03  0.00000000000E+00 0. -1.
</event>
<event>
 7    1  0.2670433E-009  0.1019406E+03  0.7561462E-02  0.1276267E+00
         -1   -1    0    0    0  501 -0.00000000000E+00  0.00000000000E+00  0.13899539001E+02  0.13899539001E+02  0.00000000000E+00 0.  1.
          1   -1    0    0  501    0  0.00000000000E+00 -0.00000000000E+00 -0.12116026942E+04  0.12116026942E+04  0.00000000000E+00 0. -1.
         25    2    1    2    0    0  0.46924275782E-01 -0.41680315319E+02 -0.94385962906E+03  0.95302439023E+03  0.12508892084E+03 0.  0.
          5    1    3    3  502    0  0.53342280736E+02 -0.51876029389E+02 -0.44402741472E+03  0.45023809120E+03  0.41800000000E+01 0. -1.
         -5    1    3    3    0  502 -0.53295356460E+02  0.10195714069E+02 -0.49983221434E+03  0.50278629903E+03  0.41800000000E+01 0. -1.
        -11    1    1    2    0    0 -0.30711864246E+02  0.14526591209E+02 -0.31293689745E+02  0.46190209736E+02  0.00000000000E+00 0.  1.
         11    1    1    2    0    0  0.30664939970E+02  0.27153724110E+02 -0.22254983644E+03  0.22628763328E+03  0.00000000000E+00 0. -1.
</event>
<event>
 7    1  0.2670433E-009  0.1000440E+03  0.7561462E-02  0.1280203E+00
         -2   -1    0    0    0  501 -0.00000000000E+00  0.00000000000E+00  0.96264331674E+01  0.96264331674E+01  0.00000000000E+00 0.  1.
          2   -1    0    0  501    0  0.00000000000E+00 -0.00000000000E+00 -0.19513574852E+04  0.19513574852E+04  0.00000000000E+00 0. -1.
         25    2    1    2    0    0 -0.81860462824E+01 -0.55350871649E+02 -0.15085699730E+04  0.15147810052E+04  0.12508956730E+03 0.  0.
          5    1    3    3  502    0  0.41060446848E+02 -0.16643597400E+02 -0.11425643688E+04  0.11434307058E+04  0.41800000000E+01 0.  1.
         -5    1    3    3    0  502 -0.49246493131E+02 -0.38707274249E+02 -0.36600560418E+03  0.37135029939E+03  0.41800000000E+01 0.  1.
        -11    1    1    2    0    0  0.18977403904E+02 -0.13390271148E+02 -0.34986105337E+02  0.41993675560E+02  0.00000000000E+00 0.  1.
         11    1    1    2    0    0 -0.10791357622E+02  0.68741142797E+02 -0.39817497368E+03  0.40420923762E+03  0.00000000000E+00 0. -1.
</event>
<event>
 7    1  0.2670433E-009  0.2174070E+03  0.7561462E-02  0.1135831E+00
          4   -1    0    0  501    0  0.00000000000E+00  0.00000000000E+00  0.11865577452E+03  0.11865577452E+03  0.00000000000E+00 0. -1.
         -4   -1    0    0    0  501 -0.00000000000E+00 -0.00000000000E+00 -0.45329156203E+03  0.45329156203E+03  0.00000000000E+00 0.  1.
         25    2    1    2    0    0  0.27253458704E+02 -0.20191317706E+03 -0.15062139998E+03  0.28257067805E+03  0.12509076657E+03 0.  0.
          5    1    3    3  502    0  0.52651739978E+02 -0.42393368360E+02 -0.83722346513E+02  0.10768615096E+03  0.41800000000E+01 0. -1.
         -5    1    3    3    0  502 -0.25398281274E+02 -0.15951980870E+03 -0.66899053465E+02  0.17488452709E+03  0.41800000000E+01 0. -1.
        -11    1    1    2    0    0 -0.23447751598E+02  0.76025023649E+02 -0.12983500735E+03  0.15227189632E+03  0.00000000000E+00 0.  1.
         11    1    1    2    0    0 -0.38057071056E+01  0.12588815341E+03 -0.54179380183E+02  0.13710476218E+03  0.00000000000E+00 0. -1.
</event>
<event>
 7    1  0.3396275E-009  0.1377120E+03  0.7561462E-02  0.1216441E+00
         -2   -1    0    0    0  501 -0.00000000000E+00  0.00000000000E+00  0.61067426481E+02  0.61067426481E+02  0.00000000000E+00 0. -1.
          2   -1    0    0  501    0  0.00000000000E+00 -0.00000000000E+00 -0.67750024761E+03  0.67750024761E+03  0.00000000000E+00 0.  1.
         25    2    1    2    0    0  0.11268803753E+03  0.52934900679E+02 -0.53658553887E+03  0.56486774225E+03  0.12510327015E+03 0.  0.
          5    1    3    3  502    0  0.45299487248E+02 -0.21280452563E+02 -0.34465033106E+03  0.34829043098E+03  0.41800000000E+01 0.  1.
         -5    1    3    3    0  502  0.67388550278E+02  0.74215353242E+02 -0.19193520781E+03  0.21657731128E+03  0.41800000000E+01 0.  1.
        -11    1    1    2    0    0 -0.15781743827E+02 -0.38728760886E+01 -0.61415527121E+02  0.63528966455E+02  0.00000000000E+00 0.  1.
         11    1    1    2    0    0 -0.96906293699E+02 -0.49062024590E+02 -0.18431755138E+02  0.11017096538E+03  0.00000000000E+00 0. -1.
</event>
<event>
 7    1  0.2670433E-009  0.1238046E+03  0.7561462E-02  0.1236949E+00
         -2   -1    0    0    0  501 -0.00000000000E+00  0.00000000000E+00  0.47376932731E+03  0.47376932731E+03  0.00000000000E+00 0.  1.
          2   -1    0    0  501    0  0.00000000000E+00 -0.00000000000E+00 -0.54007625551E+02  0.54007625551E+02  0.00000000000E+00 0. -1.
         25    2    1    2    0    0  0.95011449822E+02 -0.13311174796E+02  0.11348690285E+03  0.19424789727E+03  0.12509438637E+03 0.  0.
          5    1    3    3  502    0 -0.18200451464E+02 -0.73345602036E+01  0.69889913817E+02  0.72712616926E+02  0.41800000000E+01 0. -1.
         -5    1    3    3    0  502  0.11321190129E+03 -0.59766145921E+01  0.43596989038E+02  0.12153528034E+03  0.41800000000E+01 0. -1.
        -11    1    1    2    0    0 -0.79923311611E+02 -0.15652511410E+02  0.28002934239E+03  0.29163190747E+03  0.00000000000E+00 0.  1.
         11    1    1    2    0    0 -0.15088138211E+02  0.28963686206E+02  0.26245456505E+02  0.41897148118E+02  0.00000000000E+00 0. -1.
</event>
<event>
 7    1  0.2670433E-009  0.2456499E+03  0.7561462E-02  0.1116085E+00
         -1   -1    0    0    0  501 -0.00000000000E+00  0.00000000000E+00  0.21623127727E+03  0.21623127727E+03  0.00000000000E+00 0.  1.
          1   -1    0    0  501    0  0.00000000000E+00 -0.00000000000E+00 -0.32156303450E+03  0.32156303450E+03  0.00000000000E+00 0. -1.
         25    2    1    2    0    0  0.54261770670E+02 -0.22325441062E+03  0.16459255991E+02  0.26211744656E+03  0.12509107509E+03 0.  0.
          5    1    3    3  502    0  0.83356672688E+02 -0.21038628553E+03  0.27904971232E+02  0.22805017834E+03  0.41800000000E+01 0. -1.
         -5    1    3    3    0  502 -0.29094902018E+02 -0.12868125085E+02 -0.11445715242E+02  0.34067268221E+02  0.41800000000E+01 0. -1.
        -11    1    1    2    0    0 -0.42615861139E+02  0.95317189023E+02 -0.91304466726E+01  0.10480860270E+03  0.00000000000E+00 0.  1.
         11    1    1    2    0    0 -0.11645909531E+02  0.12793722159E+03 -0.11266056655E+03  0.17086826251E+03  0.00000000000E+00 0. -1.
</event>
<event>
 7    1  0.2670433E-009  0.1202863E+03  0.7561462E-02  0.1242626E+00
         -2   -1    0    0    0  501 -0.00000000000E+00  0.00000000000E+00  0.14815353697E+03  0.14815353697E+03  0.00000000000E+00 0.  1.
          2   -1    0    0  501    0  0.00000000000E+00 -0.00000000000E+00 -0.11534474069E+03  0.11534474069E+03  0.00000000000E+00 0. -1.
         25    2    1    2    0    0  0.22496991811E+02 -0.60102853464E+02 -0.17881594624E+02  0.14172598901E+03  0.12509211366E+03 0.  0.
          5    1    3    3  502    0 -0.27923844075E+02 -0.77511706026E+02 -0.28305044993E+02  0.87214985015E+02  0.41800000000E+01 0. -1.
         -5    1    3    3    0  502  0.50420835886E+02  0.17408852562E+02  0.10423450369E+02  0.54511003995E+02  0.41800000000E+01 0. -1.
        -11    1    1    2    0    0 -0.16964045583E+02 -0.18888683764E+02  0.31198956466E+02  0.40223576438E+02  0.00000000000E+00 0.  1.
         11    1    1    2    0    0 -0.55329462277E+01  0.78991537229E+02  0.19491434439E+02  0.81548712217E+02  0.00000000000E+00 0. -1.
</event>
<event>
 7    1  0.2670433E-009  0.1102097E+03  0.7561462E-02  0.1260182E+00
          4   -1    0    0  501    0  0.00000000000E+00  0.00000000000E+00  0.69514227926E+02  0.69514227926E+02  0.00000000000E+00 0. -1.
         -4   -1    0    0    0  501 -0.00000000000E+00 -0.00000000000E+00 -0.32072720198E+03  0.32072720198E+03  0.00000000000E+00 0.  1.
         25    2    1    2    0    0 -0.14666446127E+01  0.65634585471E+02 -0.29609684651E+02  0.14433861329E+03  0.12508737748E+03 0.  0.
          5    1    3    3  502    0 -0.28441798330E+02 -0.26299827261E+02 -0.28770193465E+02  0.48433596173E+02  0.41800000000E+01 0. -1.
         -5    1    3    3    0  502  0.26975153717E+02  0.91934412732E+02 -0.83949118584E+00  0.95905017115E+02  0.41800000000E+01 0. -1.
        -11    1    1    2    0    0 -0.25874921303E+02 -0.21517705303E+02 -0.16781594792E+03  0.17115699100E+03  0.00000000000E+00 0.  1.
         11    1    1    2    0    0  0.27341565915E+02 -0.44116880168E+02 -0.53787341479E+02  0.74745825608E+02  0.00000000000E+00 0. -1.
</event>
<event>
 7    1  0.2670433E-009  0.1169010E+03  0.7561462E-02  0.1248299E+00
          1   -1    0    0  501    0  0.00000000000E+00  0.00000000000E+00  0.35229060887E+02  0.35229060887E+02  0.00000000000E+00 0. -1.
         -1   -1    0    0    0  501 -0.00000000000E+00 -0.00000000000E+00 -0.65926600649E+03  0.65926600649E+03  0.00000000000E+00 0.  1.
         25    2    1    2    0    0  0.60913592990E+02 -0.64643492898E+02 -0.20257247578E+03  0.25411299395E+03  0.12509419956E+03 0.  0.
          5    1    3    3  502    0 -0.20609968268E+02 -0.40407896006E+02 -0.14736459672E+02  0.47876972495E+02  0.41800000000E+01 0.  1.
         -5    1    3    3    0  502  0.81523561258E+02 -0.24235596892E+02 -0.18783601611E+03  0.20623602146E+03  0.41800000000E+01 0.  1.
        -11    1    1    2    0    0 -0.24030826402E+02  0.61561674042E+02 -0.37597109201E+03  0.38173496349E+03  0.00000000000E+00 0.  1.
         11    1    1    2    0    0 -0.36882766587E+02  0.30818188563E+01 -0.45493377809E+02  0.58647109929E+02  0.00000000000E+00 0. -1.
</event>
<event>
 7    1  0.2670433E-009  0.9404854E+02  0.7561462E-02  0.1293334E+00
          1   -1    0    0  501    0  0.00000000000E+00  0.00000000000E+00  0.44262462241E+02  0.44262462241E+02  0.00000000000E+00 0. -1.
         -1   -1    0    0    0  501 -0.00000000000E+00 -0.00000000000E+00 -0.40906415394E+03  0.40906415394E+03  0.00000000000E+00 0.  1.
         25    2    1    2    0    0 -0.74242927370E+01  0.79538876634E+02 -0.22177238874E+03  0.26685671867E+03  0.12509181778E+03 0.  0.
          5    1    3    3  502    0  0.24077638701E+02  0.53287081899E+02 -0.21767921909E+03  0.22543504742E+03  0.41800000000E+01 0. -1.
         -5    1    3    3    0  502 -0.31501931438E+02  0.26251794735E+02 -0.40931696444E+01  0.41421671247E+02  0.41800000000E+01 0. -1.
        -11    1    1    2    0    0 -0.14139534792E+02 -0.17052504739E+02  0.64122287352E+01  0.23061462212E+02  0.00000000000E+00 0. -1.
         11    1    1    2    0    0  0.21563827529E+02 -0.62486371895E+02 -0.14944153170E+03  0.16340843530E+03  0.00000000000E+00 0.  1.
</event>
<event>
 7    1  0.2670433E-009  0.1099920E+03  0.7561462E-02  0.1260585E+00
          1   -1    0    0  501    0  0.00000000000E+00  0.00000000000E+00  0.20489585835E+03  0.20489585835E+03  0.00000000000E+00 0. -1.
         -1   -1    0    0    0  501 -0.00000000000E+00 -0.00000000000E+00 -0.11185792676E+03  0.11185792676E+03  0.00000000000E+00 0.  1.
         25    2    1    2    0    0 -0.92583491689E+02 -0.26570876855E+02  0.45224712484E+01  0.15795019704E+03  0.12510034999E+03 0.  0.
          5    1    3    3  502    0 -0.77098734230E+02 -0.52361350400E+02  0.47999381089E+02  0.10491586544E+03  0.41800000000E+01 0. -1.
         -5    1    3    3    0  502 -0.15484757459E+02  0.25790473545E+02 -0.43476909840E+02  0.53034331602E+02  0.41800000000E+01 0. -1.
        -11    1    1    2    0    0  0.77096111596E+02  0.22149945976E+02  0.12600042154E+02  0.81198470381E+02  0.00000000000E+00 0.  1.
         11    1    1    2    0    0  0.15487380093E+02  0.44209308791E+01  0.75915418195E+02  0.77605117690E+02  0.00000000000E+00 0. -1.
</event>
<event>
 7    1  0.2670433E-009  0.9212935E+02  0.7561462E-02  0.1297776E+00
         -1   -1    0    0    0  501 -0.00000000000E+00  0.00000000000E+00  0.24322791811E+03  0.24322791811E+03  0.00000000000E+00 0. -1.
          1   -1    0    0  501    0  0.00000000000E+00 -0.00000000000E+00 -0.57251166069E+02  0.57251166069E+02  0.00000000000E+00 0.  1.
         25    2    1    2    0    0 -0.42967642771E+01 -0.29117000534E+02  0.56730620678E+02  0.14047453833E+03  0.12509384754E+03 0.  0.
          5    1    3    3  502    0  0.58254706699E+01  0.29762203487E+02 -0.24739493703E+02  0.39360383809E+02  0.41800000000E+01 0. -1.
         -5    1    3    3    0  502 -0.10122234947E+02 -0.58879204021E+02  0.81470114382E+02  0.10111415452E+03  0.41800000000E+01 0. -1.
        -11    1    1    2    0    0 -0.10765830269E+01  0.61208401516E+02  0.92500520149E+02  0.11092327833E+03  0.00000000000E+00 0. -1.
         11    1    1    2    0    0  0.53733473041E+01 -0.32091400981E+02  0.36745611210E+02  0.49081267520E+02  0.00000000000E+00 0.  1.
</event>
<event>
 7    1  0.2670433E-009  0.1221879E+03  0.7561462E-02  0.1239531E+00
          1   -1    0    0  501    0  0.00000000000E+00  0.00000000000E+00  0.16683844182E+03  0.16683844182E+03  0.00000000000E+00 0. -1.
         -1   -1    0    0    0  501 -0.00000000000E+00 -0.00000000000E+00 -0.96529698153E+02  0.96529698153E+02  0.00000000000E+00 0.  1.
         25    2    1    2    0    0 -0.65689475333E+02  0.61817601543E+00  0.51762876809E+02  0.15047152579E+03  0.12508715100E+03 0.  0.
          5    1    3    3  502    0 -0.12873597702E+02 -0.58304906329E+02  0.93064116534E+01  0.60574526970E+02  0.41800000000E+01 0.  1.
         -5    1    3    3    0  502 -0.52815877631E+02  0.58923082344E+02  0.42456465155E+02  0.89896998817E+02  0.41800000000E+01 0.  1.
        -11    1    1    2    0    0 -0.43985268880E+01  0.28898359133E+02 -0.11107163944E+02  0.31270294054E+02  0.00000000000E+00 0.  1.
         11    1    1    2    0    0  0.70088002221E+02 -0.29516535148E+02  0.29653030802E+02  0.81626320132E+02  0.00000000000E+00 0. -1.
</event>
<event>
 7    1  0.2670433E-009  0.1599031E+03  0.7561462E-02  0.1188806E+00
         -1   -1    0    0    0  501 -0.00000000000E+00  0.00000000000E+00  0.13249685880E+03  0.13249685880E+03  0.00000000000E+00 0.  1.
          1   -1    0    0  501    0  0.00000000000E+00 -0.00000000000E+00 -0.23875658745E+03  0.23875658745E+03  0.00000000000E+00 0. -1.
         25    2    1    2    0    0 -0.13322699896E+03 -0.14359905341E+02 -0.99839993385E+02  0.20873758981E+03  0.12509083494E+03 0.  0.
          5    1    3    3  502    0  0.10393534324E+02 -0.35345668579E+02 -0.11727159063E+02  0.38888822337E+02  0.41800000000E+01 0. -1.
         -5    1    3    3    0  502 -0.14362053329E+03  0.20985763239E+02 -0.88112834322E+02  0.16984876747E+03  0.41800000000E+01 0. -1.
        -11    1    1    2    0    0  0.50726729690E+02  0.20679620849E+02 -0.45309637250E+02  0.71090161424E+02  0.00000000000E+00 0. -1.
         11    1    1    2    0    0  0.82500269271E+02 -0.63197155080E+01  0.38889901985E+02  0.91425695022E+02  0.00000000000E+00 0.  1.
</event>
<event>
 7    1  0.2670433E-009  0.8582639E+02  0.7561462E-02  0.1313285E+00
          4   -1    0    0  501    0  0.00000000000E+00  0.00000000000E+00  0.23206093582E+02  0.23206093582E+02  0.00000000000E+00 0. -1.
         -4   -1    0    0    0  501 -0.00000000000E+00 -0.00000000000E+00 -0.64355261109E+03  0.64355261109E+03  0.00000000000E+00 0.  1.
         25    2    1    2    0    0 -0.42538676955E+02  0.15844904798E+02 -0.47202738262E+03  0.49042636629E+03  0.12509025048E+03 0.  0.
          5    1    3    3  502    0  0.17685339338E+02  0.48048389124E+02 -0.10288570473E+03  0.11499721546E+03  0.41800000000E+01 0.  1.
         -5    1    3    3    0  502 -0.60224016293E+02 -0.32203484326E+02 -0.36914167788E+03  0.37542915083E+03  0.41800000000E+01 0.  1.
        -11    1    1    2    0    0  0.33588606271E+01 -0.12037120355E+02  0.81947262181E+01  0.14944154340E+02  0.00000000000E+00 0. -1.
         11    1    1    2    0    0  0.39179816328E+02 -0.38077844431E+01 -0.15651386111E+03  0.16138818405E+03  0.00000000000E+00 0.  1.
</event>
<event>
 7    1  0.2670433E-009  0.1124160E+03  0.7561462E-02  0.1256160E+00
         -1   -1    0    0    0  501 -0.00000000000E+00  0.00000000000E+00  0.34418170670E+03  0.34418170670E+03  0.00000000000E+00 0.  1.
          1   -1    0    0  501    0  0.00000000000E+00 -0.00000000000E+00 -0.57650418619E+02  0.57650418619E+02  0.00000000000E+00 0. -1.
         25    2    1    2    0    0 -0.27711175429E+02 -0.72295644935E+02  0.23292610161E+03  0.27550118048E+03  0.12510700266E+03 0.  0.
          5    1    3    3  502    0  0.16808354291E+02  0.24387061757E+02  0.10424094489E+03  0.10844766732E+03  0.41800000000E+01 0. -1.
         -5    1    3    3    0  502 -0.44519529720E+02 -0.96682706692E+02  0.12868515672E+03  0.16705351316E+03  0.41800000000E+01 0. -1.
        -11    1    1    2    0    0 -0.11346917744E+02  0.21620531570E+02  0.57257345138E+02  0.62246313143E+02  0.00000000000E+00 0.  1.
         11    1    1    2    0    0  0.39058093173E+02  0.50675113366E+02 -0.36521586648E+01  0.64084631698E+02  0.00000000000E+00 0. -1.
</event>
<event>
 7    1  0.2670433E-009  0.9601363E+02  0.7561462E-02  0.1288909E+00
          1   -1    0    0  501    0  0.00000000000E+00  0.00000000000E+00  0.25174922917E+03  0.25174922917E+03  0.00000000000E+00 0. -1.
         -1   -1    0    0    0  501 -0.00000000000E+00 -0.00000000000E+00 -0.45951796150E+02  0.45951796150E+02  0.00000000000E+00 0.  1.
         25    2    1    2    0    0  0.34161274246E+02 -0.16875381348E+02  0.90883094379E+02  0.15924441083E+03  0.12508906580E+03 0.  0.
          5    1    3    3  502    0  0.43451647497E+02  0.39044762683E+02  0.83405515786E+02  0.10191413850E+03  0.41800000000E+01 0. -1.
         -5    1    3    3    0  502 -0.92903732512E+01 -0.55920144030E+02  0.74775785923E+01  0.57330272327E+02  0.41800000000E+01 0. -1.
        -11    1    1    2    0    0 -0.48251901224E+02  0.30448538184E+02  0.77519774442E+02  0.96253181136E+02  0.00000000000E+00 0.  1.
         11    1    1    2    0    0  0.14090626977E+02 -0.13573156837E+02  0.37394564195E+02  0.42203433349E+02  0.00000000000E+00 0. -1.
</event>
<event>
 7    1  0.2670433E-009  0.2511910E+03  0.7561462E-02  0.1112554E+00
         -1   -1    0    0    0  501 -0.00000000000E+00  0.00000000000E+00  0.13295475142E+04  0.13295475142E+04  0.00000000000E+00 0.  1.
          1   -1    0    0  501    0  0.00000000000E+00 -0.00000000000E+00 -0.58709993938E+02  0.58709993938E+02  0.00000000000E+00 0. -1.
         25    2    1    2    0    0 -0.12373084380E+03  0.18998879723E+03  0.34799782399E+03  0.43376710148E+03  0.12508536305E+03 0.  0.
          5    1    3    3  502    0  0.56613613867E+00  0.11193152916E+03  0.14469166205E+03  0.18298124821E+03  0.41800000000E+01 0.  1.
         -5    1    3    3    0  502 -0.12429697994E+03  0.78057268071E+02  0.20330616194E+03  0.25078585327E+03  0.41800000000E+01 0.  1.
        -11    1    1    2    0    0  0.10669345671E+03 -0.82933983369E+02  0.49171592027E+03  0.50994713996E+03  0.00000000000E+00 0.  1.
         11    1    1    2    0    0  0.17037387091E+02 -0.10705481386E+03  0.43112377603E+03  0.44454326672E+03  0.00000000000E+00 0. -1.
</event>
<event>
 7    1  0.2670433E-009  0.1526650E+03  0.7561462E-02  0.1197236E+00
         -1   -1    0    0    0  501 -0.00000000000E+00  0.00000000000E+00  0.58635787748E+02  0.58635787748E+02  0.00000000000E+00 0.  1.
          1   -1    0    0  501    0  0.00000000000E+00 -0.00000000000E+00 -0.61136549933E+03  0.61136549933E+03  0.00000000000E+00 0. -1.
         25    2    1    2    0    0  0.35834052486E+02 -0.12559286503E+03 -0.14274893173E+03  0.23039915955E+03  0.12509543617E+03 0.  0.
          5    1    3    3  502    0  0.72073988785E+02 -0.97421332725E+02 -0.13854912260E+03  0.18411656010E+03  0.41800000000E+01 0.  1.
         -5    1    3    3    0  502 -0.36239936299E+02 -0.28171532305E+02 -0.41998091241E+01  0.46282599452E+02  0.41800000000E+01 0.  1.
        -11    1    1    2    0    0 -0.24446610521E+02  0.19476227179E+02 -0.24773540097E+02  0.39883436162E+02  0.00000000000E+00 0.  1.
         11    1    1    2    0    0 -0.11387441965E+02  0.10611663785E+03 -0.38520723976E+03  0.39971869136E+03  0.00000000000E+00 0. -1.
</event>
<event>
 7    1  0.2670433E-009  0.5288888E+02  0.7561462E-02  0.1430355E+00
         -4   -1    0    0    0  501 -0.00000000000E+00  0.00000000000E+00  0.70350185727E+02  0.70350185727E+02  0.00000000000E+00 0.  1.
          4   -1    0    0  501    0  0.00000000000E+00 -0.00000000000E+00 -0.23872011041E+03  0.23872011041E+03  0.00000000000E+00 0. -1.
         25    2    1    2    0    0 -0.31752745557E+02  0.19275170711E+02 -0.22704903365E+02  0.13244968116E+03  0.12509051262E+03 0.  0.
          5    1    3    3  502    0 -0.34909140786E+01 -0.27366298512E+01 -0.71507492146E+02  0.71766771260E+02  0.41800000000E+01 0. -1.
         -5    1    3    3    0  502 -0.28261831478E+02  0.22011800562E+02  0.48802588781E+02  0.60682909902E+02  0.41800000000E+01 0. -1.
        -11    1    1    2    0    0  0.46189798463E+02 -0.14632266433E+02 -0.15248109254E+03  0.15999401328E+03  0.00000000000E+00 0. -1.
         11    1    1    2    0    0 -0.14437052906E+02 -0.46429042780E+01  0.68160712291E+01  0.16626601690E+02  0.00000000000E+00 0.  1.
</event>
<event>
 7    1  0.2670433E-009  0.1369461E+03  0.7561462E-02  0.1217498E+00
         -1   -1    0    0    0  501 -0.00000000000E+00  0.00000000000E+00  0.62668938385E+03  0.62668938385E+03  0.00000000000E+00 0.  1.
          1   -1    0    0  501    0  0.00000000000E+00 -0.00000000000E+00 -0.49035979043E+02  0.49035979043E+02  0.00000000000E+00 0. -1.
         25    2    1    2    0    0 -0.12255872307E+03  0.10474293316E+02  0.18950644913E+03  0.25824755800E+03  0.12509498602E+03 0.  0.
          5    1    3    3  502    0 -0.60575572101E+02 -0.25425606308E+02  0.12167158410E+02  0.66943061890E+02  0.41800000000E+01 0.  1.
         -5    1    3    3    0  502 -0.61983150967E+02  0.35899899624E+02  0.17733929072E+03  0.19130449611E+03  0.41800000000E+01 0.  1.
        -11    1    1    2    0    0  0.90415120204E+02  0.19352420797E+02  0.15696730815E+03  0.18217613998E+03  0.00000000000E+00 0. -1.
         11    1    1    2    0    0  0.32143602864E+02 -0.29826714113E+02  0.23117964753E+03  0.23530166491E+03  0.00000000000E+00 0.  1.
</event>
<event>
 7    1  0.2670433E-009  0.1208581E+03  0.7561462E-02  0.1241688E+00
         -1   -1    0    0    0  501 -0.00000000000E+00  0.00000000000E+00  0.52156641808E+02  0.52156641808E+02  0.00000000000E+00 0.  1.
          1   -1    0    0  501    0  0.00000000000E+00 -0.00000000000E+00 -0.31845478003E+03  0.31845478003E+03  0.00000000000E+00 0. -1.
         25    2    1    2    0    0  0.34031706310E+02  0.50298091459E+02 -0.18697007657E+03  0.23300903283E+03  0.12508934732E+03 0.  0.
          5    1    3    3  502    0  0.19573163253E+02 -0.41394786652E+02 -0.67095285363E+02  0.81338101771E+02  0.41800000000E+01 0. -1.
         -5    1    3    3    0  502  0.14458543057E+02  0.91692878111E+02 -0.11987479120E+03  0.15167093106E+03  0.41800000000E+01 0. -1.
        -11    1    1    2    0    0 -0.46516590334E+02  0.43886543292E+01 -0.88960731798E+01  0.47562522863E+02  0.00000000000E+00 0. -1.
         11    1    1    2    0    0  0.12484884024E+02 -0.54686745788E+02 -0.70431988475E+02  0.90039866140E+02  0.00000000000E+00 0.  1.
</event>
<event>
 7    1  0.2670433E-009  0.1446837E+03  0.7561462E-02  0.1207162E+00
         -2   -1    0    0    0  501 -0.00000000000E+00  0.00000000000E+00  0.12023436813E+03  0.12023436813E+03  0.00000000000E+00 0.  1.
          2   -1    0    0  501    0  0.00000000000E+00 -0.00000000000E+00 -0.20117951503E+03  0.20117951503E+03  0.00000000000E+00 0. -1.
         25    2    1    2    0    0  0.46143885698E+02 -0.99974472982E+02 -0.61538557746E+02  0.17764718640E+03  0.12508946923E+03 0.  0.
          5    1    3    3  502    0 -0.20258860294E+02  0.19648553322E+02 -0.27055819362E+01  0.28657976929E+02  0.41800000000E+01 0.  1.
         -5    1    3    3    0  502  0.66402745992E+02 -0.11962302630E+03 -0.58832975810E+02  0.14898920948E+03  0.41800000000E+01 0.  1.
        -11    1    1    2    0    0  0.13260695992E+02  0.25009012379E+02 -0.36924782609E+02  0.46526727040E+02  0.00000000000E+00 0. -1.
         11    1    1    2    0    0 -0.59404581689E+02  0.74965460604E+02  0.17518193459E+02  0.97239969721E+02  0.00000000000E+00 0.  1.
</event>
<event>
 7    1  0.2670433E-009  0.1084070E+03  0.7561462E-02  0.1263549E+00
          2   -1    0    0  501    0  0.00000000000E+00  0.00000000000E+00  0.92599787714E+02  0.92599787714E+02  0.00000000000E+00 0. -1.
         -2   -1    0    0    0  501 -0.00000000000E+00 -0.00000000000E+00 -0.18239578118E+03  0.18239578118E+03  0.00000000000E+00 0.  1.
         25    2    1    2    0    0  0.58594459445E+02 -0.37542456096E+02 -0.35945558787E+02  0.14758944585E+03  0.12509122528E+03 0.  0.
          5    1    3    3  502    0  0.65343188189E+02  0.29485646180E+02 -0.15313475301E+01  0.71825851883E+02  0.41800000000E+01 0. -1.
         -5    1    3    3    0  502 -0.67487287440E+01 -0.67028102276E+02 -0.34414211257E+02  0.75763593967E+02  0.41800000000E+01 0. -1.
        -11    1    1    2    0    0 -0.11135630811E+02 -0.63880442574E+01  0.23381359162E+02  0.26673907462E+02  0.00000000000E+00 0. -1.
         11    1    1    2    0    0 -0.47458828634E+02  0.43930500353E+02 -0.77231793845E+02  0.10073221559E+03  0.00000000000E+00 0.  1.
</event>
<event>
 7    1  0.2670433E-009  0.1412415E+03  0.7561462E-02  0.1211668E+00
          2   -1    0    0  501    0  0.00000000000E+00  0.00000000000E+00  0.52128990456E+03  0.52128990456E+03  0.00000000000E+00 0. -1.
         -2   -1    0    0    0  501 -0.00000000000E+00 -0.00000000000E+00 -0.44191301651E+02  0.44191301651E+02  0.00000000000E+00 0.  1.
         25    2    1    2    0    0  0.78776387872E+02  0.63567758617E+02  0.32410123005E+03  0.36185237841E+03  0.12509579219E+03 0.  0.
          5    1    3    3  502    0  0.63885794917E+02 -0.16889182547E+02  0.77161534175E+02  0.10167602488E+03  0.41800000000E+01 0.  1.
         -5    1    3    3    0  502  0.14890592955E+02  0.80456941163E+02  0.24693969587E+03  0.26017635353E+03  0.41800000000E+01 0.  1.
        -11    1    1    2    0    0 -0.10899474257E+02 -0.65534720162E+02  0.77957424415E+02  0.10242537824E+03  0.00000000000E+00 0.  1.
         11    1    1    2    0    0 -0.67876913615E+02  0.19669615458E+01  0.75039948446E+02  0.10120344956E+03  0.00000000000E+00 0. -1.
</event>
<event>
 7    1  0.2670433E-009  0.9906199E+02  0.7561462E-02  0.1282281E+00
         -3   -1    0    0    0  501 -0.00000000000E+00  0.00000000000E+00  0.22025614880E+03  0.22025614880E+03  0.00000000000E+00 0.  1.
          3   -1    0    0  501    0  0.00000000000E+00 -0.00000000000E+00 -0.90542549255E+02  0.90542549255E+02  0.00000000000E+00 0. -1.
         25    2    1    2    0    0  0.63153960327E+02 -0.61182925035E+02  0.94243493433E+02  0.17961243095E+03  0.12508803411E+03 0.  0.
          5    1    3    3  502    0  0.17408798147E+02 -0.16633633178E+02 -0.30698010455E+02  0.39237536257E+02  0.41800000000E+01 0.  1.
         -5    1    3    3    0  502  0.45745162181E+02 -0.44549291857E+02  0.12494150389E+03  0.14037489470E+03  0.41800000000E+01 0.  1.
        -11    1    1    2    0    0 -0.57625698669E+02  0.10331110387E+02  0.51090878998E+02  0.77702837179E+02  0.00000000000E+00 0.  1.
         11    1    1    2    0    0 -0.55282616583E+01  0.50851814648E+02 -0.15620772890E+02  0.53483429916E+02  0.00000000000E+00 0. -1.
</event>
<event>
 7    1  0.2670433E-009  0.1412390E+03  0.7561462E-02  0.1211672E+00
          2   -1    0    0  501    0  0.00000000000E+00  0.00000000000E+00  0.97027213837E+03  0.97027213837E+03  0.00000000000E+00 0. -1.
         -2   -1    0    0    0  501 -0.00000000000E+00 -0.00000000000E+00 -0.23266186501E+02  0.23266186501E+02  0.00000000000E+00 0.  1.
         25    2    1    2    0    0  0.98659859978E+02 -0.12682233079E+02  0.61444191246E+03  0.63488702781E+03  0.12509223512E+03 0.  0.
          5    1    3    3  502    0  0.13674225936E+02  0.51331616697E+02  0.21290602268E+03  0.21947292822E+03  0.41800000000E+01 0. -1.
         -5    1    3    3    0  502  0.84985634042E+02 -0.64013849777E+02  0.40153588978E+03  0.41541409959E+03  0.41800000000E+01 0. -1.
        -11    1    1    2    0    0 -0.10949455795E+02  0.31202984605E+02  0.16830211982E+03  0.17152002906E+03  0.00000000000E+00 0. -1.
         11    1    1    2    0    0 -0.87710404183E+02 -0.18520751526E+02  0.16426191958E+03  0.18713126800E+03  0.00000000000E+00 0.  1.
</event>
<event>
 7    1  0.2670433E-009  0.1410618E+03  0.7561462E-02  0.1211907E+00
          1   -1    0    0  501    0  0.00000000000E+00  0.00000000000E+00  0.26278137010E+03  0.26278137010E+03  0.00000000000E+00 0. -1.
         -1   -1    0    0    0  501 -0.00000000000E+00 -0.00000000000E+00 -0.78159647801E+02  0.78159647801E+02  0.00000000000E+00 0.  1.
         25    2    1    2    0    0  0.52096307189E+02  0.73611900385E+02  0.11228518391E+03  0.19075666323E+03  0.12508958764E+03 0.  0.
          5    1    3    3  502    0  0.91928819271E+02  0.34787418609E+02  0.69354714007E+02  0.12036868804E+03  0.41800000000E+01 0. -1.
         -5    1    3    3    0  502 -0.39832512082E+02  0.38824481776E+02  0.42930469908E+02  0.70387975184E+02  0.41800000000E+01 0. -1.
        -11    1    1    2    0    0 -0.54816126293E+02 -0.93233731685E+02  0.72793603935E+02  0.13036964831E+03  0.00000000000E+00 0.  1.
         11    1    1    2    0    0  0.27198191039E+01  0.19621831300E+02 -0.45706555149E+00  0.19814706368E+02  0.00000000000E+00 0. -1.
</event>
<event>
 7    1  0.2670433E-009  0.1615928E+03  0.7561462E-02  0.1186910E+00
          2   -1    0    0  501    0  0.00000000000E+00  0.00000000000E+00  0.46896153633E+03  0.46896153633E+03  0.00000000000E+00 0. -1.
         -2   -1    0    0    0  501 -0.00000000000E+00 -0.00000000000E+00 -0.71144726967E+02  0.71144726967E+02  0.00000000000E+00 0.  1.
         25    2    1    2    0    0  0.69928277280E+02 -0.11714548382E+03  0.28496470624E+03  0.33980192429E+03  0.12508971023E+03 0.  0.
          5    1    3    3  502    0  0.91558328306E+02 -0.12604318680E+03  0.26992154111E+03  0.31168080335E+03  0.41800000000E+01 0. -1.
         -5    1    3    3    0  502 -0.21630051026E+02  0.88977029850E+01  0.15043165130E+02  0.28121120940E+02  0.41800000000E+01 0. -1.
        -11    1    1    2    0    0 -0.49532163288E+02  0.11212410737E+03  0.47161543002E+02  0.13133720643E+03  0.00000000000E+00 0.  1.
         11    1    1    2    0    0 -0.20396113992E+02  0.50213764437E+01  0.65690560117E+02  0.68967132577E+02  0.00000000000E+00 0. -1.
</event>
<event>
 7    1  0.2670433E-009  0.1939380E+03  0.7561462E-02  0.1154957E+00
          3   -1    0    0  501    0  0.00000000000E+00  0.00000000000E+00  0.92097736961E+02  0.92097736961E+02  0.00000000000E+00 0. -1.
         -3   -1    0    0    0  501 -0.00000000000E+00 -0.00000000000E+00 -0.47351848061E+03  0.47351848061E+03  0.00000000000E+00 0.  1.
         25    2    1    2    0    0 -0.15755711236E+03 -0.81145438713E+02 -0.22349240985E+03  0.31145657678E+03  0.12509003189E+03 0.  0.
          5    1    3    3  502    0 -0.64396491695E+02 -0.96056267235E+02 -0.83964059742E+02  0.14297255102E+03  0.41800000000E+01 0. -1.
         -5    1    3    3    0  502 -0.93160620668E+02  0.14910828522E+02 -0.13952835011E+03  0.16848402575E+03  0.41800000000E+01 0. -1.
        -11    1    1    2    0    0  0.11853421351E+03  0.54488566648E+02 -0.56314713605E+02  0.14209402041E+03  0.00000000000E+00 0. -1.
         11    1    1    2    0    0  0.39022898855E+02  0.26656872065E+02 -0.10161362019E+03  0.11206562038E+03  0.00000000000E+00 0.  1.
</event>
<event>
 7    1  0.2670433E-009  0.3939945E+03  0.7561462E-02  0.1045879E+00
          1   -1    0    0  501    0  0.00000000000E+00  0.00000000000E+00  0.14356346534E+04  0.14356346534E+04  0.00000000000E+00 0. -1.
         -1   -1    0    0    0  501 -0.00000000000E+00 -0.00000000000E+00 -0.14107682346E+03  0.14107682346E+03  0.00000000000E+00 0.  1.
         25    2    1    2    0    0  0.28632565925E+03 -0.24792211023E+03  0.27456660005E+03  0.48423333417E+03  0.12508936076E+03 0.  0.
          5    1    3    3  502    0  0.18220736995E+03 -0.22799867215E+03  0.18681505269E+03  0.34655483907E+03  0.41800000000E+01 0. -1.
         -5    1    3    3    0  502  0.10411828930E+03 -0.19923438077E+02  0.87751547362E+02  0.13767849511E+03  0.41800000000E+01 0. -1.
        -11    1    1    2    0    0 -0.81915991771E+02  0.20938526805E+02  0.25984672556E+03  0.27325623944E+03  0.00000000000E+00 0. -1.
         11    1    1    2    0    0 -0.20440966748E+03  0.22698358342E+03  0.76014450436E+03  0.81922190328E+03  0.00000000000E+00 0.  1.
</event>
<event>
 7    1  0.2670433E-009  0.9067115E+02  0.7561462E-02  0.1301235E+00
         -2   -1    0    0    0  501 -0.00000000000E+00  0.00000000000E+00  0.84346699652E+03  0.84346699652E+03  0.00000000000E+00 0. -1.
          2   -1    0    0  501    0  0.00000000000E+00 -0.00000000000E+00 -0.16467009796E+02  0.16467009796E+02  0.00000000000E+00 0.  1.
         25    2    1    2    0    0 -0.11348162307E+02 -0.22495915070E+02  0.61825943316E+03  0.63128968409E+03  0.12508833507E+03 0.  0.
          5    1    3    3  502    0 -0.56520685250E+02 -0.12322427043E+02  0.15153332058E+03  0.16225365855E+03  0.41800000000E+01 0. -1.
         -5    1    3    3    0  502  0.45172522943E+02 -0.10173488026E+02  0.46672611258E+03  0.46903602554E+03  0.41800000000E+01 0. -1.
        -11    1    1    2    0    0 -0.55124484883E+00 -0.26461944078E+02  0.19671601893E+02  0.32977420704E+02  0.00000000000E+00 0.  1.
         11    1    1    2    0    0  0.11899407155E+02  0.48957859147E+02  0.18906895168E+03  0.19566690152E+03  0.00000000000E+00 0. -1.
</event>
<event>
 7    1  0.2670433E-009  0.2279054E+03  0.7561462E-02  0.1128123E+00
          2   -1    0    0  501    0  0.00000000000E+00  0.00000000000E+00  0.67504915158E+03  0.67504915158E+03  0.00000000000E+00 0. -1.
         -2   -1    0    0    0  501 -0.00000000000E+00 -0.00000000000E+00 -0.83613305683E+02  0.83613305683E+02  0.00000000000E+00 0.  1.
         25    2    1    2    0    0 -0.13870166636E+03 -0.15624763418E+03  0.35597374508E+03  0.43129624225E+03  0.12509063100E+03 0.  0.
          5    1    3    3  502    0 -0.14906261008E+03 -0.12189775953E+03  0.34211987803E+03  0.39260948644E+03  0.41800000000E+01 0.  1.
         -5    1    3    3    0  502  0.10360943717E+02 -0.34349874649E+02  0.13853867043E+02  0.38686755811E+02  0.41800000000E+01 0.  1.
        -11    1    1    2    0    0  0.54596238577E+02  0.12666372229E+03  0.13409715565E+03  0.19237072273E+03  0.00000000000E+00 0.  1.
         11    1    1    2    0    0  0.84105427783E+02  0.29583911885E+02  0.10136494518E+03  0.13499549228E+03  0.00000000000E+00 0. -1.
</event>
<event>
 7    1  0.2670433E-009  0.1729541E+03  0.7561462E-02  0.1174802E+00
          2   -1    0    0  501    0  0.00000000000E+00  0.00000000000E+00  0.97859252314E+03  0.97859252314E+03  0.00000000000E+00 0. -1.
         -2   -1    0    0    0  501 -0.00000000000E+00 -0.00000000000E+00 -0.48629886641E+02  0.48629886641E+02  0.00000000000E+00 0.  1.
         25    2    1    2    0    0 -0.11674880294E+03 -0.78661517541E+02  0.18547540517E+03  0.26431768164E+03  0.12507914923E+03 0.  0.
          5    1    3    3  502    0 -0.10003330559E+03  0.22814741009E+01  0.13237796470E+03  0.16599176271E+03  0.41800000000E+01 0.  1.
         -5    1    3    3    0  502 -0.16715497359E+02 -0.80942991642E+02  0.53097440474E+02  0.98325918927E+02  0.41800000000E+01 0.  1.
        -11    1    1    2    0    0  0.63602607988E+01  0.48024712680E+02  0.15519534828E+03  0.16258050951E+03  0.00000000000E+00 0. -1.
         11    1    1    2    0    0  0.11038854215E+03  0.30636804861E+02  0.58929188305E+03  0.60032421864E+03  0.00000000000E+00 0.  1.
</event>
<event>
 7    1  0.2670433E-009  0.9015038E+02  0.7561462E-02  0.1302488E+00
          1   -1    0    0  501    0  0.00000000000E+00  0.00000000000E+00  0.94312261245E+02  0.94312261245E+02  0.00000000000E+00 0. -1.
         -1   -1    0    0    0  501 -0.00000000000E+00 -0.00000000000E+00 -0.15229282536E+03  0.15229282536E+03  0.00000000000E+00 0.  1.
         25    2    1    2    0    0 -0.72663528472E+01  0.62352530676E+01  0.34990426511E+02  0.13024378041E+03  0.12508970431E+03 0.  0.
          5    1    3    3  502    0  0.57174014541E+02 -0.30590263347E+01  0.30097283133E+02  0.64819321447E+02  0.41800000000E+01 0.  1.
         -5    1    3    3    0  502 -0.64440367388E+02  0.92942794023E+01  0.48931433784E+01  0.65424458965E+02  0.41800000000E+01 0.  1.
        -11    1    1    2    0    0  0.32208101405E+02 -0.56689470944E+01 -0.83500167701E+02  0.89675954209E+02  0.00000000000E+00 0.  1.
         11    1    1    2    0    0 -0.24941748558E+02 -0.56630597321E+00 -0.94708229251E+01  0.26685351983E+02  0.00000000000E+00 0. -1.
</event>
<event>
 7    1  0.2670433E-009  0.1783473E+03  0.7561462E-02  0.1169412E+00
          2   -1    0    0  501    0  0.00000000000E+00  0.00000000000E+00  0.30419650809E+03  0.30419650809E+03  0.00000000000E+00 0. -1.
         -2   -1    0    0    0  501 -0.00000000000E+00 -0.00000000000E+00 -0.12133177940E+03  0.12133177940E+03  0.00000000000E+00 0.  1.
         25    2    1    2    0    0  0.58070926241E+02  0.14075490049E+03  0.14584506734E+03  0.24516040118E+03  0.12509462080E+03 0.  0.
          5    1    3    3  502    0 -0.25307758669E+02  0.16584798006E+02 -0.69279225190E+01  0.31321026231E+02  0.41800000000E+01 0.  1.
         -5    1    3    3    0  502  0.83378684910E+02  0.12417010249E+03  0.15277298985E+03  0.21383937495E+03  0.41800000000E+01 0.  1.
        -11    1    1    2    0    0  0.15845108475E+02 -0.77904767772E+02  0.17262596895E+02  0.81352428087E+02  0.00000000000E+00 0.  1.
         11    1    1    2    0    0 -0.73916034716E+02 -0.62850132720E+02  0.19757064466E+02  0.99015458224E+02  0.00000000000E+00 0. -1.
</event>
<event>
 7    1  0.2670433E-009  0.1584381E+03  0.7561462E-02  0.1190471E+00
         -2   -1    0    0    0  501 -0.00000000000E+00  0.00000000000E+00  0.11965914135E+03  0.11965914135E+03  0.00000000000E+00 0.  1.
          2   -1    0    0  501    0  0.00000000000E+00 -0.00000000000E+00 -0.29155755832E+03  0.29155755832E+03  0.00000000000E+00 0. -1.
         25    2    1    2    0    0 -0.80139441730E+02  0.11814759307E+03 -0.14933193220E+03  0.24151374466E+03  0.12509068318E+03 0.  0.
          5    1    3    3  502    0 -0.98485239356E+02  0.74458899452E+02 -0.53694941161E+02  0.13469999697E+03  0.41800000000E+01 0. -1.
         -5    1    3    3    0  502  0.18345797626E+02  0.43688693614E+02 -0.95636991037E+02  0.10681374769E+03  0.41800000000E+01 0. -1.
        -11    1    1    2    0    0  0.77774509631E+02 -0.96239217835E+02 -0.50910363848E+02  0.13380107079E+03  0.00000000000E+00 0. -1.
         11    1    1    2    0    0  0.23649320984E+01 -0.21908375230E+02  0.28343879082E+02  0.35901884219E+02  0.00000000000E+00 0.  1.
</event>
<event>
 7    1  0.2670433E-009  0.1075243E+03  0.7561462E-02  0.1265224E+00
         -1   -1    0    0    0  501 -0.00000000000E+00  0.00000000000E+00  0.98470814752E+03  0.98470814752E+03  0.00000000000E+00 0.  1.
          1   -1    0    0  501    0  0.00000000000E+00 -0.00000000000E+00 -0.16153701228E+02  0.16153701228E+02  0.00000000000E+00 0. -1.
         25    2    1    2    0    0  0.58557593957E+02  0.26731798266E+02  0.61768669974E+03  0.63350361788E+03  0.12508554663E+03 0.  0.
          5    1    3    3  502    0  0.12524367829E+02  0.72024278367E+02  0.38923911321E+03  0.39606680765E+03  0.41800000000E+01 0. -1.
         -5    1    3    3    0  502  0.46033226128E+02 -0.45292480101E+02  0.22844758653E+03  0.23743681023E+03  0.41800000000E+01 0. -1.
        -11    1    1    2    0    0 -0.15208675988E+02  0.11691645304E+02  0.10056903220E+02  0.21659632905E+02  0.00000000000E+00 0. -1.
         11    1    1    2    0    0 -0.43348917969E+02 -0.38423443570E+02  0.34081084332E+03  0.34569859796E+03  0.00000000000E+00 0.  1.
</event>
<event>
 7    1  0.2670433E-009  0.1207833E+03  0.7561462E-02  0.1241810E+00
          1   -1    0    0  501    0  0.00000000000E+00  0.00000000000E+00  0.49322572759E+03  0.49322572759E+03  0.00000000000E+00 0. -1.
         -1   -1    0    0    0  501 -0.00000000000E+00 -0.00000000000E+00 -0.41139258868E+02  0.41139258868E+02  0.00000000000E+00 0.  1.
         25    2    1    2    0    0 -0.24246092059E+02 -0.88050068651E+02  0.22189220850E+03  0.27060010184E+03  0.12509026882E+03 0.  0.
          5    1    3    3  502    0 -0.53109868446E+02 -0.10256189077E+02  0.31173039398E+02  0.62570586748E+02  0.41800000000E+01 0. -1.
         -5    1    3    3    0  502  0.28863776387E+02 -0.77793879574E+02  0.19071916911E+03  0.20802951510E+03  0.41800000000E+01 0. -1.
        -11    1    1    2    0    0 -0.15409313403E+02  0.17629728161E+02  0.42445273189E+01  0.23796433908E+02  0.00000000000E+00 0.  1.
         11    1    1    2    0    0  0.39655405462E+02  0.70420340490E+02  0.22594973289E+03  0.23996845070E+03  0.00000000000E+00 0. -1.
</event>
<event>
 7    1  0.2670433E-009  0.1232224E+03  0.7561462E-02  0.1237874E+00
         -1   -1    0    0    0  501 -0.00000000000E+00  0.00000000000E+00  0.29957080781E+02  0.29957080781E+02  0.00000000000E+00 0.  1.
          1   -1    0    0  501    0  0.00000000000E+00 -0.00000000000E+00 -0.59290271908E+03  0.59290271908E+03  0.00000000000E+00 0. -1.
         25    2    1    2    0    0  0.60568962717E+02  0.41204488137E+02 -0.23988468340E+03  0.28028490410E+03  0.12509419270E+03 0.  0.
          5    1    3    3  502    0 -0.24606966838E+02 -0.17119784568E+02 -0.11126801371E+03  0.11531102773E+03  0.41800000000E+01 0.  1.
         -5    1    3    3    0  502  0.85175929555E+02  0.58324272705E+02 -0.12861666969E+03  0.16497387637E+03  0.41800000000E+01 0.  1.
        -11    1    1    2    0    0 -0.79726719536E+01  0.26188244505E+02 -0.59476333688E+02  0.65473826200E+02  0.00000000000E+00 0.  1.
         11    1    1    2    0    0 -0.52596290764E+02 -0.67392732643E+02 -0.26358462121E+03  0.27710106956E+03  0.00000000000E+00 0. -1.
</event>
<event>
 7    1  0.2703435E-009  0.1471616E+03  0.7561462E-02  0.1204005E+00
         -1   -1    0    0    0  501 -0.00000000000E+00  0.00000000000E+00  0.17502859087E+02  0.17502859087E+02  0.00000000000E+00 0.  1.
          1   -1    0    0  501    0  0.00000000000E+00 -0.00000000000E+00 -0.14370190211E+04  0.14370190211E+04  0.00000000000E+00 0. -1.
         25    2    1    2    0    0 -0.15197176867E+02  0.10181779278E+03 -0.10031714830E+04  0.10161673141E+04  0.12508064931E+03 0.  0.
          5    1    3    3  502    0 -0.98024436801E+01 -0.27628218680E+02 -0.12373904158E+03  0.12723297207E+03  0.41800000000E+01 0.  1.
         -5    1    3    3    0  502 -0.53947331865E+01  0.12944601146E+03 -0.87943244144E+03  0.88893434205E+03  0.41800000000E+01 0.  1.
        -11    1    1    2    0    0 -0.36788703517E+02 -0.42578304106E+02 -0.21189764295E+03  0.21924171997E+03  0.00000000000E+00 0. -1.
         11    1    1    2    0    0  0.51985880384E+02 -0.59239488675E+02 -0.20444703605E+03  0.21911284610E+03  0.00000000000E+00 0.  1.
</event>
<event>
 7    1  0.3436387E-009  0.1016293E+03  0.7561462E-02  0.1276907E+00
          4   -1    0    0  501    0  0.00000000000E+00  0.00000000000E+00  0.33803374128E+03  0.33803374128E+03  0.00000000000E+00 0. -1.
         -4   -1    0    0    0  501 -0.00000000000E+00 -0.00000000000E+00 -0.69551797900E+02  0.69551797900E+02  0.00000000000E+00 0.  1.
         25    2    1    2    0    0  0.85759761974E+02 -0.53504032387E+02  0.19480632739E+03  0.25261572748E+03  0.12509109609E+03 0.  0.
          5    1    3    3  502    0  0.36948365440E+02 -0.29441421344E+02 -0.28968575739E+01  0.47516767391E+02  0.41800000000E+01 0.  1.
         -5    1    3    3    0  502  0.48811396533E+02 -0.24062611044E+02  0.19770318497E+03  0.20509896009E+03  0.41800000000E+01 0.  1.
        -11    1    1    2    0    0 -0.64336380848E+02  0.37097545713E+02 -0.23444190628E+01  0.74302719327E+02  0.00000000000E+00 0.  1.
         11    1    1    2    0    0 -0.21423381125E+02  0.16406486674E+02  0.76020035046E+02  0.80667092375E+02  0.00000000000E+00 0. -1.
</event>
<event>
 7    1  0.2670433E-009  0.1308073E+03  0.7561462E-02  0.1226263E+00
         -1   -1    0    0    0  501 -0.00000000000E+00  0.00000000000E+00  0.13622396970E+03  0.13622396970E+03  0.00000000000E+00 0.  1.
          1   -1    0    0  501    0  0.00000000000E+00 -0.00000000000E+00 -0.14934237432E+03  0.14934237432E+03  0.00000000000E+00 0. -1.
         25    2    1    2    0    0  0.31714394639E+02  0.84186953722E+02  0.16332536956E+02  0.15494289135E+03  0.12508917544E+03 0.  0.
          5    1    3    3  502    0 -0.43969836111E+02  0.50487237373E+01  0.63347290026E+01  0.44904757994E+02  0.41800000000E+01 0. -1.
         -5    1    3    3    0  502  0.75684230750E+02  0.79138229985E+02  0.99978079532E+01  0.11003813336E+03  0.41800000000E+01 0. -1.
        -11    1    1    2    0    0 -0.27330538869E+02 -0.93430261756E+02 -0.48682613188E+02  0.10884010747E+03  0.00000000000E+00 0. -1.
         11    1    1    2    0    0 -0.43838557704E+01  0.92433080339E+01  0.19231671621E+02  0.21783345201E+02  0.00000000000E+00 0.  1.
</event>
<event>
 7    1  0.2670433E-009  0.1179456E+03  0.7561462E-02  0.1246525E+00
         -2   -1    0    0    0  501 -0.00000000000E+00  0.00000000000E+00  0.16269732638E+02  0.16269732638E+02  0.00000000000E+00 0.  1.
          2   -1    0    0  501    0  0.00000000000E+00 -0.00000000000E+00 -0.10641320163E+04  0.10641320163E+04  0.00000000000E+00 0. -1.
         25    2    1    2    0    0 -0.75303540584E+01 -0.58739044095E+02 -0.76693028856E+03  0.77931775433E+03  0.12508842144E+03 0.  0.
          5    1    3    3  502    0 -0.47087721675E+02  0.15861784368E+02 -0.20019748156E+03  0.20631372654E+03  0.41800000000E+01 0.  1.
         -5    1    3    3    0  502  0.39557367616E+02 -0.74600828463E+02 -0.56673280700E+03  0.57300402779E+03  0.41800000000E+01 0.  1.
        -11    1    1    2    0    0 -0.36141092536E+02  0.13430284696E+02 -0.59633221541E+02  0.71011775277E+02  0.00000000000E+00 0. -1.
         11    1    1    2    0    0  0.43671446594E+02  0.45308759399E+02 -0.22129877360E+03  0.23007221936E+03  0.00000000000E+00 0.  1.
</event>
<event>
 7    1  0.2670433E-009  0.1202228E+03  0.7561462E-02  0.1242730E+00
          1   -1    0    0  501    0  0.00000000000E+00  0.00000000000E+00  0.99635789870E+02  0.99635789870E+02  0.00000000000E+00 0. -1.
         -1   -1    0    0    0  501 -0.00000000000E+00 -0.00000000000E+00 -0.17143180074E+03  0.17143180074E+03  0.00000000000E+00 0.  1.
         25    2    1    2    0    0  0.72201870699E+02 -0.94354607170E+01 -0.50697762588E+02  0.15336544131E+03  0.12509419413E+03 0.  0.
          5    1    3    3  502    0 -0.19867344493E+02  0.35850212547E+02 -0.71101646108E+01  0.41808802395E+02  0.41800000000E+01 0. -1.
         -5    1    3    3    0  502  0.92069215192E+02 -0.45285673264E+02 -0.43587597977E+02  0.11155663892E+03  0.41800000000E+01 0. -1.
        -11    1    1    2    0    0 -0.81232793025E+02 -0.28816588893E+01  0.11125847111E+02  0.82041788709E+02  0.00000000000E+00 0. -1.
         11    1    1    2    0    0  0.90309223266E+01  0.12317119606E+02 -0.32224095395E+02  0.35660360591E+02  0.00000000000E+00 0.  1.
</event>
<event>
 7    1  0.2670433E-009  0.1203120E+03  0.7561462E-02  0.1242583E+00
          3   -1    0    0  501    0  0.00000000000E+00  0.00000000000E+00  0.12837084786E+03  0.12837084786E+03  0.00000000000E+00 0. -1.
         -3   -1    0    0    0  501 -0.00000000000E+00 -0.00000000000E+00 -0.15750375935E+03  0.15750375935E+03  0.00000000000E+00 0.  1.
         25    2    1    2    0    0 -0.76048011326E+02  0.49315130101E+01 -0.59190405168E+02  0.15798235862E+03  0.12508917508E+03 0.  0.
          5    1    3    3  502    0 -0.82233816356E+02 -0.28846751749E+02 -0.79357995056E+02  0.11793938875E+03  0.41800000000E+01 0.  1.
         -5    1    3    3    0  502  0.61858050296E+01  0.33778264759E+02  0.20167589888E+02  0.40042969869E+02  0.41800000000E+01 0.  1.
        -11    1    1    2    0    0 -0.20231193333E+02 -0.95957994310E+01  0.21629747180E+02  0.31132402950E+02  0.00000000000E+00 0. -1.
         11    1    1    2    0    0  0.96279204659E+02  0.46642864209E+01  0.84277464976E+01  0.96759845642E+02  0.00000000000E+00 0.  1.
</event>
<event>
 7    1  0.2670433E-009  0.7061375E+02  0.7561462E-02  0.1358018E+00
          2   -1    0    0  501    0  0.00000000000E+00  0.00000000000E+00  0.10261460820E+03  0.10261460820E+03  0.00000000000E+00 0. -1.
         -2   -1    0    0    0  501 -0.00000000000E+00 -0.00000000000E+00 -0.12461255813E+03  0.12461255813E+03  0.00000000000E+00 0.  1.
         25    2    1    2    0    0  0.77987612245E+00 -0.32711289141E+02 -0.30771114783E+02  0.13290803659E+03  0.12508816107E+03 0.  0.
          5    1    3    3  502    0 -0.24202413119E+02  0.59317607795E+01  0.40639077888E+02  0.47853418251E+02  0.41800000000E+01 0. -1.
         -5    1    3    3    0  502  0.24982289241E+02 -0.38643049920E+02 -0.71410192671E+02  0.85054618336E+02  0.41800000000E+01 0. -1.
        -11    1    1    2    0    0  0.17992048351E+02 -0.11753593597E+02 -0.26806218595E+02  0.34357446378E+02  0.00000000000E+00 0.  1.
         11    1    1    2    0    0 -0.18771924473E+02  0.44464882738E+02  0.35579383448E+02  0.59961683364E+02  0.00000000000E+00 0. -1.
</event>
<event>
 7    1  0.2670433E-009  0.1235522E+03  0.7561462E-02  0.1237349E+00
          2   -1    0    0  501    0  0.00000000000E+00  0.00000000000E+00  0.19547111830E+04  0.19547111830E+04  0.00000000000E+00 0. -1.
         -2   -1    0    0    0  501 -0.00000000000E+00 -0.00000000000E+00 -0.15070227560E+02  0.15070227560E+02  0.00000000000E+00 0.  1.
         25    2    1    2    0    0  0.29982469310E+02  0.73483996596E+02  0.16400687062E+04  0.16467460583E+04  0.12509345838E+03 0.  0.
          5    1    3    3  502    0  0.65346478498E+02  0.73428718289E+02  0.14524196289E+04  0.14557479830E+04  0.41800000000E+01 0.  1.
         -5    1    3    3    0  502 -0.35364009187E+02  0.55278307536E-01  0.18764907723E+03  0.19099807535E+03  0.41800000000E+01 0.  1.
        -11    1    1    2    0    0 -0.53215474152E+02 -0.72397937177E+02  0.27452274248E+03  0.28885304938E+03  0.00000000000E+00 0.  1.
         11    1    1    2    0    0  0.23233004842E+02 -0.10860594194E+01  0.25049506727E+02  0.34182302824E+02  0.00000000000E+00 0. -1.
</event>
<event>
 7    1  0.2670433E-009  0.8772041E+02  0.7561462E-02  0.1308468E+00
         -2   -1    0    0    0  501 -0.00000000000E+00  0.00000000000E+00  0.11933287690E+03  0.11933287690E+03  0.00000000000E+00 0.  1.
          2   -1    0    0  501    0  0.00000000000E+00 -0.00000000000E+00 -0.22230699355E+03  0.22230699355E+03  0.00000000000E+00 0. -1.
         25    2    1    2    0    0 -0.62620787532E+02 -0.57732682020E+02 -0.14821006105E+03  0.21182134456E+03  0.12509050409E+03 0.  0.
          5    1    3    3  502    0 -0.63526937672E+02 -0.49304851505E+02 -0.16997990923E+03  0.18808849549E+03  0.41800000000E+01 0. -1.
         -5    1    3    3    0  502  0.90615014012E+00 -0.84278305142E+01  0.21769848185E+02  0.23732849075E+02  0.41800000000E+01 0. -1.
        -11    1    1    2    0    0  0.19398574366E+02  0.22460680893E+02  0.64336323150E+02  0.70851600900E+02  0.00000000000E+00 0.  1.
         11    1    1    2    0    0  0.43222213167E+02  0.35272001126E+02 -0.19100378751E+02  0.58966924991E+02  0.00000000000E+00 0. -1.
</event>
<event>
 7    1  0.2670433E-009  0.1076380E+03  0.7561462E-02  0.1265008E+00
          2   -1    0    0  501    0  0.00000000000E+00  0.00000000000E+00  0.15456110391E+03  0.15456110391E+03  0.00000000000E+00 0. -1.
         -2   -1    0    0    0  501 -0.00000000000E+00 -0.00000000000E+00 -0.11542496386E+03  0.11542496386E+03  0.00000000000E+00 0.  1.
         25    2    1    2    0    0  0.42415934212E+02  0.46862194775E+02 -0.24518738615E+02  0.14228660315E+03  0.12509649123E+03 0.  0.
          5    1    3    3  502    0  0.21478437236E+02  0.85262610898E+02  0.68641213787E+01  0.88292834621E+02  0.41800000000E+01 0.  1.
         -5    1    3    3    0  502  0.20937496976E+02 -0.38400416123E+02 -0.31382859994E+02  0.53993768524E+02  0.41800000000E+01 0.  1.
        -11    1    1    2    0    0 -0.18235344502E+01 -0.42442027928E+02 -0.98559232098E+01  0.43609520002E+02  0.00000000000E+00 0.  1.
         11    1    1    2    0    0 -0.40592399762E+02 -0.44201668468E+01  0.73510801872E+02  0.84089944615E+02  0.00000000000E+00 0. -1.
</event>
<event>
 7    1  0.2670433E-009  0.9827550E+02  0.7561462E-02  0.1283965E+00
         -2   -1    0    0    0  501 -0.00000000000E+00  0.00000000000E+00  0.26113164004E+02  0.26113164004E+02  0.00000000000E+00 0.  1.
          2   -1    0    0  501    0  0.00000000000E+00 -0.00000000000E+00 -0.46921639405E+03  0.46921639405E+03  0.00000000000E+00 0. -1.
         25    2    1    2    0    0  0.16413341372E+02  0.15121492046E+02 -0.26158016375E+03  0.29080786280E+03  0.12508786392E+03 0.  0.
          5    1    3    3  502    0  0.29781943731E+02  0.55351045183E+02 -0.68404357914E+02  0.92991026217E+02  0.41800000000E+01 0. -1.
         -5    1    3    3    0  502 -0.13368602359E+02 -0.40229553137E+02 -0.19317580583E+03  0.19781683658E+03  0.41800000000E+01 0. -1.
        -11    1    1    2    0    0 -0.49817554868E+02  0.78314400730E+01 -0.73422096302E+02  0.89072579686E+02  0.00000000000E+00 0.  1.
         11    1    1    2    0    0  0.33404213496E+02 -0.22952932119E+02 -0.10810097000E+03  0.11544911557E+03  0.00000000000E+00 0. -1.
</event>
<event>
 7    1  0.2670433E-009  0.1853111E+03  0.7561462E-02  0.1162760E+00
          1   -1    0    0  501    0  0.00000000000E+00  0.00000000000E+00  0.77568491802E+03  0.77568491802E+03  0.00000000000E+00 0. -1.
         -1   -1    0    0    0  501 -0.00000000000E+00 -0.00000000000E+00 -0.57814260984E+02  0.57814260984E+02  0.00000000000E+00 0.  1.
         25    2    1    2    0    0  0.15285824505E+03  0.99127099844E+02  0.37411129516E+03  0.43450884951E+03  0.12508738600E+03 0.  0.
          5    1    3    3  502    0  0.55914571984E+02  0.16326827521E+02  0.26307689814E+02  0.64051320052E+02  0.41800000000E+01 0. -1.
         -5    1    3    3    0  502  0.96943673066E+02  0.82800272323E+02  0.34780360534E+03  0.37045752946E+03  0.41800000000E+01 0. -1.
        -11    1    1    2    0    0 -0.50347441464E+02 -0.16449073709E+02  0.35460633109E+02  0.63740829837E+02  0.00000000000E+00 0.  1.
         11    1    1    2    0    0 -0.10251080359E+03 -0.82678026135E+02  0.30829872877E+03  0.33524949966E+03  0.00000000000E+00 0. -1.
</event>
<event>
 7    1  0.2670433E-009  0.1312659E+03  0.7561462E-02  0.1225589E+00
         -1   -1    0    0    0  501 -0.00000000000E+00  0.00000000000E+00  0.21199714857E+02  0.21199714857E+02  0.00000000000E+00 0.  1.
          1   -1    0    0  501    0  0.00000000000E+00 -0.00000000000E+00 -0.10872810296E+04  0.10872810296E+04  0.00000000000E+00 0. -1.
         25    2    1    2    0    0 -0.81627536330E+02  0.48302904753E+02 -0.73336773462E+03  0.74998069296E+03  0.12508629154E+03 0.  0.
          5    1    3    3  502    0  0.16312467718E+02  0.54099770291E+02 -0.21173291462E+03  0.21918298584E+03  0.41800000000E+01 0. -1.
         -5    1    3    3    0  502 -0.97940004048E+02 -0.57968655382E+01 -0.52163482000E+03  0.53079770712E+03  0.41800000000E+01 0. -1.
        -11    1    1    2    0    0  0.40904513124E+02  0.43197467244E+01 -0.24486833257E+03  0.24829889186E+03  0.00000000000E+00 0. -1.
         11    1    1    2    0    0  0.40723023206E+02 -0.52622651477E+02 -0.87845247558E+02  0.11020115964E+03  0.00000000000E+00 0.  1.
</event>
<event>
 7    1  0.3387302E-009  0.9397992E+02  0.7561462E-02  0.1293490E+00
          2   -1    0    0  501    0  0.00000000000E+00  0.00000000000E+00  0.65197320498E+03  0.65197320498E+03  0.00000000000E+00 0. -1.
         -2   -1    0    0    0  501 -0.00000000000E+00 -0.00000000000E+00 -0.22591181572E+02  0.22591181572E+02  0.00000000000E+00 0.  1.
         25    2    1    2    0    0 -0.21821231556E+02 -0.46007271049E+02  0.41155361966E+03  0.43314735897E+03  0.12508963822E+03 0.  0.
          5    1    3    3  502    0 -0.37884737935E+02 -0.13923242620E+01  0.36354238584E+03  0.36553759128E+03  0.41800000000E+01 0.  1.
         -5    1    3    3    0  502  0.16063506379E+02 -0.44614946787E+02  0.48011233816E+02  0.67609767686E+02  0.41800000000E+01 0.  1.
        -11    1    1    2    0    0 -0.27461891567E+02 -0.84866641370E+01  0.83481822724E+02  0.88291526672E+02  0.00000000000E+00 0. -1.
         11    1    1    2    0    0  0.49283123122E+02  0.54493935186E+02  0.13434658102E+03  0.15312550091E+03  0.00000000000E+00 0.  1.
</event>
<event>
 7    1  0.2670433E-009  0.7720284E+02  0.7561462E-02  0.1337182E+00
         -2   -1    0    0    0  501 -0.00000000000E+00  0.00000000000E+00  0.47837484910E+02  0.47837484910E+02  0.00000000000E+00 0. -1.
          2   -1    0    0  501    0  0.00000000000E+00 -0.00000000000E+00 -0.29477621582E+03  0.29477621582E+03  0.00000000000E+00 0.  1.
         25    2    1    2    0    0 -0.18157849165E+02  0.33236850049E+02 -0.98600802719E+02  0.16371456957E+03  0.12508375716E+03 0.  0.
          5    1    3    3  502    0 -0.16670511467E+02 -0.15492432392E+02  0.23008129071E+02  0.32630780213E+02  0.41800000000E+01 0.  1.
         -5    1    3    3    0  502 -0.14873376978E+01  0.48729282441E+02 -0.12160893179E+03  0.13108378935E+03  0.41800000000E+01 0.  1.
        -11    1    1    2    0    0  0.24944276691E+02  0.17931007472E+02 -0.11105686641E+03  0.11522745136E+03  0.00000000000E+00 0.  1.
         11    1    1    2    0    0 -0.67864275257E+01 -0.51167857521E+02 -0.37281061773E+02  0.63671679802E+02  0.00000000000E+00 0. -1.
</event>
<event>
 7    1  0.2670433E-009  0.1008375E+03  0.7561462E-02  0.1278545E+00
         -1   -1    0    0    0  501 -0.00000000000E+00  0.00000000000E+00  0.49449579468E+02  0.49449579468E+02  0.00000000000E+00 0.  1.
          1   -1    0    0  501    0  0.00000000000E+00 -0.00000000000E+00 -0.38290265445E+03  0.38290265445E+03  0.00000000000E+00 0. -1.
         25    2    1    2    0    0 -0.30155214100E+01 -0.58905949758E+01 -0.31056452068E+03  0.33487629808E+03  0.12509205024E+03 0.  0.
          5    1    3    3  502    0  0.53127248291E+02  0.10175756506E+02 -0.22326851144E+03  0.22976586155E+03  0.41800000000E+01 0.  1.
         -5    1    3    3    0  502 -0.56142769701E+02 -0.16066351482E+02 -0.87296009235E+02  0.10511043653E+03  0.41800000000E+01 0.  1.
        -11    1    1    2    0    0 -0.91343562308E+01  0.46034862716E+02  0.48627980380E+01  0.47183597296E+02  0.00000000000E+00 0.  1.
         11    1    1    2    0    0  0.12149877641E+02 -0.40144267740E+02 -0.27751352343E+02  0.50292338541E+02  0.00000000000E+00 0. -1.
</event>
<event>
 7    1  0.2670433E-009  0.2086832E+03  0.7561462E-02  0.1142613E+00
         -1   -1    0    0    0  501 -0.00000000000E+00  0.00000000000E+00  0.17294577276E+03  0.17294577276E+03  0.00000000000E+00 0.  1.
          1   -1    0    0  501    0  0.00000000000E+00 -0.00000000000E+00 -0.27923458781E+03  0.27923458781E+03  0.00000000000E+00 0. -1.
         25    2    1    2    0    0 -0.18597275045E+03 -0.30319972965E+02 -0.86802035019E+02  0.24225192256E+03  0.12508491528E+03 0.  0.
          5    1    3    3  502    0 -0.12315061562E+03 -0.69143755811E+02 -0.91167491450E+02  0.16815444387E+03  0.41800000000E+01 0.  1.
         -5    1    3    3    0  502 -0.62822134829E+02  0.38823782846E+02  0.43654564311E+01  0.74097478694E+02  0.41800000000E+01 0.  1.
        -11    1    1    2    0    0  0.15770155281E+03 -0.38555837133E+01  0.76463083879E+01  0.15793388274E+03  0.00000000000E+00 0.  1.
         11    1    1    2    0    0  0.28271197639E+02  0.34175556678E+02 -0.27133088414E+02  0.51994555264E+02  0.00000000000E+00 0. -1.
</event>
<event>
 7    1  0.2818485E-009  0.1667596E+03  0.7561462E-02  0.1181270E+00
          2   -1    0    0  501    0  0.00000000000E+00  0.00000000000E+00  0.97601526759E+03  0.97601526759E+03  0.00000000000E+00 0. -1.
         -2   -1    0    0    0  501 -0.00000000000E+00 -0.00000000000E+00 -0.33826965450E+02  0.33826965450E+02  0.00000000000E+00 0.  1.
         25    2    1    2    0    0  0.10235633692E+03  0.94561978243E+02  0.38160750682E+03  0.42507561196E+03  0.12508476798E+03 0.  0.
          5    1    3    3  502    0  0.12782854678E+03  0.59430533290E+02  0.31900808836E+03  0.34879185556E+03  0.41800000000E+01 0. -1.
         -5    1    3    3    0  502 -0.25472209858E+02  0.35131444953E+02  0.62599418458E+02  0.76283756402E+02  0.41800000000E+01 0. -1.
        -11    1    1    2    0    0 -0.19505832117E+02 -0.52440308517E+02  0.97168417249E+02  0.11212566501E+03  0.00000000000E+00 0.  1.
         11    1    1    2    0    0 -0.82850504807E+02 -0.42121669726E+02  0.46341237806E+03  0.47264095606E+03  0.00000000000E+00 0. -1.
</event>
<event>
 7    1  0.2670433E-009  0.9833789E+02  0.7561462E-02  0.1283830E+00
         -1   -1    0    0    0  501 -0.00000000000E+00  0.00000000000E+00  0.42158034504E+03  0.42158034504E+03  0.00000000000E+00 0.  1.
          1   -1    0    0  501    0  0.00000000000E+00 -0.00000000000E+00 -0.40155369309E+02  0.40155369309E+02  0.00000000000E+00 0. -1.
         25    2    1    2    0    0 -0.12667409082E+02  0.67155495248E+02  0.17533297932E+03  0.22596397626E+03  0.12509093146E+03 0.  0.
          5    1    3    3  502    0 -0.29072680262E+02  0.71154121126E+02  0.35007356873E+02  0.84564278074E+02  0.41800000000E+01 0. -1.
         -5    1    3    3    0  502  0.16405271181E+02 -0.39986258778E+01  0.14032562245E+03  0.14139969818E+03  0.41800000000E+01 0. -1.
        -11    1    1    2    0    0 -0.30403061469E+02 -0.43769409333E+02  0.53547860923E+02  0.75547870581E+02  0.00000000000E+00 0. -1.
         11    1    1    2    0    0  0.43070470550E+02 -0.23386085916E+02  0.15254413549E+03  0.16022386751E+03  0.00000000000E+00 0.  1.
</event>
<event>
 7    1  0.3018515E-009  0.1246780E+03  0.7561462E-02  0.1235573E+00
          2   -1    0    0  501    0  0.00000000000E+00  0.00000000000E+00  0.13587325544E+04  0.13587325544E+04  0.00000000000E+00 0. -1.
         -2   -1    0    0    0  501 -0.00000000000E+00 -0.00000000000E+00 -0.22476802914E+02  0.22476802914E+02  0.00000000000E+00 0.  1.
         25    2    1    2    0    0  0.48294936221E+02 -0.86054210330E+02  0.10827908731E+04  0.10944503538E+04  0.12509106289E+03 0.  0.
          5    1    3    3  502    0  0.58596371043E+02 -0.80261510780E+01  0.75469889731E+03  0.75702434030E+03  0.41800000000E+01 0. -1.
         -5    1    3    3    0  502 -0.10301434822E+02 -0.78028059252E+02  0.32809197581E+03  0.33742601349E+03  0.41800000000E+01 0. -1.
        -11    1    1    2    0    0 -0.32378931303E+02  0.10503526719E+02  0.16870684000E+03  0.17210670274E+03  0.00000000000E+00 0. -1.
         11    1    1    2    0    0 -0.15916004917E+02  0.75550683611E+02  0.84758038356E+02  0.11465230077E+03  0.00000000000E+00 0.  1.
</event>
<event>
 7    1  0.2670433E-009  0.1246237E+03  0.7561462E-02  0.1235659E+00
          1   -1    0    0  501    0  0.00000000000E+00  0.00000000000E+00  0.25018439294E+03  0.25018439294E+03  0.00000000000E+00 0. -1.
         -1   -1    0    0    0  501 -0.00000000000E+00 -0.00000000000E+00 -0.10894875290E+03  0.10894875290E+03  0.00000000000E+00 0.  1.
         25    2    1    2    0    0 -0.23644616869E+02  0.91640601368E+02  0.16112291434E+03  0.22486583384E+03  0.12508789701E+03 0.  0.
          5    1    3    3  502    0 -0.73851865912E+02  0.54027216731E+02  0.75893292316E+02  0.11895504388E+03  0.41800000000E+01 0. -1.
         -5    1    3    3    0  502  0.50207249043E+02  0.37613384637E+02  0.85229622023E+02  0.10591078996E+03  0.41800000000E+01 0. -1.
        -11    1    1    2    0    0  0.10249075130E+02 -0.30233146711E+02  0.37437414519E+02  0.49200068160E+02  0.00000000000E+00 0. -1.
         11    1    1    2    0    0  0.13395541739E+02 -0.61407454657E+02 -0.57324688814E+02  0.85067243834E+02  0.00000000000E+00 0.  1.
</event>
<event>
 7    1  0.2670433E-009  0.2036875E+03  0.7561462E-02  0.1146665E+00
          1   -1    0    0  501    0  0.00000000000E+00  0.00000000000E+00  0.13790889425E+04  0.13790889425E+04  0.00000000000E+00 0. -1.
         -1   -1    0    0    0  501 -0.00000000000E+00 -0.00000000000E+00 -0.55276108628E+02  0.55276108628E+02  0.00000000000E+00 0.  1.
         25    2    1    2    0    0  0.17579115954E+03 -0.98363539485E+02  0.10769748861E+04  0.11027706578E+04  0.12510116180E+03 0.  0.
          5    1    3    3  502    0  0.32644257421E+02 -0.38095497606E+02  0.57743852693E+03  0.57962888063E+03  0.41800000000E+01 0. -1.
         -5    1    3    3    0  502  0.14314690212E+03 -0.60268041879E+02  0.49953635919E+03  0.52314177716E+03  0.41800000000E+01 0. -1.
        -11    1    1    2    0    0 -0.20619828824E+02  0.81689072209E+01 -0.46187031578E+01  0.22654818578E+02  0.00000000000E+00 0.  1.
         11    1    1    2    0    0 -0.15517133072E+03  0.90194632264E+02  0.25145665092E+03  0.30893957477E+03  0.00000000000E+00 0. -1.
</event>
<event>
 7    1  0.2670433E-009  0.1139209E+03  0.7561462E-02  0.1253477E+00
          4   -1    0    0  501    0  0.00000000000E+00  0.00000000000E+00  0.21662728086E+03  0.21662728086E+03  0.00000000000E+00 0. -1.
         -4   -1    0    0    0  501 -0.00000000000E+00 -0.00000000000E+00 -0.10331540030E+03  0.10331540030E+03  0.00000000000E+00 0.  1.
         25    2    1    2    0    0 -0.57757096071E+02 -0.83003737887E+02  0.49869437344E+02  0.16840557708E+03  0.12509186608E+03 0.  0.
          5    1    3    3  502    0 -0.23417296957E+02 -0.76027821920E+02 -0.26763268555E+02  0.84037756077E+02  0.41800000000E+01 0. -1.
         -5    1    3    3    0  502 -0.34339799114E+02 -0.69759159666E+01  0.76632705899E+02  0.84367820999E+02  0.41800000000E+01 0. -1.
        -11    1    1    2    0    0  0.44117551991E+02  0.20022108503E+02 -0.14341914369E+02  0.50526564600E+02  0.00000000000E+00 0.  1.
         11    1    1    2    0    0  0.13639544080E+02  0.62981629383E+02  0.77784357582E+02  0.10101053948E+03  0.00000000000E+00 0. -1.
</event>
<event>
 7    1  0.2670433E-009  0.1498791E+03  0.7561462E-02  0.1200622E+00
          1   -1    0    0  501    0  0.00000000000E+00  0.00000000000E+00  0.14522945544E+04  0.14522945544E+04  0.00000000000E+00 0. -1.
         -1   -1    0    0    0  501 -0.00000000000E+00 -0.00000000000E+00 -0.22741692269E+02  0.22741692269E+02  0.00000000000E+00 0.  1.
         25    2    1    2    0    0 -0.12017565484E+02  0.14126747885E+03  0.99322082731E+03  0.10110578558E+04  0.12509777580E+03 0.  0.
          5    1    3    3  502    0 -0.11874821595E+02  0.12830688372E+03  0.46168689272E+03  0.47934948327E+03  0.41800000000E+01 0. -1.
         -5    1    3    3    0  502 -0.14274388934E+00  0.12960595133E+02  0.53153393459E+03  0.53170837254E+03  0.41800000000E+01 0. -1.
        -11    1    1    2    0    0  0.35940090738E+02 -0.42818917014E+02  0.13705174498E+03  0.14801462961E+03  0.00000000000E+00 0. -1.
         11    1    1    2    0    0 -0.23922525254E+02 -0.98448561839E+02  0.29928028989E+03  0.31596376130E+03  0.00000000000E+00 0.  1.
</event>
<event>
 7    1  0.2670433E-009  0.1052151E+03  0.7561462E-02  0.1269696E+00
         -1   -1    0    0    0  501 -0.00000000000E+00  0.00000000000E+00  0.42726510539E+02  0.42726510539E+02  0.00000000000E+00 0.  1.
          1   -1    0    0  501    0  0.00000000000E+00 -0.00000000000E+00 -0.42786589109E+03  0.42786589109E+03  0.00000000000E+00 0. -1.
         25    2    1    2    0    0  0.62062769363E+02  0.22450563563E+02 -0.13246146609E+03  0.19377705599E+03  0.12509073621E+03 0.  0.
          5    1    3    3  502    0  0.53862825102E+02  0.48995420945E+02 -0.14553640506E+03  0.16278842956E+03  0.41800000000E+01 0.  1.
         -5    1    3    3    0  502  0.81999442610E+01 -0.26544857381E+02  0.13074938970E+02  0.30988626435E+02  0.41800000000E+01 0.  1.
        -11    1    1    2    0    0 -0.56550394165E+02 -0.53511740698E+02 -0.20824266542E+03  0.22232062696E+03  0.00000000000E+00 0. -1.
         11    1    1    2    0    0 -0.55123751979E+01  0.31061177135E+02 -0.44435249044E+02  0.54494718670E+02  0.00000000000E+00 0.  1.
</event>
<event>
 7    1  0.2670433E-009  0.9663305E+02  0.7561462E-02  0.1287540E+00
         -2   -1    0    0    0  501 -0.00000000000E+00  0.00000000000E+00  0.23542171315E+02  0.23542171315E+02  0.00000000000E+00 0.  1.
          2   -1    0    0  501    0  0.00000000000E+00 -0.00000000000E+00 -0.17932067784E+04  0.17932067784E+04  0.00000000000E+00 0. -1.
         25    2    1    2    0    0 -0.28523569054E+02  0.69787684948E+02 -0.16180611494E+04  0.16246408222E+04  0.12510796543E+03 0.  0.
          5    1    3    3  502    0 -0.60655658350E+01  0.41023327428E+02 -0.13877852765E+03  0.14490223124E+03  0.41800000000E+01 0. -1.
         -5    1    3    3    0  502 -0.22458003219E+02  0.28764357520E+02 -0.14792826217E+04  0.14797385909E+04  0.41800000000E+01 0. -1.
        -11    1    1    2    0    0  0.31540402301E+02  0.11455054643E+02 -0.66063517753E+02  0.74097257925E+02  0.00000000000E+00 0. -1.
         11    1    1    2    0    0 -0.30168332474E+01 -0.81242739592E+02 -0.85539939974E+02  0.11801086963E+03  0.00000000000E+00 0.  1.
</event>
<event>
 7    1  0.2670433E-009  0.9662260E+02  0.7561462E-02  0.1287563E+00
         -1   -1    0    0    0  501 -0.00000000000E+00  0.00000000000E+00  0.19399867465E+02  0.19399867465E+02  0.00000000000E+00 0.  1.
          1   -1    0    0  501    0  0.00000000000E+00 -0.00000000000E+00 -0.73494320650E+03  0.73494320650E+03  0.00000000000E+00 0. -1.
         25    2    1    2    0    0 -0.99886650205E+01  0.41068395457E+01 -0.56982523006E+03  0.58349384194E+03  0.12509049210E+03 0.  0.
          5    1    3    3  502    0  0.51379065434E+02  0.75533013030E+01 -0.14200220987E+03  0.15125792784E+03  0.41800000000E+01 0. -1.
         -5    1    3    3    0  502 -0.61367730455E+02 -0.34464617573E+01 -0.42782302019E+03  0.43223591411E+03  0.41800000000E+01 0. -1.
        -11    1    1    2    0    0  0.41198683530E+02 -0.18510635789E+02 -0.42348045645E+02  0.61913909034E+02  0.00000000000E+00 0.  1.
         11    1    1    2    0    0 -0.31210018510E+02  0.14403796244E+02 -0.10337006333E+03  0.10893532299E+03  0.00000000000E+00 0. -1.
</event>
<event>
 7    1  0.2670433E-009  0.2020291E+03  0.7561462E-02  0.1148038E+00
          3   -1    0    0  501    0  0.00000000000E+00  0.00000000000E+00  0.84997446424E+02  0.84997446424E+02  0.00000000000E+00 0. -1.
         -3   -1    0    0    0  501 -0.00000000000E+00 -0.00000000000E+00 -0.67790127057E+03  0.67790127057E+03  0.00000000000E+00 0.  1.
         25    2    1    2    0    0 -0.18104713229E+03  0.71842379149E+02 -0.44686100785E+03  0.50326377002E+03  0.12510104044E+03 0.  0.
          5    1    3    3  502    0 -0.64048752078E+02  0.29080239952E+01 -0.43382270835E+02  0.77525434982E+02  0.41800000000E+01 0.  1.
         -5    1    3    3    0  502 -0.11699838021E+03  0.68934355154E+02 -0.40347873702E+03  0.42573833504E+03  0.41800000000E+01 0.  1.
        -11    1    1    2    0    0  0.21018549734E+02 -0.33240953220E+02 -0.65425572939E+02  0.76336400218E+02  0.00000000000E+00 0. -1.
         11    1    1    2    0    0  0.16002858255E+03 -0.38601425929E+02 -0.80617243352E+02  0.18329854676E+03  0.00000000000E+00 0.  1.
</event>
<event>
 7    1  0.2670433E-009  0.1313805E+03  0.7561462E-02  0.1225422E+00
          1   -1    0    0  501    0  0.00000000000E+00  0.00000000000E+00  0.10294496026E+04  0.10294496026E+04  0.00000000000E+00 0. -1.
         -1   -1    0    0    0  501 -0.00000000000E+00 -0.00000000000E+00 -0.20137131523E+02  0.20137131523E+02  0.00000000000E+00 0.  1.
         25    2    1    2    0    0 -0.58970346134E+02 -0.47357550203E+02  0.34989412653E+03  0.37920158644E+03  0.12509078340E+03 0.  0.
          5    1    3    3  502    0 -0.75930937740E+02 -0.76620459579E+02  0.29953792646E+03  0.31839699107E+03  0.41800000000E+01 0. -1.
         -5    1    3    3    0  502  0.16960591606E+02  0.29262909376E+02  0.50356200070E+02  0.60804595371E+02  0.41800000000E+01 0. -1.
        -11    1    1    2    0    0  0.30489793382E+02 -0.27235929057E+02  0.21580612315E+03  0.21964449941E+03  0.00000000000E+00 0.  1.
         11    1    1    2    0    0  0.28480552751E+02  0.74593479260E+02  0.44361222135E+03  0.45074064823E+03  0.00000000000E+00 0. -1.
</event>
<event>
 7    1  0.2670433E-009  0.3211649E+03  0.7561462E-02  0.1075114E+00
         -2   -1    0    0    0  501 -0.00000000000E+00  0.00000000000E+00  0.16452674534E+03  0.16452674534E+03  0.00000000000E+00 0.  1.
          2   -1    0    0  501    0  0.00000000000E+00 -0.00000000000E+00 -0.72423906028E+03  0.72423906028E+03  0.00000000000E+00 0. -1.
         25    2    1    2    0    0 -0.19000013086E+03 -0.23086264177E+03 -0.43989289353E+03  0.54639936014E+03  0.12509553905E+03 0.  0.
          5    1    3    3  502    0 -0.15572364769E+03 -0.92246127314E+02 -0.25567593953E+03  0.31328399402E+03  0.41800000000E+01 0. -1.
         -5    1    3    3    0  502 -0.34276483161E+02 -0.13861651446E+03 -0.18421695400E+03  0.23311536612E+03  0.41800000000E+01 0. -1.
        -11    1    1    2    0    0  0.75358445990E+02  0.17576632148E+03 -0.51818632435E+02  0.19813597810E+03  0.00000000000E+00 0. -1.
         11    1    1    2    0    0  0.11464168487E+03  0.55096320294E+02 -0.68000788980E+02  0.14423046738E+03  0.00000000000E+00 0.  1.
</event>
<event>
 7    1  0.2670433E-009  0.1603596E+03  0.7561462E-02  0.1188291E+00
          1   -1    0    0  501    0  0.00000000000E+00  0.00000000000E+00  0.31743008241E+03  0.31743008241E+03  0.00000000000E+00 0. -1.
         -1   -1    0    0    0  501 -0.00000000000E+00 -0.00000000000E+00 -0.18650905496E+03  0.18650905496E+03  0.00000000000E+00 0.  1.
         25    2    1    2    0    0  0.87656019777E+02  0.87576898001E+02  0.23302619777E+03  0.29206438513E+03  0.12508839013E+03 0.  0.
          5    1    3    3  502    0  0.99608379392E+01  0.87162161065E+02  0.17218949654E+03  0.19329551400E+03  0.41800000000E+01 0. -1.
         -5    1    3    3    0  502  0.77695181838E+02  0.41473693639E+00  0.60836701234E+02  0.98768871131E+02  0.41800000000E+01 0. -1.
        -11    1    1    2    0    0 -0.22152664216E+02  0.19530039918E+02 -0.78837996587E+02  0.84187841741E+02  0.00000000000E+00 0.  1.
         11    1    1    2    0    0 -0.65503355561E+02 -0.10710693792E+03 -0.23267173737E+02  0.12768691050E+03  0.00000000000E+00 0. -1.
</event>
<event>
 7    1  0.2670433E-009  0.1106594E+03  0.7561462E-02  0.1259354E+00
          1   -1    0    0  501    0  0.00000000000E+00  0.00000000000E+00  0.90142118889E+02  0.90142118889E+02  0.00000000000E+00 0. -1.
         -1   -1    0    0    0  501 -0.00000000000E+00 -0.00000000000E+00 -0.15452419425E+03  0.15452419425E+03  0.00000000000E+00 0.  1.
         25    2    1    2    0    0  0.44136956792E+02 -0.21367896219E+01 -0.33865957839E+02  0.13692720828E+03  0.12509804332E+03 0.  0.
          5    1    3    3  502    0  0.72100385844E+02  0.33898781772E+02  0.30410996040E+00  0.79781939857E+02  0.41800000000E+01 0.  1.
         -5    1    3    3    0  502 -0.27963429052E+02 -0.36035571393E+02 -0.34170067800E+02  0.57145268426E+02  0.41800000000E+01 0.  1.
        -11    1    1    2    0    0 -0.15876473097E+02 -0.41111479765E+02 -0.34433942561E+02  0.55927744159E+02  0.00000000000E+00 0.  1.
         11    1    1    2    0    0 -0.28260483695E+02  0.43248269387E+02  0.39178250435E+01  0.51811360692E+02  0.00000000000E+00 0. -1.
</event>
<event>
 7    1  0.2670433E-009  0.2096023E+03  0.7561462E-02  0.1141881E+00
         -1   -1    0    0    0  501 -0.00000000000E+00  0.00000000000E+00  0.36102975004E+02  0.36102975004E+02  0.00000000000E+00 0.  1.
          1   -1    0    0  501    0  0.00000000000E+00 -0.00000000000E+00 -0.13748000789E+04  0.13748000789E+04  0.00000000000E+00 0. -1.
         25    2    1    2    0    0 -0.12289995371E+03 -0.14591462436E+03 -0.81071575993E+03  0.84220157685E+03  0.12509187190E+03 0.  0.
          5    1    3    3  502    0 -0.56523766602E+02 -0.47835720123E+01 -0.10469937714E+03  0.11915221662E+03  0.41800000000E+01 0.  1.
         -5    1    3    3    0  502 -0.66376187108E+02 -0.14113105235E+03 -0.70601638279E+03  0.72304936022E+03  0.41800000000E+01 0.  1.
        -11    1    1    2    0    0  0.46545884194E+02  0.11476464440E+03 -0.25407605251E+03  0.28265187670E+03  0.00000000000E+00 0.  1.
         11    1    1    2    0    0  0.76354069517E+02  0.31149979959E+02 -0.27390529149E+03  0.28604960040E+03  0.00000000000E+00 0. -1.
</event>
<event>
 7    1  0.2670433E-009  0.9124611E+02  0.7561462E-02  0.1299862E+00
          2   -1    0    0  501    0  0.00000000000E+00  0.00000000000E+00  0.67228932727E+03  0.67228932727E+03  0.00000000000E+00 0. -1.
         -2   -1    0    0    0  501 -0.00000000000E+00 -0.00000000000E+00 -0.35608857105E+02  0.35608857105E+02  0.00000000000E+00 0.  1.
         25    2    1    2    0    0  0.45194354746E+02  0.27284011842E+02  0.15350403691E+03  0.20493218490E+03  0.12508702593E+03 0.  0.
          5    1    3    3  502    0  0.30483274120E+02  0.64623386647E+01 -0.14734717443E+02  0.34721407233E+02  0.41800000000E+01 0. -1.
         -5    1    3    3    0  502  0.14711080626E+02  0.20821673178E+02  0.16823875436E+03  0.17021077767E+03  0.41800000000E+01 0. -1.
        -11    1    1    2    0    0 -0.77976031005E+02  0.63709320266E+01  0.39870366376E+03  0.40630710268E+03  0.00000000000E+00 0. -1.
         11    1    1    2    0    0  0.32781676259E+02 -0.33654943869E+02  0.84472769485E+02  0.96658896795E+02  0.00000000000E+00 0.  1.
</event>
<event>
 7    1  0.2670433E-009  0.1138200E+03  0.7561462E-02  0.1253655E+00
          2   -1    0    0  501    0  0.00000000000E+00  0.00000000000E+00  0.92013601869E+03  0.92013601869E+03  0.00000000000E+00 0. -1.
         -2   -1    0    0    0  501 -0.00000000000E+00 -0.00000000000E+00 -0.18736587122E+02  0.18736587122E+02  0.00000000000E+00 0.  1.
         25    2    1    2    0    0  0.24026921477E+02 -0.56713674870E+02  0.60964846900E+03  0.62538934629E+03  0.12508734876E+03 0.  0.
          5    1    3    3  502    0  0.72322742043E+02 -0.52681567749E+02  0.35419577352E+03  0.36534647251E+03  0.41800000000E+01 0. -1.
         -5    1    3    3    0  502 -0.48295820566E+02 -0.40321071209E+01  0.25545269548E+03  0.26004287378E+03  0.41800000000E+01 0. -1.
        -11    1    1    2    0    0  0.21865762731E+02  0.27030439999E+02  0.29495960037E+02  0.45593507485E+02  0.00000000000E+00 0.  1.
         11    1    1    2    0    0 -0.45892684208E+02  0.29683234871E+02  0.26225500253E+03  0.26788975204E+03  0.00000000000E+00 0. -1.
</event>
<event>
 7    1  0.2670433E-009  0.1179241E+03  0.7561462E-02  0.1246561E+00
         -2   -1    0    0    0  501 -0.00000000000E+00  0.00000000000E+00  0.12807711951E+02  0.12807711951E+02  0.00000000000E+00 0.  1.
          2   -1    0    0  501    0  0.00000000000E+00 -0.00000000000E+00 -0.29154692241E+04  0.29154692241E+04  0.00000000000E+00 0. -1.
         25    2    1    2    0    0  0.24391299389E+01  0.78618203509E+02 -0.25776523114E+04  0.25818837858E+04  0.12508266557E+03 0.  0.
          5    1    3    3  502    0 -0.22830045809E+02 -0.98786492445E+01 -0.12594736664E+03  0.12844847319E+03  0.41800000000E+01 0. -1.
         -5    1    3    3    0  502  0.25269175748E+02  0.88496852753E+02 -0.24517049448E+04  0.24534353126E+04  0.41800000000E+01 0. -1.
        -11    1    1    2    0    0 -0.41649268407E+02 -0.16006629902E+02 -0.98342265702E+02  0.10799108752E+03  0.00000000000E+00 0.  1.
         11    1    1    2    0    0  0.39210138468E+02 -0.62611573607E+02 -0.22666693497E+03  0.23840206274E+03  0.00000000000E+00 0. -1.
</event>
<event>
 7    1  0.2670433E-009  0.1048411E+03  0.7561462E-02  0.1270433E+00
         -1   -1    0    0    0  501 -0.00000000000E+00  0.00000000000E+00  0.17618206491E+03  0.17618206491E+03  0.00000000000E+00 0.  1.
          1   -1    0    0  501    0  0.00000000000E+00 -0.00000000000E+00 -0.11405913928E+03  0.11405913928E+03  0.00000000000E+00 0. -1.
         25    2    1    2    0    0  0.66801425246E+02 -0.50404349803E+02  0.71096563276E+02  0.16644926595E+03  0.12509039903E+03 0.  0.
          5    1    3    3  502    0  0.83127399781E+02 -0.62945355315E+02  0.90291195562E+02  0.13799367647E+03  0.41800000000E+01 0.  1.
         -5    1    3    3    0  502 -0.16325974535E+02  0.12541005512E+02 -0.19194632286E+02  0.28455589475E+02  0.41800000000E+01 0.  1.
        -11    1    1    2    0    0 -0.12926258603E+02  0.15250428032E+02 -0.45583212984E+02  0.49774421369E+02  0.00000000000E+00 0. -1.
         11    1    1    2    0    0 -0.53875166642E+02  0.35153921771E+02  0.36609575337E+02  0.74017516866E+02  0.00000000000E+00 0.  1.
</event>
<event>
 7    1  0.2670433E-009  0.1558669E+03  0.7561462E-02  0.1193444E+00
          2   -1    0    0  501    0  0.00000000000E+00  0.00000000000E+00  0.23218193379E+03  0.23218193379E+03  0.00000000000E+00 0.  1.
         -2   -1    0    0    0  501 -0.00000000000E+00 -0.00000000000E+00 -0.11700346429E+03  0.11700346429E+03  0.00000000000E+00 0. -1.
         25    2    1    2    0    0  0.11279778253E+03  0.48854489176E+02  0.36193424498E+02  0.17907467387E+03  0.12509066308E+03 0.  0.
          5    1    3    3  502    0  0.13348489989E+02  0.70770692978E+02  0.42499486731E+01  0.72264843689E+02  0.41800000000E+01 0.  1.
         -5    1    3    3    0  502  0.99449292538E+02 -0.21916203802E+02  0.31943475825E+02  0.10680983018E+03  0.41800000000E+01 0.  1.
        -11    1    1    2    0    0 -0.33658769166E+02 -0.47881014062E+02  0.68778215434E+02  0.90310282735E+02  0.00000000000E+00 0.  1.
         11    1    1    2    0    0 -0.79139013361E+02 -0.97347511452E+00  0.10206829562E+02  0.79800441473E+02  0.00000000000E+00 0. -1.
</event>
<event>
 7    1  0.2670433E-009  0.1295541E+03  0.7561462E-02  0.1228119E+00
         -2   -1    0    0    0  501 -0.00000000000E+00  0.00000000000E+00  0.58019275710E+02  0.58019275710E+02  0.00000000000E+00 0.  1.
          2   -1    0    0  501    0  0.00000000000E+00 -0.00000000000E+00 -0.35141955892E+03  0.35141955892E+03  0.00000000000E+00 0. -1.
         25    2    1    2    0    0  0.52702015052E+02  0.71942020465E+02 -0.12310495225E+03  0.19686387825E+03  0.12508957028E+03 0.  0.
          5    1    3    3  502    0  0.40017605872E+01 -0.27787556334E+02  0.33267022966E+01  0.28577993684E+02  0.41800000000E+01 0. -1.
         -5    1    3    3    0  502  0.48700254465E+02  0.99729576799E+02 -0.12643165454E+03  0.16828588457E+03  0.41800000000E+01 0. -1.
        -11    1    1    2    0    0 -0.36814005639E+02 -0.89021887866E+02 -0.10152184184E+03  0.13995303463E+03  0.00000000000E+00 0.  1.
         11    1    1    2    0    0 -0.15888009413E+02  0.17079867401E+02 -0.68773489121E+02  0.72621921756E+02  0.00000000000E+00 0. -1.
</event>
<event>
 7    1  0.2670433E-009  0.1057330E+03  0.7561462E-02  0.1268682E+00
          2   -1    0    0  501    0  0.00000000000E+00  0.00000000000E+00  0.87334296035E+03  0.87334296035E+03  0.00000000000E+00 0. -1.
         -2   -1    0    0    0  501 -0.00000000000E+00 -0.00000000000E+00 -0.18848836735E+02  0.18848836735E+02  0.00000000000E+00 0.  1.
         25    2    1    2    0    0 -0.29871958763E+02  0.53710588670E+02  0.58737121689E+03  0.60367981133E+03  0.12508879618E+03 0.  0.
          5    1    3    3  502    0 -0.18641954525E+02  0.75355864254E+02  0.56500430130E+03  0.57032741617E+03  0.41800000000E+01 0.  1.
         -5    1    3    3    0  502 -0.11230004238E+02 -0.21645275584E+02  0.22366915584E+02  0.33352395162E+02  0.41800000000E+01 0.  1.
        -11    1    1    2    0    0  0.23329752376E+02  0.22548859078E+02  0.82691239721E+02  0.88828877727E+02  0.00000000000E+00 0.  1.
         11    1    1    2    0    0  0.65422063868E+01 -0.76259447748E+02  0.18443166701E+03  0.19968310802E+03  0.00000000000E+00 0. -1.
</event>
<event>
 7    1  0.2670433E-009  0.3199710E+03  0.7561462E-02  0.1075663E+00
          2   -1    0    0  501    0  0.00000000000E+00  0.00000000000E+00  0.42888836118E+03  0.42888836118E+03  0.00000000000E+00 0. -1.
         -2   -1    0    0    0  501 -0.00000000000E+00 -0.00000000000E+00 -0.27324417419E+03  0.27324417419E+03  0.00000000000E+00 0.  1.
         25    2    1    2    0    0 -0.30972698520E+03  0.10103603143E+02 -0.21164580162E+02  0.33485600245E+03  0.12509082607E+03 0.  0.
          5    1    3    3  502    0 -0.22025839872E+03 -0.44452905745E+02  0.11444465751E+02  0.22502948969E+03  0.41800000000E+01 0.  1.
         -5    1    3    3    0  502 -0.89468586482E+02  0.54556508888E+02 -0.32609045913E+02  0.10982651276E+03  0.41800000000E+01 0.  1.
        -11    1    1    2    0    0  0.28407078455E+03 -0.46936307349E+01  0.12745254544E+03  0.31138784841E+03  0.00000000000E+00 0.  1.
         11    1    1    2    0    0  0.25656200653E+02 -0.54099724078E+01  0.49356221714E+02  0.55888684501E+02  0.00000000000E+00 0. -1.
</event>
<event>
 7    1  0.2670433E-009  0.9175653E+02  0.7561462E-02  0.1298653E+00
         -2   -1    0    0    0  501 -0.00000000000E+00  0.00000000000E+00  0.20403182511E+03  0.20403182511E+03  0.00000000000E+00 0. -1.
          2   -1    0    0  501    0  0.00000000000E+00 -0.00000000000E+00 -0.61078898687E+02  0.61078898687E+02  0.00000000000E+00 0.  1.
         25    2    1    2    0    0 -0.57112617635E+01 -0.25551190327E+02  0.65354710937E+02  0.14354470431E+03  0.12509341332E+03 0.  0.
          5    1    3    3  502    0 -0.50127009691E+02 -0.35652922076E+02 -0.25078348739E+01  0.61705831076E+02  0.41800000000E+01 0.  1.
         -5    1    3    3    0  502  0.44415747927E+02  0.10101731749E+02  0.67862545811E+02  0.81838873234E+02  0.41800000000E+01 0.  1.
        -11    1    1    2    0    0 -0.32244774613E+02  0.40615789086E+01 -0.57175471477E-01  0.32499618184E+02  0.00000000000E+00 0.  1.
         11    1    1    2    0    0  0.37956036377E+02  0.21489611418E+02  0.77655390958E+02  0.89066401304E+02  0.00000000000E+00 0. -1.
</event>
<event>
 7    1  0.2670433E-009  0.1008021E+03  0.7561462E-02  0.1278618E+00
          3   -1    0    0  501    0  0.00000000000E+00  0.00000000000E+00  0.27082388250E+02  0.27082388250E+02  0.00000000000E+00 0. -1.
         -3   -1    0    0    0  501 -0.00000000000E+00 -0.00000000000E+00 -0.46345399620E+03  0.46345399620E+03  0.00000000000E+00 0.  1.
         25    2    1    2    0    0  0.11895879406E+02 -0.14334095494E+02 -0.30816489104E+03  0.33310588852E+03  0.12508778778E+03 0.  0.
          5    1    3    3  502    0  0.49861160958E+02  0.27956003845E+02 -0.83170741869E+02  0.10100751569E+03  0.41800000000E+01 0.  1.
         -5    1    3    3    0  502 -0.37965281552E+02 -0.42290099339E+02 -0.22499414917E+03  0.23209837283E+03  0.41800000000E+01 0.  1.
        -11    1    1    2    0    0  0.30260015769E+01  0.49244446828E+02 -0.48700456594E+02  0.69324647142E+02  0.00000000000E+00 0.  1.
         11    1    1    2    0    0 -0.14921880983E+02 -0.34910351333E+02 -0.79506260311E+02  0.88105848789E+02  0.00000000000E+00 0. -1.
</event>
<event>
 7    1  0.2670433E-009  0.1339435E+03  0.7561462E-02  0.1221719E+00
         -2   -1    0    0    0  501 -0.00000000000E+00  0.00000000000E+00  0.16288038945E+03  0.16288038945E+03  0.00000000000E+00 0.  1.
          2   -1    0    0  501    0  0.00000000000E+00 -0.00000000000E+00 -0.12929636188E+03  0.12929636188E+03  0.00000000000E+00 0. -1.
         25    2    1    2    0    0 -0.52273435387E+02 -0.83872011359E+02  0.18113833921E+02  0.16044469522E+03  0.12508941964E+03 0.  0.
          5    1    3    3  502    0 -0.11048134587E+02 -0.10707138398E+03  0.29343227762E+02  0.11164604767E+03  0.41800000000E+01 0.  1.
         -5    1    3    3    0  502 -0.41225300800E+02  0.23199372621E+02 -0.11229393841E+02  0.48798647544E+02  0.41800000000E+01 0.  1.
        -11    1    1    2    0    0  0.12738720173E+02  0.69427008555E+02 -0.23475429920E+02  0.74387366659E+02  0.00000000000E+00 0. -1.
         11    1    1    2    0    0  0.39534715214E+02  0.14445002804E+02  0.38945623574E+02  0.57344689454E+02  0.00000000000E+00 0.  1.
</event>
<event>
 7    1  0.2670433E-009  0.1839171E+03  0.7561462E-02  0.1164065E+00
          1   -1    0    0  501    0  0.00000000000E+00  0.00000000000E+00  0.10289221813E+04  0.10289221813E+04  0.00000000000E+00 0. -1.
         -1   -1    0    0    0  501 -0.00000000000E+00 -0.00000000000E+00 -0.51606175614E+02  0.51606175614E+02  0.00000000000E+00 0.  1.
         25    2    1    2    0    0 -0.50646649837E+02 -0.15070377038E+03  0.80006823077E+03  0.82524732003E+03  0.12508899147E+03 0.  0.
          5    1    3    3  502    0 -0.91148947040E+02 -0.10793088022E+03  0.50951446189E+03  0.52875293354E+03  0.41800000000E+01 0.  1.
         -5    1    3    3    0  502  0.40502297203E+02 -0.42772890161E+02  0.29055376888E+03  0.29649438649E+03  0.41800000000E+01 0.  1.
        -11    1    1    2    0    0 -0.93946743866E+01  0.44186097502E+02  0.10238917394E+03  0.11191163505E+03  0.00000000000E+00 0. -1.
         11    1    1    2    0    0  0.60041324223E+02  0.10651767287E+03  0.74858601026E+02  0.14336940188E+03  0.00000000000E+00 0.  1.
</event>
<event>
 7    1  0.2670433E-009  0.1455939E+03  0.7561462E-02  0.1205994E+00
         -2   -1    0    0    0  501 -0.00000000000E+00  0.00000000000E+00  0.16426971698E+03  0.16426971698E+03  0.00000000000E+00 0.  1.
          2   -1    0    0  501    0  0.00000000000E+00 -0.00000000000E+00 -0.15255408878E+03  0.15255408878E+03  0.00000000000E+00 0. -1.
         25    2    1    2    0    0 -0.90489854824E+02  0.61625807626E+02 -0.29020326642E+02  0.16874782238E+03  0.12508994447E+03 0.  0.
          5    1    3    3  502    0 -0.82747248148E+02 -0.36887124516E+01  0.21536134988E+02  0.85685419914E+02  0.41800000000E+01 0.  1.
         -5    1    3    3    0  502 -0.77426066761E+01  0.65314520078E+02 -0.50556461630E+02  0.83062402468E+02  0.41800000000E+01 0.  1.
        -11    1    1    2    0    0  0.51977556837E+02  0.17091196855E+02  0.16667805202E+02  0.57197824740E+02  0.00000000000E+00 0. -1.
         11    1    1    2    0    0  0.38512297987E+02 -0.78717004481E+02  0.24068149634E+02  0.90878158638E+02  0.00000000000E+00 0.  1.
</event>
<event>
 7    1  0.2670433E-009  0.1075597E+03  0.7561462E-02  0.1265157E+00
          2   -1    0    0  501    0  0.00000000000E+00  0.00000000000E+00  0.10092068615E+03  0.10092068615E+03  0.00000000000E+00 0. -1.
         -2   -1    0    0    0  501 -0.00000000000E+00 -0.00000000000E+00 -0.15692011603E+03  0.15692011603E+03  0.00000000000E+00 0.  1.
         25    2    1    2    0    0  0.37875430298E+02 -0.35187795489E+02 -0.74129777700E+02  0.15432878117E+03  0.12509764020E+03 0.  0.
          5    1    3    3  502    0  0.52880621342E+02 -0.73347989018E+02 -0.33688225808E+02  0.96584970697E+02  0.41800000000E+01 0.  1.
         -5    1    3    3    0  502 -0.15005191044E+02  0.38160193529E+02 -0.40441551892E+02  0.57743810472E+02  0.41800000000E+01 0.  1.
        -11    1    1    2    0    0 -0.19619498113E+01  0.45872143040E+02  0.39334525700E+02  0.60459140468E+02  0.00000000000E+00 0. -1.
         11    1    1    2    0    0 -0.35913480487E+02 -0.10684347551E+02 -0.21204177880E+02  0.43052880540E+02  0.00000000000E+00 0.  1.
</event>
<event>
 7    1  0.2670433E-009  0.7714986E+02  0.7561462E-02  0.1337340E+00
         -2   -1    0    0    0  501 -0.00000000000E+00  0.00000000000E+00  0.37005643334E+03  0.37005643334E+03  0.00000000000E+00 0.  1.
          2   -1    0    0  501    0  0.00000000000E+00 -0.00000000000E+00 -0.33262525240E+02  0.33262525240E+02  0.00000000000E+00 0. -1.
         25    2    1    2    0    0  0.15039231724E+01 -0.19691757508E+02  0.23169510878E+03  0.26404458836E+03  0.12508754577E+03 0.  0.
          5    1    3    3  502    0  0.93631374616E+01  0.46985875677E+02  0.15369716905E+03  0.16104543778E+03  0.41800000000E+01 0. -1.
         -5    1    3    3    0  502 -0.78592142892E+01 -0.66677633185E+02  0.77997939733E+02  0.10299915057E+03  0.41800000000E+01 0. -1.
        -11    1    1    2    0    0 -0.14756550930E+02  0.20951352023E+02  0.11799143956E+03  0.12074226583E+03  0.00000000000E+00 0.  1.
         11    1    1    2    0    0  0.13252627758E+02 -0.12595945150E+01 -0.12892640246E+02  0.18532104396E+02  0.00000000000E+00 0. -1.
</event>
<event>
 7    1  0.2822544E-009  0.9133631E+02  0.7561462E-02  0.1299648E+00
         -4   -1    0    0    0  501 -0.00000000000E+00  0.00000000000E+00  0.18443204842E+02  0.18443204842E+02  0.00000000000E+00 0.  1.
          4   -1    0    0  501    0  0.00000000000E+00 -0.00000000000E+00 -0.89135503286E+03  0.89135503286E+03  0.00000000000E+00 0. -1.
         25    2    1    2    0    0 -0.57314548211E+02 -0.28067596455E+02 -0.57783470438E+03  0.59465451246E+03  0.12509315007E+03 0.  0.
          5    1    3    3  502    0 -0.55434349622E+02 -0.34256428201E+02 -0.11886474864E+03  0.13561995008E+03  0.41800000000E+01 0.  1.
         -5    1    3    3    0  502 -0.18801985884E+01  0.61888317468E+01 -0.45896995574E+03  0.45903456237E+03  0.41800000000E+01 0.  1.
        -11    1    1    2    0    0  0.77824708672E+02  0.38263943891E+01 -0.18947831705E+03  0.20487400813E+03  0.00000000000E+00 0.  1.
         11    1    1    2    0    0 -0.20510160462E+02  0.24241202066E+02 -0.10559880659E+03  0.11026971712E+03  0.00000000000E+00 0. -1.
</event>
<event>
 7    1  0.2670433E-009  0.1069448E+03  0.7561462E-02  0.1266334E+00
          2   -1    0    0  501    0  0.00000000000E+00  0.00000000000E+00  0.12077425125E+04  0.12077425125E+04  0.00000000000E+00 0. -1.
         -2   -1    0    0    0  501 -0.00000000000E+00 -0.00000000000E+00 -0.33075770337E+02  0.33075770337E+02  0.00000000000E+00 0.  1.
         25    2    1    2    0    0 -0.22816870986E+02 -0.72691064501E+02  0.10824030711E+04  0.10922675432E+04  0.12508947598E+03 0.  0.
          5    1    3    3  502    0 -0.33012898959E+01 -0.88782792754E+02  0.10309654670E+04  0.10347949311E+04  0.41800000000E+01 0.  1.
         -5    1    3    3    0  502 -0.19515581090E+02  0.16091728253E+02  0.51437604136E+02  0.57472612110E+02  0.41800000000E+01 0.  1.
        -11    1    1    2    0    0 -0.92773510801E+01  0.65842771042E+02  0.20405609047E+02  0.69553782227E+02  0.00000000000E+00 0. -1.
         11    1    1    2    0    0  0.32094222066E+02  0.68482934593E+01  0.71858062009E+02  0.78996957467E+02  0.00000000000E+00 0.  1.
</event>
<event>
 7    1  0.2670433E-009  0.9560157E+02  0.7561462E-02  0.1289827E+00
          1   -1    0    0  501    0  0.00000000000E+00  0.00000000000E+00  0.47875152742E+02  0.47875152742E+02  0.00000000000E+00 0. -1.
         -1   -1    0    0    0  501 -0.00000000000E+00 -0.00000000000E+00 -0.33342420350E+03  0.33342420350E+03  0.00000000000E+00 0.  1.
         25    2    1    2    0    0 -0.52705675470E+02 -0.37465513400E+02 -0.14354521112E+03  0.20108208676E+03  0.12508886865E+03 0.  0.
          5    1    3    3  502    0 -0.35692329596E+02  0.17309805314E+02  0.64812213344E+01  0.40411018077E+02  0.41800000000E+01 0. -1.
         -5    1    3    3    0  502 -0.17013345874E+02 -0.54775318713E+02 -0.15002643245E+03  0.16067106869E+03  0.41800000000E+01 0. -1.
        -11    1    1    2    0    0  0.21691171175E+02 -0.19356038098E+02 -0.61306372436E+01  0.29711072528E+02  0.00000000000E+00 0. -1.
         11    1    1    2    0    0  0.31014504296E+02  0.56821551498E+02 -0.13587320239E+03  0.15050619695E+03  0.00000000000E+00 0.  1.
</event>
<event>
 7    1  0.2670433E-009  0.1232510E+03  0.7561462E-02  0.1237828E+00
          1   -1    0    0  501    0  0.00000000000E+00  0.00000000000E+00  0.17764447474E+03  0.17764447474E+03  0.00000000000E+00 0. -1.
         -1   -1    0    0    0  501 -0.00000000000E+00 -0.00000000000E+00 -0.96002849192E+02  0.96002849192E+02  0.00000000000E+00 0.  1.
         25    2    1    2    0    0  0.53726933647E+02  0.28281464100E+02  0.31504279427E+01  0.13908233417E+03  0.12509015097E+03 0.  0.
          5    1    3    3  502    0 -0.18051634432E+02 -0.36655064936E+02  0.89113004028E+01  0.42027835609E+02  0.41800000000E+01 0. -1.
         -5    1    3    3    0  502  0.71778568079E+02  0.64936529036E+02 -0.57608724601E+01  0.97054498558E+02  0.41800000000E+01 0. -1.
        -11    1    1    2    0    0 -0.38353838518E+02  0.29733407802E+02  0.43001620284E+02  0.64840047931E+02  0.00000000000E+00 0. -1.
         11    1    1    2    0    0 -0.15373095129E+02 -0.58014871902E+02  0.35489577324E+02  0.69724941838E+02  0.00000000000E+00 0.  1.
</event>
<event>
 7    1  0.2670433E-009  0.1452363E+03  0.7561462E-02  0.1206452E+00
          2   -1    0    0  501    0  0.00000000000E+00  0.00000000000E+00  0.76998441507E+03  0.76998441507E+03  0.00000000000E+00 0.  1.
         -2   -1    0    0    0  501 -0.00000000000E+00 -0.00000000000E+00 -0.27906379820E+02  0.27906379820E+02  0.00000000000E+00 0. -1.
         25    2    1    2    0    0 -0.82301163648E+02  0.49858536032E+02  0.43416054439E+03  0.46195474375E+03  0.12508977501E+03 0.  0.
          5    1    3    3  502    0  0.33099665231E+02  0.62069147761E+01  0.80216807542E+02  0.87099496219E+02  0.41800000000E+01 0.  1.
         -5    1    3    3    0  502 -0.11540082888E+03  0.43651621256E+02  0.35394373685E+03  0.37485524753E+03  0.41800000000E+01 0.  1.
        -11    1    1    2    0    0 -0.13840672725E+02 -0.32587957470E+02  0.10329146096E+03  0.10919095704E+03  0.00000000000E+00 0.  1.
         11    1    1    2    0    0  0.96141836373E+02 -0.17270578562E+02  0.20462602990E+03  0.22674509410E+03  0.00000000000E+00 0. -1.
</event>
<event>
 7    1  0.2670433E-009  0.1371134E+03  0.7561462E-02  0.1217267E+00
          3   -1    0    0  501    0  0.00000000000E+00  0.00000000000E+00  0.21984416719E+03  0.21984416719E+03  0.00000000000E+00 0. -1.
         -3   -1    0    0    0  501 -0.00000000000E+00 -0.00000000000E+00 -0.93543088048E+02  0.93543088048E+02  0.00000000000E+00 0.  1.
         25    2    1    2    0    0 -0.43674548656E+02  0.81128306266E+02  0.38606068627E+02  0.16008138666E+03  0.12508538501E+03 0.  0.
          5    1    3    3  502    0 -0.83617861682E+02  0.74719690792E+02  0.40672071421E+02  0.11935941009E+03  0.41800000000E+01 0. -1.
         -5    1    3    3    0  502  0.39943313026E+02  0.64086154733E+01 -0.20660027934E+01  0.40721976565E+02  0.41800000000E+01 0. -1.
        -11    1    1    2    0    0 -0.23115032233E+02 -0.25521440344E+02  0.79131869497E+01  0.35330824504E+02  0.00000000000E+00 0.  1.
         11    1    1    2    0    0  0.66789580890E+02 -0.55606865921E+02  0.79781823562E+02  0.11797504407E+03  0.00000000000E+00 0. -1.
</event>
<event>
 7    1  0.2670433E-009  0.1069987E+03  0.7561462E-02  0.1266231E+00
         -2   -1    0    0    0  501 -0.00000000000E+00  0.00000000000E+00  0.55666577315E+02  0.55666577315E+02  0.00000000000E+00 0.  1.
          2   -1    0    0  501    0  0.00000000000E+00 -0.00000000000E+00 -0.30336946156E+03  0.30336946156E+03  0.00000000000E+00 0. -1.
         25    2    1    2    0    0 -0.70073723919E+02 -0.11369447693E+02 -0.13764570036E+03  0.19908265433E+03  0.12509185945E+03 0.  0.
          5    1    3    3  502    0 -0.57789110303E+02  0.31424986188E+02 -0.13707500193E+02  0.67323688165E+02  0.41800000000E+01 0.  1.
         -5    1    3    3    0  502 -0.12284613617E+02 -0.42794433881E+02 -0.12393820017E+03  0.13175896616E+03  0.41800000000E+01 0.  1.
        -11    1    1    2    0    0  0.12675957953E+02  0.38023565384E+02 -0.80880068785E+02  0.90266588288E+02  0.00000000000E+00 0. -1.
         11    1    1    2    0    0  0.57397765967E+02 -0.26654117691E+02 -0.29177115102E+02  0.69686796264E+02  0.00000000000E+00 0.  1.
</event>
<event>
 7    1  0.2670433E-009  0.1283999E+03  0.7561462E-02  0.1229849E+00
          2   -1    0    0  501    0  0.00000000000E+00  0.00000000000E+00  0.65229214802E+03  0.65229214802E+03  0.00000000000E+00 0.  1.
         -2   -1    0    0    0  501 -0.00000000000E+00 -0.00000000000E+00 -0.46155648220E+02  0.46155648220E+02  0.00000000000E+00 0. -1.
         25    2    1    2    0    0  0.11440437729E+03 -0.54144432002E+02  0.22250630066E+03  0.28491119686E+03  0.12508139431E+03 0.  0.
          5    1    3    3  502    0  0.42437397148E+02 -0.31088954507E+02  0.31515766177E+01  0.52866441192E+02  0.41800000000E+01 0.  1.
         -5    1    3    3    0  502  0.71966980138E+02 -0.23055477495E+02  0.21935472404E+03  0.23204475567E+03  0.41800000000E+01 0.  1.
        -11    1    1    2    0    0 -0.57884693051E+02  0.39104326863E+02  0.88913105908E+02  0.11307221795E+03  0.00000000000E+00 0. -1.
         11    1    1    2    0    0 -0.56519684235E+02  0.15040105139E+02  0.29471709323E+03  0.30046438143E+03  0.00000000000E+00 0.  1.
</event>
<event>
 7    1  0.2670433E-009  0.1815189E+03  0.7561462E-02  0.1166341E+00
          2   -1    0    0  501    0  0.00000000000E+00  0.00000000000E+00  0.25097797760E+02  0.25097797760E+02  0.00000000000E+00 0. -1.
         -2   -1    0    0    0  501 -0.00000000000E+00 -0.00000000000E+00 -0.19766397579E+04  0.19766397579E+04  0.00000000000E+00 0.  1.
         25    2    1    2    0    0 -0.13601771996E+03  0.61649145304E+02 -0.15697524861E+04  0.15817939521E+04  0.12509117518E+03 0.  0.
          5    1    3    3  502    0 -0.15936083246E+03  0.46847431357E+02 -0.12926910404E+04  0.13033258054E+04  0.41800000000E+01 0. -1.
         -5    1    3    3    0  502  0.23343112494E+02  0.14801713947E+02 -0.27706144570E+03  0.27846814671E+03  0.41800000000E+01 0. -1.
        -11    1    1    2    0    0  0.86665392239E+02  0.40450160431E+01 -0.25011777969E+03  0.26473790073E+03  0.00000000000E+00 0.  1.
         11    1    1    2    0    0  0.49352327724E+02 -0.65694161347E+02 -0.13167169430E+03  0.15520570275E+03  0.00000000000E+00 0. -1.
</event>
<event>
 7    1  0.2670433E-009  0.1001702E+03  0.7561462E-02  0.1279938E+00
         -2   -1    0    0    0  501 -0.00000000000E+00  0.00000000000E+00  0.46155768161E+02  0.46155768161E+02  0.00000000000E+00 0.  1.
          2   -1    0    0  501    0  0.00000000000E+00 -0.00000000000E+00 -0.36510132357E+03  0.36510132357E+03  0.00000000000E+00 0. -1.
         25    2    1    2    0    0  0.79715669614E+01 -0.62754747425E+02 -0.22990405550E+03  0.26926701038E+03  0.12508854440E+03 0.  0.
          5    1    3    3  502    0 -0.89648640412E+01 -0.77606923244E+02 -0.62043725608E+02  0.99850386128E+02  0.41800000000E+01 0.  1.
         -5    1    3    3    0  502  0.16936431003E+02  0.14852175818E+02 -0.16786032989E+03  0.16941662425E+03  0.41800000000E+01 0.  1.
        -11    1    1    2    0    0  0.26545356363E+02  0.58721915573E+02 -0.24990851563E+02  0.69119186734E+02  0.00000000000E+00 0.  1.
         11    1    1    2    0    0 -0.34516923324E+02  0.40328318520E+01 -0.64050648341E+02  0.72870894611E+02  0.00000000000E+00 0. -1.
</event>
<event>
 7    1  0.2670433E-009  0.9563457E+02  0.7561462E-02  0.1289753E+00
          3   -1    0    0  501    0  0.00000000000E+00  0.00000000000E+00  0.20645200303E+03  0.20645200303E+03  0.00000000000E+00 0. -1.
         -3   -1    0    0    0  501 -0.00000000000E+00 -0.00000000000E+00 -0.84047963133E+02  0.84047963133E+02  0.00000000000E+00 0.  1.
         25    2    1    2    0    0 -0.11808887776E+02  0.53533294461E+02  0.10959252163E+03  0.17511079331E+03  0.12509198892E+03 0.  0.
          5    1    3    3  502    0 -0.23288506095E+02  0.65720391664E+02  0.60179804397E+01  0.70108579255E+02  0.41800000000E+01 0. -1.
         -5    1    3    3    0  502  0.11479618319E+02 -0.12187097203E+02  0.10357454119E+03  0.10500221406E+03  0.41800000000E+01 0. -1.
        -11    1    1    2    0    0 -0.19217119618E+02  0.17912836278E+02 -0.17761697020E+02  0.31711910554E+02  0.00000000000E+00 0.  1.
         11    1    1    2    0    0  0.31026007395E+02 -0.71446130739E+02  0.30573215292E+02  0.83677262298E+02  0.00000000000E+00 0. -1.
</event>
<event>
 7    1  0.2670433E-009  0.9332319E+02  0.7561462E-02  0.1294998E+00
          3   -1    0    0  501    0  0.00000000000E+00  0.00000000000E+00  0.28575335016E+03  0.28575335016E+03  0.00000000000E+00 0. -1.
         -3   -1    0    0    0  501 -0.00000000000E+00 -0.00000000000E+00 -0.51942416721E+02  0.51942416721E+02  0.00000000000E+00 0.  1.
         25    2    1    2    0    0 -0.53083994978E+02  0.25819983699E+02  0.14584643167E+03  0.20100550279E+03  0.12508976152E+03 0.  0.
          5    1    3    3  502    0 -0.71357220652E+02  0.27464064585E+01  0.15432035823E+03  0.17009303646E+03  0.41800000000E+01 0. -1.
         -5    1    3    3    0  502  0.18273225674E+02  0.23073577241E+02 -0.84739265561E+01  0.30912466328E+02  0.41800000000E+01 0. -1.
        -11    1    1    2    0    0  0.52919042053E+01 -0.36112310028E+02  0.78950180852E+02  0.86978355022E+02  0.00000000000E+00 0.  1.
         11    1    1    2    0    0  0.47792090773E+02  0.10292326328E+02  0.90143209087E+01  0.49711909067E+02  0.00000000000E+00 0. -1.
</event>
<event>
 7    1  0.2670433E-009  0.2458511E+03  0.7561462E-02  0.1115955E+00
          1   -1    0    0  501    0  0.00000000000E+00  0.00000000000E+00  0.24260037150E+03  0.24260037150E+03  0.00000000000E+00 0. -1.
         -1   -1    0    0    0  501 -0.00000000000E+00 -0.00000000000E+00 -0.37000036958E+03  0.37000036958E+03  0.00000000000E+00 0.  1.
         25    2    1    2    0    0  0.21446326792E+03  0.59383704833E+02  0.10765474680E+03  0.27705185055E+03  0.12508903109E+03 0.  0.
          5    1    3    3  502    0 -0.83076580667E+01  0.28760488970E+02  0.97399040727E+01  0.31757220276E+02  0.41800000000E+01 0.  1.
         -5    1    3    3    0  502  0.22277092599E+03  0.30623215863E+02  0.97914842724E+02  0.24529463027E+03  0.41800000000E+01 0.  1.
        -11    1    1    2    0    0 -0.18867241970E+03 -0.20323141671E+02 -0.16598849787E+03  0.25211603176E+03  0.00000000000E+00 0. -1.
         11    1    1    2    0    0 -0.25790848221E+02 -0.39060563163E+02 -0.69066247011E+02  0.83432858771E+02  0.00000000000E+00 0.  1.
</event>
<event>
 7    1  0.2670433E-009  0.1423028E+03  0.7561462E-02  0.1210264E+00
          1   -1    0    0  501    0  0.00000000000E+00  0.00000000000E+00  0.67743499435E+02  0.67743499435E+02  0.00000000000E+00 0. -1.
         -1   -1    0    0    0  501 -0.00000000000E+00 -0.00000000000E+00 -0.37203091330E+03  0.37203091330E+03  0.00000000000E+00 0.  1.
         25    2    1    2    0    0  0.10990048897E+03  0.37136798790E+02 -0.16320873671E+03  0.23609631988E+03  0.12508845358E+03 0.  0.
          5    1    3    3  502    0  0.25332720778E+02 -0.36721338633E+02 -0.96716716381E+01  0.45839034515E+02  0.41800000000E+01 0.  1.
         -5    1    3    3    0  502  0.84567768196E+02  0.73858137423E+02 -0.15353706507E+03  0.19025728536E+03  0.41800000000E+01 0.  1.
        -11    1    1    2    0    0 -0.19685371542E+02 -0.31378559569E+02 -0.95514014394E+02  0.10244537471E+03  0.00000000000E+00 0.  1.
         11    1    1    2    0    0 -0.90215117432E+02 -0.57582392208E+01 -0.45564662762E+02  0.10123271815E+03  0.00000000000E+00 0. -1.
</event>
<event>
 7    1  0.2670433E-009  0.2250330E+03  0.7561462E-02  0.1130185E+00
         -1   -1    0    0    0  501 -0.00000000000E+00  0.00000000000E+00  0.66250392422E+02  0.66250392422E+02  0.00000000000E+00 0.  1.
          1   -1    0    0  501    0  0.00000000000E+00 -0.00000000000E+00 -0.78320524448E+03  0.78320524448E+03  0.00000000000E+00 0. -1.
         25    2    1    2    0    0 -0.18993647346E+03  0.15837217339E+02 -0.30041095419E+03  0.37712785839E+03  0.12510794848E+03 0.  0.
          5    1    3    3  502    0 -0.15564231859E+03 -0.40887218138E+02 -0.19996746322E+03  0.25671142298E+03  0.41800000000E+01 0. -1.
         -5    1    3    3    0  502 -0.34294154872E+02  0.56724435477E+02 -0.10044349098E+03  0.12041643542E+03  0.41800000000E+01 0. -1.
        -11    1    1    2    0    0  0.14442251503E+03  0.40740636496E+02 -0.27923900169E+03  0.31700486175E+03  0.00000000000E+00 0. -1.
         11    1    1    2    0    0  0.45513958432E+02 -0.56577853835E+02 -0.13730489617E+03  0.15532291676E+03  0.00000000000E+00 0.  1.
</event>
<event>
 7    1  0.2670433E-009  0.4415724E+02  0.7561462E-02  0.1479672E+00
         -1   -1    0    0    0  501 -0.00000000000E+00  0.00000000000E+00  0.93056341510E+02  0.93056341510E+02  0.00000000000E+00 0.  1.
          1   -1    0    0  501    0  0.00000000000E+00 -0.00000000000E+00 -0.14564725762E+03  0.14564725762E+03  0.00000000000E+00 0. -1.
         25    2    1    2    0    0  0.17596287058E+02 -0.14499107817E+02  0.89965048613E+00  0.12715328917E+03  0.12508915273E+03 0.  0.
          5    1    3    3  502    0  0.24929035323E+02  0.48729614221E+01 -0.58604195315E+02  0.64008801455E+02  0.41800000000E+01 0. -1.
         -5    1    3    3    0  502 -0.73327482651E+01 -0.19372069239E+02  0.59503845801E+02  0.63144487715E+02  0.41800000000E+01 0. -1.
        -11    1    1    2    0    0 -0.26217751051E+02  0.20496538158E+01 -0.78236828720E+02  0.82538311826E+02  0.00000000000E+00 0. -1.
         11    1    1    2    0    0  0.86214639934E+01  0.12449454001E+02  0.24746262127E+02  0.29011998131E+02  0.00000000000E+00 0.  1.
</event>
<event>
 7    1  0.2670433E-009  0.1290321E+03  0.7561462E-02  0.1228899E+00
          2   -1    0    0  501    0  0.00000000000E+00  0.00000000000E+00  0.38926598097E+03  0.38926598097E+03  0.00000000000E+00 0. -1.
         -2   -1    0    0    0  501 -0.00000000000E+00 -0.00000000000E+00 -0.56595595779E+02  0.56595595779E+02  0.00000000000E+00 0.  1.
         25    2    1    2    0    0 -0.87448683709E+02  0.25036346979E+02  0.11455110142E+03  0.19246044014E+03  0.12507987540E+03 0.  0.
          5    1    3    3  502    0 -0.56328833517E+02  0.60313677822E+02  0.11916121324E+03  0.14500877338E+03  0.41800000000E+01 0. -1.
         -5    1    3    3    0  502 -0.31119850193E+02 -0.35277330843E+02 -0.46101118166E+01  0.47451666761E+02  0.41800000000E+01 0. -1.
        -11    1    1    2    0    0 -0.16035553707E+02 -0.18545330776E+02  0.53480775324E+02  0.58832487671E+02  0.00000000000E+00 0. -1.
         11    1    1    2    0    0  0.10348423742E+03 -0.64910162025E+01  0.16463850845E+03  0.19456864894E+03  0.00000000000E+00 0.  1.
</event>
<event>
 7    1  0.2670433E-009  0.1237890E+03  0.7561462E-02  0.1236974E+00
         -2   -1    0    0    0  501 -0.00000000000E+00  0.00000000000E+00  0.45016017406E+02  0.45016017406E+02  0.00000000000E+00 0. -1.
          2   -1    0    0  501    0  0.00000000000E+00 -0.00000000000E+00 -0.43736587204E+03  0.43736587204E+03  0.00000000000E+00 0.  1.
         25    2    1    2    0    0  0.21700489561E+02  0.83636882150E+02 -0.25168635168E+03  0.29403952636E+03  0.12508870508E+03 0.  0.
          5    1    3    3  502    0 -0.37486723084E+02  0.73776211315E+02 -0.19286098455E+03  0.20990715930E+03  0.41800000000E+01 0.  1.
         -5    1    3    3    0  502  0.59187212645E+02  0.98606708356E+01 -0.58825367131E+02  0.84132367066E+02  0.41800000000E+01 0.  1.
        -11    1    1    2    0    0 -0.42133064822E+02 -0.52292161598E+02 -0.33926915580E+02  0.75237629659E+02  0.00000000000E+00 0. -1.
         11    1    1    2    0    0  0.20432575261E+02 -0.31344720552E+02 -0.10673658738E+03  0.11310473343E+03  0.00000000000E+00 0.  1.
</event>
<event>
 7    1  0.2670433E-009  0.8771655E+02  0.7561462E-02  0.1308478E+00
          1   -1    0    0  501    0  0.00000000000E+00  0.00000000000E+00  0.12793448812E+03  0.12793448812E+03  0.00000000000E+00 0. -1.
         -1   -1    0    0    0  501 -0.00000000000E+00 -0.00000000000E+00 -0.11088552868E+03  0.11088552868E+03  0.00000000000E+00 0.  1.
         25    2    1    2    0    0  0.92352572594E+01 -0.43743300922E+02 -0.13841871688E+02  0.13355596822E+03  0.12508730104E+03 0.  0.
          5    1    3    3  502    0  0.47012516820E+02 -0.67066273603E+02 -0.28177558384E+02  0.86715102429E+02  0.41800000000E+01 0.  1.
         -5    1    3    3    0  502 -0.37777259561E+02  0.23322972681E+02  0.14335686696E+02  0.46840865787E+02  0.41800000000E+01 0.  1.
        -11    1    1    2    0    0  0.44633092890E+01  0.26175121996E+02 -0.30214719906E+02  0.40224214602E+02  0.00000000000E+00 0.  1.
         11    1    1    2    0    0 -0.13698566548E+02  0.17568178926E+02  0.61105551041E+02  0.65039833981E+02  0.00000000000E+00 0. -1.
</event>
<event>
 7    1  0.2670433E-009  0.1126803E+03  0.7561462E-02  0.1255685E+00
          1   -1    0    0  501    0  0.00000000000E+00  0.00000000000E+00  0.25077672792E+03  0.25077672792E+03  0.00000000000E+00 0. -1.
         -1   -1    0    0    0  501 -0.00000000000E+00 -0.00000000000E+00 -0.82124186610E+02  0.82124186610E+02  0.00000000000E+00 0.  1.
         25    2    1    2    0    0 -0.52772113034E+02  0.76396055973E+02  0.85411516663E+02  0.17766226890E+03  0.12508997294E+03 0.  0.
          5    1    3    3  502    0 -0.23081368053E+02  0.14411421061E+02 -0.31590430227E+02  0.41903058243E+02  0.41800000000E+01 0.  1.
         -5    1    3    3    0  502 -0.29690744981E+02  0.61984634912E+02  0.11700194689E+03  0.13575921066E+03  0.41800000000E+01 0.  1.
        -11    1    1    2    0    0  0.75449845962E+02 -0.38237548385E+02  0.67234693364E+02  0.10805227140E+03  0.00000000000E+00 0.  1.
         11    1    1    2    0    0 -0.22677732928E+02 -0.38158507588E+02  0.16006331286E+02  0.47186374233E+02  0.00000000000E+00 0. -1.
</event>
<event>
 7    1  0.2670433E-009  0.1616503E+03  0.7561462E-02  0.1186846E+00
         -3   -1    0    0    0  501 -0.00000000000E+00  0.00000000000E+00  0.26119335364E+02  0.26119335364E+02  0.00000000000E+00 0.  1.
          3   -1    0    0  501    0  0.00000000000E+00 -0.00000000000E+00 -0.10122774548E+04  0.10122774548E+04  0.00000000000E+00 0. -1.
         25    2    1    2    0    0 -0.64498750246E+02  0.10079496177E+03 -0.54850983906E+03  0.57517762806E+03  0.12508615901E+03 0.  0.
          5    1    3    3  502    0  0.12706505418E+02 -0.23317177217E+02 -0.84718867576E+02  0.88881409511E+02  0.41800000000E+01 0.  1.
         -5    1    3    3    0  502 -0.77205255664E+02  0.12411213899E+03 -0.46379097149E+03  0.48629621855E+03  0.41800000000E+01 0.  1.
        -11    1    1    2    0    0  0.68465190467E+02 -0.22893935723E+02 -0.17719899993E+03  0.19134027327E+03  0.00000000000E+00 0.  1.
         11    1    1    2    0    0 -0.39664402212E+01 -0.77901026051E+02 -0.26044928045E+03  0.27187888884E+03  0.00000000000E+00 0. -1.
</event>
<event>
 7    1  0.2670433E-009  0.8672302E+02  0.7561462E-02  0.1310987E+00
         -1   -1    0    0    0  501 -0.00000000000E+00  0.00000000000E+00  0.26374728799E+02  0.26374728799E+02  0.00000000000E+00 0.  1.
          1   -1    0    0  501    0  0.00000000000E+00 -0.00000000000E+00 -0.44733594841E+03  0.44733594841E+03  0.00000000000E+00 0. -1.
         25    2    1    2    0    0 -0.53340321587E+01 -0.45818149272E+01 -0.25695039055E+03  0.28586783680E+03  0.12508985565E+03 0.  0.
          5    1    3    3  502    0 -0.44749837754E+02  0.40393563321E+02 -0.16856846645E+03  0.17907257807E+03  0.41800000000E+01 0. -1.
         -5    1    3    3    0  502  0.39415805596E+02 -0.44975378248E+02 -0.88381924103E+02  0.10679525873E+03  0.41800000000E+01 0. -1.
        -11    1    1    2    0    0  0.81283155769E+01  0.28167884636E+02 -0.16129423854E+03  0.16393697150E+03  0.00000000000E+00 0. -1.
         11    1    1    2    0    0 -0.27942834181E+01 -0.23586069709E+02 -0.27165905236E+01  0.23905868907E+02  0.00000000000E+00 0.  1.
</event>
<event>
 7    1  0.2670433E-009  0.2074978E+03  0.7561462E-02  0.1143563E+00
          2   -1    0    0  501    0  0.00000000000E+00  0.00000000000E+00  0.28289439871E+04  0.28289439871E+04  0.00000000000E+00 0. -1.
         -2   -1    0    0    0  501 -0.00000000000E+00 -0.00000000000E+00 -0.29003445121E+02  0.29003445121E+02  0.00000000000E+00 0.  1.
         25    2    1    2    0    0  0.92868592702E+02  0.17549952419E+03  0.23092086610E+04  0.23211026444E+04  0.12509271428E+03 0.  0.
          5    1    3    3  502    0  0.96236001694E+02  0.96013474390E+02  0.18534606945E+04  0.18584439657E+04  0.41800000000E+01 0. -1.
         -5    1    3    3    0  502 -0.33674089915E+01  0.79486049801E+02  0.45574796649E+03  0.46265867863E+03  0.41800000000E+01 0. -1.
        -11    1    1    2    0    0 -0.21163988962E+02 -0.26061573617E+02  0.19466103058E+03  0.19753490039E+03  0.00000000000E+00 0.  1.
         11    1    1    2    0    0 -0.71704603740E+02 -0.14943795057E+03  0.29607085041E+03  0.33930988747E+03  0.00000000000E+00 0. -1.
</event>
<event>
 7    1  0.2670433E-009  0.1464091E+03  0.7561462E-02  0.1204956E+00
          1   -1    0    0  501    0  0.00000000000E+00  0.00000000000E+00  0.79687511970E+03  0.79687511970E+03  0.00000000000E+00 0. -1.
         -1   -1    0    0    0  501 -0.00000000000E+00 -0.00000000000E+00 -0.29650947805E+02  0.29650947805E+02  0.00000000000E+00 0.  1.
         25    2    1    2    0    0  0.10107245756E+03 -0.30544714646E+02  0.49500665950E+03  0.52137072562E+03  0.12508884567E+03 0.  0.
          5    1    3    3  502    0  0.50935158734E+02 -0.77016019049E+02  0.23580684032E+03  0.25327494137E+03  0.41800000000E+01 0. -1.
         -5    1    3    3    0  502  0.50137298829E+02  0.46471304403E+02  0.25919981918E+03  0.26809578425E+03  0.41800000000E+01 0. -1.
        -11    1    1    2    0    0 -0.38416270232E+02  0.52896788493E+02  0.17955670029E+03  0.19108764657E+03  0.00000000000E+00 0. -1.
         11    1    1    2    0    0 -0.62656187331E+02 -0.22352073847E+02  0.92660812106E+02  0.11406769532E+03  0.00000000000E+00 0.  1.
</event>
<event>
 7    1  0.2670433E-009  0.1099561E+03  0.7561462E-02  0.1260651E+00
          2   -1    0    0  501    0  0.00000000000E+00  0.00000000000E+00  0.27824279864E+02  0.27824279864E+02  0.00000000000E+00 0. -1.
         -2   -1    0    0    0  501 -0.00000000000E+00 -0.00000000000E+00 -0.57766957734E+03  0.57766957734E+03  0.00000000000E+00 0.  1.
         25    2    1    2    0    0 -0.91226901107E+01 -0.60866827422E+02 -0.35443137516E+03  0.38086277177E+03  0.12508739770E+03 0.  0.
          5    1    3    3  502    0 -0.63039483736E+02 -0.55675401596E+02 -0.23574131131E+03  0.25033011227E+03  0.41800000000E+01 0.  1.
         -5    1    3    3    0  502  0.53916793625E+02 -0.51914258256E+01 -0.11869006385E+03  0.13053265949E+03  0.41800000000E+01 0.  1.
        -11    1    1    2    0    0 -0.19762112899E+02  0.43228044131E+02 -0.18220101550E+03  0.18829873859E+03  0.00000000000E+00 0.  1.
         11    1    1    2    0    0  0.28884803010E+02  0.17638783291E+02 -0.13212906812E+02  0.36332346846E+02  0.00000000000E+00 0. -1.
</event>
<event>
 7    1  0.3141673E-009  0.1775457E+03  0.7561462E-02  0.1170200E+00
          2   -1    0    0  501    0  0.00000000000E+00  0.00000000000E+00  0.57067281757E+03  0.57067281757E+03  0.00000000000E+00 0.  1.
         -2   -1    0    0    0  501 -0.00000000000E+00 -0.00000000000E+00 -0.70807628585E+02  0.70807628585E+02  0.00000000000E+00 0. -1.
         25    2    1    2    0    0  0.12057276948E+03 -0.11673651554E+03  0.28620181317E+03  0.35457607041E+03  0.12508998779E+03 0.  0.
          5    1    3    3  502    0  0.56861804578E+02 -0.48242037220E+02  0.27733881097E+02  0.79669313639E+02  0.41800000000E+01 0. -1.
         -5    1    3    3    0  502  0.63710964900E+02 -0.68494478322E+02  0.25846793207E+03  0.27490675677E+03  0.41800000000E+01 0. -1.
        -11    1    1    2    0    0 -0.91245753859E+02  0.31344196359E+02  0.14179417143E+03  0.17150461595E+03  0.00000000000E+00 0.  1.
         11    1    1    2    0    0 -0.29327015620E+02  0.85392319183E+02  0.71869204394E+02  0.11539975980E+03  0.00000000000E+00 0. -1.
</event>
<event>
 7    1  0.2670433E-009  0.1192700E+03  0.7561462E-02  0.1244306E+00
         -2   -1    0    0    0  501 -0.00000000000E+00  0.00000000000E+00  0.21973256359E+02  0.21973256359E+02  0.00000000000E+00 0.  1.
          2   -1    0    0  501    0  0.00000000000E+00 -0.00000000000E+00 -0.77522048042E+03  0.77522048042E+03  0.00000000000E+00 0. -1.
         25    2    1    2    0    0  0.55012979477E+02  0.34642270280E+02 -0.52883214098E+03  0.54730132495E+03  0.12509513241E+03 0.  0.
          5    1    3    3  502    0 -0.19764282755E+02 -0.25876926431E+02 -0.57297802716E+02  0.66035996172E+02  0.41800000000E+01 0.  1.
         -5    1    3    3    0  502  0.74777262232E+02  0.60519196711E+02 -0.47153433827E+03  0.48126532877E+03  0.41800000000E+01 0.  1.
        -11    1    1    2    0    0 -0.62750750457E+02  0.10498274988E+02 -0.14213170731E+03  0.15572184395E+03  0.00000000000E+00 0.  1.
         11    1    1    2    0    0  0.77377709804E+01 -0.45140545268E+02 -0.82283375766E+02  0.94170567877E+02  0.00000000000E+00 0. -1.
</event>
<event>
 7    1  0.2670433E-009  0.1568817E+03  0.7561462E-02  0.1192263E+00
          2   -1    0    0  501    0  0.00000000000E+00  0.00000000000E+00  0.23951411469E+03  0.23951411469E+03  0.00000000000E+00 0. -1.
         -2   -1    0    0    0  501 -0.00000000000E+00 -0.00000000000E+00 -0.13431612870E+03  0.13431612870E+03  0.00000000000E+00 0.  1.
         25    2    1    2    0    0 -0.14226053484E+03  0.57021713370E+00  0.59432516092E+02  0.19853715474E+03  0.12508554241E+03 0.  0.
          5    1    3    3  502    0 -0.54968492906E+01 -0.34931600515E+01 -0.32653480338E+02  0.33558004968E+02  0.41800000000E+01 0.  1.
         -5    1    3    3    0  502 -0.13676368555E+03  0.40633771852E+01  0.92085996430E+02  0.16497914977E+03  0.41800000000E+01 0.  1.
        -11    1    1    2    0    0  0.59484034245E+02 -0.45557238576E+02  0.22897300636E+02  0.78346019000E+02  0.00000000000E+00 0. -1.
         11    1    1    2    0    0  0.82776500600E+02  0.44987021442E+02  0.22868169265E+02  0.96947069658E+02  0.00000000000E+00 0.  1.
</event>
<event>
 7    1  0.2971849E-009  0.1225672E+03  0.7561462E-02  0.1238921E+00
          1   -1    0    0  501    0  0.00000000000E+00  0.00000000000E+00  0.97583437792E+03  0.97583437792E+03  0.00000000000E+00 0. -1.
         -1   -1    0    0    0  501 -0.00000000000E+00 -0.00000000000E+00 -0.21768751343E+02  0.21768751343E+02  0.00000000000E+00 0.  1.
         25    2    1    2    0    0 -0.66104674166E+02  0.44632308030E+02  0.70869810070E+03  0.72405929293E+03  0.12508793256E+03 0.  0.
          5    1    3    3  502    0  0.27095359062E+02  0.17454012841E+02  0.61049401643E+02  0.69161426301E+02  0.41800000000E+01 0.  1.
         -5    1    3    3    0  502 -0.93200033228E+02  0.27178295190E+02  0.64764869906E+03  0.65489786663E+03  0.41800000000E+01 0.  1.
        -11    1    1    2    0    0  0.78283236802E+01 -0.55612253148E+02  0.16024449348E+03  0.16980077456E+03  0.00000000000E+00 0.  1.
         11    1    1    2    0    0  0.58276350486E+02  0.10979945118E+02  0.85123032390E+02  0.10374306176E+03  0.00000000000E+00 0. -1.
</event>
<event>
 7    1  0.2670433E-009  0.9171517E+02  0.7561462E-02  0.1298751E+00
          2   -1    0    0  501    0  0.00000000000E+00  0.00000000000E+00  0.29677150246E+03  0.29677150246E+03  0.00000000000E+00 0. -1.
         -2   -1    0    0    0  501 -0.00000000000E+00 -0.00000000000E+00 -0.54699796535E+02  0.54699796535E+02  0.00000000000E+00 0.  1.
         25    2    1    2    0    0  0.69120397745E+01 -0.53376527331E+02  0.19101418271E+03  0.23458620101E+03  0.12508971878E+03 0.  0.
          5    1    3    3  502    0 -0.29812567543E+02 -0.14491481927E+02  0.17562344123E+03  0.17877320197E+03  0.41800000000E+01 0.  1.
         -5    1    3    3    0  502  0.36724607318E+02 -0.38885045405E+02  0.15390741477E+02  0.55812999041E+02  0.41800000000E+01 0.  1.
        -11    1    1    2    0    0 -0.32145388051E+02  0.61889787711E+02  0.13805958578E+02  0.71093433510E+02  0.00000000000E+00 0.  1.
         11    1    1    2    0    0  0.25233348277E+02 -0.85132603799E+01  0.37251564640E+02  0.45791664478E+02  0.00000000000E+00 0. -1.
</event>
<event>
 7    1  0.2670433E-009  0.1129998E+03  0.7561462E-02  0.1255113E+00
          2   -1    0    0  501    0  0.00000000000E+00  0.00000000000E+00  0.30049286726E+03  0.30049286726E+03  0.00000000000E+00 0. -1.
         -2   -1    0    0    0  501 -0.00000000000E+00 -0.00000000000E+00 -0.63512336842E+02  0.63512336842E+02  0.00000000000E+00 0.  1.
         25    2    1    2    0    0 -0.24900372733E+02  0.54410893883E+02  0.20877222971E+03  0.25062654307E+03  0.12508895338E+03 0.  0.
          5    1    3    3  502    0  0.17253406390E+02  0.78169458901E+02  0.17182074800E+03  0.18959954161E+03  0.41800000000E+01 0.  1.
         -5    1    3    3    0  502 -0.42153779123E+02 -0.23758565019E+02  0.36951481714E+02  0.61027001458E+02  0.41800000000E+01 0.  1.
        -11    1    1    2    0    0 -0.21211245437E+02  0.52658669726E+01 -0.14956927217E+02  0.26483125943E+02  0.00000000000E+00 0.  1.
         11    1    1    2    0    0  0.46111618170E+02 -0.59676760855E+02  0.43165227922E+02  0.86895535086E+02  0.00000000000E+00 0. -1.
</event>
<event>
 7    1  0.4274293E-009  0.1844125E+03  0.7561462E-02  0.1163600E+00
         -1   -1    0    0    0  501 -0.00000000000E+00  0.00000000000E+00  0.48259158831E+02  0.48259158831E+02  0.00000000000E+00 0.  1.
          1   -1    0    0  501    0  0.00000000000E+00 -0.00000000000E+00 -0.10358388675E+04  0.10358388675E+04  0.00000000000E+00 0. -1.
         25    2    1    2    0    0 -0.11472357278E+03  0.12263831468E+03 -0.27081866317E+03  0.34233326512E+03  0.12509061398E+03 0.  0.
          5    1    3    3  502    0 -0.13444814323E+03  0.88032904713E+02 -0.17060829339E+03  0.23441577956E+03  0.41800000000E+01 0. -1.
         -5    1    3    3    0  502  0.19724570457E+02  0.34605409972E+02 -0.10021036978E+03  0.10791748556E+03  0.41800000000E+01 0. -1.
        -11    1    1    2    0    0  0.62187803731E+02 -0.70278977193E+02 -0.56621146963E+03  0.57393543706E+03  0.00000000000E+00 0. -1.
         11    1    1    2    0    0  0.52535769044E+02 -0.52359337491E+02 -0.15054957584E+03  0.16782932413E+03  0.00000000000E+00 0.  1.
</event>
<event>
 7    1  0.2670433E-009  0.1356273E+03  0.7561462E-02  0.1219337E+00
          1   -1    0    0  501    0  0.00000000000E+00  0.00000000000E+00  0.38351026464E+03  0.38351026464E+03  0.00000000000E+00 0. -1.
         -1   -1    0    0    0  501 -0.00000000000E+00 -0.00000000000E+00 -0.50636285275E+02  0.50636285275E+02  0.00000000000E+00 0.  1.
         25    2    1    2    0    0 -0.65527503740E+02 -0.58236353850E+02  0.20282035793E+03  0.25390757777E+03  0.12509050244E+03 0.  0.
          5    1    3    3  502    0 -0.10131265626E+03 -0.47239451196E+02  0.17229087022E+03  0.20542014611E+03  0.41800000000E+01 0. -1.
         -5    1    3    3    0  502  0.35785152519E+02 -0.10996902655E+02  0.30529487715E+02  0.48487431660E+02  0.41800000000E+01 0. -1.
        -11    1    1    2    0    0  0.49611526230E+02  0.80376724416E+02  0.11590853596E+03  0.14952093523E+03  0.00000000000E+00 0.  1.
         11    1    1    2    0    0  0.15915977510E+02 -0.22140370566E+02  0.14145085467E+02  0.30718036913E+02  0.00000000000E+00 0. -1.
</event>
<event>
 7    1  0.2670433E-009  0.9804189E+02  0.7561462E-02  0.1284468E+00
          2   -1    0    0  501    0  0.00000000000E+00  0.00000000000E+00  0.11574228006E+04  0.11574228006E+04  0.00000000000E+00 0.  1.
         -2   -1    0    0    0  501 -0.00000000000E+00 -0.00000000000E+00 -0.14979926791E+02  0.14979926791E+02  0.00000000000E+00 0. -1.
         25    2    1    2    0    0 -0.44313195309E+01  0.73448252173E+02  0.72255181297E+03  0.73698291586E+03  0.12509361896E+03 0.  0.
          5    1    3    3  502    0 -0.10116273323E+02  0.21981010497E+01  0.55069154953E+03  0.55080470746E+03  0.41800000000E+01 0.  1.
         -5    1    3    3    0  502  0.56849537919E+01  0.71250151123E+02  0.17186026344E+03  0.18617820841E+03  0.41800000000E+01 0.  1.
        -11    1    1    2    0    0  0.40808788110E+02 -0.63715266044E+02  0.31544744411E+03  0.32439494803E+03  0.00000000000E+00 0.  1.
         11    1    1    2    0    0 -0.36377468579E+02 -0.97329861290E+01  0.10444361677E+03  0.11102486353E+03  0.00000000000E+00 0. -1.
</event>
<event>
 7    1  0.2670433E-009  0.1011908E+03  0.7561462E-02  0.1277812E+00
          1   -1    0    0  501    0  0.00000000000E+00  0.00000000000E+00  0.26181855309E+03  0.26181855309E+03  0.00000000000E+00 0. -1.
         -1   -1    0    0    0  501 -0.00000000000E+00 -0.00000000000E+00 -0.71478109391E+02  0.71478109391E+02  0.00000000000E+00 0.  1.
         25    2    1    2    0    0 -0.17279317632E+02  0.58088138018E+02  0.34542275575E+02  0.14322519616E+03  0.12508989334E+03 0.  0.
          5    1    3    3  502    0 -0.53596186465E+02 -0.39449681112E+00 -0.17814532666E+02  0.56635119894E+02  0.41800000000E+01 0. -1.
         -5    1    3    3    0  502  0.36316868834E+02  0.58482634830E+02  0.52356808241E+02  0.86590076266E+02  0.41800000000E+01 0. -1.
        -11    1    1    2    0    0  0.34758922166E+02 -0.27099347054E+02  0.17753691767E+02  0.47515795818E+02  0.00000000000E+00 0.  1.
         11    1    1    2    0    0 -0.17479604534E+02 -0.30988790965E+02  0.13804447635E+03  0.14255567050E+03  0.00000000000E+00 0. -1.
</event>
<event>
 7    1  0.2670433E-009  0.1177237E+03  0.7561462E-02  0.1246900E+00
         -3   -1    0    0    0  501 -0.00000000000E+00  0.00000000000E+00  0.77635937115E+02  0.77635937115E+02  0.00000000000E+00 0.  1.
          3   -1    0    0  501    0  0.00000000000E+00 -0.00000000000E+00 -0.22198127206E+03  0.22198127206E+03  0.00000000000E+00 0. -1.
         25    2    1    2    0    0 -0.57984605783E+02  0.45204416310E+02 -0.75034061050E+02  0.16334792754E+03  0.12508709506E+03 0.  0.
          5    1    3    3  502    0 -0.67807665772E+02 -0.15470890852E+02 -0.46803874658E+01  0.69832703142E+02  0.41800000000E+01 0.  1.
         -5    1    3    3    0  502  0.98230599897E+01  0.60675307162E+02 -0.70353673584E+02  0.93515224394E+02  0.41800000000E+01 0.  1.
        -11    1    1    2    0    0  0.40789872007E+02  0.13521874269E+02 -0.60851650075E+02  0.74495490192E+02  0.00000000000E+00 0.  1.
         11    1    1    2    0    0  0.17194733776E+02 -0.58726290579E+02 -0.84596238231E+01  0.61773791449E+02  0.00000000000E+00 0. -1.
</event>
<event>
 7    1  0.2869894E-009  0.1128909E+03  0.7561462E-02  0.1255308E+00
          2   -1    0    0  501    0  0.00000000000E+00  0.00000000000E+00  0.56909978440E+03  0.56909978440E+03  0.00000000000E+00 0. -1.
         -2   -1    0    0    0  501 -0.00000000000E+00 -0.00000000000E+00 -0.23817628966E+02  0.23817628966E+02  0.00000000000E+00 0.  1.
         25    2    1    2    0    0 -0.32243489071E+02 -0.24675528512E+02  0.27348988294E+03  0.30346827298E+03  0.12509097625E+03 0.  0.
          5    1    3    3  502    0 -0.36265151795E+02  0.46727110718E+02  0.13815459519E+03  0.15034210549E+03  0.41800000000E+01 0.  1.
         -5    1    3    3    0  502  0.40216627243E+01 -0.71402639229E+02  0.13533528775E+03  0.15312616749E+03  0.41800000000E+01 0.  1.
        -11    1    1    2    0    0  0.27084076452E+01  0.53505608224E+02  0.19550419965E+03  0.20271180939E+03  0.00000000000E+00 0. -1.
         11    1    1    2    0    0  0.29535081425E+02 -0.28830079712E+02  0.76288072843E+02  0.86737331000E+02  0.00000000000E+00 0.  1.
</event>
<event>
 7    1  0.2670433E-009  0.9645759E+02  0.7561462E-02  0.1287927E+00
         -1   -1    0    0    0  501 -0.00000000000E+00  0.00000000000E+00  0.36162685857E+02  0.36162685857E+02  0.00000000000E+00 0.  1.
          1   -1    0    0  501    0  0.00000000000E+00 -0.00000000000E+00 -0.33493377809E+03  0.33493377809E+03  0.00000000000E+00 0. -1.
         25    2    1    2    0    0 -0.19224893188E+02  0.69278629413E+01 -0.16698766771E+03  0.20964193697E+03  0.12508904335E+03 0.  0.
          5    1    3    3  502    0 -0.71479105497E+02  0.76249374488E+01 -0.11586123666E+03  0.13641371175E+03  0.41800000000E+01 0.  1.
         -5    1    3    3    0  502  0.52254212309E+02 -0.69707450748E+00 -0.51126431051E+02  0.73228225220E+02  0.41800000000E+01 0.  1.
        -11    1    1    2    0    0  0.14110866146E+02  0.28969561148E+02 -0.11855631429E+03  0.12285744453E+03  0.00000000000E+00 0. -1.
         11    1    1    2    0    0  0.51140270416E+01 -0.35897424089E+02 -0.13227110235E+02  0.38597082454E+02  0.00000000000E+00 0.  1.
</event>
<event>
 7    1  0.2670433E-009  0.6669204E+02  0.7561462E-02  0.1371717E+00
         -2   -1    0    0    0  501 -0.00000000000E+00  0.00000000000E+00  0.19708807945E+03  0.19708807945E+03  0.00000000000E+00 0.  1.
          2   -1    0    0  501    0  0.00000000000E+00 -0.00000000000E+00 -0.67889031123E+02  0.67889031123E+02  0.00000000000E+00 0. -1.
         25    2    1    2    0    0  0.30820714580E+02 -0.28112046345E+02  0.86373643594E+02  0.15763068216E+03  0.12508725776E+03 0.  0.
          5    1    3    3  502    0  0.29837135586E+02  0.90028891591E+01  0.10934148011E+03  0.11377318817E+03  0.41800000000E+01 0.  1.
         -5    1    3    3    0  502  0.98357899394E+00 -0.37114935504E+02 -0.22967836514E+02  0.43857493992E+02  0.41800000000E+01 0.  1.
        -11    1    1    2    0    0 -0.19106629109E+02 -0.12151750702E+02 -0.21063247121E+02  0.30925534762E+02  0.00000000000E+00 0. -1.
         11    1    1    2    0    0 -0.11714085471E+02  0.40263797047E+02  0.63888651857E+02  0.76420893655E+02  0.00000000000E+00 0.  1.
</event>
<event>
 7    1  0.2670433E-009  0.2402361E+03  0.7561462E-02  0.1119636E+00
          2   -1    0    0  501    0  0.00000000000E+00  0.00000000000E+00  0.11577356640E+04  0.11577356640E+04  0.00000000000E+00 0. -1.
         -2   -1    0    0    0  501 -0.00000000000E+00 -0.00000000000E+00 -0.13067180975E+03  0.13067180975E+03  0.00000000000E+00 0.  1.
         25    2    1    2    0    0 -0.16019060839E+03  0.15921790537E+03  0.10121247665E+04  0.10445361291E+04  0.12509120491E+03 0.  0.
          5    1    3    3  502    0 -0.14019335253E+03  0.85076388006E+02  0.48882780537E+03  0.51561833132E+03  0.41800000000E+01 0. -1.
         -5    1    3    3    0  502 -0.19997255853E+02  0.74141517359E+02  0.52329696115E+03  0.52891779776E+03  0.41800000000E+01 0. -1.
        -11    1    1    2    0    0  0.20996249938E+02  0.75398961851E+01 -0.11417816221E+02  0.25061106784E+02  0.00000000000E+00 0.  1.
         11    1    1    2    0    0  0.13919435845E+03 -0.16675780155E+03  0.26356903918E+02  0.21881023785E+03  0.00000000000E+00 0. -1.
</event>
<event>
 7    1  0.2670433E-009  0.7967554E+02  0.7561462E-02  0.1329975E+00
          2   -1    0    0  501    0  0.00000000000E+00  0.00000000000E+00  0.65246934655E+02  0.65246934655E+02  0.00000000000E+00 0. -1.
         -2   -1    0    0    0  501 -0.00000000000E+00 -0.00000000000E+00 -0.19525959284E+03  0.19525959284E+03  0.00000000000E+00 0.  1.
         25    2    1    2    0    0 -0.28122883279E+02 -0.11641222269E+02 -0.81103996518E+02  0.15215855124E+03  0.12509177369E+03 0.  0.
          5    1    3    3  502    0  0.14481957872E+02 -0.21300550317E+02 -0.10075132249E+03  0.10407565484E+03  0.41800000000E+01 0.  1.
         -5    1    3    3    0  502 -0.42604841151E+02  0.96593280477E+01  0.19647325973E+02  0.48082896394E+02  0.41800000000E+01 0.  1.
        -11    1    1    2    0    0 -0.76011757904E+01  0.41881954955E+02 -0.44107731096E+02  0.61297373244E+02  0.00000000000E+00 0.  1.
         11    1    1    2    0    0  0.35724059070E+02 -0.30240732686E+02 -0.48009305753E+01  0.47050603016E+02  0.00000000000E+00 0. -1.
</event>
<event>
 7    1  0.2670433E-009  0.1524375E+03  0.7561462E-02  0.1197509E+00
          2   -1    0    0  501    0  0.00000000000E+00  0.00000000000E+00  0.16063784720E+03  0.16063784720E+03  0.00000000000E+00 0. -1.
         -2   -1    0    0    0  501 -0.00000000000E+00 -0.00000000000E+00 -0.15014272821E+03  0.15014272821E+03  0.00000000000E+00 0.  1.
         25    2    1    2    0    0  0.92167190475E+02 -0.62285642638E+02  0.45374369883E+01  0.16745734440E+03  0.12508829514E+03 0.  0.
          5    1    3    3  502    0 -0.27864802643E+02 -0.50022237307E+01 -0.16046094938E+02  0.32808825510E+02  0.41800000000E+01 0. -1.
         -5    1    3    3    0  502  0.12003199312E+03 -0.57283418908E+02  0.20583531926E+02  0.13464851889E+03  0.41800000000E+01 0. -1.
        -11    1    1    2    0    0 -0.91848498099E+02  0.82209098210E+02  0.56343317744E+01  0.12339460331E+03  0.00000000000E+00 0. -1.
         11    1    1    2    0    0 -0.31869237643E+00 -0.19923455571E+02  0.32335022556E+00  0.19928627702E+02  0.00000000000E+00 0.  1.
</event>
<event>
 7    1  0.2670433E-009  0.1027706E+03  0.7561462E-02  0.1274575E+00
          2   -1    0    0  501    0  0.00000000000E+00  0.00000000000E+00  0.26357948673E+03  0.26357948673E+03  0.00000000000E+00 0. -1.
         -2   -1    0    0    0  501 -0.00000000000E+00 -0.00000000000E+00 -0.54583841110E+02  0.54583841110E+02  0.00000000000E+00 0.  1.
         25    2    1    2    0    0 -0.42379517934E+02 -0.27536206725E+02  0.10111404970E+03  0.16859828408E+03  0.12508822537E+03 0.  0.
          5    1    3    3  502    0 -0.13274061101E+02 -0.76173646250E+02  0.50115717459E+02  0.92237100006E+02  0.41800000000E+01 0.  1.
         -5    1    3    3    0  502 -0.29105456833E+02  0.48637439525E+02  0.50998332244E+02  0.76361184070E+02  0.41800000000E+01 0.  1.
        -11    1    1    2    0    0 -0.72478523165E+01  0.19749458447E+02 -0.85888377939E+01  0.22723129336E+02  0.00000000000E+00 0.  1.
         11    1    1    2    0    0  0.49627370250E+02  0.77867482778E+01  0.11647043371E+03  0.12684191443E+03  0.00000000000E+00 0. -1.
</event>
<event>
 7    1  0.2670433E-009  0.3113621E+03  0.7561462E-02  0.1079695E+00
          1   -1    0    0  501    0  0.00000000000E+00  0.00000000000E+00  0.45249845302E+03  0.45249845302E+03  0.00000000000E+00 0. -1.
         -1   -1    0    0    0  501 -0.00000000000E+00 -0.00000000000E+00 -0.23371320410E+03  0.23371320410E+03  0.00000000000E+00 0.  1.
         25    2    1    2    0    0  0.25612822094E+03  0.15462958385E+03  0.40957566185E+02  0.32685915902E+03  0.12508962326E+03 0.  0.
          5    1    3    3  502    0  0.13734114744E+03  0.22601603067E+02 -0.16320620947E+02  0.14020434483E+03  0.41800000000E+01 0.  1.
         -5    1    3    3    0  502  0.11878707350E+03  0.13202798078E+03  0.57278187132E+02  0.18665481419E+03  0.41800000000E+01 0.  1.
        -11    1    1    2    0    0 -0.17814387172E+03 -0.13978313015E+03  0.16195720812E+03  0.27839665905E+03  0.00000000000E+00 0. -1.
         11    1    1    2    0    0 -0.77984349221E+02 -0.14846453700E+02  0.15870474611E+02  0.80955839044E+02  0.00000000000E+00 0.  1.
</event>
<event>
 7    1  0.2670433E-009  0.1162931E+03  0.7561462E-02  0.1249341E+00
         -1   -1    0    0    0  501 -0.00000000000E+00  0.00000000000E+00  0.10128663682E+04  0.10128663682E+04  0.00000000000E+00 0.  1.
          1   -1    0    0  501    0  0.00000000000E+00 -0.00000000000E+00 -0.19110215941E+02  0.19110215941E+02  0.00000000000E+00 0. -1.
         25    2    1    2    0    0  0.51838160109E+02 -0.23523309243E+02  0.79304464481E+03  0.80486475510E+03  0.12508766694E+03 0.  0.
          5    1    3    3  502    0  0.26958363255E+02  0.46055950366E+02  0.19344659253E+03  0.20071611912E+03  0.41800000000E+01 0.  1.
         -5    1    3    3    0  502  0.24879796854E+02 -0.69579259608E+02  0.59959805228E+03  0.60414863598E+03  0.41800000000E+01 0.  1.
        -11    1    1    2    0    0  0.18452872571E+02  0.29182049683E+02  0.82979090179E+02  0.89875635947E+02  0.00000000000E+00 0.  1.
         11    1    1    2    0    0 -0.70291032680E+02 -0.56587404406E+01  0.11773241728E+03  0.13723619310E+03  0.00000000000E+00 0. -1.
</event>
<event>
 7    1  0.2670433E-009  0.1040663E+03  0.7561462E-02  0.1271970E+00
         -3   -1    0    0    0  501 -0.00000000000E+00  0.00000000000E+00  0.18992764329E+03  0.18992764329E+03  0.00000000000E+00 0.  1.
          3   -1    0    0  501    0  0.00000000000E+00 -0.00000000000E+00 -0.89872989817E+02  0.89872989817E+02  0.00000000000E+00 0. -1.
         25    2    1    2    0    0 -0.11945705209E+02 -0.58236453658E+02  0.86966301778E+02  0.16353743450E+03  0.12508865029E+03 0.  0.
          5    1    3    3  502    0 -0.48105281165E+02  0.25288950160E+01  0.78503862858E+02  0.92200012308E+02  0.41800000000E+01 0.  1.
         -5    1    3    3    0  502  0.36159575956E+02 -0.60765348674E+02  0.84624389204E+01  0.71337422194E+02  0.41800000000E+01 0.  1.
        -11    1    1    2    0    0 -0.11942173553E+02  0.63392975608E+02  0.43083992401E+02  0.77572645094E+02  0.00000000000E+00 0.  1.
         11    1    1    2    0    0  0.23887878761E+02 -0.51565219502E+01 -0.29995640702E+02  0.38690553517E+02  0.00000000000E+00 0. -1.
</event>
<event>
 7    1  0.2670433E-009  0.4928434E+03  0.7561462E-02  0.1015664E+00
         -1   -1    0    0    0  501 -0.00000000000E+00  0.00000000000E+00  0.14798843400E+04  0.14798843400E+04  0.00000000000E+00 0.  1.
          1   -1    0    0  501    0  0.00000000000E+00 -0.00000000000E+00 -0.17466408407E+03  0.17466408407E+03  0.00000000000E+00 0. -1.
         25    2    1    2    0    0  0.12765669262E+03  0.46807837291E+03  0.82909145500E+03  0.96872806605E+03  0.12509129002E+03 0.  0.
          5    1    3    3  502    0 -0.11670735195E+02  0.45664207990E+02  0.36165302203E+02  0.59555246912E+02  0.41800000000E+01 0.  1.
         -5    1    3    3    0  502  0.13932742781E+03  0.42241416492E+03  0.79292615280E+03  0.90917281914E+03  0.41800000000E+01 0.  1.
        -11    1    1    2    0    0 -0.98268001068E+02 -0.44625367309E+03  0.44353867778E+03  0.63680884060E+03  0.00000000000E+00 0.  1.
         11    1    1    2    0    0 -0.29388691549E+02 -0.21824699818E+02  0.32590123172E+02  0.49011517437E+02  0.00000000000E+00 0. -1.
</event>
<event>
 7    1  0.2670433E-009  0.9413103E+02  0.7561462E-02  0.1293145E+00
         -3   -1    0    0    0  501 -0.00000000000E+00  0.00000000000E+00  0.93756565851E+02  0.93756565851E+02  0.00000000000E+00 0. -1.
          3   -1    0    0  501    0  0.00000000000E+00 -0.00000000000E+00 -0.21796414544E+03  0.21796414544E+03  0.00000000000E+00 0.  1.
         25    2    1    2    0    0  0.56071109775E+02  0.13544981357E+02 -0.14402276551E+03  0.19929096971E+03  0.12508756034E+03 0.  0.
          5    1    3    3  502    0  0.25615567794E+01  0.51208752224E+02 -0.13438405893E+02  0.53169173685E+02  0.41800000000E+01 0.  1.
         -5    1    3    3    0  502  0.53509552996E+02 -0.37663770866E+02 -0.13058435962E+03  0.14612179603E+03  0.41800000000E+01 0.  1.
        -11    1    1    2    0    0 -0.52029841083E+02 -0.25993842694E+02 -0.26780248247E+02  0.64030976233E+02  0.00000000000E+00 0.  1.
         11    1    1    2    0    0 -0.40412686927E+01  0.12448861337E+02  0.46595434170E+02  0.48398765343E+02  0.00000000000E+00 0. -1.
</event>
<event>
 7    1  0.2883393E-009  0.1217527E+03  0.7561462E-02  0.1240233E+00
         -1   -1    0    0    0  501 -0.00000000000E+00  0.00000000000E+00  0.21806310452E+02  0.21806310452E+02  0.00000000000E+00 0.  1.
          1   -1    0    0  501    0  0.00000000000E+00 -0.00000000000E+00 -0.10146289346E+04  0.10146289346E+04  0.00000000000E+00 0. -1.
         25    2    1    2    0    0 -0.30585452499E+02  0.94349429570E+02 -0.45909869242E+03  0.48606204485E+03  0.12508963704E+03 0.  0.
          5    1    3    3  502    0 -0.55020266360E+02  0.73890373425E+02 -0.15566804545E+03  0.18093377178E+03  0.41800000000E+01 0. -1.
         -5    1    3    3    0  502  0.24434813861E+02  0.20459056146E+02 -0.30343064697E+03  0.30512827307E+03  0.41800000000E+01 0. -1.
        -11    1    1    2    0    0  0.27638527574E+02 -0.30609342851E+01 -0.42904746252E+02  0.51128023394E+02  0.00000000000E+00 0.  1.
         11    1    1    2    0    0  0.29469249253E+01 -0.91288495285E+02 -0.49081918549E+03  0.49924517683E+03  0.00000000000E+00 0. -1.
</event>
<event>
 7    1  0.2670433E-009  0.2047026E+03  0.7561462E-02  0.1145831E+00
         -2   -1    0    0    0  501 -0.00000000000E+00  0.00000000000E+00  0.39441922742E+02  0.39441922742E+02  0.00000000000E+00 0.  1.
          2   -1    0    0  501    0  0.00000000000E+00 -0.00000000000E+00 -0.15045104486E+04  0.15045104486E+04  0.00000000000E+00 0. -1.
         25    2    1    2    0    0  0.20159251620E+03 -0.18531540603E+02 -0.10532347383E+04  0.10797838299E+04  0.12508694909E+03 0.  0.
          5    1    3    3  502    0  0.95789939025E+02 -0.16353939299E+02 -0.79119320907E+03  0.79714950306E+03  0.41800000000E+01 0. -1.
         -5    1    3    3    0  502  0.10580257718E+03 -0.21776013042E+01 -0.26204152922E+03  0.28263432686E+03  0.41800000000E+01 0. -1.
        -11    1    1    2    0    0 -0.92055835672E+02  0.28176369226E+02 -0.25550541640E+03  0.27304066084E+03  0.00000000000E+00 0.  1.
         11    1    1    2    0    0 -0.10953668053E+03 -0.96448286228E+01 -0.15632837114E+03  0.19112788055E+03  0.00000000000E+00 0. -1.
</event>
<event>
 7    1  0.2670433E-009  0.1082345E+03  0.7561462E-02  0.1263875E+00
         -1   -1    0    0    0  501 -0.00000000000E+00  0.00000000000E+00  0.27327739546E+02  0.27327739546E+02  0.00000000000E+00 0.  1.
          1   -1    0    0  501    0  0.00000000000E+00 -0.00000000000E+00 -0.43554330010E+03  0.43554330010E+03  0.00000000000E+00 0. -1.
         25    2    1    2    0    0  0.16463243074E+02 -0.93087462656E+01 -0.22115073112E+03  0.25478005094E+03  0.12509011694E+03 0.  0.
          5    1    3    3  502    0 -0.41686336507E+01 -0.65369069023E+02 -0.99640786514E+02  0.11931576354E+03  0.41800000000E+01 0.  1.
         -5    1    3    3    0  502  0.20631876725E+02  0.56060322758E+02 -0.12150994461E+03  0.13546428741E+03  0.41800000000E+01 0.  1.
        -11    1    1    2    0    0  0.16491826753E+02 -0.33255770937E+02 -0.83197545131E+02  0.91103008546E+02  0.00000000000E+00 0. -1.
         11    1    1    2    0    0 -0.32955069827E+02  0.42564517203E+02 -0.10386728431E+03  0.11698798016E+03  0.00000000000E+00 0.  1.
</event>
<event>
 7    1  0.2670433E-009  0.1131012E+03  0.7561462E-02  0.1254932E+00
          2   -1    0    0  501    0  0.00000000000E+00  0.00000000000E+00  0.79195778623E+03  0.79195778623E+03  0.00000000000E+00 0.  1.
         -2   -1    0    0    0  501 -0.00000000000E+00 -0.00000000000E+00 -0.17736211542E+02  0.17736211542E+02  0.00000000000E+00 0. -1.
         25    2    1    2    0    0 -0.33590430041E+02  0.13836754402E+02  0.53453360000E+03  0.55017610619E+03  0.12509118889E+03 0.  0.
          5    1    3    3  502    0 -0.55517556108E+02 -0.40068236706E+02  0.34929708183E+03  0.35596851883E+03  0.41800000000E+01 0. -1.
         -5    1    3    3    0  502  0.21927126067E+02  0.53904991108E+02  0.18523651817E+03  0.19420758736E+03  0.41800000000E+01 0. -1.
        -11    1    1    2    0    0  0.62071490350E+02 -0.27241905306E+02  0.15526110803E+03  0.16941370365E+03  0.00000000000E+00 0.  1.
         11    1    1    2    0    0 -0.28481060309E+02  0.13405150904E+02  0.84426866658E+02  0.90104187920E+02  0.00000000000E+00 0. -1.
</event>
<event>
 7    1  0.2846129E-009  0.1220832E+03  0.7561462E-02  0.1239699E+00
         -2   -1    0    0    0  501 -0.00000000000E+00  0.00000000000E+00  0.13747975345E+03  0.13747975345E+03  0.00000000000E+00 0.  1.
          2   -1    0    0  501    0  0.00000000000E+00 -0.00000000000E+00 -0.13414989899E+03  0.13414989899E+03  0.00000000000E+00 0. -1.
         25    2    1    2    0    0 -0.11971286109E+02  0.70212794350E+02  0.41583878921E+02  0.14983151757E+03  0.12508843468E+03 0.  0.
          5    1    3    3  502    0  0.50505578907E+02  0.36070576834E+02 -0.83593460728E+01  0.62763453384E+02  0.41800000000E+01 0.  1.
         -5    1    3    3    0  502 -0.62476865016E+02  0.34142217517E+02  0.49943224994E+02  0.87068064191E+02  0.41800000000E+01 0.  1.
        -11    1    1    2    0    0  0.45815216843E+02 -0.19772246967E+02 -0.35034266340E+02  0.60970285078E+02  0.00000000000E+00 0. -1.
         11    1    1    2    0    0 -0.33843930734E+02 -0.50440547384E+02 -0.32197581158E+01  0.60827849791E+02  0.00000000000E+00 0.  1.
</event>
<event>
 7    1  0.2670433E-009  0.9079742E+02  0.7561462E-02  0.1300932E+00
         -1   -1    0    0    0  501 -0.00000000000E+00  0.00000000000E+00  0.58426865290E+03  0.58426865290E+03  0.00000000000E+00 0.  1.
          1   -1    0    0  501    0  0.00000000000E+00 -0.00000000000E+00 -0.29331597339E+02  0.29331597339E+02  0.00000000000E+00 0. -1.
         25    2    1    2    0    0  0.72719132783E+02  0.70827600271E+01  0.30942157484E+03  0.34165099188E+03  0.12508177931E+03 0.  0.
          5    1    3    3  502    0  0.37483966230E+02 -0.36344206665E+02  0.26495262128E+03  0.27008019736E+03  0.41800000000E+01 0. -1.
         -5    1    3    3    0  502  0.35235166553E+02  0.43426966692E+02  0.44468953557E+02  0.71570794522E+02  0.41800000000E+01 0. -1.
        -11    1    1    2    0    0 -0.31964619183E+02 -0.47609816936E+01  0.11349977159E+02  0.34252383971E+02  0.00000000000E+00 0. -1.
         11    1    1    2    0    0 -0.40754513600E+02 -0.23217783336E+01  0.23416550357E+03  0.23769687439E+03  0.00000000000E+00 0.  1.
</event>
<event>
 7    1  0.2670433E-009  0.1265988E+03  0.7561462E-02  0.1232592E+00
          1   -1    0    0  501    0  0.00000000000E+00  0.00000000000E+00  0.24444582932E+03  0.24444582932E+03  0.00000000000E+00 0. -1.
         -1   -1    0    0    0  501 -0.00000000000E+00 -0.00000000000E+00 -0.66923482641E+02  0.66923482641E+02  0.00000000000E+00 0.  1.
         25    2    1    2    0    0  0.27225242355E+02 -0.66079916247E+02  0.90510969499E+02  0.17013535027E+03  0.12508410234E+03 0.  0.
          5    1    3    3  502    0  0.54444418394E+00 -0.99701721850E+02  0.72760369816E+02  0.12350009545E+03  0.41800000000E+01 0.  1.
         -5    1    3    3    0  502  0.26680798171E+02  0.33621805602E+02  0.17750599683E+02  0.46635254820E+02  0.41800000000E+01 0.  1.
        -11    1    1    2    0    0 -0.15324754163E+02 -0.18979481633E+02  0.11928501474E+02  0.27154335945E+02  0.00000000000E+00 0.  1.
         11    1    1    2    0    0 -0.11900488192E+02  0.85059397880E+02  0.75082875702E+02  0.11407962575E+03  0.00000000000E+00 0. -1.
</event>
<event>
 7    1  0.2670433E-009  0.4910418E+02  0.7561462E-02  0.1450234E+00
          1   -1    0    0  501    0  0.00000000000E+00  0.00000000000E+00  0.13529558752E+03  0.13529558752E+03  0.00000000000E+00 0. -1.
         -1   -1    0    0    0  501 -0.00000000000E+00 -0.00000000000E+00 -0.97296458010E+02  0.97296458010E+02  0.00000000000E+00 0.  1.
         25    2    1    2    0    0  0.11316266535E+02  0.61907140240E+01 -0.14251716214E+02  0.12655685241E+03  0.12508853924E+03 0.  0.
          5    1    3    3  502    0 -0.16433621690E+02  0.18534978439E+02 -0.63644454214E+02  0.68422936943E+02  0.41800000000E+01 0.  1.
         -5    1    3    3    0  502  0.27749888225E+02 -0.12344264415E+02  0.49392738001E+02  0.58133915468E+02  0.41800000000E+01 0.  1.
        -11    1    1    2    0    0 -0.95704117137E+00  0.17001512778E+02  0.71920602050E+02  0.73909000560E+02  0.00000000000E+00 0. -1.
         11    1    1    2    0    0 -0.10359225363E+02 -0.23192226802E+02 -0.19669756328E+02  0.32126192556E+02  0.00000000000E+00 0.  1.
</event>
<event>
 7    1  0.2670433E-009  0.7816862E+02  0.7561462E-02  0.1334330E+00
         -1   -1    0    0    0  501 -0.00000000000E+00  0.00000000000E+00  0.49263885745E+03  0.49263885745E+03  0.00000000000E+00 0.  1.
          1   -1    0    0  501    0  0.00000000000E+00 -0.00000000000E+00 -0.34800218291E+02  0.34800218291E+02  0.00000000000E+00 0. -1.
         25    2    1    2    0    0  0.57355350998E+02  0.21354960163E+02  0.33603352028E+03  0.36374678728E+03  0.12509007913E+03 0.  0.
          5    1    3    3  502    0  0.36471418936E+02 -0.18574224037E+02  0.30751751758E+03  0.31025741283E+03  0.41800000000E+01 0.  1.
         -5    1    3    3    0  502  0.20883932062E+02  0.39929184200E+02  0.28516002695E+02  0.53489374449E+02  0.41800000000E+01 0.  1.
        -11    1    1    2    0    0 -0.41465544531E+02  0.22045151885E+01  0.12803505389E+03  0.13460024627E+03  0.00000000000E+00 0.  1.
         11    1    1    2    0    0 -0.15889806467E+02 -0.23559475351E+02 -0.62299350126E+01  0.29092042188E+02  0.00000000000E+00 0. -1.
</event>
<event>
 7    1  0.2670433E-009  0.8970543E+02  0.7561462E-02  0.1303567E+00
         -1   -1    0    0    0  501 -0.00000000000E+00  0.00000000000E+00  0.15032389288E+03  0.15032389288E+03  0.00000000000E+00 0.  1.
          1   -1    0    0  501    0  0.00000000000E+00 -0.00000000000E+00 -0.10597610489E+03  0.10597610489E+03  0.00000000000E+00 0. -1.
         25    2    1    2    0    0  0.45109247971E+02 -0.55585804425E+02  0.54772504174E+02  0.15418160951E+03  0.12508923051E+03 0.  0.
          5    1    3    3  502    0 -0.37635137305E+01 -0.41060285957E+01  0.78813522658E+02  0.79120586829E+02  0.41800000000E+01 0.  1.
         -5    1    3    3    0  502  0.48872761701E+02 -0.51479775829E+02 -0.24041018484E+02  0.75061022678E+02  0.41800000000E+01 0.  1.
        -11    1    1    2    0    0 -0.39604161019E+02 -0.55198266737E+01 -0.65530505956E+00  0.39992342783E+02  0.00000000000E+00 0.  1.
         11    1    1    2    0    0 -0.55050869520E+01  0.61105631098E+02 -0.97694111244E+01  0.62126045488E+02  0.00000000000E+00 0. -1.
</event>
<event>
 7    1  0.2670433E-009  0.1639587E+03  0.7561462E-02  0.1184299E+00
          2   -1    0    0  501    0  0.00000000000E+00  0.00000000000E+00  0.16317630533E+03  0.16317630533E+03  0.00000000000E+00 0. -1.
         -2   -1    0    0    0  501 -0.00000000000E+00 -0.00000000000E+00 -0.21237206155E+03  0.21237206155E+03  0.00000000000E+00 0.  1.
         25    2    1    2    0    0  0.66203348240E+02  0.13056496757E+03 -0.64848209861E+02  0.20318208063E+03  0.12509026138E+03 0.  0.
          5    1    3    3  502    0  0.30418183954E+02  0.11725886655E+03 -0.95282190764E+02  0.15417871441E+03  0.41800000000E+01 0. -1.
         -5    1    3    3    0  502  0.35785164286E+02  0.13306101016E+02  0.30433980902E+02  0.49003366219E+02  0.41800000000E+01 0. -1.
        -11    1    1    2    0    0 -0.83670995850E+02 -0.83986035178E+02  0.26438417876E+02  0.12146390242E+03  0.00000000000E+00 0.  1.
         11    1    1    2    0    0  0.17467647610E+02 -0.46578932391E+02 -0.10785964235E+02  0.50902383836E+02  0.00000000000E+00 0. -1.
</event>
<event>
 7    1  0.2670433E-009  0.1515677E+03  0.7561462E-02  0.1198560E+00
          2   -1    0    0  501    0  0.00000000000E+00  0.00000000000E+00  0.47900815305E+02  0.47900815305E+02  0.00000000000E+00 0. -1.
         -2   -1    0    0    0  501 -0.00000000000E+00 -0.00000000000E+00 -0.51421903075E+03  0.51421903075E+03  0.00000000000E+00 0.  1.
         25    2    1    2    0    0  0.10490256896E+03  0.32166547180E+02 -0.21488489235E+03  0.27177539490E+03  0.12508841905E+03 0.  0.
          5    1    3    3  502    0 -0.16472829357E+02 -0.26515111425E+02 -0.42196053211E+02  0.52653438135E+02  0.41800000000E+01 0. -1.
         -5    1    3    3    0  502  0.12137539832E+03  0.58681658605E+02 -0.17268883914E+03  0.21912195676E+03  0.41800000000E+01 0. -1.
        -11    1    1    2    0    0 -0.54198225376E+02 -0.58397247828E+02 -0.95972653478E+02  0.12473346144E+03  0.00000000000E+00 0.  1.
         11    1    1    2    0    0 -0.50704343587E+02  0.26230700648E+02 -0.15546066961E+03  0.16561098971E+03  0.00000000000E+00 0. -1.
</event>
<event>
 7    1  0.2670433E-009  0.7307795E+02  0.7561462E-02  0.1349928E+00
         -1   -1    0    0    0  501 -0.00000000000E+00  0.00000000000E+00  0.60836291215E+03  0.60836291215E+03  0.00000000000E+00 0.  1.
          1   -1    0    0  501    0  0.00000000000E+00 -0.00000000000E+00 -0.25756565741E+02  0.25756565741E+02  0.00000000000E+00 0. -1.
         25    2    1    2    0    0 -0.74703202440E+01  0.38263522019E+01  0.48306677302E+03  0.49907089355E+03  0.12509117848E+03 0.  0.
          5    1    3    3  502    0 -0.25809063984E+02  0.53463689749E+02  0.36226721366E+03  0.36712324960E+03  0.41800000000E+01 0. -1.
         -5    1    3    3    0  502  0.18338743740E+02 -0.49637337548E+02  0.12079955936E+03  0.13194764394E+03  0.41800000000E+01 0. -1.
        -11    1    1    2    0    0  0.20381840805E+02 -0.32177211555E+01  0.11388473912E+03  0.11573896046E+03  0.00000000000E+00 0.  1.
         11    1    1    2    0    0 -0.12911520561E+02 -0.60863104640E+00 -0.14345165728E+02  0.19309623888E+02  0.00000000000E+00 0. -1.
</event>
<event>
 7    1  0.2670433E-009  0.1079941E+03  0.7561462E-02  0.1264330E+00
          4   -1    0    0  501    0  0.00000000000E+00  0.00000000000E+00  0.44689717362E+02  0.44689717362E+02  0.00000000000E+00 0.  1.
         -4   -1    0    0    0  501 -0.00000000000E+00 -0.00000000000E+00 -0.29645264116E+03  0.29645264116E+03  0.00000000000E+00 0. -1.
         25    2    1    2    0    0  0.12284709642E+02 -0.33397888374E+02 -0.17685842470E+03  0.21952843200E+03  0.12508995575E+03 0.  0.
          5    1    3    3  502    0 -0.16823872532E+02  0.41311224060E+02 -0.94116296384E+02  0.10423535660E+03  0.41800000000E+01 0. -1.
         -5    1    3    3    0  502  0.29108582174E+02 -0.74709112434E+02 -0.82742128311E+02  0.11529307540E+03  0.41800000000E+01 0. -1.
        -11    1    1    2    0    0  0.42232841287E+01  0.59697898819E+02 -0.29804396537E+02  0.66857888877E+02  0.00000000000E+00 0.  1.
         11    1    1    2    0    0 -0.16507993771E+02 -0.26300010445E+02 -0.45100102566E+02  0.54756037651E+02  0.00000000000E+00 0. -1.
</event>
<event>
 7    1  0.2748490E-009  0.2010551E+03  0.7561462E-02  0.1148852E+00
         -2   -1    0    0    0  501 -0.00000000000E+00  0.00000000000E+00  0.97778429537E+02  0.97778429537E+02  0.00000000000E+00 0.  1.
          2   -1    0    0  501    0  0.00000000000E+00 -0.00000000000E+00 -0.57010028058E+03  0.57010028058E+03  0.00000000000E+00 0. -1.
         25    2    1    2    0    0 -0.35347294444E+02  0.19181065950E+03 -0.13710383730E+03  0.26923072357E+03  0.12508780912E+03 0.  0.
          5    1    3    3  502    0  0.57229758360E+01  0.91620384292E+02  0.32035500668E+01  0.91949890719E+02  0.41800000000E+01 0.  1.
         -5    1    3    3    0  502 -0.41070270280E+02  0.10019027521E+03 -0.14030738737E+03  0.17728083286E+03  0.41800000000E+01 0.  1.
        -11    1    1    2    0    0 -0.86007439050E+01 -0.96689271297E+02 -0.91665833696E+02  0.13351184609E+03  0.00000000000E+00 0.  1.
         11    1    1    2    0    0  0.43948038349E+02 -0.95121388204E+02 -0.24355218004E+03  0.26513614045E+03  0.00000000000E+00 0. -1.
</event>
<event>
 7    1  0.2670433E-009  0.1067402E+03  0.7561462E-02  0.1266728E+00
          1   -1    0    0  501    0  0.00000000000E+00  0.00000000000E+00  0.79167462923E+03  0.79167462923E+03  0.00000000000E+00 0. -1.
         -1   -1    0    0    0  501 -0.00000000000E+00 -0.00000000000E+00 -0.16530697592E+02  0.16530697592E+02  0.00000000000E+00 0.  1.
         25    2    1    2    0    0 -0.23264475821E+02  0.65380180733E+00  0.53444406196E+03  0.54938118443E+03  0.12509023600E+03 0.  0.
          5    1    3    3  502    0 -0.67547661495E+02  0.19019760474E+02  0.21164021457E+03  0.22301006857E+03  0.41800000000E+01 0.  1.
         -5    1    3    3    0  502  0.44283185674E+02 -0.18365958667E+02  0.32280384740E+03  0.32637111586E+03  0.41800000000E+01 0.  1.
        -11    1    1    2    0    0  0.25450169524E+02 -0.44443608964E+02  0.12402468191E+03  0.13418296177E+03  0.00000000000E+00 0. -1.
         11    1    1    2    0    0 -0.21856937031E+01  0.43789807157E+02  0.11667518776E+03  0.12464118062E+03  0.00000000000E+00 0.  1.
</event>
<event>
 7    1  0.2670433E-009  0.2535351E+03  0.7561462E-02  0.1111091E+00
         -2   -1    0    0    0  501 -0.00000000000E+00  0.00000000000E+00  0.62166504555E+03  0.62166504555E+03  0.00000000000E+00 0.  1.
          2   -1    0    0  501    0  0.00000000000E+00 -0.00000000000E+00 -0.12685162056E+03  0.12685162056E+03  0.00000000000E+00 0. -1.
         25    2    1    2    0    0  0.55307590220E+02  0.22583934491E+03  0.10212919815E+03  0.28308946090E+03  0.12508769129E+03 0.  0.
          5    1    3    3  502    0  0.93616560161E+02  0.14130720228E+03  0.80538841237E+02  0.18771191518E+03  0.41800000000E+01 0.  1.
         -5    1    3    3    0  502 -0.38308969942E+02  0.84532142628E+02  0.21590356911E+02  0.95377545716E+02  0.41800000000E+01 0.  1.
        -11    1    1    2    0    0 -0.61074432108E+02 -0.90677177260E+02  0.12925646735E+03  0.16929167459E+03  0.00000000000E+00 0. -1.
         11    1    1    2    0    0  0.57668418885E+01 -0.13516216765E+03  0.26342775949E+03  0.29613553062E+03  0.00000000000E+00 0.  1.
</event>
<event>
 7    1  0.2670433E-009  0.1425077E+03  0.7561462E-02  0.1209994E+00
         -1   -1    0    0    0  501 -0.00000000000E+00  0.00000000000E+00  0.40332579256E+02  0.40332579256E+02  0.00000000000E+00 0.  1.
          1   -1    0    0  501    0  0.00000000000E+00 -0.00000000000E+00 -0.89360031071E+03  0.89360031071E+03  0.00000000000E+00 0. -1.
         25    2    1    2    0    0  0.39916533871E+01  0.13155703233E+03 -0.64716291093E+03  0.67215360263E+03  0.12508975256E+03 0.  0.
          5    1    3    3  502    0 -0.44837017981E+01 -0.16397310186E+00  0.42683634177E+01  0.74713984808E+01  0.41800000000E+01 0. -1.
         -5    1    3    3    0  502  0.84753551852E+01  0.13172100543E+03 -0.65143127435E+03  0.66468220415E+03  0.41800000000E+01 0. -1.
        -11    1    1    2    0    0 -0.34494896530E+02 -0.75435575164E+02 -0.60158145319E+02  0.10246670842E+03  0.00000000000E+00 0.  1.
         11    1    1    2    0    0  0.30503243143E+02 -0.56121457162E+02 -0.14594667521E+03  0.15931257891E+03  0.00000000000E+00 0. -1.
</event>
<event>
 7    1  0.2670433E-009  0.1368037E+03  0.7561462E-02  0.1217696E+00
          2   -1    0    0  501    0  0.00000000000E+00  0.00000000000E+00  0.41908521865E+02  0.41908521865E+02  0.00000000000E+00 0. -1.
         -2   -1    0    0    0  501 -0.00000000000E+00 -0.00000000000E+00 -0.73801623538E+03  0.73801623538E+03  0.00000000000E+00 0.  1.
         25    2    1    2    0    0 -0.83682227057E+02 -0.34540230784E+02 -0.13507477633E+03  0.20515372030E+03  0.12508841307E+03 0.  0.
          5    1    3    3  502    0 -0.73592552511E+02 -0.77317104842E+02 -0.74665443564E+02  0.13033111428E+03  0.41800000000E+01 0.  1.
         -5    1    3    3    0  502 -0.10089674546E+02  0.42776874057E+02 -0.60409332770E+02  0.74822606025E+02  0.41800000000E+01 0.  1.
        -11    1    1    2    0    0  0.12075925697E+02  0.48241179889E+02 -0.28313272132E+03  0.28746682817E+03  0.00000000000E+00 0.  1.
         11    1    1    2    0    0  0.71606301360E+02 -0.13700949105E+02 -0.27790021586E+03  0.28730420877E+03  0.00000000000E+00 0. -1.
</event>
<event>
 7    1  0.2670433E-009  0.8106833E+02  0.7561462E-02  0.1326047E+00
          1   -1    0    0  501    0  0.00000000000E+00  0.00000000000E+00  0.10213844860E+03  0.10213844860E+03  0.00000000000E+00 0. -1.
         -1   -1    0    0    0  501 -0.00000000000E+00 -0.00000000000E+00 -0.14526602818E+03  0.14526602818E+03  0.00000000000E+00 0.  1.
         25    2    1    2    0    0  0.48257262868E+02 -0.20721873791E+02 -0.33535769489E+02  0.13973736345E+03  0.12507487132E+03 0.  0.
          5    1    3    3  502    0  0.28146542762E+02  0.25989734696E+02 -0.67999761993E+02  0.78160950674E+02  0.41800000000E+01 0.  1.
         -5    1    3    3    0  502  0.20110720106E+02 -0.46711608487E+02  0.34463992505E+02  0.61576412773E+02  0.41800000000E+01 0.  1.
        -11    1    1    2    0    0 -0.24466549503E+02  0.36558975872E+02 -0.44485488916E+02  0.62563004127E+02  0.00000000000E+00 0.  1.
         11    1    1    2    0    0 -0.23790713364E+02 -0.15837102081E+02  0.34893678833E+02  0.45104109206E+02  0.00000000000E+00 0. -1.
</event>
<event>
 7    1  0.2670433E-009  0.7538471E+02  0.7561462E-02  0.1342684E+00
          1   -1    0    0  501    0  0.00000000000E+00  0.00000000000E+00  0.23048273563E+02  0.23048273563E+02  0.00000000000E+00 0. -1.
         -1   -1    0    0    0  501 -0.00000000000E+00 -0.00000000000E+00 -0.54201083295E+03  0.54201083295E+03  0.00000000000E+00 0.  1.
         25    2    1    2    0    0  0.15350956871E+02  0.20432845942E+02 -0.28397626544E+03  0.31135768367E+03  0.12509170546E+03 0.  0.
          5    1    3    3  502    0 -0.15099773877E+02  0.45934261954E+02 -0.26060147573E+03  0.26508217810E+03  0.41800000000E+01 0.  1.
         -5    1    3    3    0  502  0.30450730747E+02 -0.25501416012E+02 -0.23374789708E+02  0.46275505567E+02  0.41800000000E+01 0.  1.
        -11    1    1    2    0    0 -0.59972186496E+01  0.19957631750E+02 -0.70111307660E+01  0.21987033707E+02  0.00000000000E+00 0. -1.
         11    1    1    2    0    0 -0.93537382211E+01 -0.40390477692E+02 -0.22797516318E+03  0.23171438914E+03  0.00000000000E+00 0.  1.
</event>
<event>
 7    1  0.2670433E-009  0.1353252E+03  0.7561462E-02  0.1219761E+00
          3   -1    0    0  501    0  0.00000000000E+00  0.00000000000E+00  0.55050799326E+02  0.55050799326E+02  0.00000000000E+00 0. -1.
         -3   -1    0    0    0  501 -0.00000000000E+00 -0.00000000000E+00 -0.48263521076E+03  0.48263521076E+03  0.00000000000E+00 0.  1.
         25    2    1    2    0    0  0.89085710233E+02 -0.58778667942E+02 -0.32564538141E+03  0.36480712112E+03  0.12509246827E+03 0.  0.
          5    1    3    3  502    0  0.44099242923E+02  0.36399600713E+02 -0.14112567174E+03  0.15232728509E+03  0.41800000000E+01 0.  1.
         -5    1    3    3    0  502  0.44986467310E+02 -0.95178268655E+02 -0.18451970967E+03  0.21247983603E+03  0.41800000000E+01 0.  1.
        -11    1    1    2    0    0 -0.80448579807E+02  0.46415972285E+02 -0.11844692169E+03  0.15051939986E+03  0.00000000000E+00 0.  1.
         11    1    1    2    0    0 -0.86371304260E+01  0.12362695657E+02  0.16507891662E+02  0.22359489105E+02  0.00000000000E+00 0. -1.
</event>
<event>
 7    1  0.2670433E-009  0.1210440E+03  0.7561462E-02  0.1241385E+00
          2   -1    0    0  501    0  0.00000000000E+00  0.00000000000E+00  0.20126841901E+03  0.20126841901E+03  0.00000000000E+00 0.  1.
         -2   -1    0    0    0  501 -0.00000000000E+00 -0.00000000000E+00 -0.81286261344E+02  0.81286261344E+02  0.00000000000E+00 0. -1.
         25    2    1    2    0    0 -0.49256447432E+02 -0.38266205638E+02  0.84517271356E+02  0.16334324015E+03  0.12508934741E+03 0.  0.
          5    1    3    3  502    0 -0.69120700869E+02 -0.72195819301E+02  0.64485293790E+02  0.11901988543E+03  0.41800000000E+01 0. -1.
         -5    1    3    3    0  502  0.19864253436E+02  0.33929613664E+02  0.20031977566E+02  0.44323354715E+02  0.41800000000E+01 0. -1.
        -11    1    1    2    0    0  0.50799088580E+01 -0.24910269231E+02  0.33554652239E+02  0.42098000832E+02  0.00000000000E+00 0.  1.
         11    1    1    2    0    0  0.44176538574E+02  0.63176474869E+02  0.19102340661E+01  0.77113439370E+02  0.00000000000E+00 0. -1.
</event>
<event>
 7    1  0.2670433E-009  0.6559329E+02  0.7561462E-02  0.1375754E+00
         -1   -1    0    0    0  501 -0.00000000000E+00  0.00000000000E+00  0.16778481774E+04  0.16778481774E+04  0.00000000000E+00 0.  1.
          1   -1    0    0  501    0  0.00000000000E+00 -0.00000000000E+00 -0.10135527927E+02  0.10135527927E+02  0.00000000000E+00 0. -1.
         25    2    1    2    0    0 -0.43566566677E+02 -0.61710163154E+01  0.13511198666E+04  0.13576114447E+04  0.12509122157E+03 0.  0.
          5    1    3    3  502    0 -0.12506784729E+02 -0.43439713750E+00  0.12753155635E+04  0.12753838117E+04  0.41800000000E+01 0. -1.
         -5    1    3    3    0  502 -0.31059781948E+02 -0.57366191779E+01  0.75804303116E+02  0.82227632978E+02  0.41800000000E+01 0. -1.
        -11    1    1    2    0    0 -0.18514387083E+02  0.14470999637E+02  0.36860006249E+02  0.43713297980E+02  0.00000000000E+00 0. -1.
         11    1    1    2    0    0  0.62080953760E+02 -0.82999833220E+01  0.27973277661E+03  0.28665896263E+03  0.00000000000E+00 0.  1.
</event>
<event>
 7    1  0.2670433E-009  0.9704589E+02  0.7561462E-02  0.1286634E+00
          4   -1    0    0  501    0  0.00000000000E+00  0.00000000000E+00  0.13800115349E+03  0.13800115349E+03  0.00000000000E+00 0. -1.
         -4   -1    0    0    0  501 -0.00000000000E+00 -0.00000000000E+00 -0.11591028316E+03  0.11591028316E+03  0.00000000000E+00 0.  1.
         25    2    1    2    0    0  0.15343139871E+02  0.38554439608E+02 -0.37003332533E+02  0.13688772282E+03  0.12508854978E+03 0.  0.
          5    1    3    3  502    0  0.57054467573E+02  0.53087892418E+02  0.16226016378E+01  0.78061782119E+02  0.41800000000E+01 0.  1.
         -5    1    3    3    0  502 -0.41711327702E+02 -0.14533452810E+02 -0.38625934170E+02  0.58825940704E+02  0.41800000000E+01 0.  1.
        -11    1    1    2    0    0  0.11748308003E+02 -0.42686789213E+02 -0.75973632713E+01  0.44921093519E+02  0.00000000000E+00 0.  1.
         11    1    1    2    0    0 -0.27091447874E+02  0.41323496042E+01  0.66691566134E+02  0.72102620303E+02  0.00000000000E+00 0. -1.
</event>
<event>
 7    1  0.2670433E-009  0.9883028E+02  0.7561462E-02  0.1282775E+00
         -2   -1    0    0    0  501 -0.00000000000E+00  0.00000000000E+00  0.12150536830E+02  0.12150536830E+02  0.00000000000E+00 0.  1.
          2   -1    0    0  501    0  0.00000000000E+00 -0.00000000000E+00 -0.18053204664E+04  0.18053204664E+04  0.00000000000E+00 0. -1.
         25    2    1    2    0    0 -0.45464603574E+02 -0.15223411822E+02 -0.15180146213E+04  0.15239140484E+04  0.12508738593E+03 0.  0.
          5    1    3    3  502    0  0.23105034410E+02 -0.25655036827E+02 -0.10680505033E+04  0.10686165699E+04  0.41800000000E+01 0.  1.
         -5    1    3    3    0  502 -0.68569637984E+02  0.10431625006E+02 -0.44996411801E+03  0.45529747852E+03  0.41800000000E+01 0.  1.
        -11    1    1    2    0    0  0.57275665539E+02 -0.16452664617E+02 -0.22718831877E+03  0.23487384746E+03  0.00000000000E+00 0.  1.
         11    1    1    2    0    0 -0.11811061965E+02  0.31676076439E+02 -0.47966989493E+02  0.58683107316E+02  0.00000000000E+00 0. -1.
</event>
<event>
 7    1  0.3431986E-009  0.1234693E+03  0.7561462E-02  0.1237481E+00
          1   -1    0    0  501    0  0.00000000000E+00  0.00000000000E+00  0.18318048794E+03  0.18318048794E+03  0.00000000000E+00 0. -1.
         -1   -1    0    0    0  501 -0.00000000000E+00 -0.00000000000E+00 -0.12743471929E+03  0.12743471929E+03  0.00000000000E+00 0.  1.
         25    2    1    2    0    0 -0.69947419386E+01  0.10679824463E+03  0.28864337305E+02  0.16712789005E+03  0.12507513819E+03 0.  0.
          5    1    3    3  502    0  0.10304349349E+02 -0.53782469512E+01 -0.34796720234E+02  0.36924101815E+02  0.41800000000E+01 0. -1.
         -5    1    3    3    0  502 -0.17299091288E+02  0.11217649158E+03  0.63661057539E+02  0.13020378823E+03  0.41800000000E+01 0. -1.
        -11    1    1    2    0    0  0.31847470897E+02 -0.64882525232E+02 -0.20901999400E+02  0.75238933152E+02  0.00000000000E+00 0.  1.
         11    1    1    2    0    0 -0.24852728958E+02 -0.41915719397E+02  0.47783430750E+02  0.68248384036E+02  0.00000000000E+00 0. -1.
</event>
<event>
 7    1  0.2670433E-009  0.1140110E+03  0.7561462E-02  0.1253317E+00
          1   -1    0    0  501    0  0.00000000000E+00  0.00000000000E+00  0.42559601658E+03  0.42559601658E+03  0.00000000000E+00 0. -1.
         -1   -1    0    0    0  501 -0.00000000000E+00 -0.00000000000E+00 -0.44759436492E+02  0.44759436492E+02  0.00000000000E+00 0.  1.
         25    2    1    2    0    0 -0.47061928441E+02  0.17914103780E+02  0.28883846647E+03  0.31876421058E+03  0.12508885646E+03 0.  0.
          5    1    3    3  502    0  0.28231644689E+02 -0.27530420660E+02  0.47552613379E+02  0.61916663854E+02  0.41800000000E+01 0.  1.
         -5    1    3    3    0  502 -0.75293573129E+02  0.45444524440E+02  0.24128585309E+03  0.25684754672E+03  0.41800000000E+01 0.  1.
        -11    1    1    2    0    0  0.36956169119E+02  0.32312758747E+02  0.33520391809E+01  0.49204765831E+02  0.00000000000E+00 0.  1.
         11    1    1    2    0    0  0.10105759322E+02 -0.50226862527E+02  0.88646074439E+02  0.10238647667E+03  0.00000000000E+00 0. -1.
</event>
<event>
 7    1  0.2670433E-009  0.1511665E+03  0.7561462E-02  0.1199047E+00
          1   -1    0    0  501    0  0.00000000000E+00  0.00000000000E+00  0.58960503283E+03  0.58960503283E+03  0.00000000000E+00 0. -1.
         -1   -1    0    0    0  501 -0.00000000000E+00 -0.00000000000E+00 -0.43914906745E+02  0.43914906745E+02  0.00000000000E+00 0.  1.
         25    2    1    2    0    0 -0.42191289190E+02 -0.10510065028E+03  0.22041069622E+03  0.27758796587E+03  0.12509177517E+03 0.  0.
          5    1    3    3  502    0  0.38016158867E+02 -0.35613394596E+02  0.31919627636E+02  0.61236241214E+02  0.41800000000E+01 0. -1.
         -5    1    3    3    0  502 -0.80207448056E+02 -0.69487255686E+02  0.18849106858E+03  0.21635172466E+03  0.41800000000E+01 0. -1.
        -11    1    1    2    0    0 -0.24223028655E+02  0.56800509543E+02  0.12335527983E+03  0.13794773671E+03  0.00000000000E+00 0.  1.
         11    1    1    2    0    0  0.66414317845E+02  0.48300140738E+02  0.20192415004E+03  0.21798423700E+03  0.00000000000E+00 0. -1.
</event>
<event>
 7    1  0.2670433E-009  0.2837787E+03  0.7561462E-02  0.1093643E+00
         -2   -1    0    0    0  501 -0.00000000000E+00  0.00000000000E+00  0.27461810864E+03  0.27461810864E+03  0.00000000000E+00 0.  1.
          2   -1    0    0  501    0  0.00000000000E+00 -0.00000000000E+00 -0.40482463937E+03  0.40482463937E+03  0.00000000000E+00 0. -1.
         25    2    1    2    0    0 -0.58104865842E+02 -0.25808084089E+03 -0.23996510965E+03  0.37843489241E+03  0.12509123902E+03 0.  0.
          5    1    3    3  502    0  0.37927539125E+02 -0.58412691279E+02 -0.43041211398E+02  0.81979015639E+02  0.41800000000E+01 0. -1.
         -5    1    3    3    0  502 -0.96032404967E+02 -0.19966814961E+03 -0.19692389825E+03  0.29645587677E+03  0.41800000000E+01 0. -1.
        -11    1    1    2    0    0 -0.66123773536E+01  0.15045214778E+03  0.34163435379E+02  0.15442380848E+03  0.00000000000E+00 0.  1.
         11    1    1    2    0    0  0.64717243196E+02  0.10762869310E+03  0.75595143539E+02  0.14658404713E+03  0.00000000000E+00 0. -1.
</event>
<event>
 7    1  0.2670433E-009  0.1352520E+03  0.7561462E-02  0.1219864E+00
         -1   -1    0    0    0  501 -0.00000000000E+00  0.00000000000E+00  0.65794982361E+03  0.65794982361E+03  0.00000000000E+00 0.  1.
          1   -1    0    0  501    0  0.00000000000E+00 -0.00000000000E+00 -0.40767587146E+02  0.40767587146E+02  0.00000000000E+00 0. -1.
         25    2    1    2    0    0 -0.92317430589E-01 -0.11744444460E+03  0.26150094827E+03  0.31276772402E+03  0.12509075567E+03 0.  0.
          5    1    3    3  502    0 -0.38367464797E+02 -0.39723143155E+02  0.24814994898E+02  0.60689758847E+02  0.41800000000E+01 0.  1.
         -5    1    3    3    0  502  0.38275147366E+02 -0.77721301443E+02  0.23668595337E+03  0.25207796518E+03  0.41800000000E+01 0.  1.
        -11    1    1    2    0    0 -0.25241459320E+02  0.72806454978E+02  0.30201513967E+03  0.31169064109E+03  0.00000000000E+00 0. -1.
         11    1    1    2    0    0  0.25333776751E+02  0.44637989620E+02  0.53666148521E+02  0.74259045637E+02  0.00000000000E+00 0.  1.
</event>
<event>
 7    1  0.2670433E-009  0.1078774E+03  0.7561462E-02  0.1264552E+00
          2   -1    0    0  501    0  0.00000000000E+00  0.00000000000E+00  0.29957717448E+03  0.29957717448E+03  0.00000000000E+00 0. -1.
         -2   -1    0    0    0  501 -0.00000000000E+00 -0.00000000000E+00 -0.60566113487E+02  0.60566113487E+02  0.00000000000E+00 0.  1.
         25    2    1    2    0    0  0.67768559290E+01 -0.70151082843E+02  0.75574402385E+02  0.16225735131E+03  0.12509539383E+03 0.  0.
          5    1    3    3  502    0 -0.34851436524E+02 -0.29245917652E+02  0.90931203559E+02  0.10176395486E+03  0.41800000000E+01 0. -1.
         -5    1    3    3    0  502  0.41628292453E+02 -0.40905165191E+02 -0.15356801174E+02  0.60493396451E+02  0.41800000000E+01 0. -1.
        -11    1    1    2    0    0 -0.41408068091E+02  0.10725530532E+02  0.64123458622E+02  0.77081016170E+02  0.00000000000E+00 0.  1.
         11    1    1    2    0    0  0.34631212162E+02  0.59425552311E+02  0.99313199988E+02  0.12080492049E+03  0.00000000000E+00 0. -1.
</event>
<event>
 7    1  0.2670433E-009  0.9175221E+02  0.7561462E-02  0.1298663E+00
         -2   -1    0    0    0  501 -0.00000000000E+00  0.00000000000E+00  0.25673689399E+02  0.25673689399E+02  0.00000000000E+00 0.  1.
          2   -1    0    0  501    0  0.00000000000E+00 -0.00000000000E+00 -0.11397496831E+04  0.11397496831E+04  0.00000000000E+00 0. -1.
         25    2    1    2    0    0  0.43740927360E+02 -0.33306791821E+02 -0.99649158930E+03  0.10058172806E+04  0.12510117190E+03 0.  0.
          5    1    3    3  502    0  0.32718361084E+02  0.77452146987E+01 -0.89581421481E+03  0.89645471685E+03  0.41800000000E+01 0. -1.
         -5    1    3    3    0  502  0.11022566276E+02 -0.41052006520E+02 -0.10067737450E+03  0.10936256371E+03  0.41800000000E+01 0. -1.
        -11    1    1    2    0    0 -0.72248783097E+02  0.17592459267E+02 -0.71290974798E+02  0.10301351547E+03  0.00000000000E+00 0.  1.
         11    1    1    2    0    0  0.28507855737E+02  0.15714332554E+02 -0.46293429554E+02  0.56592576423E+02  0.00000000000E+00 0. -1.
</event>
<event>
 7    1  0.2670433E-009  0.1063313E+03  0.7561462E-02  0.1267519E+00
         -2   -1    0    0    0  501 -0.00000000000E+00  0.00000000000E+00  0.75224410670E+02  0.75224410670E+02  0.00000000000E+00 0. -1.
          2   -1    0    0  501    0  0.00000000000E+00 -0.00000000000E+00 -0.27175136094E+03  0.27175136094E+03  0.00000000000E+00 0.  1.
         25    2    1    2    0    0 -0.80738185674E+02  0.38625595025E+01 -0.16168069819E+03  0.21982889187E+03  0.12510203651E+03 0.  0.
          5    1    3    3  502    0 -0.11539945726E+01 -0.88623749720E+01  0.19296693057E+02  0.21672751477E+02  0.41800000000E+01 0.  1.
         -5    1    3    3    0  502 -0.79584191101E+02  0.12724934475E+02 -0.18097739125E+03  0.19815614039E+03  0.41800000000E+01 0.  1.
        -11    1    1    2    0    0  0.43893479859E+02  0.43693722258E+02 -0.14173075491E+02  0.63534675633E+02  0.00000000000E+00 0.  1.
         11    1    1    2    0    0  0.36844705815E+02 -0.47556281761E+02 -0.20673176586E+02  0.63612204109E+02  0.00000000000E+00 0. -1.
</event>
<event>
 7    1  0.2670433E-009  0.8141610E+02  0.7561462E-02  0.1325080E+00
         -2   -1    0    0    0  501 -0.00000000000E+00  0.00000000000E+00  0.24307903116E+02  0.24307903116E+02  0.00000000000E+00 0.  1.
          2   -1    0    0  501    0  0.00000000000E+00 -0.00000000000E+00 -0.64211084831E+03  0.64211084831E+03  0.00000000000E+00 0. -1.
         25    2    1    2    0    0 -0.41601607505E+02  0.33245393811E+02 -0.41953558814E+03  0.44101409946E+03  0.12508947298E+03 0.  0.
          5    1    3    3  502    0 -0.69842946114E+02  0.11450437715E+02 -0.12035461096E+03  0.13968483964E+03  0.41800000000E+01 0. -1.
         -5    1    3    3    0  502  0.28241338609E+02  0.21794956097E+02 -0.29918097718E+03  0.30132925983E+03  0.41800000000E+01 0. -1.
        -11    1    1    2    0    0  0.15455957505E+02 -0.25001999922E+01  0.63127160941E+01  0.16881587807E+02  0.00000000000E+00 0.  1.
         11    1    1    2    0    0  0.26145650000E+02 -0.30745193819E+02 -0.20458007315E+03  0.20852306416E+03  0.00000000000E+00 0. -1.
</event>
<event>
 7    1  0.2670433E-009  0.9383717E+02  0.7561462E-02  0.1293817E+00
         -2   -1    0    0    0  501 -0.00000000000E+00  0.00000000000E+00  0.30142014996E+02  0.30142014996E+02  0.00000000000E+00 0. -1.
          2   -1    0    0  501    0  0.00000000000E+00 -0.00000000000E+00 -0.48315430535E+03  0.48315430535E+03  0.00000000000E+00 0.  1.
         25    2    1    2    0    0 -0.14464812213E+02 -0.34025921641E+02 -0.22296251769E+03  0.25831663186E+03  0.12509278104E+03 0.  0.
          5    1    3    3  502    0 -0.15361054822E+02  0.44117575107E+02 -0.50457494804E+02  0.68889430397E+02  0.41800000000E+01 0. -1.
         -5    1    3    3    0  502  0.89624260864E+00 -0.78143496748E+02 -0.17250502289E+03  0.18942720147E+03  0.41800000000E+01 0. -1.
        -11    1    1    2    0    0 -0.65602436359E+01  0.40095324284E+02 -0.22952158421E+03  0.23308974547E+03  0.00000000000E+00 0.  1.
         11    1    1    2    0    0  0.21025055849E+02 -0.60694026427E+01 -0.52818845438E+00  0.21889943009E+02  0.00000000000E+00 0. -1.
</event>
<event>
 7    1  0.2670433E-009  0.9695544E+02  0.7561462E-02  0.1286832E+00
         -2   -1    0    0    0  501 -0.00000000000E+00  0.00000000000E+00  0.28339225109E+03  0.28339225109E+03  0.00000000000E+00 0. -1.
          2   -1    0    0  501    0  0.00000000000E+00 -0.00000000000E+00 -0.47659011459E+02  0.47659011459E+02  0.00000000000E+00 0.  1.
         25    2    1    2    0    0 -0.30540122254E+02  0.93932879735E+01  0.10108958434E+03  0.16397291770E+03  0.12508829182E+03 0.  0.
          5    1    3    3  502    0 -0.64674322459E+02  0.18941554619E+02  0.12773831712E+02  0.68718219226E+02  0.41800000000E+01 0.  1.
         -5    1    3    3    0  502  0.34134200205E+02 -0.95482666458E+01  0.88315752627E+02  0.95254698476E+02  0.41800000000E+01 0.  1.
        -11    1    1    2    0    0  0.30387914866E+02  0.34974675173E+02  0.35202857814E+02  0.58188439330E+02  0.00000000000E+00 0.  1.
         11    1    1    2    0    0  0.15220738781E+00 -0.44367963147E+02  0.99440797481E+02  0.10888990552E+03  0.00000000000E+00 0. -1.
</event>
<event>
 7    1  0.2670433E-009  0.1620133E+03  0.7561462E-02  0.1186442E+00
         -1   -1    0    0    0  501 -0.00000000000E+00  0.00000000000E+00  0.75130719167E+02  0.75130719167E+02  0.00000000000E+00 0.  1.
          1   -1    0    0  501    0  0.00000000000E+00 -0.00000000000E+00 -0.46906624491E+03  0.46906624491E+03  0.00000000000E+00 0. -1.
         25    2    1    2    0    0  0.12221029128E+03  0.25125805178E+02 -0.33369024866E+03  0.37757702680E+03  0.12509423543E+03 0.  0.
          5    1    3    3  502    0  0.11057954086E+03 -0.34396140878E+02 -0.22032285571E+03  0.24893887305E+03  0.41800000000E+01 0.  1.
         -5    1    3    3    0  502  0.11630750414E+02  0.59521946056E+02 -0.11336739295E+03  0.12863815376E+03  0.41800000000E+01 0.  1.
        -11    1    1    2    0    0 -0.11681574206E+03  0.48309462091E+01 -0.67941875949E+02  0.13522334910E+03  0.00000000000E+00 0. -1.
         11    1    1    2    0    0 -0.53945492171E+01 -0.29956751387E+02  0.76965988657E+01  0.31396588175E+02  0.00000000000E+00 0.  1.
</event>
<event>
 7    1  0.2670433E-009  0.9638479E+02  0.7561462E-02  0.1288087E+00
          1   -1    0    0  501    0  0.00000000000E+00  0.00000000000E+00  0.26283816815E+03  0.26283816815E+03  0.00000000000E+00 0. -1.
         -1   -1    0    0    0  501 -0.00000000000E+00 -0.00000000000E+00 -0.61033280426E+02  0.61033280426E+02  0.00000000000E+00 0.  1.
         25    2    1    2    0    0 -0.36135096905E+02  0.40826050776E+02  0.65991768724E+02  0.15156725783E+03  0.12508080771E+03 0.  0.
          5    1    3    3  502    0 -0.27738492478E+02  0.59570180774E+02  0.95117205965E+02  0.11568399057E+03  0.41800000000E+01 0. -1.
         -5    1    3    3    0  502 -0.83966044270E+01 -0.18744129998E+02 -0.29125437241E+02  0.35883267267E+02  0.41800000000E+01 0. -1.
        -11    1    1    2    0    0  0.39612424620E+02  0.20457431008E+02  0.54056567555E+02  0.70069702180E+02  0.00000000000E+00 0. -1.
         11    1    1    2    0    0 -0.34773277149E+01 -0.61283481784E+02  0.81756551447E+02  0.10223448856E+03  0.00000000000E+00 0.  1.
</event>
<event>
 7    1  0.2670433E-009  0.8847737E+02  0.7561462E-02  0.1306581E+00
          2   -1    0    0  501    0  0.00000000000E+00  0.00000000000E+00  0.73428189857E+02  0.73428189857E+02  0.00000000000E+00 0. -1.
         -2   -1    0    0    0  501 -0.00000000000E+00 -0.00000000000E+00 -0.40029869685E+03  0.40029869685E+03  0.00000000000E+00 0.  1.
         25    2    1    2    0    0 -0.81472093905E+02  0.18595064315E+02 -0.31512122103E+03  0.34918974421E+03  0.12509442440E+03 0.  0.
          5    1    3    3  502    0 -0.16064628788E+02 -0.17534650212E+01  0.82480186618E+01  0.18618516308E+02  0.41800000000E+01 0. -1.
         -5    1    3    3    0  502 -0.65407465117E+02  0.20348529336E+02 -0.32336923969E+03  0.33057122790E+03  0.41800000000E+01 0. -1.
        -11    1    1    2    0    0  0.60944518078E+02  0.40406929475E+01 -0.47596085948E+02  0.77433512647E+02  0.00000000000E+00 0.  1.
         11    1    1    2    0    0  0.20527575827E+02 -0.22635757262E+02  0.35846799982E+02  0.47103629850E+02  0.00000000000E+00 0. -1.
</event>
<event>
 7    1  0.2670433E-009  0.6731800E+02  0.7561462E-02  0.1369458E+00
         -2   -1    0    0    0  501 -0.00000000000E+00  0.00000000000E+00  0.43912608739E+02  0.43912608739E+02  0.00000000000E+00 0.  1.
          2   -1    0    0  501    0  0.00000000000E+00 -0.00000000000E+00 -0.46862703999E+03  0.46862703999E+03  0.00000000000E+00 0. -1.
         25    2    1    2    0    0 -0.44083356885E+02 -0.55131897641E+01 -0.37983516108E+03  0.40236289936E+03  0.12508963015E+03 0.  0.
          5    1    3    3  502    0  0.11393329589E+02  0.48440222115E+01  0.45484779971E+01  0.13835951806E+02  0.41800000000E+01 0.  1.
         -5    1    3    3    0  502 -0.55476686473E+02 -0.10357211976E+02 -0.38438363908E+03  0.38852694755E+03  0.41800000000E+01 0.  1.
        -11    1    1    2    0    0  0.43307972617E+02 -0.13951032894E+02  0.14443928813E+02  0.47737185616E+02  0.00000000000E+00 0.  1.
         11    1    1    2    0    0  0.77538426803E+00  0.19464222658E+02 -0.59323198981E+02  0.62439563754E+02  0.00000000000E+00 0. -1.
</event>
<event>
 7    1  0.2670433E-009  0.1205167E+03  0.7561462E-02  0.1242247E+00
         -2   -1    0    0    0  501 -0.00000000000E+00  0.00000000000E+00  0.23339229948E+03  0.23339229948E+03  0.00000000000E+00 0.  1.
          2   -1    0    0  501    0  0.00000000000E+00 -0.00000000000E+00 -0.20335401952E+03  0.20335401952E+03  0.00000000000E+00 0. -1.
         25    2    1    2    0    0 -0.44176706224E+02  0.61117207457E+02 -0.15766902593E+03  0.21493125582E+03  0.12509607737E+03 0.  0.
          5    1    3    3  502    0 -0.53762023287E+02 -0.67892060641E+01 -0.12992413409E+03  0.14083395004E+03  0.41800000000E+01 0. -1.
         -5    1    3    3    0  502  0.95853170629E+01  0.67906413521E+02 -0.27744891839E+02  0.74097305779E+02  0.41800000000E+01 0. -1.
        -11    1    1    2    0    0  0.28087172749E+02  0.20510158775E+02  0.49453966484E+02  0.60458669246E+02  0.00000000000E+00 0.  1.
         11    1    1    2    0    0  0.16089533475E+02 -0.81627366232E+02  0.13825333940E+03  0.16135639393E+03  0.00000000000E+00 0. -1.
</event>
<event>
 7    1  0.2670433E-009  0.1251710E+03  0.7561462E-02  0.1234802E+00
          2   -1    0    0  501    0  0.00000000000E+00  0.00000000000E+00  0.17279040141E+03  0.17279040141E+03  0.00000000000E+00 0.  1.
         -2   -1    0    0    0  501 -0.00000000000E+00 -0.00000000000E+00 -0.13207149300E+03  0.13207149300E+03  0.00000000000E+00 0. -1.
         25    2    1    2    0    0  0.83432397576E+02 -0.18233162938E+02  0.82444912236E+02  0.17244514224E+03  0.12508697107E+03 0.  0.
          5    1    3    3  502    0 -0.25999001470E+02 -0.12660094446E+02 -0.80118490386E+01  0.30296669682E+02  0.41800000000E+01 0.  1.
         -5    1    3    3    0  502  0.10943139905E+03 -0.55730684927E+01  0.90456761275E+02  0.14214847256E+03  0.41800000000E+01 0.  1.
        -11    1    1    2    0    0 -0.50972684527E+02  0.46072042955E+02  0.52296348331E+01  0.68907160661E+02  0.00000000000E+00 0.  1.
         11    1    1    2    0    0 -0.32459713049E+02 -0.27838880016E+02 -0.46955638660E+02  0.63509591510E+02  0.00000000000E+00 0. -1.
</event>
<event>
 7    1  0.2670433E-009  0.1287783E+03  0.7561462E-02  0.1229280E+00
         -1   -1    0    0    0  501 -0.00000000000E+00  0.00000000000E+00  0.29254916132E+03  0.29254916132E+03  0.00000000000E+00 0.  1.
          1   -1    0    0  501    0  0.00000000000E+00 -0.00000000000E+00 -0.74006703408E+02  0.74006703408E+02  0.00000000000E+00 0. -1.
         25    2    1    2    0    0  0.61518488994E+02 -0.74509355411E+02  0.14410056738E+03  0.21388717096E+03  0.12508628963E+03 0.  0.
          5    1    3    3  502    0 -0.35762618168E+02 -0.41772800020E+02  0.45471709855E+02  0.71477832066E+02  0.41800000000E+01 0. -1.
         -5    1    3    3    0  502  0.97281107161E+02 -0.32736555391E+02  0.98628857521E+02  0.14240933890E+03  0.41800000000E+01 0. -1.
        -11    1    1    2    0    0 -0.21184783418E+02  0.95945233299E+01 -0.20352083079E+02  0.30903999936E+02  0.00000000000E+00 0. -1.
         11    1    1    2    0    0 -0.40333705576E+02  0.64914832081E+02  0.94793973613E+02  0.12176469383E+03  0.00000000000E+00 0.  1.
</event>
<event>
 7    1  0.2670433E-009  0.1009320E+03  0.7561462E-02  0.1278348E+00
          2   -1    0    0  501    0  0.00000000000E+00  0.00000000000E+00  0.41171659607E+03  0.41171659607E+03  0.00000000000E+00 0. -1.
         -2   -1    0    0    0  501 -0.00000000000E+00 -0.00000000000E+00 -0.36942841102E+02  0.36942841102E+02  0.00000000000E+00 0.  1.
         25    2    1    2    0    0 -0.54022665271E+02 -0.12622633789E+02  0.17616608226E+03  0.22306754600E+03  0.12508741860E+03 0.  0.
          5    1    3    3  502    0  0.19403321616E+02  0.39180795587E+02  0.37367281013E+02  0.57666365612E+02  0.41800000000E+01 0. -1.
         -5    1    3    3    0  502 -0.73425986887E+02 -0.51803429376E+02  0.13879880125E+03  0.16540118039E+03  0.41800000000E+01 0. -1.
        -11    1    1    2    0    0  0.37310815850E+02  0.26906018092E+02  0.19834173500E+03  0.20360617533E+03  0.00000000000E+00 0. -1.
         11    1    1    2    0    0  0.16711849421E+02 -0.14283384303E+02  0.26593770259E+00  0.21985715842E+02  0.00000000000E+00 0.  1.
</event>
<event>
 7    1  0.2670433E-009  0.1017322E+03  0.7561462E-02  0.1276695E+00
          2   -1    0    0  501    0  0.00000000000E+00  0.00000000000E+00  0.10056843337E+04  0.10056843337E+04  0.00000000000E+00 0. -1.
         -2   -1    0    0    0  501 -0.00000000000E+00 -0.00000000000E+00 -0.16041910506E+02  0.16041910506E+02  0.00000000000E+00 0.  1.
         25    2    1    2    0    0 -0.48087695233E+01  0.37438095819E+02  0.78785065790E+03  0.79861219143E+03  0.12509211750E+03 0.  0.
          5    1    3    3  502    0 -0.50595911391E+02 -0.99480335413E+01  0.52707721830E+03  0.52961002263E+03  0.41800000000E+01 0.  1.
         -5    1    3    3    0  502  0.45787141868E+02  0.47386129361E+02  0.26077343961E+03  0.26900216880E+03  0.41800000000E+01 0.  1.
        -11    1    1    2    0    0  0.26502499077E+02  0.13932570698E+02  0.29539470430E+02  0.42060424354E+02  0.00000000000E+00 0.  1.
         11    1    1    2    0    0 -0.21693729553E+02 -0.51370666518E+02  0.17225229490E+03  0.18105362846E+03  0.00000000000E+00 0. -1.
</event>
<event>
 7    1  0.2670433E-009  0.1347995E+03  0.7561462E-02  0.1220503E+00
          2   -1    0    0  501    0  0.00000000000E+00  0.00000000000E+00  0.21780330546E+03  0.21780330546E+03  0.00000000000E+00 0.  1.
         -2   -1    0    0    0  501 -0.00000000000E+00 -0.00000000000E+00 -0.10607096094E+03  0.10607096094E+03  0.00000000000E+00 0. -1.
         25    2    1    2    0    0  0.74187227104E+01 -0.10537786141E+03  0.62975950256E+02  0.17542172443E+03  0.12508908813E+03 0.  0.
          5    1    3    3  502    0 -0.53053310207E+02 -0.75730678657E+02  0.54501460890E+02  0.10741355153E+03  0.41800000000E+01 0.  1.
         -5    1    3    3    0  502  0.60472032917E+02 -0.29647182755E+02  0.84744893653E+01  0.68008172894E+02  0.41800000000E+01 0.  1.
        -11    1    1    2    0    0 -0.18384497131E+02  0.76327539392E+02  0.74413868707E+02  0.10817257906E+03  0.00000000000E+00 0.  1.
         11    1    1    2    0    0  0.10965774420E+02  0.29050322019E+02 -0.25657474440E+02  0.40279962918E+02  0.00000000000E+00 0. -1.
</event>
<event>
 7    1  0.2670433E-009  0.1126424E+03  0.7561462E-02  0.1255753E+00
         -2   -1    0    0    0  501 -0.00000000000E+00  0.00000000000E+00  0.60808362219E+02  0.60808362219E+02  0.00000000000E+00 0.  1.
          2   -1    0    0  501    0  0.00000000000E+00 -0.00000000000E+00 -0.23880856032E+03  0.23880856032E+03  0.00000000000E+00 0. -1.
         25    2    1    2    0    0 -0.20071071031E+02 -0.45433341233E+02 -0.12127371320E+03  0.18116689007E+03  0.12508833741E+03 0.  0.
          5    1    3    3  502    0  0.80553777877E+01 -0.81286306954E+02 -0.48169413968E+02  0.94921639533E+02  0.41800000000E+01 0. -1.
         -5    1    3    3    0  502 -0.28126448819E+02  0.35852965721E+02 -0.73104299232E+02  0.86245250538E+02  0.41800000000E+01 0. -1.
        -11    1    1    2    0    0 -0.32274248927E+02  0.76288013219E+01 -0.10325411055E+01  0.33179690996E+02  0.00000000000E+00 0.  1.
         11    1    1    2    0    0  0.52345319958E+02  0.37804539911E+02 -0.55693943796E+02  0.85270341473E+02  0.00000000000E+00 0. -1.
</event>
<event>
 7    1  0.2670433E-009  0.1003126E+03  0.7561462E-02  0.1279640E+00
          2   -1    0    0  501    0  0.00000000000E+00  0.00000000000E+00  0.68667967306E+03  0.68667967306E+03  0.00000000000E+00 0.  1.
         -2   -1    0    0    0  501 -0.00000000000E+00 -0.00000000000E+00 -0.18823245656E+02  0.18823245656E+02  0.00000000000E+00 0. -1.
         25    2    1    2    0    0  0.29053495884E+02  0.15741684490E+02  0.42175233740E+03  0.44115000906E+03  0.12508553129E+03 0.  0.
          5    1    3    3  502    0  0.46906125073E+02  0.53910587445E+02  0.15101591554E+03  0.16712215639E+03  0.41800000000E+01 0.  1.
         -5    1    3    3    0  502 -0.17852629189E+02 -0.38168902955E+02  0.27073642185E+03  0.27402785267E+03  0.41800000000E+01 0.  1.
        -11    1    1    2    0    0 -0.38831359749E+02  0.24081560327E+02  0.18643055592E+03  0.19194829571E+03  0.00000000000E+00 0.  1.
         11    1    1    2    0    0  0.97778638654E+01 -0.39823244816E+02  0.59673534091E+02  0.72404613944E+02  0.00000000000E+00 0. -1.
</event>
<event>
 7    1  0.2670433E-009  0.1118051E+03  0.7561462E-02  0.1257263E+00
          2   -1    0    0  501    0  0.00000000000E+00  0.00000000000E+00  0.13029042298E+03  0.13029042298E+03  0.00000000000E+00 0. -1.
         -2   -1    0    0    0  501 -0.00000000000E+00 -0.00000000000E+00 -0.11730690704E+03  0.11730690704E+03  0.00000000000E+00 0.  1.
         25    2    1    2    0    0 -0.39949608157E+02 -0.26832284501E+02 -0.29447910096E+02  0.13722637160E+03  0.12509178618E+03 0.  0.
          5    1    3    3  502    0 -0.85142112652E+02 -0.11270082002E+02 -0.20925511005E+02  0.88496008419E+02  0.41800000000E+01 0.  1.
         -5    1    3    3    0  502  0.45192504495E+02 -0.15562202499E+02 -0.85223990917E+01  0.48730363177E+02  0.41800000000E+01 0.  1.
        -11    1    1    2    0    0 -0.18111583285E+02  0.25864376408E+02 -0.89650933226E+01  0.32823289207E+02  0.00000000000E+00 0.  1.
         11    1    1    2    0    0  0.58061191443E+02  0.96790809250E+00  0.51396519357E+02  0.77547669209E+02  0.00000000000E+00 0. -1.
</event>
<event>
 7    1  0.2670433E-009  0.1239473E+03  0.7561462E-02  0.1236724E+00
         -2   -1    0    0    0  501 -0.00000000000E+00  0.00000000000E+00  0.45865813687E+02  0.45865813687E+02  0.00000000000E+00 0.  1.
          2   -1    0    0  501    0  0.00000000000E+00 -0.00000000000E+00 -0.58311040988E+03  0.58311040988E+03  0.00000000000E+00 0. -1.
         25    2    1    2    0    0  0.65488897209E+02 -0.87455919435E+02 -0.17932807099E+03  0.24442520075E+03  0.12509111965E+03 0.  0.
          5    1    3    3  502    0 -0.12986853503E+02  0.52116681353E+01 -0.95972809458E+02  0.97077661714E+02  0.41800000000E+01 0.  1.
         -5    1    3    3    0  502  0.78475750711E+02 -0.92667587570E+02 -0.83355261532E+02  0.14734753904E+03  0.41800000000E+01 0.  1.
        -11    1    1    2    0    0 -0.30877777806E+02  0.22572758530E+02 -0.30337611469E+02  0.48819435265E+02  0.00000000000E+00 0.  1.
         11    1    1    2    0    0 -0.34611119402E+02  0.64883160905E+02 -0.32757891374E+03  0.33573158755E+03  0.00000000000E+00 0. -1.
</event>
<event>
 7    1  0.2670433E-009  0.1000994E+03  0.7561462E-02  0.1280087E+00
          1   -1    0    0  501    0  0.00000000000E+00  0.00000000000E+00  0.21869515558E+03  0.21869515558E+03  0.00000000000E+00 0. -1.
         -1   -1    0    0    0  501 -0.00000000000E+00 -0.00000000000E+00 -0.58940370153E+02  0.58940370153E+02  0.00000000000E+00 0.  1.
         25    2    1    2    0    0  0.16622536860E+02  0.61902374152E+01  0.14470487611E+03  0.19209728829E+03  0.12508892527E+03 0.  0.
          5    1    3    3  502    0 -0.18745042643E+02 -0.47748239910E+02  0.27750344860E+02  0.58470719835E+02  0.41800000000E+01 0.  1.
         -5    1    3    3    0  502  0.35367579504E+02  0.53938477325E+02  0.11695453125E+03  0.13362656845E+03  0.41800000000E+01 0.  1.
        -11    1    1    2    0    0  0.10439263971E+02  0.34044365874E+02  0.84965578786E+01  0.36608586094E+02  0.00000000000E+00 0.  1.
         11    1    1    2    0    0 -0.27061800832E+02 -0.40234603290E+02  0.65533514344E+01  0.48929651349E+02  0.00000000000E+00 0. -1.
</event>
<event>
 7    1  0.2670433E-009  0.1043483E+03  0.7561462E-02  0.1271409E+00
         -1   -1    0    0    0  501 -0.00000000000E+00  0.00000000000E+00  0.17924322818E+03  0.17924322818E+03  0.00000000000E+00 0.  1.
          1   -1    0    0  501    0  0.00000000000E+00 -0.00000000000E+00 -0.13992079898E+03  0.13992079898E+03  0.00000000000E+00 0. -1.
         25    2    1    2    0    0  0.17781285468E+02  0.94705637588E+02  0.84757642083E+02  0.17921098777E+03  0.12508952131E+03 0.  0.
          5    1    3    3  502    0  0.54590906658E+01  0.36125559200E+02  0.10858699576E+03  0.11464495517E+03  0.41800000000E+01 0.  1.
         -5    1    3    3    0  502  0.12322194802E+02  0.58580078387E+02 -0.23829353674E+02  0.64566032596E+02  0.41800000000E+01 0.  1.
        -11    1    1    2    0    0  0.10763723165E+02 -0.78207861134E+02  0.56561304596E+01  0.79147451578E+02  0.00000000000E+00 0.  1.
         11    1    1    2    0    0 -0.28545008633E+02 -0.16497776454E+02 -0.51091343336E+02  0.60805587816E+02  0.00000000000E+00 0. -1.
</event>
<event>
 7    1  0.2670433E-009  0.6172863E+02  0.7561462E-02  0.1390717E+00
         -2   -1    0    0    0  501 -0.00000000000E+00  0.00000000000E+00  0.83433838637E+02  0.83433838637E+02  0.00000000000E+00 0. -1.
          2   -1    0    0  501    0  0.00000000000E+00 -0.00000000000E+00 -0.16362261728E+03  0.16362261728E+03  0.00000000000E+00 0.  1.
         25    2    1    2    0    0  0.14695466068E+02  0.30294531436E+02 -0.17015181935E+02  0.13065142868E+03  0.12508622643E+03 0.  0.
          5    1    3    3  502    0  0.18630715724E+02  0.31731254063E+01  0.52423907799E+02  0.55883009960E+02  0.41800000000E+01 0. -1.
         -5    1    3    3    0  502 -0.39352496556E+01  0.27121406029E+02 -0.69439089735E+02  0.74768418721E+02  0.41800000000E+01 0. -1.
        -11    1    1    2    0    0  0.15609254374E+02  0.15152939031E+02 -0.57510617207E+02  0.61487653028E+02  0.00000000000E+00 0. -1.
         11    1    1    2    0    0 -0.30304720443E+02 -0.45447470467E+02 -0.56629794992E+01  0.54917374207E+02  0.00000000000E+00 0.  1.
</event>
<event>
 7    1  0.2670433E-009  0.1328477E+03  0.7561462E-02  0.1223290E+00
          2   -1    0    0  501    0  0.00000000000E+00  0.00000000000E+00  0.24552385819E+03  0.24552385819E+03  0.00000000000E+00 0. -1.
         -2   -1    0    0    0  501 -0.00000000000E+00 -0.00000000000E+00 -0.17781143879E+03  0.17781143879E+03  0.00000000000E+00 0.  1.
         25    2    1    2    0    0 -0.82853091256E+00 -0.11533540068E+03  0.17189684023E+03  0.24186574439E+03  0.12509026147E+03 0.  0.
          5    1    3    3  502    0  0.17304455104E+02 -0.10722057562E+03  0.18718515420E+03  0.21645195854E+03  0.41800000000E+01 0.  1.
         -5    1    3    3    0  502 -0.18132986017E+02 -0.81148250597E+01 -0.15288313965E+02  0.25413785856E+02  0.41800000000E+01 0.  1.
        -11    1    1    2    0    0  0.31795562537E+01  0.12587106341E+03 -0.11169954138E+03  0.16831643332E+03  0.00000000000E+00 0.  1.
         11    1    1    2    0    0 -0.23510253411E+01 -0.10535662735E+02  0.75151205538E+01  0.13153119263E+02  0.00000000000E+00 0. -1.
</event>
<event>
 7    1  0.2670433E-009  0.1169320E+03  0.7561462E-02  0.1248246E+00
         -2   -1    0    0    0  501 -0.00000000000E+00  0.00000000000E+00  0.31124972680E+03  0.31124972680E+03  0.00000000000E+00 0.  1.
          2   -1    0    0  501    0  0.00000000000E+00 -0.00000000000E+00 -0.46687733806E+02  0.46687733806E+02  0.00000000000E+00 0. -1.
         25    2    1    2    0    0 -0.38782323629E+02  0.27215361880E+02  0.12414940217E+03  0.18249685990E+03  0.12508910930E+03 0.  0.
          5    1    3    3  502    0 -0.63398921367E+00  0.72418026658E+02  0.52789873031E+02  0.89716306333E+02  0.41800000000E+01 0.  1.
         -5    1    3    3    0  502 -0.38148334415E+02 -0.45202664778E+02  0.71359529139E+02  0.92780553569E+02  0.41800000000E+01 0.  1.
        -11    1    1    2    0    0  0.20152139476E+02 -0.60562940400E+02  0.66109588141E+02  0.91893721872E+02  0.00000000000E+00 0. -1.
         11    1    1    2    0    0  0.18630184153E+02  0.33347578520E+02  0.74303002680E+02  0.83546878828E+02  0.00000000000E+00 0.  1.
</event>
<event>
 7    1  0.2670433E-009  0.1463980E+03  0.7561462E-02  0.1204970E+00
         -2   -1    0    0    0  501 -0.00000000000E+00  0.00000000000E+00  0.87165909319E+02  0.87165909319E+02  0.00000000000E+00 0.  1.
          2   -1    0    0  501    0  0.00000000000E+00 -0.00000000000E+00 -0.34317566986E+03  0.34317566986E+03  0.00000000000E+00 0. -1.
         25    2    1    2    0    0 -0.11690150236E+03 -0.28683275255E+02 -0.61513518262E+02  0.18417500031E+03  0.12509127178E+03 0.  0.
          5    1    3    3  502    0 -0.90832898391E+02 -0.70169686405E+02 -0.13843638808E+02  0.11568716029E+03  0.41800000000E+01 0.  1.
         -5    1    3    3    0  502 -0.26068603968E+02  0.41486411150E+02 -0.47669879454E+02  0.68487840016E+02  0.41800000000E+01 0.  1.
        -11    1    1    2    0    0  0.42325666476E+02  0.33580360326E+02 -0.22297698159E+02  0.58449037506E+02  0.00000000000E+00 0.  1.
         11    1    1    2    0    0  0.74575835883E+02 -0.48970850704E+01 -0.17219854412E+03  0.18771754136E+03  0.00000000000E+00 0. -1.
</event>
<event>
 7    1  0.2670433E-009  0.3706328E+03  0.7561462E-02  0.1054451E+00
          1   -1    0    0  501    0  0.00000000000E+00  0.00000000000E+00  0.25517522571E+04  0.25517522571E+04  0.00000000000E+00 0. -1.
         -1   -1    0    0    0  501 -0.00000000000E+00 -0.00000000000E+00 -0.57206425000E+02  0.57206425000E+02  0.00000000000E+00 0.  1.
         25    2    1    2    0    0  0.36045994219E+03  0.56718185777E+02  0.11697042070E+04  0.12316668025E+04  0.12508740107E+03 0.  0.
          5    1    3    3  502    0  0.20225956170E+03  0.40892010885E+02  0.45720559196E+03  0.50163284639E+03  0.41800000000E+01 0. -1.
         -5    1    3    3    0  502  0.15820038048E+03  0.15826174893E+02  0.71249861504E+03  0.73003395608E+03  0.41800000000E+01 0. -1.
        -11    1    1    2    0    0 -0.18031159242E+03  0.17142403257E+02  0.59843607339E+03  0.62524544484E+03  0.00000000000E+00 0.  1.
         11    1    1    2    0    0 -0.18014834977E+03 -0.73860589034E+02  0.72640555171E+03  0.75204643480E+03  0.00000000000E+00 0. -1.
</event>
<event>
 7    1  0.2670433E-009  0.1438801E+03  0.7561462E-02  0.1208201E+00
         -1   -1    0    0    0  501 -0.00000000000E+00  0.00000000000E+00  0.18348663577E+03  0.18348663577E+03  0.00000000000E+00 0.  1.
          1   -1    0    0  501    0  0.00000000000E+00 -0.00000000000E+00 -0.14071611452E+03  0.14071611452E+03  0.00000000000E+00 0. -1.
         25    2    1    2    0    0 -0.59698914259E+01  0.10908706461E+03 -0.16132400107E+02  0.16685790676E+03  0.12508269044E+03 0.  0.
          5    1    3    3  502    0 -0.55026621671E+02  0.45669867415E+02 -0.41343681880E+02  0.82706942354E+02  0.41800000000E+01 0. -1.
         -5    1    3    3    0  502  0.49056730245E+02  0.63417197197E+02  0.25211281773E+02  0.84150964411E+02  0.41800000000E+01 0. -1.
        -11    1    1    2    0    0  0.27984801190E+02 -0.37562411744E+01  0.38623322597E+02  0.47843698581E+02  0.00000000000E+00 0. -1.
         11    1    1    2    0    0 -0.22014909764E+02 -0.10533082344E+03  0.20279598769E+02  0.10950114494E+03  0.00000000000E+00 0.  1.
</event>
<event>
 7    1  0.2670433E-009  0.1881303E+03  0.7561462E-02  0.1160159E+00
          1   -1    0    0  501    0  0.00000000000E+00  0.00000000000E+00  0.50712498111E+03  0.50712498111E+03  0.00000000000E+00 0. -1.
         -1   -1    0    0    0  501 -0.00000000000E+00 -0.00000000000E+00 -0.80448011622E+02  0.80448011622E+02  0.00000000000E+00 0.  1.
         25    2    1    2    0    0  0.26969252764E+02 -0.16355519536E+03  0.27581290164E+03  0.34525039965E+03  0.12508972468E+03 0.  0.
          5    1    3    3  502    0  0.64626839418E+02 -0.11295256501E+03  0.11985532871E+03  0.17696802687E+03  0.41800000000E+01 0.  1.
         -5    1    3    3    0  502 -0.37657586653E+02 -0.50602630349E+02  0.15595757294E+03  0.16828237278E+03  0.41800000000E+01 0.  1.
        -11    1    1    2    0    0  0.21065813294E+02  0.10506995103E+03  0.11918707253E+03  0.16027795031E+03  0.00000000000E+00 0. -1.
         11    1    1    2    0    0 -0.48035066058E+02  0.58485244331E+02  0.31676995320E+02  0.82044642776E+02  0.00000000000E+00 0.  1.
</event>
<event>
 7    1  0.2670433E-009  0.1023151E+03  0.7561462E-02  0.1275502E+00
         -1   -1    0    0    0  501 -0.00000000000E+00  0.00000000000E+00  0.13296319698E+03  0.13296319698E+03  0.00000000000E+00 0.  1.
          1   -1    0    0  501    0  0.00000000000E+00 -0.00000000000E+00 -0.11896677781E+03  0.11896677781E+03  0.00000000000E+00 0. -1.
         25    2    1    2    0    0 -0.18883843948E+02  0.59578726094E+02  0.21466599461E+02  0.14147321706E+03  0.12509049559E+03 0.  0.
          5    1    3    3  502    0  0.45480393846E+02  0.15351289399E+02 -0.20908680674E+02  0.52524029150E+02  0.41800000000E+01 0. -1.
         -5    1    3    3    0  502 -0.64364237794E+02  0.44227436695E+02  0.42375280135E+02  0.88949187910E+02  0.41800000000E+01 0. -1.
        -11    1    1    2    0    0  0.28185600771E+01 -0.61938662499E+02  0.30545458518E+02  0.69118501352E+02  0.00000000000E+00 0.  1.
         11    1    1    2    0    0  0.16065283871E+02  0.23599364050E+01 -0.38015638817E+02  0.41338256377E+02  0.00000000000E+00 0. -1.
</event>
<event>
 7    1  0.2670433E-009  0.9759993E+02  0.7561462E-02  0.1285425E+00
         -1   -1    0    0    0  501 -0.00000000000E+00  0.00000000000E+00  0.37596243220E+02  0.37596243220E+02  0.00000000000E+00 0.  1.
          1   -1    0    0  501    0  0.00000000000E+00 -0.00000000000E+00 -0.31141818380E+03  0.31141818380E+03  0.00000000000E+00 0. -1.
         25    2    1    2    0    0 -0.12433582692E+01 -0.55826974182E+01 -0.15355031439E+03  0.19814104781E+03  0.12509781504E+03 0.  0.
          5    1    3    3  502    0 -0.32572301817E+01  0.57700795413E+02 -0.97796028325E+02  0.11367289429E+03  0.41800000000E+01 0. -1.
         -5    1    3    3    0  502  0.20138719125E+01 -0.63283492831E+02 -0.55754286070E+02  0.84468153526E+02  0.41800000000E+01 0. -1.
        -11    1    1    2    0    0  0.37279470406E+02  0.60299586431E+01 -0.10526670840E+03  0.11183559010E+03  0.00000000000E+00 0. -1.
         11    1    1    2    0    0 -0.36036112137E+02 -0.44726122497E+00 -0.15004917782E+02  0.39037789105E+02  0.00000000000E+00 0.  1.
</event>
<event>
 7    1  0.2670433E-009  0.1114558E+03  0.7561462E-02  0.1257897E+00
         -2   -1    0    0    0  501 -0.00000000000E+00  0.00000000000E+00  0.36161535499E+02  0.36161535499E+02  0.00000000000E+00 0.  1.
          2   -1    0    0  501    0  0.00000000000E+00 -0.00000000000E+00 -0.50544696913E+03  0.50544696913E+03  0.00000000000E+00 0. -1.
         25    2    1    2    0    0  0.14311595437E+02 -0.51780484565E+02 -0.36366275848E+03  0.38830836076E+03  0.12508693291E+03 0.  0.
          5    1    3    3  502    0  0.63352089109E+02 -0.46422911519E+02 -0.28243333426E+03  0.29318020842E+03  0.41800000000E+01 0. -1.
         -5    1    3    3    0  502 -0.49040493672E+02 -0.53575730464E+01 -0.81229424215E+02  0.95128152336E+02  0.41800000000E+01 0. -1.
        -11    1    1    2    0    0  0.36097639691E+01  0.69473688359E+02 -0.34104222068E+02  0.77477233643E+02  0.00000000000E+00 0.  1.
         11    1    1    2    0    0 -0.17921359406E+02 -0.17693203794E+02 -0.71518453081E+02  0.75822910222E+02  0.00000000000E+00 0. -1.
</event>
<event>
 7    1  0.2670433E-009  0.1217301E+03  0.7561462E-02  0.1240270E+00
         -1   -1    0    0    0  501 -0.00000000000E+00  0.00000000000E+00  0.16514817244E+02  0.16514817244E+02  0.00000000000E+00 0.  1.
          1   -1    0    0  501    0  0.00000000000E+00 -0.00000000000E+00 -0.95029221642E+03  0.95029221642E+03  0.00000000000E+00 0. -1.
         25    2    1    2    0    0 -0.36412055731E+02  0.51728872560E+02 -0.54919947013E+03  0.56680583660E+03  0.12508830625E+03 0.  0.
          5    1    3    3  502    0  0.15410790057E+02 -0.31990152658E+02 -0.84174758541E+02  0.91453401755E+02  0.41800000000E+01 0. -1.
         -5    1    3    3    0  502 -0.51822845788E+02  0.83719025218E+02 -0.46502471159E+03  0.47535243485E+03  0.41800000000E+01 0. -1.
        -11    1    1    2    0    0  0.51882887134E+02  0.33069087434E+01 -0.15856695517E+03  0.16687195359E+03  0.00000000000E+00 0.  1.
         11    1    1    2    0    0 -0.15470831402E+02 -0.55035781304E+02 -0.22601097388E+03  0.23312924348E+03  0.00000000000E+00 0. -1.
</event>
<event>
 7    1  0.2670433E-009  0.1066102E+03  0.7561462E-02  0.1266979E+00
          2   -1    0    0  501    0  0.00000000000E+00  0.00000000000E+00  0.37333645691E+02  0.37333645691E+02  0.00000000000E+00 0. -1.
         -2   -1    0    0    0  501 -0.00000000000E+00 -0.00000000000E+00 -0.37035893666E+03  0.37035893666E+03  0.00000000000E+00 0.  1.
         25    2    1    2    0    0 -0.35126587126E+02 -0.29750513405E+02 -0.20552323876E+03  0.24496157549E+03  0.12508957441E+03 0.  0.
          5    1    3    3  502    0  0.11044422114E+02 -0.59299238466E+02 -0.45247847182E+02  0.75519659805E+02  0.41800000000E+01 0. -1.
         -5    1    3    3    0  502 -0.46171009240E+02  0.29548725061E+02 -0.16027539158E+03  0.16944191569E+03  0.41800000000E+01 0. -1.
        -11    1    1    2    0    0 -0.28965535913E+02  0.73103074441E+01 -0.59768647174E+02  0.66818665436E+02  0.00000000000E+00 0.  1.
         11    1    1    2    0    0  0.64092123039E+02  0.22440205961E+02 -0.67733405035E+02  0.95912341421E+02  0.00000000000E+00 0. -1.
</event>
<event>
 7    1  0.2670433E-009  0.7092214E+02  0.7561462E-02  0.1356985E+00
          2   -1    0    0  501    0  0.00000000000E+00  0.00000000000E+00  0.57131561993E+03  0.57131561993E+03  0.00000000000E+00 0.  1.
         -2   -1    0    0    0  501 -0.00000000000E+00 -0.00000000000E+00 -0.21760407377E+02  0.21760407377E+02  0.00000000000E+00 0. -1.
         25    2    1    2    0    0 -0.17352765818E+02 -0.22999255760E+02  0.33772694204E+03  0.36129808502E+03  0.12508690824E+03 0.  0.
          5    1    3    3  502    0 -0.44893404916E+02 -0.10019774468E+02  0.37476995860E+02  0.59479503226E+02  0.41800000000E+01 0. -1.
         -5    1    3    3    0  502  0.27540639097E+02 -0.12979481292E+02  0.30024994618E+03  0.30181858180E+03  0.41800000000E+01 0. -1.
        -11    1    1    2    0    0  0.22965397939E+02 -0.14400366742E+02  0.14272059511E+02  0.30634486245E+02  0.00000000000E+00 0. -1.
         11    1    1    2    0    0 -0.56126321205E+01  0.37399622501E+02  0.19755621100E+03  0.20114345604E+03  0.00000000000E+00 0.  1.
</event>
<event>
 7    1  0.2670433E-009  0.1091543E+03  0.7561462E-02  0.1262144E+00
          2   -1    0    0  501    0  0.00000000000E+00  0.00000000000E+00  0.20158119794E+03  0.20158119794E+03  0.00000000000E+00 0. -1.
         -2   -1    0    0    0  501 -0.00000000000E+00 -0.00000000000E+00 -0.82481912307E+02  0.82481912307E+02  0.00000000000E+00 0.  1.
         25    2    1    2    0    0 -0.41191005869E+02 -0.54289471850E+02  0.70765621878E+02  0.15905764822E+03  0.12509003357E+03 0.  0.
          5    1    3    3  502    0 -0.70260576537E+02 -0.76212935077E+02  0.63687480818E+02  0.12173137517E+03  0.41800000000E+01 0. -1.
         -5    1    3    3    0  502  0.29069570668E+02  0.21923463226E+02  0.70781410609E+01  0.37326273046E+02  0.41800000000E+01 0. -1.
        -11    1    1    2    0    0  0.12939522931E+02  0.46988908096E+02 -0.18459566577E+02  0.52116641642E+02  0.00000000000E+00 0.  1.
         11    1    1    2    0    0  0.28251482938E+02  0.73005637543E+01  0.66793230332E+02  0.72888820387E+02  0.00000000000E+00 0. -1.
</event>
<event>
 7    1  0.2670433E-009  0.1438320E+03  0.7561462E-02  0.1208264E+00
         -2   -1    0    0    0  501 -0.00000000000E+00  0.00000000000E+00  0.71264339125E+02  0.71264339125E+02  0.00000000000E+00 0.  1.
          2   -1    0    0  501    0  0.00000000000E+00 -0.00000000000E+00 -0.31871712561E+03  0.31871712561E+03  0.00000000000E+00 0. -1.
         25    2    1    2    0    0 -0.44958938208E+02  0.88920418851E+02 -0.18539480004E+03  0.24483855786E+03  0.12508613241E+03 0.  0.
          5    1    3    3  502    0 -0.27310422530E+02 -0.28455813054E+02 -0.32781866501E+02  0.51455958320E+02  0.41800000000E+01 0.  1.
         -5    1    3    3    0  502 -0.17648515678E+02  0.11737623190E+03 -0.15261293354E+03  0.19338259954E+03  0.41800000000E+01 0.  1.
        -11    1    1    2    0    0 -0.18369085080E+02 -0.53732498582E+02 -0.39832174718E+02  0.69362863503E+02  0.00000000000E+00 0. -1.
         11    1    1    2    0    0  0.63328023288E+02 -0.35187920269E+02 -0.22225811728E+02  0.75780043372E+02  0.00000000000E+00 0.  1.
</event>
<event>
 7    1  0.2670433E-009  0.1096520E+03  0.7561462E-02  0.1261216E+00
          1   -1    0    0  501    0  0.00000000000E+00  0.00000000000E+00  0.16591957169E+03  0.16591957169E+03  0.00000000000E+00 0. -1.
         -1   -1    0    0    0  501 -0.00000000000E+00 -0.00000000000E+00 -0.96208143448E+02  0.96208143448E+02  0.00000000000E+00 0.  1.
         25    2    1    2    0    0 -0.40605902631E+02  0.32093676743E+02  0.79626736240E+02  0.15705953265E+03  0.12509370990E+03 0.  0.
          5    1    3    3  502    0 -0.61883381375E+02 -0.23931299216E+02  0.13720765996E+02  0.67882190537E+02  0.41800000000E+01 0.  1.
         -5    1    3    3    0  502  0.21277478744E+02  0.56024975959E+02  0.65905970244E+02  0.89177342115E+02  0.41800000000E+01 0.  1.
        -11    1    1    2    0    0  0.24290306596E+02  0.24109785108E+02 -0.27560981294E+02  0.43942103072E+02  0.00000000000E+00 0.  1.
         11    1    1    2    0    0  0.16315596035E+02 -0.56203461851E+02  0.17645673292E+02  0.61126079409E+02  0.00000000000E+00 0. -1.
</event>
<event>
 7    1  0.2670433E-009  0.1004491E+03  0.7561462E-02  0.1279354E+00
          2   -1    0    0  501    0  0.00000000000E+00  0.00000000000E+00  0.63796528996E+02  0.63796528996E+02  0.00000000000E+00 0.  1.
         -2   -1    0    0    0  501 -0.00000000000E+00 -0.00000000000E+00 -0.29709808681E+03  0.29709808681E+03  0.00000000000E+00 0. -1.
         25    2    1    2    0    0 -0.47726518797E+02  0.31143862121E+02 -0.44540359513E+02  0.14450407420E+03  0.12509925296E+03 0.  0.
          5    1    3    3  502    0  0.58604730331E+00 -0.24777270843E+02  0.30215925490E+02  0.39303068012E+02  0.41800000000E+01 0. -1.
         -5    1    3    3    0  502 -0.48312566100E+02  0.55921132964E+02 -0.74756285003E+02  0.10520100619E+03  0.41800000000E+01 0. -1.
        -11    1    1    2    0    0  0.70557343169E+02 -0.34718359045E+02 -0.11675724675E+03  0.14076916494E+03  0.00000000000E+00 0.  1.
         11    1    1    2    0    0 -0.22830824372E+02  0.35744969243E+01 -0.72003951558E+02  0.75621376672E+02  0.00000000000E+00 0. -1.
</event>
<event>
 7    1  0.2670433E-009  0.1304696E+03  0.7561462E-02  0.1226761E+00
          2   -1    0    0  501    0  0.00000000000E+00  0.00000000000E+00  0.36498462707E+03  0.36498462707E+03  0.00000000000E+00 0. -1.
         -2   -1    0    0    0  501 -0.00000000000E+00 -0.00000000000E+00 -0.60150125761E+02  0.60150125761E+02  0.00000000000E+00 0.  1.
         25    2    1    2    0    0 -0.93931155492E+02 -0.23083795398E+02  0.20207995929E+03  0.25659235818E+03  0.12508958688E+03 0.  0.
          5    1    3    3  502    0  0.14553130025E+02  0.36971714762E+01  0.11178924896E+03  0.11287059517E+03  0.41800000000E+01 0.  1.
         -5    1    3    3    0  502 -0.10848428552E+03 -0.26780966874E+02  0.90290710331E+02  0.14372176301E+03  0.41800000000E+01 0.  1.
        -11    1    1    2    0    0  0.62399956664E+02 -0.31952323890E+02  0.51359558646E+02  0.86905177394E+02  0.00000000000E+00 0.  1.
         11    1    1    2    0    0  0.31531198828E+02  0.55036119288E+02  0.51394983371E+02  0.81637217258E+02  0.00000000000E+00 0. -1.
</event>
<event>
 7    1  0.2670433E-009  0.1948769E+03  0.7561462E-02  0.1154135E+00
         -2   -1    0    0    0  501 -0.00000000000E+00  0.00000000000E+00  0.68933437762E+03  0.68933437762E+03  0.00000000000E+00 0.  1.
          2   -1    0    0  501    0  0.00000000000E+00 -0.00000000000E+00 -0.72164961732E+02  0.72164961732E+02  0.00000000000E+00 0. -1.
         25    2    1    2    0    0  0.53480620983E+02  0.16727923276E+03  0.17851599204E+03  0.27992518542E+03  0.12509049318E+03 0.  0.
          5    1    3    3  502    0  0.60716841550E+02  0.18155171290E+03  0.13760304551E+03  0.23579573753E+03  0.41800000000E+01 0.  1.
         -5    1    3    3    0  502 -0.72362205669E+01 -0.14272480135E+02  0.40912946529E+02  0.44129447889E+02  0.41800000000E+01 0.  1.
        -11    1    1    2    0    0 -0.54744623939E+02 -0.96529181220E+02  0.16446920817E+03  0.19840609142E+03  0.00000000000E+00 0. -1.
         11    1    1    2    0    0  0.12640029551E+01 -0.70750051544E+02  0.27418421568E+03  0.28316806251E+03  0.00000000000E+00 0.  1.
</event>
<event>
 7    1  0.2670433E-009  0.1480858E+03  0.7561462E-02  0.1202845E+00
          1   -1    0    0  501    0  0.00000000000E+00  0.00000000000E+00  0.71852367494E+03  0.71852367494E+03  0.00000000000E+00 0. -1.
         -1   -1    0    0    0  501 -0.00000000000E+00 -0.00000000000E+00 -0.12415088913E+03  0.12415088913E+03  0.00000000000E+00 0.  1.
         25    2    1    2    0    0  0.66624214797E+02  0.82194703357E+02 -0.58993316069E+02  0.17413184277E+03  0.12508769752E+03 0.  0.
          5    1    3    3  502    0 -0.33641693594E+01  0.85285780060E+02 -0.50296114749E+01  0.85602285644E+02  0.41800000000E+01 0. -1.
         -5    1    3    3    0  502  0.69988384156E+02 -0.30910767033E+01 -0.53963704594E+02  0.88529557129E+02  0.41800000000E+01 0. -1.
        -11    1    1    2    0    0 -0.82586218093E+02 -0.33205192641E+02  0.37228675761E+03  0.38277996046E+03  0.00000000000E+00 0. -1.
         11    1    1    2    0    0  0.15962003296E+02 -0.48989510716E+02  0.28107934426E+03  0.28576276084E+03  0.00000000000E+00 0.  1.
</event>
<event>
 7    1  0.2670433E-009  0.1006675E+03  0.7561462E-02  0.1278899E+00
         -2   -1    0    0    0  501 -0.00000000000E+00  0.00000000000E+00  0.66177717948E+02  0.66177717948E+02  0.00000000000E+00 0.  1.
          2   -1    0    0  501    0  0.00000000000E+00 -0.00000000000E+00 -0.33378182802E+03  0.33378182802E+03  0.00000000000E+00 0. -1.
         25    2    1    2    0    0  0.14003468162E+02  0.24509704668E+02 -0.27521426236E+03  0.30362307626E+03  0.12508900627E+03 0.  0.
          5    1    3    3  502    0 -0.26851444490E+02 -0.39049391850E+02 -0.67720269854E+02  0.82760874960E+02  0.41800000000E+01 0. -1.
         -5    1    3    3    0  502  0.40854912652E+02  0.63559096517E+02 -0.20749399251E+03  0.22086220130E+03  0.41800000000E+01 0. -1.
        -11    1    1    2    0    0 -0.36825148551E+02  0.86559767565E+01  0.31756671841E+02  0.49391332295E+02  0.00000000000E+00 0.  1.
         11    1    1    2    0    0  0.22821680390E+02 -0.33165681424E+02 -0.24146519555E+02  0.46945137413E+02  0.00000000000E+00 0. -1.
</event>
<event>
 7    1  0.2670433E-009  0.9461437E+02  0.7561462E-02  0.1292047E+00
          2   -1    0    0  501    0  0.00000000000E+00  0.00000000000E+00  0.22496744428E+03  0.22496744428E+03  0.00000000000E+00 0. -1.
         -2   -1    0    0    0  501 -0.00000000000E+00 -0.00000000000E+00 -0.75563030224E+02  0.75563030224E+02  0.00000000000E+00 0.  1.
         25    2    1    2    0    0  0.42001098841E+02  0.88314178470E+01  0.14909946727E+03  0.19929991382E+03  0.12509084005E+03 0.  0.
          5    1    3    3  502    0  0.54143610082E+02  0.42298216052E+02  0.14824192996E+03  0.16344360431E+03  0.41800000000E+01 0.  1.
         -5    1    3    3    0  502 -0.12142511240E+02 -0.33466798205E+02  0.85753731196E+00  0.35856309509E+02  0.41800000000E+01 0.  1.
        -11    1    1    2    0    0  0.32358392885E+00  0.28265548336E+02  0.26865021454E+02  0.38997119215E+02  0.00000000000E+00 0. -1.
         11    1    1    2    0    0 -0.42324682770E+02 -0.37096966183E+02 -0.26560074661E+02  0.62233441473E+02  0.00000000000E+00 0.  1.
</event>
<event>
 7    1  0.2670433E-009  0.1006470E+03  0.7561462E-02  0.1278941E+00
          4   -1    0    0  501    0  0.00000000000E+00  0.00000000000E+00  0.19315096092E+03  0.19315096092E+03  0.00000000000E+00 0. -1.
         -4   -1    0    0    0  501 -0.00000000000E+00 -0.00000000000E+00 -0.89477655762E+02  0.89477655762E+02  0.00000000000E+00 0.  1.
         25    2    1    2    0    0 -0.34409781056E+02  0.51077162745E+02  0.93819060181E+02  0.16805340615E+03  0.12508805571E+03 0.  0.
          5    1    3    3  502    0  0.14394107015E+02  0.68712205749E+02  0.92209400709E+02  0.11596811422E+03  0.41800000000E+01 0. -1.
         -5    1    3    3    0  502 -0.48803888071E+02 -0.17635043003E+02  0.16096594712E+01  0.52085291937E+02  0.41800000000E+01 0. -1.
        -11    1    1    2    0    0 -0.12163668981E+02 -0.18225177999E+02  0.43274171821E+02  0.48505318296E+02  0.00000000000E+00 0. -1.
         11    1    1    2    0    0  0.46573450038E+02 -0.32851984746E+02 -0.33419926840E+02  0.66069892236E+02  0.00000000000E+00 0.  1.
</event>
<event>
 7    1  0.2670433E-009  0.1086627E+03  0.7561462E-02  0.1263067E+00
          1   -1    0    0  501    0  0.00000000000E+00  0.00000000000E+00  0.18255865064E+03  0.18255865064E+03  0.00000000000E+00 0. -1.
         -1   -1    0    0    0  501 -0.00000000000E+00 -0.00000000000E+00 -0.10546249324E+03  0.10546249324E+03  0.00000000000E+00 0.  1.
         25    2    1    2    0    0 -0.34259696235E+02  0.66578927998E+02  0.88768352268E+02  0.17069118041E+03  0.12509667568E+03 0.  0.
          5    1    3    3  502    0 -0.43648813270E+02  0.23944258544E+00 -0.15647384608E+02  0.46557376190E+02  0.41800000000E+01 0.  1.
         -5    1    3    3    0  502  0.93891170350E+01  0.66339485413E+02  0.10441573688E+03  0.12413380422E+03  0.41800000000E+01 0.  1.
        -11    1    1    2    0    0  0.53605639254E+02 -0.22364799892E+02 -0.30404743976E+02  0.65560638269E+02  0.00000000000E+00 0.  1.
         11    1    1    2    0    0 -0.19345943019E+02 -0.44214128107E+02  0.18732549112E+02  0.51769325201E+02  0.00000000000E+00 0. -1.
</event>
<event>
 7    1  0.2670433E-009  0.1150450E+03  0.7561462E-02  0.1251503E+00
         -1   -1    0    0    0  501 -0.00000000000E+00  0.00000000000E+00  0.24061215578E+02  0.24061215578E+02  0.00000000000E+00 0.  1.
          1   -1    0    0  501    0  0.00000000000E+00 -0.00000000000E+00 -0.97099926768E+03  0.97099926768E+03  0.00000000000E+00 0. -1.
         25    2    1    2    0    0  0.84051261392E+02  0.72589588544E+00 -0.66566685260E+03  0.68251331490E+03  0.12508766886E+03 0.  0.
          5    1    3    3  502    0 -0.28596894973E+02  0.14040378977E+02 -0.85308735912E+02  0.91159022958E+02  0.41800000000E+01 0.  1.
         -5    1    3    3    0  502  0.11264815636E+03 -0.13314483092E+02 -0.58035811669E+03  0.59135429194E+03  0.41800000000E+01 0.  1.
        -11    1    1    2    0    0 -0.22553339785E+02  0.34253793562E+01  0.17621505853E+01  0.22879937366E+02  0.00000000000E+00 0.  1.
         11    1    1    2    0    0 -0.61497921607E+02 -0.41512752417E+01 -0.28303335009E+03  0.28966723099E+03  0.00000000000E+00 0. -1.
</event>
<event>
 7    1  0.2670433E-009  0.9589041E+02  0.7561462E-02  0.1289183E+00
          1   -1    0    0  501    0  0.00000000000E+00  0.00000000000E+00  0.32196175850E+02  0.32196175850E+02  0.00000000000E+00 0. -1.
         -1   -1    0    0    0  501 -0.00000000000E+00 -0.00000000000E+00 -0.57457181098E+03  0.57457181098E+03  0.00000000000E+00 0.  1.
         25    2    1    2    0    0  0.32655069461E+02  0.37351723925E+02 -0.15271807929E+03  0.20354513292E+03  0.12508518918E+03 0.  0.
          5    1    3    3  502    0  0.39621963166E+02 -0.11389953230E+02  0.16401415568E+01  0.41470392620E+02  0.41800000000E+01 0. -1.
         -5    1    3    3    0  502 -0.69668937055E+01  0.48741677155E+02 -0.15435822085E+03  0.16207474030E+03  0.41800000000E+01 0. -1.
        -11    1    1    2    0    0 -0.62365953901E+02 -0.33993402804E+02 -0.31259264432E+03  0.32056079755E+03  0.00000000000E+00 0. -1.
         11    1    1    2    0    0  0.29710884440E+02 -0.33583211206E+01 -0.77064911522E+02  0.82662056367E+02  0.00000000000E+00 0.  1.
</event>
<event>
 7    1  0.2670433E-009  0.1068942E+03  0.7561462E-02  0.1266432E+00
         -1   -1    0    0    0  501 -0.00000000000E+00  0.00000000000E+00  0.21796866038E+02  0.21796866038E+02  0.00000000000E+00 0.  1.
          1   -1    0    0  501    0  0.00000000000E+00 -0.00000000000E+00 -0.74008125417E+03  0.74008125417E+03  0.00000000000E+00 0. -1.
         25    2    1    2    0    0  0.39003427215E+02  0.53003919577E+02 -0.37730069897E+03  0.40290703907E+03  0.12509029485E+03 0.  0.
          5    1    3    3  502    0  0.22570471808E+02 -0.23972544403E+02 -0.24097151187E+02  0.41015292004E+02  0.41800000000E+01 0.  1.
         -5    1    3    3    0  502  0.16432955407E+02  0.76976463980E+02 -0.35320354778E+03  0.36189174707E+03  0.41800000000E+01 0.  1.
        -11    1    1    2    0    0 -0.49435465372E+02 -0.17444203473E+01 -0.24211771857E+03  0.24711919772E+03  0.00000000000E+00 0. -1.
         11    1    1    2    0    0  0.10432038157E+02 -0.51259499229E+02 -0.98865970592E+02  0.11185188341E+03  0.00000000000E+00 0.  1.
</event>
<event>
 7    1  0.2670433E-009  0.1197712E+03  0.7561462E-02  0.1243475E+00
          2   -1    0    0  501    0  0.00000000000E+00  0.00000000000E+00  0.19356684181E+03  0.19356684181E+03  0.00000000000E+00 0. -1.
         -2   -1    0    0    0  501 -0.00000000000E+00 -0.00000000000E+00 -0.96534498793E+02  0.96534498793E+02  0.00000000000E+00 0.  1.
         25    2    1    2    0    0 -0.72237971641E+02 -0.40123836800E+02  0.56704171028E+02  0.16028630326E+03  0.12509232261E+03 0.  0.
          5    1    3    3  502    0 -0.61016207091E+01 -0.68967894094E+02  0.15651997970E+01  0.69380994815E+02  0.41800000000E+01 0. -1.
         -5    1    3    3    0  502 -0.66136350931E+02  0.28844057295E+02  0.55138971231E+02  0.90905308448E+02  0.41800000000E+01 0. -1.
        -11    1    1    2    0    0  0.51077693288E+02 -0.16215501211E+01  0.60202720094E+02  0.78967890203E+02  0.00000000000E+00 0. -1.
         11    1    1    2    0    0  0.21160278352E+02  0.41745386921E+02 -0.19874548107E+02  0.50847147133E+02  0.00000000000E+00 0.  1.
</event>
<event>
 7    1  0.2670433E-009  0.1237673E+03  0.7561462E-02  0.1237009E+00
          1   -1    0    0  501    0  0.00000000000E+00  0.00000000000E+00  0.53854932268E+02  0.53854932268E+02  0.00000000000E+00 0. -1.
         -1   -1    0    0    0  501 -0.00000000000E+00 -0.00000000000E+00 -0.36003838184E+03  0.36003838184E+03  0.00000000000E+00 0.  1.
         25    2    1    2    0    0 -0.96904190265E+01 -0.86048839927E+02 -0.13784054947E+03  0.20529626560E+03  0.12509289555E+03 0.  0.
          5    1    3    3  502    0  0.50750256598E+02 -0.43781407435E+02 -0.27628093837E+02  0.72616693334E+02  0.41800000000E+01 0.  1.
         -5    1    3    3    0  502 -0.60440675625E+02 -0.42267432492E+02 -0.11021245563E+03  0.13267957226E+03  0.41800000000E+01 0.  1.
        -11    1    1    2    0    0 -0.25172050795E+02  0.52017669250E+02 -0.14178613447E+03  0.15311034578E+03  0.00000000000E+00 0. -1.
         11    1    1    2    0    0  0.34862469822E+02  0.34031170677E+02 -0.26556765636E+02  0.55486702738E+02  0.00000000000E+00 0.  1.
</event>
<event>
 7    1  0.2670433E-009  0.3803024E+03  0.7561462E-02  0.1050822E+00
         -2   -1    0    0    0  501 -0.00000000000E+00  0.00000000000E+00  0.17951360093E+03  0.17951360093E+03  0.00000000000E+00 0.  1.
          2   -1    0    0  501    0  0.00000000000E+00 -0.00000000000E+00 -0.84743485740E+03  0.84743485740E+03  0.00000000000E+00 0. -1.
         25    2    1    2    0    0 -0.21406013051E+03 -0.30549825655E+03 -0.29814572770E+03  0.49364987551E+03  0.12509356663E+03 0.  0.
          5    1    3    3  502    0 -0.21466448199E+03 -0.24563810235E+03 -0.28268930860E+03  0.43168233083E+03  0.41800000000E+01 0. -1.
         -5    1    3    3    0  502  0.60435147833E+00 -0.59860154204E+02 -0.15456419095E+02  0.61967544677E+02  0.41800000000E+01 0. -1.
        -11    1    1    2    0    0  0.10851064986E+03  0.18199361169E+03 -0.26778710402E+03  0.34147645440E+03  0.00000000000E+00 0. -1.
         11    1    1    2    0    0  0.10554948065E+03  0.12350464486E+03 -0.10198842476E+03  0.19182212842E+03  0.00000000000E+00 0.  1.
</event>
<event>
 7    1  0.2670433E-009  0.4657584E+02  0.7561462E-02  0.1464737E+00
         -1   -1    0    0    0  501 -0.00000000000E+00  0.00000000000E+00  0.27354053487E+03  0.27354053487E+03  0.00000000000E+00 0.  1.
          1   -1    0    0  501    0  0.00000000000E+00 -0.00000000000E+00 -0.49197011009E+02  0.49197011009E+02  0.00000000000E+00 0. -1.
         25    2    1    2    0    0 -0.27318648445E+02 -0.62900062123E+01  0.16436027462E+03  0.20844162171E+03  0.12509091516E+03 0.  0.
          5    1    3    3  502    0 -0.91216252631E+01  0.11714747638E+01 -0.20308092775E+02  0.22681874541E+02  0.41800000000E+01 0. -1.
         -5    1    3    3    0  502 -0.18197023182E+02 -0.74614809761E+01  0.18466836740E+03  0.18575974717E+03  0.41800000000E+01 0. -1.
        -11    1    1    2    0    0 -0.56994095335E+01  0.24556394810E+02  0.70708003350E+02  0.75067446559E+02  0.00000000000E+00 0.  1.
         11    1    1    2    0    0  0.33018057979E+02 -0.18266388598E+02 -0.10724754108E+02  0.39228477612E+02  0.00000000000E+00 0. -1.
</event>
<event>
 7    1  0.2670433E-009  0.1078533E+03  0.7561462E-02  0.1264598E+00
          1   -1    0    0  501    0  0.00000000000E+00  0.00000000000E+00  0.11107102523E+03  0.11107102523E+03  0.00000000000E+00 0. -1.
         -1   -1    0    0    0  501 -0.00000000000E+00 -0.00000000000E+00 -0.15215242764E+03  0.15215242764E+03  0.00000000000E+00 0.  1.
         25    2    1    2    0    0  0.33503077494E+02 -0.52673195526E+02  0.13716435730E+02  0.14046496078E+03  0.12508134501E+03 0.  0.
          5    1    3    3  502    0 -0.47659616395E+02 -0.20768661289E+02  0.98004241924E+01  0.53068795361E+02  0.41800000000E+01 0. -1.
         -5    1    3    3    0  502  0.81162693889E+02 -0.31904534237E+02  0.39160115375E+01  0.87396165423E+02  0.41800000000E+01 0. -1.
        -11    1    1    2    0    0  0.35694349285E+01  0.34984206398E+02  0.17748086241E+02  0.39390736579E+02  0.00000000000E+00 0. -1.
         11    1    1    2    0    0 -0.37072512423E+02  0.17688989128E+02 -0.72545924386E+02  0.83367755510E+02  0.00000000000E+00 0.  1.
</event>
<event>
 7    1  0.2670433E-009  0.8958789E+02  0.7561462E-02  0.1303853E+00
          1   -1    0    0  501    0  0.00000000000E+00  0.00000000000E+00  0.23025980051E+03  0.23025980051E+03  0.00000000000E+00 0. -1.
         -1   -1    0    0    0  501 -0.00000000000E+00 -0.00000000000E+00 -0.57913875322E+02  0.57913875322E+02  0.00000000000E+00 0.  1.
         25    2    1    2    0    0  0.20375703877E+02 -0.39467856819E+02  0.93833648462E+02  0.16255951240E+03  0.12509180812E+03 0.  0.
          5    1    3    3  502    0  0.46153154183E+02 -0.34078032372E+02  0.11495448174E+03  0.12854349926E+03  0.41800000000E+01 0. -1.
         -5    1    3    3    0  502 -0.25777450306E+02 -0.53898244467E+01 -0.21120833274E+02  0.34016013141E+02  0.41800000000E+01 0. -1.
        -11    1    1    2    0    0  0.10640740446E+02 -0.22945546002E+02  0.81403910490E+01  0.26570461136E+02  0.00000000000E+00 0.  1.
         11    1    1    2    0    0 -0.31016444323E+02  0.62413402820E+02  0.70371885678E+02  0.99043702294E+02  0.00000000000E+00 0. -1.
</event>
<event>
 7    1  0.2670433E-009  0.1434957E+03  0.7561462E-02  0.1208701E+00
          2   -1    0    0  501    0  0.00000000000E+00  0.00000000000E+00  0.80747915632E+03  0.80747915632E+03  0.00000000000E+00 0. -1.
         -2   -1    0    0    0  501 -0.00000000000E+00 -0.00000000000E+00 -0.29850798456E+02  0.29850798456E+02  0.00000000000E+00 0.  1.
         25    2    1    2    0    0  0.39609807633E+01  0.98662558457E+02  0.54358935826E+03  0.56646983056E+03  0.12509471895E+03 0.  0.
          5    1    3    3  502    0  0.39233936994E+02 -0.13226472187E+02  0.12602308195E+03  0.13271597855E+03  0.41800000000E+01 0.  1.
         -5    1    3    3    0  502 -0.35272956230E+02  0.11188903064E+03  0.41756627631E+03  0.43375385200E+03  0.41800000000E+01 0.  1.
        -11    1    1    2    0    0  0.38319342060E+02 -0.37366794391E+02  0.14629554596E+03  0.15577880494E+03  0.00000000000E+00 0. -1.
         11    1    1    2    0    0 -0.42280322823E+02 -0.61295764066E+02  0.87743453642E+02  0.11508131928E+03  0.00000000000E+00 0.  1.
</event>
<event>
 7    1  0.2670433E-009  0.1046811E+03  0.7561462E-02  0.1270749E+00
         -1   -1    0    0    0  501 -0.00000000000E+00  0.00000000000E+00  0.33264613477E+03  0.33264613477E+03  0.00000000000E+00 0.  1.
          1   -1    0    0  501    0  0.00000000000E+00 -0.00000000000E+00 -0.42860673442E+02  0.42860673442E+02  0.00000000000E+00 0. -1.
         25    2    1    2    0    0 -0.40989580740E+02  0.75626529244E+01  0.11614378833E+03  0.17571280267E+03  0.12509304540E+03 0.  0.
          5    1    3    3  502    0 -0.44930344992E+02 -0.41568737335E+02  0.10988459833E+03  0.12585226726E+03  0.41800000000E+01 0.  1.
         -5    1    3    3    0  502  0.39407642517E+01  0.49131390260E+02  0.62591899990E+01  0.49860535408E+02  0.41800000000E+01 0.  1.
        -11    1    1    2    0    0 -0.27795770226E+02 -0.10455568756E+02  0.45615056184E+02  0.54430295894E+02  0.00000000000E+00 0. -1.
         11    1    1    2    0    0  0.68785350966E+02  0.28929158317E+01  0.12802661682E+03  0.14536370965E+03  0.00000000000E+00 0.  1.
</event>
<event>
 7    1  0.2670433E-009  0.4956321E+02  0.7561462E-02  0.1447712E+00
          2   -1    0    0  501    0  0.00000000000E+00  0.00000000000E+00  0.84293032966E+02  0.84293032966E+02  0.00000000000E+00 0. -1.
         -2   -1    0    0    0  501 -0.00000000000E+00 -0.00000000000E+00 -0.14504573502E+03  0.14504573502E+03  0.00000000000E+00 0.  1.
         25    2    1    2    0    0  0.60943162664E+01 -0.21196630777E+02 -0.37691399548E+02  0.13248958112E+03  0.12508560931E+03 0.  0.
          5    1    3    3  502    0 -0.36334951294E+01  0.65401182488E+01 -0.80190677116E+02  0.80647334301E+02  0.41800000000E+01 0.  1.
         -5    1    3    3    0  502  0.97278113958E+01 -0.27736749025E+02  0.42499277568E+02  0.51842246815E+02  0.41800000000E+01 0.  1.
        -11    1    1    2    0    0 -0.16880425634E+02  0.37611495387E+02  0.22691729115E+02  0.47058345966E+02  0.00000000000E+00 0. -1.
         11    1    1    2    0    0  0.10786109367E+02 -0.16414864610E+02 -0.45753031626E+02  0.49790840909E+02  0.00000000000E+00 0.  1.
</event>
<event>
 7    1  0.2670433E-009  0.1632013E+03  0.7561462E-02  0.1185129E+00
          2   -1    0    0  501    0  0.00000000000E+00  0.00000000000E+00  0.85074905283E+03  0.85074905283E+03  0.00000000000E+00 0. -1.
         -2   -1    0    0    0  501 -0.00000000000E+00 -0.00000000000E+00 -0.35616714261E+02  0.35616714261E+02  0.00000000000E+00 0.  1.
         25    2    1    2    0    0 -0.87230014495E+02 -0.10251515493E+03  0.37607328238E+03  0.41856577430E+03  0.12509101199E+03 0.  0.
          5    1    3    3  502    0 -0.53836420060E+02  0.19311440439E+02  0.12014396616E+03  0.13312902336E+03  0.41800000000E+01 0. -1.
         -5    1    3    3    0  502 -0.33393594435E+02 -0.12182659536E+03  0.25592931622E+03  0.28543675094E+03  0.41800000000E+01 0. -1.
        -11    1    1    2    0    0  0.75679082306E+02  0.54449604341E+02  0.37753573422E+03  0.38887699023E+03  0.00000000000E+00 0. -1.
         11    1    1    2    0    0  0.11550932189E+02  0.48065550584E+02  0.61523321964E+02  0.78923002558E+02  0.00000000000E+00 0.  1.
</event>
<event>
 7    1  0.2670433E-009  0.1149572E+03  0.7561462E-02  0.1251656E+00
         -4   -1    0    0    0  501 -0.00000000000E+00  0.00000000000E+00  0.50114074600E+03  0.50114074600E+03  0.00000000000E+00 0.  1.
          4   -1    0    0  501    0  0.00000000000E+00 -0.00000000000E+00 -0.75727885020E+02  0.75727885020E+02  0.00000000000E+00 0. -1.
         25    2    1    2    0    0 -0.78443136740E+02  0.10048002489E+02  0.14075719216E+02  0.14865940793E+03  0.12508879103E+03 0.  0.
          5    1    3    3  502    0 -0.87798970710E+02 -0.15907048635E+02  0.50625772869E+02  0.10267489826E+03  0.41800000000E+01 0. -1.
         -5    1    3    3    0  502  0.93558339700E+01  0.25955051124E+02 -0.36550053652E+02  0.45984509676E+02  0.41800000000E+01 0. -1.
        -11    1    1    2    0    0  0.89538183772E+02  0.96695852440E+01  0.37277973655E+03  0.38350400156E+03  0.00000000000E+00 0.  1.
         11    1    1    2    0    0 -0.11095047032E+02 -0.19717587733E+02  0.38557405220E+02  0.44705221529E+02  0.00000000000E+00 0. -1.
</event>
<event>
 7    1  0.2670433E-009  0.1172430E+03  0.7561462E-02  0.1247716E+00
         -1   -1    0    0    0  501 -0.00000000000E+00  0.00000000000E+00  0.10697838516E+03  0.10697838516E+03  0.00000000000E+00 0.  1.
          1   -1    0    0  501    0  0.00000000000E+00 -0.00000000000E+00 -0.18320861939E+03  0.18320861939E+03  0.00000000000E+00 0. -1.
         25    2    1    2    0    0  0.13956791489E+02  0.70680249912E+02  0.12638708474E+02  0.14490136906E+03  0.12508469150E+03 0.  0.
          5    1    3    3  502    0 -0.18483872318E+02 -0.17437956431E+02  0.39492724646E+02  0.47147466107E+02  0.41800000000E+01 0.  1.
         -5    1    3    3    0  502  0.32440663807E+02  0.88118206344E+02 -0.26854016172E+02  0.97753902950E+02  0.41800000000E+01 0.  1.
        -11    1    1    2    0    0 -0.37578921052E+02 -0.80746453744E+02 -0.65364242885E+02  0.11047465477E+03  0.00000000000E+00 0.  1.
         11    1    1    2    0    0  0.23622129562E+02  0.10066203831E+02 -0.23504699823E+02  0.34810980716E+02  0.00000000000E+00 0. -1.
</event>
<event>
 7    1  0.2670433E-009  0.1978496E+03  0.7561462E-02  0.1151566E+00
         -2   -1    0    0    0  501 -0.00000000000E+00  0.00000000000E+00  0.27218480187E+03  0.27218480187E+03  0.00000000000E+00 0.  1.
          2   -1    0    0  501    0  0.00000000000E+00 -0.00000000000E+00 -0.14982823402E+03  0.14982823402E+03  0.00000000000E+00 0. -1.
         25    2    1    2    0    0  0.15916720102E+03 -0.58115238846E+02  0.78133093669E+02  0.22464197772E+03  0.12509060300E+03 0.  0.
          5    1    3    3  502    0  0.16492337854E+03 -0.19995833560E+02  0.82650767074E+02  0.18560219785E+03  0.41800000000E+01 0.  1.
         -5    1    3    3    0  502 -0.57561775212E+01 -0.38119405286E+02 -0.45176734052E+01  0.39039779866E+02  0.41800000000E+01 0.  1.
        -11    1    1    2    0    0 -0.36747711324E+02  0.57592153223E+02  0.36986686557E+01  0.68417326389E+02  0.00000000000E+00 0. -1.
         11    1    1    2    0    0 -0.12241948970E+03  0.52308562269E+00  0.40524805524E+02  0.12895373178E+03  0.00000000000E+00 0.  1.
</event>
<event>
 7    1  0.2670433E-009  0.1112581E+03  0.7561462E-02  0.1258258E+00
         -2   -1    0    0    0  501 -0.00000000000E+00  0.00000000000E+00  0.43537371589E+03  0.43537371589E+03  0.00000000000E+00 0.  1.
          2   -1    0    0  501    0  0.00000000000E+00 -0.00000000000E+00 -0.46242823401E+02  0.46242823401E+02  0.00000000000E+00 0. -1.
         25    2    1    2    0    0 -0.35194882480E+02 -0.58906435420E+02  0.33509168809E+03  0.36420166375E+03  0.12509102512E+03 0.  0.
          5    1    3    3  502    0  0.40513934260E+02 -0.19228664825E+02  0.53716680898E+02  0.70100460961E+02  0.41800000000E+01 0. -1.
         -5    1    3    3    0  502 -0.75708816740E+02 -0.39677770595E+02  0.28137500719E+03  0.29410120279E+03  0.41800000000E+01 0. -1.
        -11    1    1    2    0    0  0.55981018651E+01  0.61897928206E+02  0.80871780482E+01  0.62674514035E+02  0.00000000000E+00 0.  1.
         11    1    1    2    0    0  0.29596780614E+02 -0.29914927863E+01  0.45952026353E+02  0.54740361505E+02  0.00000000000E+00 0. -1.
</event>
<event>
 7    1  0.2670433E-009  0.1484329E+03  0.7561462E-02  0.1202412E+00
         -2   -1    0    0    0  501 -0.00000000000E+00  0.00000000000E+00  0.31570778525E+02  0.31570778525E+02  0.00000000000E+00 0. -1.
          2   -1    0    0  501    0  0.00000000000E+00 -0.00000000000E+00 -0.88003327345E+03  0.88003327345E+03  0.00000000000E+00 0.  1.
         25    2    1    2    0    0  0.12644539644E+03  0.14670471190E+02 -0.45125746316E+03  0.48526492192E+03  0.12508031572E+03 0.  0.
          5    1    3    3  502    0  0.13752416439E+03 -0.14195591956E+02 -0.41493500960E+03  0.43738192145E+03  0.41800000000E+01 0. -1.
         -5    1    3    3    0  502 -0.11078767952E+02  0.28866063146E+02 -0.36322453568E+02  0.47883000471E+02  0.41800000000E+01 0. -1.
        -11    1    1    2    0    0 -0.66232728458E+02 -0.95467576535E+01 -0.32668810453E+03  0.33347118697E+03  0.00000000000E+00 0.  1.
         11    1    1    2    0    0 -0.60212667980E+02 -0.51237135366E+01 -0.70516927232E+02  0.92867943080E+02  0.00000000000E+00 0. -1.
</event>
<event>
 7    1  0.2670433E-009  0.1344586E+03  0.7561462E-02  0.1220986E+00
         -3   -1    0    0    0  501 -0.00000000000E+00  0.00000000000E+00  0.78842728061E+02  0.78842728061E+02  0.00000000000E+00 0.  1.
          3   -1    0    0  501    0  0.00000000000E+00 -0.00000000000E+00 -0.30211752508E+03  0.30211752508E+03  0.00000000000E+00 0. -1.
         25    2    1    2    0    0 -0.91130633618E+02  0.34925215569E+02 -0.15668320097E+03  0.22298412871E+03  0.12509089944E+03 0.  0.
          5    1    3    3  502    0 -0.28553645000E+02 -0.43835753794E+02 -0.83079762589E+02  0.98268017713E+02  0.41800000000E+01 0.  1.
         -5    1    3    3    0  502 -0.62576988618E+02  0.78760969363E+02 -0.73603438384E+02  0.12471611099E+03  0.41800000000E+01 0.  1.
        -11    1    1    2    0    0  0.16211558101E+02 -0.37433559824E+02  0.18313303236E+02  0.44715356340E+02  0.00000000000E+00 0.  1.
         11    1    1    2    0    0  0.74919075517E+02  0.25083442552E+01 -0.84904899282E+02  0.11326076809E+03  0.00000000000E+00 0. -1.
</event>
<event>
 7    1  0.2670433E-009  0.1344578E+03  0.7561462E-02  0.1220987E+00
          1   -1    0    0  501    0  0.00000000000E+00  0.00000000000E+00  0.50705800268E+02  0.50705800268E+02  0.00000000000E+00 0. -1.
         -1   -1    0    0    0  501 -0.00000000000E+00 -0.00000000000E+00 -0.52206028797E+03  0.52206028797E+03  0.00000000000E+00 0.  1.
         25    2    1    2    0    0 -0.88326615000E+02  0.82407062877E+02 -0.27185024017E+03  0.32271220422E+03  0.12509236083E+03 0.  0.
          5    1    3    3  502    0 -0.10356123284E+03  0.57302031351E+02 -0.26774398136E+03  0.29276742253E+03  0.41800000000E+01 0.  1.
         -5    1    3    3    0  502  0.15234617838E+02  0.25105031526E+02 -0.41062588149E+01  0.29944781683E+02  0.41800000000E+01 0.  1.
        -11    1    1    2    0    0  0.16141697978E+02 -0.16326996661E+02  0.48584099846E+01  0.23467624105E+02  0.00000000000E+00 0. -1.
         11    1    1    2    0    0  0.72184917022E+02 -0.66080066216E+02 -0.20436265752E+03  0.22658625992E+03  0.00000000000E+00 0.  1.
</event>
<event>
 7    1  0.2670433E-009  0.1113301E+03  0.7561462E-02  0.1258126E+00
         -2   -1    0    0    0  501 -0.00000000000E+00  0.00000000000E+00  0.43337041939E+02  0.43337041939E+02  0.00000000000E+00 0.  1.
          2   -1    0    0  501    0  0.00000000000E+00 -0.00000000000E+00 -0.12986542027E+04  0.12986542027E+04  0.00000000000E+00 0. -1.
         25    2    1    2    0    0 -0.64019010458E+00  0.69618330953E+02 -0.12106828757E+04  0.12191181803E+04  0.12509592389E+03 0.  0.
          5    1    3    3  502    0  0.28596621946E+02 -0.21845201048E+02 -0.58245104946E+03  0.58357662480E+03  0.41800000000E+01 0.  1.
         -5    1    3    3    0  502 -0.29236812050E+02  0.91463532001E+02 -0.62823182620E+03  0.63554155546E+03  0.41800000000E+01 0.  1.
        -11    1    1    2    0    0  0.27672330191E+02 -0.21178811451E+02  0.17987440199E+02  0.39215404085E+02  0.00000000000E+00 0.  1.
         11    1    1    2    0    0 -0.27032140086E+02 -0.48439519502E+02 -0.62621725316E+02  0.83657660311E+02  0.00000000000E+00 0. -1.
</event>
<event>
 7    1  0.2670433E-009  0.1356833E+03  0.7561462E-02  0.1219258E+00
         -2   -1    0    0    0  501 -0.00000000000E+00  0.00000000000E+00  0.64544072344E+02  0.64544072344E+02  0.00000000000E+00 0. -1.
          2   -1    0    0  501    0  0.00000000000E+00 -0.00000000000E+00 -0.34347980874E+03  0.34347980874E+03  0.00000000000E+00 0.  1.
         25    2    1    2    0    0 -0.76361240208E+02  0.63362886191E+02 -0.18002913129E+03  0.24063578531E+03  0.12509675737E+03 0.  0.
          5    1    3    3  502    0 -0.88204466283E+02 -0.53288434479E+01 -0.84767255491E+02  0.12252095514E+03  0.41800000000E+01 0. -1.
         -5    1    3    3    0  502  0.11843226075E+02  0.68691729638E+02 -0.95261875804E+02  0.11811483017E+03  0.41800000000E+01 0. -1.
        -11    1    1    2    0    0  0.69332339725E+02 -0.24431145486E+02 -0.10415132256E+03  0.12748079146E+03  0.00000000000E+00 0.  1.
         11    1    1    2    0    0  0.70289004823E+01 -0.38931740704E+02  0.52447174552E+01  0.39907304312E+02  0.00000000000E+00 0. -1.
</event>
<event>
 7    1  0.2670433E-009  0.1064795E+03  0.7561462E-02  0.1267232E+00
          1   -1    0    0  501    0  0.00000000000E+00  0.00000000000E+00  0.60895413591E+03  0.60895413591E+03  0.00000000000E+00 0. -1.
         -1   -1    0    0    0  501 -0.00000000000E+00 -0.00000000000E+00 -0.24800529564E+02  0.24800529564E+02  0.00000000000E+00 0.  1.
         25    2    1    2    0    0 -0.40373537840E+02  0.39195297474E+02  0.36145715037E+03  0.38660527032E+03  0.12508424993E+03 0.  0.
          5    1    3    3  502    0  0.11474127216E+02 -0.22840914154E+02  0.23520064801E+03  0.23662244225E+03  0.41800000000E+01 0.  1.
         -5    1    3    3    0  502 -0.51847665056E+02  0.62036211629E+02  0.12625650237E+03  0.14998282807E+03  0.41800000000E+01 0.  1.
        -11    1    1    2    0    0  0.40048701713E+02 -0.67127622847E+02  0.17850517812E+03  0.19486948164E+03  0.00000000000E+00 0. -1.
         11    1    1    2    0    0  0.32483612731E+00  0.27932325372E+02  0.44191277853E+02  0.52279913519E+02  0.00000000000E+00 0.  1.
</event>
<event>
 7    1  0.2670433E-009  0.1053487E+03  0.7561462E-02  0.1269434E+00
          2   -1    0    0  501    0  0.00000000000E+00  0.00000000000E+00  0.16742455436E+03  0.16742455436E+03  0.00000000000E+00 0.  1.
         -2   -1    0    0    0  501 -0.00000000000E+00 -0.00000000000E+00 -0.95781905804E+02  0.95781905804E+02  0.00000000000E+00 0. -1.
         25    2    1    2    0    0 -0.22608801217E+01  0.51746999596E+02 -0.11191697876E+01  0.13539487370E+03  0.12509059012E+03 0.  0.
          5    1    3    3  502    0 -0.60756524238E+02  0.42422244183E+02 -0.11524772056E+02  0.75108553507E+02  0.41800000000E+01 0. -1.
         -5    1    3    3    0  502  0.58495644116E+02  0.93247554130E+01  0.10405602269E+02  0.60286320195E+02  0.41800000000E+01 0. -1.
        -11    1    1    2    0    0  0.27676900751E+02 -0.12569759100E+02 -0.10656327367E+02  0.32211286717E+02  0.00000000000E+00 0. -1.
         11    1    1    2    0    0 -0.25416020629E+02 -0.39177240496E+02  0.83418145715E+02  0.95600299749E+02  0.00000000000E+00 0.  1.
</event>
<event>
 7    1  0.2670433E-009  0.2731530E+03  0.7561462E-02  0.1099489E+00
          2   -1    0    0  501    0  0.00000000000E+00  0.00000000000E+00  0.40625803110E+03  0.40625803110E+03  0.00000000000E+00 0.  1.
         -2   -1    0    0    0  501 -0.00000000000E+00 -0.00000000000E+00 -0.21855035012E+03  0.21855035012E+03  0.00000000000E+00 0. -1.
         25    2    1    2    0    0  0.13477507820E+03  0.23004412795E+03  0.17904063262E+03  0.34465181197E+03  0.12507877861E+03 0.  0.
          5    1    3    3  502    0  0.50460733666E+02  0.95093925767E+02  0.14704707752E+03  0.18228948342E+03  0.41800000000E+01 0. -1.
         -5    1    3    3    0  502  0.84314344529E+02  0.13495020218E+03  0.31993555098E+02  0.16236232855E+03  0.41800000000E+01 0. -1.
        -11    1    1    2    0    0 -0.74369806022E+02 -0.19693367852E+03  0.14618561637E+02  0.21101526989E+03  0.00000000000E+00 0. -1.
         11    1    1    2    0    0 -0.60405272173E+02 -0.33110449433E+02 -0.59515132696E+01  0.69141299367E+02  0.00000000000E+00 0.  1.
</event>
<event>
 7    1  0.2670433E-009  0.1500828E+03  0.7561462E-02  0.1200371E+00
         -2   -1    0    0    0  501 -0.00000000000E+00  0.00000000000E+00  0.15763925292E+02  0.15763925292E+02  0.00000000000E+00 0.  1.
          2   -1    0    0  501    0  0.00000000000E+00 -0.00000000000E+00 -0.20315546486E+04  0.20315546486E+04  0.00000000000E+00 0. -1.
         25    2    1    2    0    0  0.65176294154E+01 -0.11454917617E+03 -0.15437575335E+04  0.15530611507E+04  0.12509045673E+03 0.  0.
          5    1    3    3  502    0  0.49344333075E+02 -0.99574788688E+02 -0.77306098406E+03  0.78101905177E+03  0.41800000000E+01 0.  1.
         -5    1    3    3    0  502 -0.42826703659E+02 -0.14974387482E+02 -0.77069654942E+03  0.77204209892E+03  0.41800000000E+01 0.  1.
        -11    1    1    2    0    0 -0.37714573781E+02  0.17730501995E+02 -0.94907847635E+02  0.10365451905E+03  0.00000000000E+00 0.  1.
         11    1    1    2    0    0  0.31196944365E+02  0.96818674175E+02 -0.37712534224E+03  0.39060290419E+03  0.00000000000E+00 0. -1.
</event>
<event>
 7    1  0.2670433E-009  0.1508330E+03  0.7561462E-02  0.1199453E+00
         -1   -1    0    0    0  501 -0.00000000000E+00  0.00000000000E+00  0.21063971678E+02  0.21063971678E+02  0.00000000000E+00 0.  1.
          1   -1    0    0  501    0  0.00000000000E+00 -0.00000000000E+00 -0.11375139804E+04  0.11375139804E+04  0.00000000000E+00 0. -1.
         25    2    1    2    0    0  0.33050112826E+02 -0.10141701858E+03 -0.70118916446E+03  0.72020238071E+03  0.12508998049E+03 0.  0.
          5    1    3    3  502    0 -0.39409337235E+02 -0.74103816121E+02 -0.43042482625E+03  0.43855156467E+03  0.41800000000E+01 0. -1.
         -5    1    3    3    0  502  0.72459450061E+02 -0.27313202460E+02 -0.27076433821E+03  0.28165081604E+03  0.41800000000E+01 0. -1.
        -11    1    1    2    0    0  0.29163068391E+01  0.10398295463E+03 -0.29357806589E+03  0.31146274331E+03  0.00000000000E+00 0.  1.
         11    1    1    2    0    0 -0.35966419665E+02 -0.25659360531E+01 -0.12168277842E+03  0.12691282809E+03  0.00000000000E+00 0. -1.
</event>
<event>
 7    1  0.2670433E-009  0.1000391E+03  0.7561462E-02  0.1280214E+00
          2   -1    0    0  501    0  0.00000000000E+00  0.00000000000E+00  0.40378713991E+03  0.40378713991E+03  0.00000000000E+00 0. -1.
         -2   -1    0    0    0  501 -0.00000000000E+00 -0.00000000000E+00 -0.37607948753E+02  0.37607948753E+02  0.00000000000E+00 0.  1.
         25    2    1    2    0    0  0.26457807898E+02 -0.39618633272E+01  0.29257517189E+03  0.31931640047E+03  0.12508805076E+03 0.  0.
          5    1    3    3  502    0  0.52887681103E+02  0.28969959246E+02  0.25679080393E+03  0.26380931510E+03  0.41800000000E+01 0. -1.
         -5    1    3    3    0  502 -0.26429873205E+02 -0.32931822573E+02  0.35784367957E+02  0.55507085365E+02  0.41800000000E+01 0. -1.
        -11    1    1    2    0    0 -0.59230598581E+02  0.17466800971E+02  0.50445884610E+02  0.79737947167E+02  0.00000000000E+00 0.  1.
         11    1    1    2    0    0  0.32772790683E+02 -0.13504937643E+02  0.23158134660E+02  0.42340741028E+02  0.00000000000E+00 0. -1.
</event>
<event>
 7    1  0.2670433E-009  0.1432454E+03  0.7561462E-02  0.1209028E+00
          2   -1    0    0  501    0  0.00000000000E+00  0.00000000000E+00  0.92119111931E+02  0.92119111931E+02  0.00000000000E+00 0. -1.
         -2   -1    0    0    0  501 -0.00000000000E+00 -0.00000000000E+00 -0.25421482360E+03  0.25421482360E+03  0.00000000000E+00 0.  1.
         25    2    1    2    0    0  0.45547010414E+02  0.92159721971E+02 -0.61284780190E+02  0.17311705901E+03  0.12508296177E+03 0.  0.
          5    1    3    3  502    0  0.63532862287E+01 -0.25437497115E+02  0.11913795160E+02  0.29100539866E+02  0.41800000000E+01 0.  1.
         -5    1    3    3    0  502  0.39193724185E+02  0.11759721909E+03 -0.73198575350E+02  0.14401651914E+03  0.41800000000E+01 0.  1.
        -11    1    1    2    0    0 -0.71980250782E+02 -0.77157407705E+02 -0.57102794986E+02  0.11997979522E+03  0.00000000000E+00 0.  1.
         11    1    1    2    0    0  0.26433240368E+02 -0.15002314265E+02 -0.43708136491E+02  0.53237081299E+02  0.00000000000E+00 0. -1.
</event>
<event>
 7    1  0.2670433E-009  0.1090911E+03  0.7561462E-02  0.1262262E+00
         -2   -1    0    0    0  501 -0.00000000000E+00  0.00000000000E+00  0.40583623690E+02  0.40583623690E+02  0.00000000000E+00 0.  1.
          2   -1    0    0  501    0  0.00000000000E+00 -0.00000000000E+00 -0.33533392586E+03  0.33533392586E+03  0.00000000000E+00 0. -1.
         25    2    1    2    0    0  0.40678025738E+02  0.15066177871E+02 -0.16170556475E+03  0.20899343243E+03  0.12509146107E+03 0.  0.
          5    1    3    3  502    0  0.73490805687E+02 -0.12801404005E+02 -0.14405611760E+03  0.16227880910E+03  0.41800000000E+01 0.  1.
         -5    1    3    3    0  502 -0.32812779949E+02  0.27867581876E+02 -0.17649447152E+02  0.46714623325E+02  0.41800000000E+01 0.  1.
        -11    1    1    2    0    0  0.29197768057E+02 -0.40810783278E+01 -0.31200456052E+02  0.42925904972E+02  0.00000000000E+00 0. -1.
         11    1    1    2    0    0 -0.69875793795E+02 -0.10985099544E+02 -0.10184428137E+03  0.12399821216E+03  0.00000000000E+00 0.  1.
</event>
<event>
 7    1  0.2670433E-009  0.1100067E+03  0.7561462E-02  0.1260557E+00
         -1   -1    0    0    0  501 -0.00000000000E+00  0.00000000000E+00  0.24096602440E+02  0.24096602440E+02  0.00000000000E+00 0.  1.
          1   -1    0    0  501    0  0.00000000000E+00 -0.00000000000E+00 -0.60383170018E+03  0.60383170018E+03  0.00000000000E+00 0. -1.
         25    2    1    2    0    0 -0.29493894279E+02  0.26473115751E+02 -0.22904991427E+03  0.26397263021E+03  0.12508785158E+03 0.  0.
          5    1    3    3  502    0 -0.64619031899E+02  0.50606845387E+02 -0.10897533046E+03  0.13649090495E+03  0.41800000000E+01 0.  1.
         -5    1    3    3    0  502  0.35125137620E+02 -0.24133729636E+02 -0.12007458381E+03  0.12748172526E+03  0.41800000000E+01 0.  1.
        -11    1    1    2    0    0  0.47509734627E+02  0.14975152885E+02 -0.22336231191E+03  0.22884962851E+03  0.00000000000E+00 0.  1.
         11    1    1    2    0    0 -0.18015840347E+02 -0.41448268636E+02 -0.12732287156E+03  0.13510604390E+03  0.00000000000E+00 0. -1.
</event>
<event>
 7    1  0.2670433E-009  0.2629071E+03  0.7561462E-02  0.1105409E+00
          1   -1    0    0  501    0  0.00000000000E+00  0.00000000000E+00  0.70088781035E+03  0.70088781035E+03  0.00000000000E+00 0. -1.
         -1   -1    0    0    0  501 -0.00000000000E+00 -0.00000000000E+00 -0.10806074092E+03  0.10806074092E+03  0.00000000000E+00 0.  1.
         25    2    1    2    0    0 -0.13182820570E+03  0.20491293701E+03  0.25501279385E+03  0.37422970221E+03  0.12509339479E+03 0.  0.
          5    1    3    3  502    0 -0.17109295209E+02  0.13884218257E+03  0.11152717434E+03  0.17895715314E+03  0.41800000000E+01 0.  1.
         -5    1    3    3    0  502 -0.11471891049E+03  0.66070754439E+02  0.14348561951E+03  0.19527254907E+03  0.41800000000E+01 0.  1.
        -11    1    1    2    0    0  0.90469379499E+02 -0.76428896713E+02  0.77629588594E+02  0.14160663087E+03  0.00000000000E+00 0.  1.
         11    1    1    2    0    0  0.41358826197E+02 -0.12848404030E+03  0.26018468698E+03  0.29311221820E+03  0.00000000000E+00 0. -1.
</event>
<event>
 7    1  0.2670433E-009  0.1086910E+03  0.7561462E-02  0.1263013E+00
         -1   -1    0    0    0  501 -0.00000000000E+00  0.00000000000E+00  0.10891070316E+04  0.10891070316E+04  0.00000000000E+00 0.  1.
          1   -1    0    0  501    0  0.00000000000E+00 -0.00000000000E+00 -0.22223108460E+02  0.22223108460E+02  0.00000000000E+00 0. -1.
         25    2    1    2    0    0  0.36676028670E+02  0.77423370267E+02  0.82381671130E+03  0.83765287159E+03  0.12509536412E+03 0.  0.
          5    1    3    3  502    0  0.57483606370E+02  0.54121950378E+02  0.77820444025E+03  0.78221044083E+03  0.41800000000E+01 0.  1.
         -5    1    3    3    0  502 -0.20807577700E+02  0.23301419890E+02  0.45612271048E+02  0.55442430762E+02  0.41800000000E+01 0.  1.
        -11    1    1    2    0    0 -0.45902884572E+02 -0.22523858110E+02  0.19002556599E+03  0.19678443721E+03  0.00000000000E+00 0.  1.
         11    1    1    2    0    0  0.92268559018E+01 -0.54899512157E+02  0.53041645839E+02  0.76892831253E+02  0.00000000000E+00 0. -1.
</event>
<event>
 7    1  0.2670433E-009  0.2251266E+03  0.7561462E-02  0.1130118E+00
          2   -1    0    0  501    0  0.00000000000E+00  0.00000000000E+00  0.56992007715E+03  0.56992007715E+03  0.00000000000E+00 0. -1.
         -2   -1    0    0    0  501 -0.00000000000E+00 -0.00000000000E+00 -0.10043623044E+03  0.10043623044E+03  0.00000000000E+00 0.  1.
         25    2    1    2    0    0  0.18995632893E+03 -0.81957359000E+02  0.29494979781E+03  0.38136943343E+03  0.12508735321E+03 0.  0.
          5    1    3    3  502    0  0.10754703749E+03 -0.10186134780E+03  0.23359930510E+03  0.27663732068E+03  0.41800000000E+01 0.  1.
         -5    1    3    3    0  502  0.82409291440E+02  0.19903988801E+02  0.61350492704E+02  0.10473211275E+03  0.41800000000E+01 0.  1.
        -11    1    1    2    0    0 -0.10028909315E+03  0.78658058561E+02  0.53280436042E+02  0.13814411767E+03  0.00000000000E+00 0.  1.
         11    1    1    2    0    0 -0.89667235774E+02  0.32993004390E+01  0.12125361286E+03  0.15084275649E+03  0.00000000000E+00 0. -1.
</event>
<event>
 7    1  0.2670433E-009  0.9262342E+02  0.7561462E-02  0.1296620E+00
          2   -1    0    0  501    0  0.00000000000E+00  0.00000000000E+00  0.67263878921E+03  0.67263878921E+03  0.00000000000E+00 0. -1.
         -2   -1    0    0    0  501 -0.00000000000E+00 -0.00000000000E+00 -0.24488779033E+02  0.24488779033E+02  0.00000000000E+00 0.  1.
         25    2    1    2    0    0 -0.46281127762E+02 -0.26333801141E+02  0.24639500727E+03  0.28141383835E+03  0.12509131439E+03 0.  0.
          5    1    3    3  502    0 -0.29346619600E+00  0.17864168714E+02  0.20374823654E+03  0.20457280107E+03  0.41800000000E+01 0.  1.
         -5    1    3    3    0  502 -0.45987661566E+02 -0.44197969855E+02  0.42646770738E+02  0.76841037278E+02  0.41800000000E+01 0.  1.
        -11    1    1    2    0    0  0.16958457686E+02 -0.32826998359E+02  0.20133067177E+03  0.20469303970E+03  0.00000000000E+00 0. -1.
         11    1    1    2    0    0  0.29322670076E+02  0.59160799500E+02  0.20042433114E+03  0.21102069020E+03  0.00000000000E+00 0.  1.
</event>
<event>
 7    1  0.2670433E-009  0.1617433E+03  0.7561462E-02  0.1186742E+00
          1   -1    0    0  501    0  0.00000000000E+00  0.00000000000E+00  0.59819840699E+02  0.59819840699E+02  0.00000000000E+00 0. -1.
         -1   -1    0    0    0  501 -0.00000000000E+00 -0.00000000000E+00 -0.56560595486E+03  0.56560595486E+03  0.00000000000E+00 0.  1.
         25    2    1    2    0    0 -0.14611262766E+03 -0.23473452007E+02 -0.25258822825E+03  0.31835842656E+03  0.12510544272E+03 0.  0.
          5    1    3    3  502    0 -0.53113451338E+02  0.20763273360E+01 -0.61310672759E+01  0.53669472088E+02  0.41800000000E+01 0. -1.
         -5    1    3    3    0  502 -0.92999176321E+02 -0.25549779343E+02 -0.24645716098E+03  0.26468895447E+03  0.41800000000E+01 0. -1.
        -11    1    1    2    0    0  0.94370178658E+02  0.58608820765E+02 -0.16681367470E+03  0.20041837880E+03  0.00000000000E+00 0.  1.
         11    1    1    2    0    0  0.51742449001E+02 -0.35135368758E+02 -0.86384211206E+02  0.10664899021E+03  0.00000000000E+00 0. -1.
</event>
<event>
 7    1  0.2670433E-009  0.9206055E+02  0.7561462E-02  0.1297937E+00
         -2   -1    0    0    0  501 -0.00000000000E+00  0.00000000000E+00  0.38227284150E+03  0.38227284150E+03  0.00000000000E+00 0.  1.
          2   -1    0    0  501    0  0.00000000000E+00 -0.00000000000E+00 -0.37379696920E+02  0.37379696920E+02  0.00000000000E+00 0. -1.
         25    2    1    2    0    0  0.82305235703E+01 -0.85149028952E+01  0.27864639942E+03  0.30566646119E+03  0.12509166436E+03 0.  0.
          5    1    3    3  502    0 -0.44487443491E+01 -0.57173442509E+02  0.67950327330E+02  0.89012994775E+02  0.41800000000E+01 0. -1.
         -5    1    3    3    0  502  0.12679267919E+02  0.48658539614E+02  0.21069607209E+03  0.21665346641E+03  0.41800000000E+01 0. -1.
        -11    1    1    2    0    0  0.92701879661E+01 -0.31316304606E+02  0.62249072398E+02  0.70296474546E+02  0.00000000000E+00 0.  1.
         11    1    1    2    0    0 -0.17500711536E+02  0.39831207501E+02  0.39976727556E+01  0.43689602685E+02  0.00000000000E+00 0. -1.
</event>
<event>
 7    1  0.2670433E-009  0.7959219E+02  0.7561462E-02  0.1330213E+00
         -1   -1    0    0    0  501 -0.00000000000E+00  0.00000000000E+00  0.73253946986E+01  0.73253946986E+01  0.00000000000E+00 0.  1.
          1   -1    0    0  501    0  0.00000000000E+00 -0.00000000000E+00 -0.21266418869E+04  0.21266418869E+04  0.00000000000E+00 0. -1.
         25    2    1    2    0    0  0.41512521319E+02 -0.25110165198E+01 -0.15853156400E+04  0.15907865034E+04  0.12508567502E+03 0.  0.
          5    1    3    3  502    0  0.26584247819E+02  0.19980617398E+02 -0.10502173977E+03  0.11024058022E+03  0.41800000000E+01 0.  1.
         -5    1    3    3    0  502  0.14928273500E+02 -0.22491633918E+02 -0.14802939003E+04  0.14805459231E+04  0.41800000000E+01 0.  1.
        -11    1    1    2    0    0 -0.64273343595E+02  0.22459888411E+02 -0.40452696959E+03  0.41021650187E+03  0.00000000000E+00 0.  1.
         11    1    1    2    0    0  0.22760822276E+02 -0.19948871891E+02 -0.12947388258E+03  0.13296427637E+03  0.00000000000E+00 0. -1.
</event>
<event>
 7    1  0.2670433E-009  0.1489232E+03  0.7561462E-02  0.1201802E+00
         -1   -1    0    0    0  501 -0.00000000000E+00  0.00000000000E+00  0.59773166025E+03  0.59773166025E+03  0.00000000000E+00 0.  1.
          1   -1    0    0  501    0  0.00000000000E+00 -0.00000000000E+00 -0.40311704112E+02  0.40311704112E+02  0.00000000000E+00 0. -1.
         25    2    1    2    0    0 -0.49537362423E+02 -0.96908412754E+02  0.33815173228E+03  0.37661454243E+03  0.12508688498E+03 0.  0.
          5    1    3    3  502    0 -0.49619493530E+02 -0.12253594931E+03  0.31569877281E+03  0.34228692725E+03  0.41800000000E+01 0. -1.
         -5    1    3    3    0  502  0.82131106934E-01  0.25627536558E+02  0.22452959465E+02  0.34327615185E+02  0.41800000000E+01 0. -1.
        -11    1    1    2    0    0 -0.20250388835E+02  0.73290395332E-01  0.53125335643E+02  0.56854066756E+02  0.00000000000E+00 0.  1.
         11    1    1    2    0    0  0.69787751258E+02  0.96835122359E+02  0.16614288822E+03  0.20457475517E+03  0.00000000000E+00 0. -1.
</event>
<event>
 7    1  0.2670433E-009  0.2012111E+03  0.7561462E-02  0.1148721E+00
         -1   -1    0    0    0  501 -0.00000000000E+00  0.00000000000E+00  0.87796211584E+02  0.87796211584E+02  0.00000000000E+00 0. -1.
          1   -1    0    0  501    0  0.00000000000E+00 -0.00000000000E+00 -0.51760744601E+03  0.51760744601E+03  0.00000000000E+00 0.  1.
         25    2    1    2    0    0 -0.13949092311E+03 -0.10553232104E+03 -0.30712649221E+03  0.37492455987E+03  0.12508778903E+03 0.  0.
          5    1    3    3  502    0 -0.14548379493E+03 -0.48910890130E+02 -0.25477108883E+03  0.29746191330E+03  0.41800000000E+01 0. -1.
         -5    1    3    3    0  502  0.59928718228E+01 -0.56621430908E+02 -0.52355403376E+02  0.77462646568E+02  0.41800000000E+01 0. -1.
        -11    1    1    2    0    0  0.53699138435E+02 -0.25938569773E+01 -0.16197241003E+02  0.56148697035E+02  0.00000000000E+00 0. -1.
         11    1    1    2    0    0  0.85791784672E+02  0.10812617801E+03 -0.10648750121E+03  0.17433040069E+03  0.00000000000E+00 0.  1.
</event>
<event>
 7    1  0.2670433E-009  0.1112360E+03  0.7561462E-02  0.1258298E+00
         -2   -1    0    0    0  501 -0.00000000000E+00  0.00000000000E+00  0.27758250191E+02  0.27758250191E+02  0.00000000000E+00 0.  1.
          2   -1    0    0  501    0  0.00000000000E+00 -0.00000000000E+00 -0.75776375154E+03  0.75776375154E+03  0.00000000000E+00 0. -1.
         25    2    1    2    0    0  0.81070638822E+02 -0.25280092988E+02 -0.51977594049E+03  0.54131896928E+03  0.12509063358E+03 0.  0.
          5    1    3    3  502    0 -0.27378062496E+01 -0.12812569569E+02  0.89566682621E+00  0.13781587030E+02  0.41800000000E+01 0. -1.
         -5    1    3    3    0  502  0.83808445071E+02 -0.12467523420E+02 -0.52067160732E+03  0.52753738225E+03  0.41800000000E+01 0. -1.
        -11    1    1    2    0    0 -0.71556173837E+02 -0.22622792027E+02 -0.11805968059E+03  0.13989340554E+03  0.00000000000E+00 0.  1.
         11    1    1    2    0    0 -0.95144649843E+01  0.47902885016E+02 -0.92169880272E+02  0.10430962691E+03  0.00000000000E+00 0. -1.
</event>
<event>
 7    1  0.2670433E-009  0.8991499E+02  0.7561462E-02  0.1303058E+00
          1   -1    0    0  501    0  0.00000000000E+00  0.00000000000E+00  0.45464831318E+02  0.45464831318E+02  0.00000000000E+00 0. -1.
         -1   -1    0    0    0  501 -0.00000000000E+00 -0.00000000000E+00 -0.28822227429E+03  0.28822227429E+03  0.00000000000E+00 0.  1.
         25    2    1    2    0    0  0.16716485702E+02 -0.42561801192E+02 -0.12004565351E+03  0.17930111006E+03  0.12508789441E+03 0.  0.
          5    1    3    3  502    0 -0.41819299425E+02 -0.43794730194E+02 -0.21112385765E+02  0.64265367266E+02  0.41800000000E+01 0.  1.
         -5    1    3    3    0  502  0.58535785127E+02  0.12329290018E+01 -0.98933267744E+02  0.11503574280E+03  0.41800000000E+01 0.  1.
        -11    1    1    2    0    0  0.21180532450E+01  0.41516178188E+02 -0.12817474284E+03  0.13474733357E+03  0.00000000000E+00 0.  1.
         11    1    1    2    0    0 -0.18834538947E+02  0.10456230042E+01  0.54629533755E+01  0.19638661981E+02  0.00000000000E+00 0. -1.
</event>
<event>
 7    1  0.2670433E-009  0.1793710E+03  0.7561462E-02  0.1168413E+00
         -1   -1    0    0    0  501 -0.00000000000E+00  0.00000000000E+00  0.13316700331E+03  0.13316700331E+03  0.00000000000E+00 0.  1.
          1   -1    0    0  501    0  0.00000000000E+00 -0.00000000000E+00 -0.29917974785E+03  0.29917974785E+03  0.00000000000E+00 0. -1.
         25    2    1    2    0    0 -0.15014227460E+03 -0.18531684616E+02 -0.16473614370E+03  0.25626753587E+03  0.12509567116E+03 0.  0.
          5    1    3    3  502    0 -0.15753861130E+03 -0.38551033190E+02 -0.10642207002E+03  0.19403021826E+03  0.41800000000E+01 0. -1.
         -5    1    3    3    0  502  0.73963367002E+01  0.20019348574E+02 -0.58314073688E+02  0.62237317615E+02  0.41800000000E+01 0. -1.
        -11    1    1    2    0    0  0.78135582712E+02  0.53508904173E+02  0.10035042703E+02  0.95231686920E+02  0.00000000000E+00 0.  1.
         11    1    1    2    0    0  0.72006691885E+02 -0.34977219556E+02 -0.11311643532E+02  0.80847528370E+02  0.00000000000E+00 0. -1.
</event>
<event>
 7    1  0.2670433E-009  0.1438218E+03  0.7561462E-02  0.1208277E+00
         -2   -1    0    0    0  501 -0.00000000000E+00  0.00000000000E+00  0.14436350128E+03  0.14436350128E+03  0.00000000000E+00 0.  1.
          2   -1    0    0  501    0  0.00000000000E+00 -0.00000000000E+00 -0.17346013101E+03  0.17346013101E+03  0.00000000000E+00 0. -1.
         25    2    1    2    0    0  0.10137040898E+03 -0.50828868119E+02  0.11069915449E+01  0.16884477851E+03  0.12509116735E+03 0.  0.
          5    1    3    3  502    0  0.11827370714E+02 -0.54576265290E+02 -0.41326285530E+02  0.69597339796E+02  0.41800000000E+01 0.  1.
         -5    1    3    3    0  502  0.89543038264E+02  0.37473971709E+01  0.42433277075E+02  0.99247438710E+02  0.41800000000E+01 0.  1.
        -11    1    1    2    0    0 -0.11628939471E+03  0.51058315100E+02 -0.15356381313E+02  0.12792964203E+03  0.00000000000E+00 0.  1.
         11    1    1    2    0    0  0.14918985729E+02 -0.22944698071E+00 -0.14847239960E+02  0.21049211755E+02  0.00000000000E+00 0. -1.
</event>
<event>
 7    1  0.2670433E-009  0.1745441E+03  0.7561462E-02  0.1173190E+00
         -2   -1    0    0    0  501 -0.00000000000E+00  0.00000000000E+00  0.25243626432E+03  0.25243626432E+03  0.00000000000E+00 0. -1.
          2   -1    0    0  501    0  0.00000000000E+00 -0.00000000000E+00 -0.24386192209E+03  0.24386192209E+03  0.00000000000E+00 0.  1.
         25    2    1    2    0    0 -0.93175897718E+02  0.13726834502E+03  0.15242857131E+03  0.25768912310E+03  0.12507944817E+03 0.  0.
          5    1    3    3  502    0 -0.54713538993E+02  0.57556579510E+02 -0.21114662278E+01  0.79550373246E+02  0.41800000000E+01 0.  1.
         -5    1    3    3    0  502 -0.38462358725E+02  0.79711765507E+02  0.15454003754E+03  0.17813874986E+03  0.41800000000E+01 0.  1.
        -11    1    1    2    0    0 -0.12363247532E+02 -0.13547748939E+02 -0.44272673080E+02  0.47921404117E+02  0.00000000000E+00 0. -1.
         11    1    1    2    0    0  0.10553914525E+03 -0.12372059608E+03 -0.99581555998E+02  0.19068765919E+03  0.00000000000E+00 0.  1.
</event>
<event>
 7    1  0.2670433E-009  0.1391775E+03  0.7561462E-02  0.1214440E+00
         -1   -1    0    0    0  501 -0.00000000000E+00  0.00000000000E+00  0.36185589133E+03  0.36185589133E+03  0.00000000000E+00 0.  1.
          1   -1    0    0  501    0  0.00000000000E+00 -0.00000000000E+00 -0.66617846327E+02  0.66617846327E+02  0.00000000000E+00 0. -1.
         25    2    1    2    0    0 -0.73138833596E+02  0.75500973492E+02  0.20718774447E+03  0.26386084087E+03  0.12508435517E+03 0.  0.
          5    1    3    3  502    0 -0.96716213994E+02  0.15621570331E+02  0.11169261761E+03  0.14862964959E+03  0.41800000000E+01 0. -1.
         -5    1    3    3    0  502  0.23577380398E+02  0.59879403161E+02  0.95495126856E+02  0.11523119128E+03  0.41800000000E+01 0. -1.
        -11    1    1    2    0    0 -0.65981875678E+01 -0.12686169259E+02  0.56550795838E+02  0.58330673574E+02  0.00000000000E+00 0.  1.
         11    1    1    2    0    0  0.79737021163E+02 -0.62814804233E+02  0.31499504692E+02  0.10628222321E+03  0.00000000000E+00 0. -1.
</event>
<event>
 7    1  0.2670433E-009  0.1314381E+03  0.7561462E-02  0.1225337E+00
          2   -1    0    0  501    0  0.00000000000E+00  0.00000000000E+00  0.69609966132E+03  0.69609966132E+03  0.00000000000E+00 0. -1.
         -2   -1    0    0    0  501 -0.00000000000E+00 -0.00000000000E+00 -0.36543927733E+02  0.36543927733E+02  0.00000000000E+00 0.  1.
         25    2    1    2    0    0 -0.50174124897E+02 -0.10220726255E+03  0.40618180351E+03  0.43999375726E+03  0.12508829519E+03 0.  0.
          5    1    3    3  502    0  0.44316167085E+01 -0.13961098456E+02 -0.48952981582E+01  0.15999620021E+02  0.41800000000E+01 0.  1.
         -5    1    3    3    0  502 -0.54605741606E+02 -0.88246164094E+02  0.41107710167E+03  0.42399413724E+03  0.41800000000E+01 0.  1.
        -11    1    1    2    0    0 -0.15417748500E+02  0.68162061946E+02  0.95533187248E+02  0.11836538144E+03  0.00000000000E+00 0.  1.
         11    1    1    2    0    0  0.65591873398E+02  0.34045200604E+02  0.15784074283E+03  0.17428445036E+03  0.00000000000E+00 0. -1.
</event>
<event>
 7    1  0.2670433E-009  0.1717860E+03  0.7561462E-02  0.1175998E+00
         -1   -1    0    0    0  501 -0.00000000000E+00  0.00000000000E+00  0.29522090789E+03  0.29522090789E+03  0.00000000000E+00 0.  1.
          1   -1    0    0  501    0  0.00000000000E+00 -0.00000000000E+00 -0.13853266057E+03  0.13853266057E+03  0.00000000000E+00 0. -1.
         25    2    1    2    0    0  0.89934245569E+02  0.11847596288E+03  0.17030544438E+03  0.25841177850E+03  0.12509188853E+03 0.  0.
          5    1    3    3  502    0  0.34433943236E+02  0.13158431115E+03  0.13202858094E+03  0.18960260012E+03  0.41800000000E+01 0. -1.
         -5    1    3    3    0  502  0.55500302333E+02 -0.13108348278E+02  0.38276863446E+02  0.68809178377E+02  0.41800000000E+01 0. -1.
        -11    1    1    2    0    0 -0.19846465884E+01 -0.12217608908E+02  0.28540101501E+02  0.31108619114E+02  0.00000000000E+00 0.  1.
         11    1    1    2    0    0 -0.87949598980E+02 -0.10625835397E+03 -0.42157298563E+02  0.14423317084E+03  0.00000000000E+00 0. -1.
</event>
<event>
 7    1  0.2670433E-009  0.9631645E+02  0.7561462E-02  0.1288238E+00
          1   -1    0    0  501    0  0.00000000000E+00  0.00000000000E+00  0.23439944921E+03  0.23439944921E+03  0.00000000000E+00 0. -1.
         -1   -1    0    0    0  501 -0.00000000000E+00 -0.00000000000E+00 -0.60116569653E+02  0.60116569653E+02  0.00000000000E+00 0.  1.
         25    2    1    2    0    0  0.16628130924E+02  0.49677476270E+02  0.11493989968E+03  0.17776801816E+03  0.12508373738E+03 0.  0.
          5    1    3    3  502    0 -0.24686533851E+02  0.79420001125E+02  0.59247766924E+02  0.10219947073E+03  0.41800000000E+01 0.  1.
         -5    1    3    3    0  502  0.41314664775E+02 -0.29742524855E+02  0.55692132758E+02  0.75568547434E+02  0.41800000000E+01 0.  1.
        -11    1    1    2    0    0  0.69210724191E+01 -0.11813492874E+02  0.69649610079E+02  0.70982589706E+02  0.00000000000E+00 0. -1.
         11    1    1    2    0    0 -0.23549203343E+02 -0.37863983396E+02 -0.10306630207E+02  0.45765410988E+02  0.00000000000E+00 0.  1.
</event>
<event>
 7    1  0.3660420E-009  0.1589158E+03  0.7561462E-02  0.1189926E+00
         -2   -1    0    0    0  501 -0.00000000000E+00  0.00000000000E+00  0.62179314028E+02  0.62179314028E+02  0.00000000000E+00 0.  1.
          2   -1    0    0  501    0  0.00000000000E+00 -0.00000000000E+00 -0.44417134623E+03  0.44417134623E+03  0.00000000000E+00 0. -1.
         25    2    1    2    0    0  0.12034315350E+03  0.35655057952E+02 -0.20610918834E+03  0.27181110753E+03  0.12508606201E+03 0.  0.
          5    1    3    3  502    0  0.63348376709E+02  0.79950412954E+02 -0.96357087504E+02  0.14038249918E+03  0.41800000000E+01 0. -1.
         -5    1    3    3    0  502  0.56994776796E+02 -0.44295355002E+02 -0.10975210084E+03  0.13142860836E+03  0.41800000000E+01 0. -1.
        -11    1    1    2    0    0 -0.81328906219E+02 -0.56666647995E+02 -0.74828782744E+02  0.12419680636E+03  0.00000000000E+00 0.  1.
         11    1    1    2    0    0 -0.39014247285E+02  0.21011590043E+02 -0.10105406112E+03  0.11034274637E+03  0.00000000000E+00 0. -1.
</event>
<event>
 7    1  0.2670433E-009  0.1189104E+03  0.7561462E-02  0.1244905E+00
          1   -1    0    0  501    0  0.00000000000E+00  0.00000000000E+00  0.30219918902E+03  0.30219918902E+03  0.00000000000E+00 0. -1.
         -1   -1    0    0    0  501 -0.00000000000E+00 -0.00000000000E+00 -0.76115757175E+02  0.76115757175E+02  0.00000000000E+00 0.  1.
         25    2    1    2    0    0  0.35456088475E+02  0.76209230259E+02  0.20071659301E+03  0.25099775430E+03  0.12509093079E+03 0.  0.
          5    1    3    3  502    0  0.13668173923E+02  0.97654760077E+02  0.19644953863E+03  0.21984804928E+03  0.41800000000E+01 0. -1.
         -5    1    3    3    0  502  0.21787914552E+02 -0.21445529819E+02  0.42670543858E+01  0.31149705020E+02  0.41800000000E+01 0. -1.
        -11    1    1    2    0    0 -0.30074237268E+02  0.17496898534E+01  0.37644170760E+02  0.48214155121E+02  0.00000000000E+00 0. -1.
         11    1    1    2    0    0 -0.53818512071E+01 -0.77958920112E+02 -0.12277331931E+02  0.79103036774E+02  0.00000000000E+00 0.  1.
</event>
<event>
 7    1  0.2670433E-009  0.1065984E+03  0.7561462E-02  0.1267002E+00
         -2   -1    0    0    0  501 -0.00000000000E+00  0.00000000000E+00  0.24566072667E+02  0.24566072667E+02  0.00000000000E+00 0.  1.
          2   -1    0    0  501    0  0.00000000000E+00 -0.00000000000E+00 -0.72681756187E+03  0.72681756187E+03  0.00000000000E+00 0. -1.
         25    2    1    2    0    0 -0.37712747136E+02 -0.92632915329E+01 -0.57508794641E+03  0.58981634941E+03  0.12509644305E+03 0.  0.
          5    1    3    3  502    0  0.10313790676E+00 -0.54431406572E+02 -0.13249938153E+03  0.14330508423E+03  0.41800000000E+01 0. -1.
         -5    1    3    3    0  502 -0.37815885042E+02  0.45168115039E+02 -0.44258856488E+03  0.44651126519E+03  0.41800000000E+01 0. -1.
        -11    1    1    2    0    0  0.57996531946E+02  0.34258084219E+02 -0.89669589109E+02  0.11215101098E+03  0.00000000000E+00 0.  1.
         11    1    1    2    0    0 -0.20283784810E+02 -0.24994792686E+02 -0.37493953685E+02  0.49416274147E+02  0.00000000000E+00 0. -1.
</event>
<event>
 7    1  0.2670433E-009  0.1454588E+03  0.7561462E-02  0.1206167E+00
          1   -1    0    0  501    0  0.00000000000E+00  0.00000000000E+00  0.19294282358E+02  0.19294282358E+02  0.00000000000E+00 0. -1.
         -1   -1    0    0    0  501 -0.00000000000E+00 -0.00000000000E+00 -0.14280045465E+04  0.14280045465E+04  0.00000000000E+00 0.  1.
         25    2    1    2    0    0  0.89619407890E+02 -0.87235653576E+02 -0.77515029932E+03  0.79507662493E+03  0.12508859036E+03 0.  0.
          5    1    3    3  502    0  0.28019400077E+02 -0.68899622048E+02 -0.15919751392E+03  0.17576565517E+03  0.41800000000E+01 0. -1.
         -5    1    3    3    0  502  0.61600007813E+02 -0.18336031528E+02 -0.61595278541E+03  0.61931096976E+03  0.41800000000E+01 0. -1.
        -11    1    1    2    0    0 -0.59770413759E+02 -0.45259104034E-01 -0.19029692285E+03  0.19946283678E+03  0.00000000000E+00 0. -1.
         11    1    1    2    0    0 -0.29848994130E+02  0.87280912680E+02 -0.44326304192E+03  0.45275936711E+03  0.00000000000E+00 0.  1.
</event>
<event>
 7    1  0.2670433E-009  0.1648262E+03  0.7561462E-02  0.1183353E+00
          4   -1    0    0  501    0  0.00000000000E+00  0.00000000000E+00  0.11821945072E+03  0.11821945072E+03  0.00000000000E+00 0.  1.
         -4   -1    0    0    0  501 -0.00000000000E+00 -0.00000000000E+00 -0.31629693549E+03  0.31629693549E+03  0.00000000000E+00 0. -1.
         25    2    1    2    0    0  0.89536575941E+02 -0.12926355468E+03 -0.13824614540E+03  0.24389522893E+03  0.12508805290E+03 0.  0.
          5    1    3    3  502    0  0.89607360162E+02 -0.94255516782E+02 -0.15703956940E+03  0.20394234527E+03  0.41800000000E+01 0. -1.
         -5    1    3    3    0  502 -0.70784220770E-01 -0.35008037895E+02  0.18793423991E+02  0.39952883663E+02  0.41800000000E+01 0. -1.
        -11    1    1    2    0    0 -0.69409776246E+02  0.58715543359E+02 -0.72361906376E+02  0.11619585864E+03  0.00000000000E+00 0. -1.
         11    1    1    2    0    0 -0.20126799696E+02  0.70548011318E+02  0.12530567017E+02  0.74425298633E+02  0.00000000000E+00 0.  1.
</event>
<event>
 7    1  0.2670433E-009  0.1109705E+03  0.7561462E-02  0.1258783E+00
          1   -1    0    0  501    0  0.00000000000E+00  0.00000000000E+00  0.20512386585E+03  0.20512386585E+03  0.00000000000E+00 0. -1.
         -1   -1    0    0    0  501 -0.00000000000E+00 -0.00000000000E+00 -0.10314138145E+03  0.10314138145E+03  0.00000000000E+00 0.  1.
         25    2    1    2    0    0 -0.78033802231E+02  0.56651319391E+02  0.72258066108E+02  0.17369475167E+03  0.12509992950E+03 0.  0.
          5    1    3    3  502    0 -0.13275462224E+02 -0.17257490125E+02  0.72003873942E+02  0.75339824298E+02  0.41800000000E+01 0.  1.
         -5    1    3    3    0  502 -0.64758340007E+02  0.73908809516E+02  0.25419216611E+00  0.98354927371E+02  0.41800000000E+01 0.  1.
        -11    1    1    2    0    0  0.20749778781E+01 -0.14296770003E+02  0.44113636073E+02  0.46418919131E+02  0.00000000000E+00 0. -1.
         11    1    1    2    0    0  0.75958824353E+02 -0.42354549388E+02 -0.14389217788E+02  0.88151576500E+02  0.00000000000E+00 0.  1.
</event>
<event>
 7    1  0.2891699E-009  0.1319820E+03  0.7561462E-02  0.1224544E+00
          1   -1    0    0  501    0  0.00000000000E+00  0.00000000000E+00  0.11235715970E+04  0.11235715970E+04  0.00000000000E+00 0. -1.
         -1   -1    0    0    0  501 -0.00000000000E+00 -0.00000000000E+00 -0.26261079408E+02  0.26261079408E+02  0.00000000000E+00 0.  1.
         25    2    1    2    0    0  0.78386420372E+00 -0.12637616443E+03  0.71409458319E+03  0.73590090984E+03  0.12509007147E+03 0.  0.
          5    1    3    3  502    0  0.85330549174E+01 -0.70508471085E+02  0.63326662586E+03  0.63725061738E+03  0.41800000000E+01 0.  1.
         -5    1    3    3    0  502 -0.77491907137E+01 -0.55867693342E+02  0.80827957324E+02  0.98650292453E+02  0.41800000000E+01 0.  1.
        -11    1    1    2    0    0 -0.24211146906E+02  0.39931140548E+02  0.48041945096E+02  0.66997791819E+02  0.00000000000E+00 0.  1.
         11    1    1    2    0    0  0.23427282703E+02  0.86445023879E+02  0.33517398929E+03  0.34693397473E+03  0.00000000000E+00 0. -1.
</event>
<event>
 7    1  0.2670433E-009  0.1097232E+03  0.7561462E-02  0.1261083E+00
          2   -1    0    0  501    0  0.00000000000E+00  0.00000000000E+00  0.29185328582E+03  0.29185328582E+03  0.00000000000E+00 0. -1.
         -2   -1    0    0    0  501 -0.00000000000E+00 -0.00000000000E+00 -0.74398168994E+02  0.74398168994E+02  0.00000000000E+00 0.  1.
         25    2    1    2    0    0 -0.45668945004E+02 -0.69475188762E+02  0.57955568391E+02  0.16099281740E+03  0.12508950777E+03 0.  0.
          5    1    3    3  502    0 -0.31341271505E+01 -0.51754337090E+02 -0.31121424571E+02  0.60616413849E+02  0.41800000000E+01 0. -1.
         -5    1    3    3    0  502 -0.42534817853E+02 -0.17720851672E+02  0.89076992962E+02  0.10037640355E+03  0.41800000000E+01 0. -1.
        -11    1    1    2    0    0 -0.17332827893E+02  0.53397751147E+02  0.39069998478E+02  0.68397452668E+02  0.00000000000E+00 0.  1.
         11    1    1    2    0    0  0.63001772897E+02  0.16077437615E+02  0.12042954996E+03  0.13686118475E+03  0.00000000000E+00 0. -1.
</event>
<event>
 7    1  0.2783785E-009  0.1584158E+03  0.7561462E-02  0.1190497E+00
         -2   -1    0    0    0  501 -0.00000000000E+00  0.00000000000E+00  0.38640193231E+02  0.38640193231E+02  0.00000000000E+00 0.  1.
          2   -1    0    0  501    0  0.00000000000E+00 -0.00000000000E+00 -0.93005051748E+03  0.93005051748E+03  0.00000000000E+00 0. -1.
         25    2    1    2    0    0  0.13551192954E+03 -0.52067343226E+02 -0.60475636203E+03  0.63439116771E+03  0.12508958781E+03 0.  0.
          5    1    3    3  502    0  0.10692565017E+03 -0.61027398770E+02 -0.58598247492E+03  0.59879075759E+03  0.41800000000E+01 0. -1.
         -5    1    3    3    0  502  0.28586279367E+02  0.89600555439E+01 -0.18773887108E+02  0.35600410117E+02  0.41800000000E+01 0. -1.
        -11    1    1    2    0    0 -0.29922975014E+02  0.49422562988E+02 -0.15560620726E+03  0.16598574006E+03  0.00000000000E+00 0.  1.
         11    1    1    2    0    0 -0.10558895452E+03  0.26447802381E+01 -0.13104775496E+03  0.16831380294E+03  0.00000000000E+00 0. -1.
</event>
<event>
 7    1  0.2670433E-009  0.8080774E+02  0.7561462E-02  0.1326775E+00
          2   -1    0    0  501    0  0.00000000000E+00  0.00000000000E+00  0.17408591334E+03  0.17408591334E+03  0.00000000000E+00 0. -1.
         -2   -1    0    0    0  501 -0.00000000000E+00 -0.00000000000E+00 -0.85015714441E+02  0.85015714441E+02  0.00000000000E+00 0.  1.
         25    2    1    2    0    0  0.55507976899E+02 -0.31535519825E+01  0.44908384889E+02  0.14406624438E+03  0.12508892575E+03 0.  0.
          5    1    3    3  502    0  0.54794480913E+02 -0.19716283370E+01 -0.34251568096E+02  0.64783985474E+02  0.41800000000E+01 0.  1.
         -5    1    3    3    0  502  0.71349598565E+00 -0.11819236455E+01  0.79159952985E+02  0.79282258902E+02  0.41800000000E+01 0.  1.
        -11    1    1    2    0    0 -0.67304330962E+01 -0.37885772634E+02  0.18458885338E+01  0.38523211214E+02  0.00000000000E+00 0.  1.
         11    1    1    2    0    0 -0.48777543803E+02  0.41039324617E+02  0.42315925473E+02  0.76512172189E+02  0.00000000000E+00 0. -1.
</event>
<event>
 7    1  0.2670433E-009  0.1744499E+03  0.7561462E-02  0.1173285E+00
         -3   -1    0    0    0  501 -0.00000000000E+00  0.00000000000E+00  0.88749214863E+02  0.88749214863E+02  0.00000000000E+00 0.  1.
          3   -1    0    0  501    0  0.00000000000E+00 -0.00000000000E+00 -0.55507275110E+03  0.55507275110E+03  0.00000000000E+00 0. -1.
         25    2    1    2    0    0 -0.11193720164E+03  0.12562418151E+03 -0.10531115112E+03  0.23462684732E+03  0.12509175370E+03 0.  0.
          5    1    3    3  502    0  0.63005039566E-01  0.37069950265E+02  0.21980110863E+02  0.43298762752E+02  0.41800000000E+01 0. -1.
         -5    1    3    3    0  502 -0.11200020668E+03  0.88554231241E+02 -0.12729126199E+03  0.19132808457E+03  0.41800000000E+01 0. -1.
        -11    1    1    2    0    0  0.82592123040E+02 -0.10081969369E+03 -0.34266923077E+03  0.36661733612E+03  0.00000000000E+00 0. -1.
         11    1    1    2    0    0  0.29345078598E+02 -0.24804487815E+02 -0.18343154345E+02  0.42577782527E+02  0.00000000000E+00 0.  1.
</event>
<event>
 7    1  0.2670433E-009  0.9863538E+02  0.7561462E-02  0.1283192E+00
         -2   -1    0    0    0  501 -0.00000000000E+00  0.00000000000E+00  0.15267497301E+02  0.15267497301E+02  0.00000000000E+00 0.  1.
          2   -1    0    0  501    0  0.00000000000E+00 -0.00000000000E+00 -0.12373580982E+04  0.12373580982E+04  0.00000000000E+00 0. -1.
         25    2    1    2    0    0 -0.44389555794E+02 -0.89223641697E+01 -0.99008762271E+03  0.99898540988E+03  0.12509319428E+03 0.  0.
          5    1    3    3  502    0 -0.44959235086E+02 -0.46096943434E+02 -0.88655588877E+03  0.88890105036E+03  0.41800000000E+01 0. -1.
         -5    1    3    3    0  502  0.56967929218E+00  0.37174579264E+02 -0.10353173394E+03  0.11008435952E+03  0.41800000000E+01 0. -1.
        -11    1    1    2    0    0  0.23942083857E+02  0.46640401329E+02 -0.17244224781E+03  0.18023562147E+03  0.00000000000E+00 0. -1.
         11    1    1    2    0    0  0.20447471937E+02 -0.37718037160E+02 -0.59560730371E+02  0.73404564151E+02  0.00000000000E+00 0.  1.
</event>
<event>
 7    1  0.2670433E-009  0.1606426E+03  0.7561462E-02  0.1187973E+00
          4   -1    0    0  501    0  0.00000000000E+00  0.00000000000E+00  0.14390306519E+03  0.14390306519E+03  0.00000000000E+00 0. -1.
         -4   -1    0    0    0  501 -0.00000000000E+00 -0.00000000000E+00 -0.21964836761E+03  0.21964836761E+03  0.00000000000E+00 0.  1.
         25    2    1    2    0    0  0.13536456745E+03  0.17947243259E+01 -0.26365135672E+01  0.18434072241E+03  0.12509102118E+03 0.  0.
          5    1    3    3  502    0  0.11278729809E+03  0.53980266477E+02  0.11391709062E+02  0.12562677746E+03  0.41800000000E+01 0.  1.
         -5    1    3    3    0  502  0.22577269357E+02 -0.52185542151E+02 -0.14028222629E+02  0.58713944948E+02  0.41800000000E+01 0.  1.
        -11    1    1    2    0    0 -0.12794500462E+03 -0.97107996686E+01 -0.91681372497E+02  0.15770129327E+03  0.00000000000E+00 0.  1.
         11    1    1    2    0    0 -0.74195628312E+01  0.79160753428E+01  0.18572583644E+02  0.21509417116E+02  0.00000000000E+00 0. -1.
</event>
<event>
 7    1  0.2670433E-009  0.9997872E+02  0.7561462E-02  0.1280341E+00
          4   -1    0    0  501    0  0.00000000000E+00  0.00000000000E+00  0.90152763226E+02  0.90152763226E+02  0.00000000000E+00 0. -1.
         -4   -1    0    0    0  501 -0.00000000000E+00 -0.00000000000E+00 -0.21030077389E+03  0.21030077389E+03  0.00000000000E+00 0.  1.
         25    2    1    2    0    0 -0.52869050634E+02 -0.58598896001E+02 -0.38503834438E+02  0.15283694662E+03  0.12509044671E+03 0.  0.
          5    1    3    3  502    0  0.36823524513E+01 -0.48459383598E+02 -0.71422143623E+02  0.86489690588E+02  0.41800000000E+01 0.  1.
         -5    1    3    3    0  502 -0.56551403085E+02 -0.10139512403E+02  0.32918309186E+02  0.66347256027E+02  0.41800000000E+01 0.  1.
        -11    1    1    2    0    0 -0.80662078171E+01  0.19683965538E+02 -0.71511865970E+02  0.74608774165E+02  0.00000000000E+00 0.  1.
         11    1    1    2    0    0  0.60935258451E+02  0.38914930463E+02 -0.10132310259E+02  0.73007816339E+02  0.00000000000E+00 0. -1.
</event>
<event>
 7    1  0.2670433E-009  0.1124231E+03  0.7561462E-02  0.1256147E+00
          2   -1    0    0  501    0  0.00000000000E+00  0.00000000000E+00  0.86278026023E+03  0.86278026023E+03  0.00000000000E+00 0. -1.
         -2   -1    0    0    0  501 -0.00000000000E+00 -0.00000000000E+00 -0.21250388248E+02  0.21250388248E+02  0.00000000000E+00 0.  1.
         25    2    1    2    0    0 -0.75243626409E+02  0.29854043729E+02  0.42414226135E+03  0.44955374007E+03  0.12509612347E+03 0.  0.
          5    1    3    3  502    0 -0.36574762289E+02  0.64943527999E+02  0.35524533600E+03  0.36300426474E+03  0.41800000000E+01 0.  1.
         -5    1    3    3    0  502 -0.38668864120E+02 -0.35089484271E+02  0.68896925349E+02  0.86549475338E+02  0.41800000000E+01 0.  1.
        -11    1    1    2    0    0  0.78980003805E+02 -0.12382622317E+02  0.40480684569E+03  0.41262543869E+03  0.00000000000E+00 0. -1.
         11    1    1    2    0    0 -0.37363773964E+01 -0.17471421411E+02  0.12580764940E+02  0.21851469714E+02  0.00000000000E+00 0.  1.
</event>
<event>
 7    1  0.2670433E-009  0.1813870E+03  0.7561462E-02  0.1166467E+00
         -2   -1    0    0    0  501 -0.00000000000E+00  0.00000000000E+00  0.52444185765E+03  0.52444185765E+03  0.00000000000E+00 0. -1.
          2   -1    0    0  501    0  0.00000000000E+00 -0.00000000000E+00 -0.32620217880E+03  0.32620217880E+03  0.00000000000E+00 0.  1.
         25    2    1    2    0    0  0.12082651467E+03  0.11764883042E+03 -0.27084230233E+03  0.34269632507E+03  0.12507967277E+03 0.  0.
          5    1    3    3  502    0  0.46433838022E+02  0.16463234705E+02 -0.18253051707E+03  0.18910843839E+03  0.41800000000E+01 0. -1.
         -5    1    3    3    0  502  0.74392676648E+02  0.10118559571E+03 -0.88311785263E+02  0.15358788668E+03  0.41800000000E+01 0. -1.
        -11    1    1    2    0    0  0.11583568693E+02 -0.20134196460E+02  0.23733732300E+02  0.33209260450E+02  0.00000000000E+00 0.  1.
         11    1    1    2    0    0 -0.13241008336E+03 -0.97514633958E+02  0.44534824887E+03  0.47473845093E+03  0.00000000000E+00 0. -1.
</event>
<event>
 7    1  0.2670433E-009  0.1176959E+03  0.7561462E-02  0.1246947E+00
         -1   -1    0    0    0  501 -0.00000000000E+00  0.00000000000E+00  0.10055257056E+04  0.10055257056E+04  0.00000000000E+00 0.  1.
          1   -1    0    0  501    0  0.00000000000E+00 -0.00000000000E+00 -0.20602999744E+02  0.20602999744E+02  0.00000000000E+00 0. -1.
         25    2    1    2    0    0 -0.50261912179E+02  0.49330974998E+02  0.76061054805E+03  0.77403868858E+03  0.12509068992E+03 0.  0.
          5    1    3    3  502    0  0.15359971644E+02 -0.19540575381E+02  0.40860097169E+03  0.40937756323E+03  0.41800000000E+01 0.  1.
         -5    1    3    3    0  502 -0.65621883824E+02  0.68871550379E+02  0.35200957637E+03  0.36466112535E+03  0.41800000000E+01 0.  1.
        -11    1    1    2    0    0  0.70457257082E+02 -0.59624327162E+02  0.17651932092E+03  0.19919426729E+03  0.00000000000E+00 0. -1.
         11    1    1    2    0    0 -0.20195344903E+02  0.10293352164E+02  0.47792836922E+02  0.52895749504E+02  0.00000000000E+00 0.  1.
</event>
<event>
 7    1  0.2670433E-009  0.1387728E+03  0.7561462E-02  0.1214990E+00
          3   -1    0    0  501    0  0.00000000000E+00  0.00000000000E+00  0.15160258152E+03  0.15160258152E+03  0.00000000000E+00 0. -1.
         -3   -1    0    0    0  501 -0.00000000000E+00 -0.00000000000E+00 -0.19375732989E+03  0.19375732989E+03  0.00000000000E+00 0.  1.
         25    2    1    2    0    0 -0.94532501507E+02  0.78520790010E+02 -0.78589442696E+02  0.19216197913E+03  0.12509203578E+03 0.  0.
          5    1    3    3  502    0 -0.55018878168E+02  0.17847744122E+02 -0.10081700121E+03  0.11630631564E+03  0.41800000000E+01 0.  1.
         -5    1    3    3    0  502 -0.39513623339E+02  0.60673045888E+02  0.22227558509E+02  0.75855663493E+02  0.41800000000E+01 0.  1.
        -11    1    1    2    0    0  0.49775961089E+02  0.72309355196E+01  0.23807234161E+02  0.55648154769E+02  0.00000000000E+00 0. -1.
         11    1    1    2    0    0  0.44756540417E+02 -0.85751725530E+02  0.12627460170E+02  0.97549777508E+02  0.00000000000E+00 0.  1.
</event>
<event>
 7    1  0.2670433E-009  0.9505110E+02  0.7561462E-02  0.1291061E+00
          2   -1    0    0  501    0  0.00000000000E+00  0.00000000000E+00  0.10375165826E+04  0.10375165826E+04  0.00000000000E+00 0. -1.
         -2   -1    0    0    0  501 -0.00000000000E+00 -0.00000000000E+00 -0.22094760102E+02  0.22094760102E+02  0.00000000000E+00 0.  1.
         25    2    1    2    0    0 -0.16943086522E+02 -0.45305680994E+02  0.87313245337E+03  0.88337327873E+03  0.12509354714E+03 0.  0.
          5    1    3    3  502    0 -0.44186516318E+02 -0.19313830950E+02  0.12150222988E+03  0.13078890074E+03  0.41800000000E+01 0.  1.
         -5    1    3    3    0  502  0.27243429796E+02 -0.25991850044E+02  0.75163022349E+03  0.75258437799E+03  0.41800000000E+01 0.  1.
        -11    1    1    2    0    0  0.34672487949E+02  0.67214011277E+02  0.99005024943E+02  0.12458691623E+03  0.00000000000E+00 0.  1.
         11    1    1    2    0    0 -0.17729401426E+02 -0.21908330283E+02  0.43284344155E+02  0.51651147709E+02  0.00000000000E+00 0. -1.
</event>
<event>
 7    1  0.2670433E-009  0.1437764E+03  0.7561462E-02  0.1208336E+00
          2   -1    0    0  501    0  0.00000000000E+00  0.00000000000E+00  0.90130714604E+03  0.90130714604E+03  0.00000000000E+00 0. -1.
         -2   -1    0    0    0  501 -0.00000000000E+00 -0.00000000000E+00 -0.33448106403E+02  0.33448106403E+02  0.00000000000E+00 0.  1.
         25    2    1    2    0    0 -0.95068978350E+02  0.93747021199E+02  0.54526426932E+03  0.57514049823E+03  0.12508738816E+03 0.  0.
          5    1    3    3  502    0 -0.56666655036E+02  0.61221876704E+02  0.11614808719E+03  0.14306319771E+03  0.41800000000E+01 0.  1.
         -5    1    3    3    0  502 -0.38402323314E+02  0.32525144494E+02  0.42911618213E+03  0.43207730052E+03  0.41800000000E+01 0.  1.
        -11    1    1    2    0    0  0.62993339330E+02 -0.99151079667E+01  0.89999590269E+02  0.11030138900E+03  0.00000000000E+00 0.  1.
         11    1    1    2    0    0  0.32075639019E+02 -0.83831913232E+02  0.23259518005E+03  0.24931336522E+03  0.00000000000E+00 0. -1.
</event>
<event>
 7    1  0.2670433E-009  0.2038451E+03  0.7561462E-02  0.1146535E+00
         -4   -1    0    0    0  501 -0.00000000000E+00  0.00000000000E+00  0.12082261958E+03  0.12082261958E+03  0.00000000000E+00 0.  1.
          4   -1    0    0  501    0  0.00000000000E+00 -0.00000000000E+00 -0.45835549863E+03  0.45835549863E+03  0.00000000000E+00 0. -1.
         25    2    1    2    0    0  0.16330434843E+03  0.56540120982E+02 -0.31681167703E+03  0.38194482843E+03  0.12508843975E+03 0.  0.
          5    1    3    3  502    0 -0.10736491440E+02 -0.20059375158E+02 -0.35211144826E+02  0.42130130550E+02  0.41800000000E+01 0. -1.
         -5    1    3    3    0  502  0.17404083987E+03  0.76599496140E+02 -0.28160053221E+03  0.33981469788E+03  0.41800000000E+01 0. -1.
        -11    1    1    2    0    0 -0.11902704430E+03 -0.80810242495E+02 -0.26911691652E+02  0.14636246689E+03  0.00000000000E+00 0. -1.
         11    1    1    2    0    0 -0.44277304139E+02  0.24270121513E+02  0.61904896288E+01  0.50870822894E+02  0.00000000000E+00 0.  1.
</event>
<event>
 7    1  0.2670433E-009  0.8002684E+02  0.7561462E-02  0.1328975E+00
          1   -1    0    0  501    0  0.00000000000E+00  0.00000000000E+00  0.79647856453E+02  0.79647856453E+02  0.00000000000E+00 0. -1.
         -1   -1    0    0    0  501 -0.00000000000E+00 -0.00000000000E+00 -0.16032955548E+03  0.16032955548E+03  0.00000000000E+00 0.  1.
         25    2    1    2    0    0 -0.15394010611E+02  0.27654929190E+02 -0.41733262433E+02  0.13560863842E+03  0.12508503888E+03 0.  0.
          5    1    3    3  502    0  0.47945803863E+02  0.39792129902E+02 -0.32268178787E+02  0.70291688502E+02  0.41800000000E+01 0.  1.
         -5    1    3    3    0  502 -0.63339814474E+02 -0.12137200711E+02 -0.94650836458E+01  0.65316949922E+02  0.41800000000E+01 0.  1.
        -11    1    1    2    0    0  0.13311641808E+02 -0.14595125795E+02 -0.68874227760E+02  0.71651076434E+02  0.00000000000E+00 0.  1.
         11    1    1    2    0    0  0.20823688024E+01 -0.13059803395E+02  0.29925791169E+02  0.32717697071E+02  0.00000000000E+00 0. -1.
</event>
<event>
 7    1  0.2670433E-009  0.1098680E+03  0.7561462E-02  0.1260815E+00
         -1   -1    0    0    0  501 -0.00000000000E+00  0.00000000000E+00  0.18461402342E+03  0.18461402342E+03  0.00000000000E+00 0.  1.
          1   -1    0    0  501    0  0.00000000000E+00 -0.00000000000E+00 -0.10797954375E+03  0.10797954375E+03  0.00000000000E+00 0. -1.
         25    2    1    2    0    0  0.31858278660E+02  0.61305506209E+02  0.90695036578E+02  0.16925264718E+03  0.12509018309E+03 0.  0.
          5    1    3    3  502    0 -0.38273004446E+02  0.14819937331E+02  0.71968235187E+02  0.82953919062E+02  0.41800000000E+01 0. -1.
         -5    1    3    3    0  502  0.70131283106E+02  0.46485568878E+02  0.18726801390E+02  0.86298728115E+02  0.41800000000E+01 0. -1.
        -11    1    1    2    0    0  0.19726361834E+02 -0.13453753614E+02 -0.41450652128E+02  0.47836067975E+02  0.00000000000E+00 0. -1.
         11    1    1    2    0    0 -0.51584640494E+02 -0.47851752596E+02  0.27390095229E+02  0.75504852016E+02  0.00000000000E+00 0.  1.
</event>
<event>
 7    1  0.2670433E-009  0.1013952E+03  0.7561462E-02  0.1277389E+00
         -1   -1    0    0    0  501 -0.00000000000E+00  0.00000000000E+00  0.29379097313E+02  0.29379097313E+02  0.00000000000E+00 0.  1.
          1   -1    0    0  501    0  0.00000000000E+00 -0.00000000000E+00 -0.52248119153E+03  0.52248119153E+03  0.00000000000E+00 0. -1.
         25    2    1    2    0    0 -0.29146321121E+02  0.50545771194E+02 -0.31323205834E+03  0.34229437186E+03  0.12508689625E+03 0.  0.
          5    1    3    3  502    0 -0.44755249400E+02 -0.90215874681E+01 -0.24911222957E+03  0.25329586793E+03  0.41800000000E+01 0. -1.
         -5    1    3    3    0  502  0.15608928279E+02  0.59567358662E+02 -0.64119828775E+02  0.88998503932E+02  0.41800000000E+01 0. -1.
        -11    1    1    2    0    0  0.18229592916E+02  0.18115536143E+02 -0.10194604948E+03  0.10513556826E+03  0.00000000000E+00 0. -1.
         11    1    1    2    0    0  0.10916728205E+02 -0.68661307336E+02 -0.77923986394E+02  0.10443034873E+03  0.00000000000E+00 0.  1.
</event>
<event>
 7    1  0.2670433E-009  0.1665997E+03  0.7561462E-02  0.1181441E+00
          2   -1    0    0  501    0  0.00000000000E+00  0.00000000000E+00  0.14864777665E+04  0.14864777665E+04  0.00000000000E+00 0. -1.
         -2   -1    0    0    0  501 -0.00000000000E+00 -0.00000000000E+00 -0.29080615032E+02  0.29080615032E+02  0.00000000000E+00 0.  1.
         25    2    1    2    0    0  0.31391296768E+02  0.14744908769E+03  0.10927474850E+04  0.11101674149E+04  0.12509187126E+03 0.  0.
          5    1    3    3  502    0  0.25004205679E+02  0.16147944684E+03  0.10697578891E+04  0.10821738473E+04  0.41800000000E+01 0.  1.
         -5    1    3    3    0  502  0.63870910890E+01 -0.14030359146E+02  0.22989595860E+02  0.27993567620E+02  0.41800000000E+01 0.  1.
        -11    1    1    2    0    0 -0.28977464436E+02 -0.63649492632E+02  0.27019070425E+03  0.27909490863E+03  0.00000000000E+00 0.  1.
         11    1    1    2    0    0 -0.24138323321E+01 -0.83799595062E+02  0.94458962308E+02  0.12629605805E+03  0.00000000000E+00 0. -1.
</event>
<event>
 7    1  0.2670433E-009  0.2088685E+03  0.7561462E-02  0.1142465E+00
          2   -1    0    0  501    0  0.00000000000E+00  0.00000000000E+00  0.53284312532E+03  0.53284312532E+03  0.00000000000E+00 0. -1.
         -2   -1    0    0    0  501 -0.00000000000E+00 -0.00000000000E+00 -0.10791083998E+03  0.10791083998E+03  0.00000000000E+00 0.  1.
         25    2    1    2    0    0 -0.43185556866E+02 -0.18974322672E+03  0.33838343484E+03  0.40989926389E+03  0.12508626284E+03 0.  0.
          5    1    3    3  502    0 -0.65889162375E+02 -0.14322725786E+03  0.16224798635E+03  0.22626822708E+03  0.41800000000E+01 0. -1.
         -5    1    3    3    0  502  0.22703605509E+02 -0.46515968860E+02  0.17613544849E+03  0.18363103681E+03  0.41800000000E+01 0. -1.
        -11    1    1    2    0    0  0.40227285796E+02  0.34991946629E+02 -0.41356210819E+00  0.53318307222E+02  0.00000000000E+00 0. -1.
         11    1    1    2    0    0  0.29582710697E+01  0.15475128009E+03  0.86962412603E+02  0.17753639419E+03  0.00000000000E+00 0.  1.
</event>
<event>
 7    1  0.2670433E-009  0.9080979E+02  0.7561462E-02  0.1300902E+00
          2   -1    0    0  501    0  0.00000000000E+00  0.00000000000E+00  0.59723922895E+02  0.59723922895E+02  0.00000000000E+00 0. -1.
         -2   -1    0    0    0  501 -0.00000000000E+00 -0.00000000000E+00 -0.22686995852E+03  0.22686995852E+03  0.00000000000E+00 0.  1.
         25    2    1    2    0    0  0.10841948384E+02  0.21083726744E+02 -0.51127898930E+02  0.13720035547E+03  0.12509118320E+03 0.  0.
          5    1    3    3  502    0 -0.42375357096E+02 -0.28640797162E+02 -0.66192809061E+01  0.51742182316E+02  0.41800000000E+01 0. -1.
         -5    1    3    3    0  502  0.53217305479E+02  0.49724523905E+02 -0.44508618024E+02  0.85458173152E+02  0.41800000000E+01 0. -1.
        -11    1    1    2    0    0 -0.31781233620E+02 -0.84147520152E+01 -0.21736251418E+01  0.32948133606E+02  0.00000000000E+00 0. -1.
         11    1    1    2    0    0  0.20939285236E+02 -0.12668974728E+02 -0.11384451155E+03  0.11644539234E+03  0.00000000000E+00 0.  1.
</event>
<event>
 7    1  0.2670433E-009  0.8218153E+02  0.7561462E-02  0.1322972E+00
         -2   -1    0    0    0  501 -0.00000000000E+00  0.00000000000E+00  0.33817525250E+03  0.33817525250E+03  0.00000000000E+00 0.  1.
          2   -1    0    0  501    0  0.00000000000E+00 -0.00000000000E+00 -0.50722063991E+02  0.50722063991E+02  0.00000000000E+00 0. -1.
         25    2    1    2    0    0  0.52977615832E+02 -0.12980212921E+02  0.90525510131E+02  0.16375888008E+03  0.12508792553E+03 0.  0.
          5    1    3    3  502    0  0.55892841775E+02  0.31980876320E+02  0.22597744047E+01  0.64570621742E+02  0.41800000000E+01 0. -1.
         -5    1    3    3    0  502 -0.29152259426E+01 -0.44961089241E+02  0.88265735726E+02  0.99188258334E+02  0.41800000000E+01 0. -1.
        -11    1    1    2    0    0 -0.32653187605E+02  0.90231456241E+01  0.20116980251E+03  0.20400229719E+03  0.00000000000E+00 0.  1.
         11    1    1    2    0    0 -0.20324428227E+02  0.39570672973E+01 -0.42421241261E+01  0.21136139227E+02  0.00000000000E+00 0. -1.
</event>
<event>
 7    1  0.2670433E-009  0.1021677E+03  0.7561462E-02  0.1275802E+00
         -2   -1    0    0    0  501 -0.00000000000E+00  0.00000000000E+00  0.17898333334E+02  0.17898333334E+02  0.00000000000E+00 0.  1.
          2   -1    0    0  501    0  0.00000000000E+00 -0.00000000000E+00 -0.68855605850E+03  0.68855605850E+03  0.00000000000E+00 0. -1.
         25    2    1    2    0    0  0.30697477026E+01 -0.15928876624E+02 -0.45479412722E+03  0.47196252907E+03  0.12509107973E+03 0.  0.
          5    1    3    3  502    0  0.56320439769E+02 -0.23657653266E+02 -0.33530770739E+03  0.34085247180E+03  0.41800000000E+01 0.  1.
         -5    1    3    3    0  502 -0.53250692066E+02  0.77287766421E+01 -0.11948641982E+03  0.13111005727E+03  0.41800000000E+01 0.  1.
        -11    1    1    2    0    0 -0.31061869169E+01 -0.36536872971E+02 -0.63236219409E+02  0.73098638352E+02  0.00000000000E+00 0.  1.
         11    1    1    2    0    0  0.36439214296E-01  0.52465749595E+02 -0.15262737854E+03  0.16139322442E+03  0.00000000000E+00 0. -1.
</event>
<event>
 7    1  0.2670433E-009  0.1481251E+03  0.7561462E-02  0.1202796E+00
          1   -1    0    0  501    0  0.00000000000E+00  0.00000000000E+00  0.74326050985E+03  0.74326050985E+03  0.00000000000E+00 0. -1.
         -1   -1    0    0    0  501 -0.00000000000E+00 -0.00000000000E+00 -0.45658489977E+02  0.45658489977E+02  0.00000000000E+00 0.  1.
         25    2    1    2    0    0 -0.28586236384E+02 -0.12336763646E+03  0.20133251737E+03  0.26873484556E+03  0.12508752149E+03 0.  0.
          5    1    3    3  502    0 -0.36802085759E+02 -0.16128641412E+02 -0.44060502302E-01  0.40398031281E+02  0.41800000000E+01 0.  1.
         -5    1    3    3    0  502  0.82158493759E+01 -0.10723899504E+03  0.20137657788E+03  0.22833681428E+03  0.41800000000E+01 0.  1.
        -11    1    1    2    0    0  0.54460431935E+02  0.97205607235E+02  0.29019639089E+03  0.31085175568E+03  0.00000000000E+00 0.  1.
         11    1    1    2    0    0 -0.25874195551E+02  0.26162029221E+02  0.20607311161E+03  0.20933239859E+03  0.00000000000E+00 0. -1.
</event>
<event>
 7    1  0.2670433E-009  0.1247778E+03  0.7561462E-02  0.1235417E+00
         -4   -1    0    0    0  501 -0.00000000000E+00  0.00000000000E+00  0.48662358879E+02  0.48662358879E+02  0.00000000000E+00 0.  1.
          4   -1    0    0  501    0  0.00000000000E+00 -0.00000000000E+00 -0.43720944285E+03  0.43720944285E+03  0.00000000000E+00 0. -1.
         25    2    1    2    0    0 -0.13225396027E+01 -0.94226801498E+02 -0.24058552653E+03  0.28706733027E+03  0.12508324149E+03 0.  0.
          5    1    3    3  502    0 -0.49336136365E+02 -0.48154223938E+02 -0.50310682368E+02  0.85448936768E+02  0.41800000000E+01 0.  1.
         -5    1    3    3    0  502  0.48013596762E+02 -0.46072577560E+02 -0.19027484417E+03  0.20161839350E+03  0.41800000000E+01 0.  1.
        -11    1    1    2    0    0  0.19032979805E+02  0.11510319108E+01 -0.79906594362E+02  0.82150124876E+02  0.00000000000E+00 0. -1.
         11    1    1    2    0    0 -0.17710440202E+02  0.93075769587E+02 -0.68054963073E+02  0.11665434658E+03  0.00000000000E+00 0.  1.
</event>
<event>
 7    1  0.2670433E-009  0.8203042E+02  0.7561462E-02  0.1323386E+00
         -1   -1    0    0    0  501 -0.00000000000E+00  0.00000000000E+00  0.76373078448E+02  0.76373078448E+02  0.00000000000E+00 0.  1.
          1   -1    0    0  501    0  0.00000000000E+00 -0.00000000000E+00 -0.16760429236E+03  0.16760429236E+03  0.00000000000E+00 0. -1.
         25    2    1    2    0    0  0.80515126723E+01  0.97289770571E+01 -0.20799528486E+02  0.12743464988E+03  0.12508992667E+03 0.  0.
          5    1    3    3  502    0  0.43014818386E+02 -0.44146604672E+01 -0.59212347329E+02  0.73439351196E+02  0.41800000000E+01 0. -1.
         -5    1    3    3    0  502 -0.34963305714E+02  0.14143637524E+02  0.38412818843E+02  0.53995298687E+02  0.41800000000E+01 0. -1.
        -11    1    1    2    0    0  0.36415154938E+02 -0.11447235062E+02 -0.59546147884E+02  0.70730802537E+02  0.00000000000E+00 0. -1.
         11    1    1    2    0    0 -0.44466667610E+02  0.17182580051E+01 -0.10885537544E+02  0.45811918390E+02  0.00000000000E+00 0.  1.
</event>
<event>
 7    1  0.2670433E-009  0.1442728E+03  0.7561462E-02  0.1207693E+00
         -1   -1    0    0    0  501 -0.00000000000E+00  0.00000000000E+00  0.44432979794E+03  0.44432979794E+03  0.00000000000E+00 0.  1.
          1   -1    0    0  501    0  0.00000000000E+00 -0.00000000000E+00 -0.54172725938E+02  0.54172725938E+02  0.00000000000E+00 0. -1.
         25    2    1    2    0    0 -0.10476461510E+03 -0.40054238858E+02  0.23019309117E+03  0.28498371775E+03  0.12508754349E+03 0.  0.
          5    1    3    3  502    0 -0.11270844117E+03  0.22559910396E+01  0.20739798160E+03  0.23609251868E+03  0.41800000000E+01 0.  1.
         -5    1    3    3    0  502  0.79438260681E+01 -0.42310229897E+02  0.22795109570E+02  0.48891199074E+02  0.41800000000E+01 0.  1.
        -11    1    1    2    0    0  0.69501172880E+02  0.60134458896E+02  0.72359445526E+02  0.11697202886E+03  0.00000000000E+00 0. -1.
         11    1    1    2    0    0  0.35263442218E+02 -0.20080220039E+02  0.87604535313E+02  0.96546777270E+02  0.00000000000E+00 0.  1.
</event>
<event>
 7    1  0.2670433E-009  0.2308653E+03  0.7561462E-02  0.1126032E+00
          2   -1    0    0  501    0  0.00000000000E+00  0.00000000000E+00  0.55168510642E+02  0.55168510642E+02  0.00000000000E+00 0. -1.
         -2   -1    0    0    0  501 -0.00000000000E+00 -0.00000000000E+00 -0.10038913735E+04  0.10038913735E+04  0.00000000000E+00 0.  1.
         25    2    1    2    0    0  0.13123622438E+03 -0.15660515162E+03 -0.57991349370E+03  0.62745101311E+03  0.12508794337E+03 0.  0.
          5    1    3    3  502    0  0.12814846245E+03 -0.58084252801E+02 -0.35199668349E+03  0.37909754212E+03  0.41800000000E+01 0. -1.
         -5    1    3    3    0  502  0.30877619260E+01 -0.98520898824E+02 -0.22791681020E+03  0.24835347099E+03  0.41800000000E+01 0. -1.
        -11    1    1    2    0    0 -0.14166061846E+03  0.12462670421E+03 -0.29066995447E+03  0.34653797578E+03  0.00000000000E+00 0.  1.
         11    1    1    2    0    0  0.10424394078E+02  0.31978447414E+02 -0.78139414668E+02  0.85070895232E+02  0.00000000000E+00 0. -1.
</event>
<event>
 7    1  0.2670433E-009  0.9979992E+02  0.7561462E-02  0.1280717E+00
         -2   -1    0    0    0  501 -0.00000000000E+00  0.00000000000E+00  0.28121324819E+03  0.28121324819E+03  0.00000000000E+00 0.  1.
          2   -1    0    0  501    0  0.00000000000E+00 -0.00000000000E+00 -0.44474095801E+02  0.44474095801E+02  0.00000000000E+00 0. -1.
         25    2    1    2    0    0  0.16679275181E+02 -0.18320568443E+02  0.13465129981E+03  0.18545313551E+03  0.12509217194E+03 0.  0.
          5    1    3    3  502    0  0.37395567712E+02  0.46041654487E+02  0.69484212433E+02  0.91453762142E+02  0.41800000000E+01 0. -1.
         -5    1    3    3    0  502 -0.20716292531E+02 -0.64362222930E+02  0.65167087378E+02  0.93999373371E+02  0.41800000000E+01 0. -1.
        -11    1    1    2    0    0 -0.27781727001E+02 -0.18868691103E+02  0.28822644447E+01  0.33706962299E+02  0.00000000000E+00 0. -1.
         11    1    1    2    0    0  0.11102451820E+02  0.37189259547E+02  0.99205588132E+02  0.10652724618E+03  0.00000000000E+00 0.  1.
</event>
<event>
 7    1  0.2670433E-009  0.2182837E+03  0.7561462E-02  0.1135169E+00
         -2   -1    0    0    0  501 -0.00000000000E+00  0.00000000000E+00  0.27343975482E+02  0.27343975482E+02  0.00000000000E+00 0.  1.
          2   -1    0    0  501    0  0.00000000000E+00 -0.00000000000E+00 -0.20705767528E+04  0.20705767528E+04  0.00000000000E+00 0. -1.
         25    2    1    2    0    0 -0.20985705446E+02  0.20665008348E+03 -0.12193409229E+04  0.12432151411E+04  0.12508774485E+03 0.  0.
          5    1    3    3  502    0  0.27932406942E+01  0.10442965549E+03 -0.29604319842E+03  0.31396242271E+03  0.41800000000E+01 0. -1.
         -5    1    3    3    0  502 -0.23778946141E+02  0.10222042800E+03 -0.92329772446E+03  0.92925271835E+03  0.41800000000E+01 0. -1.
        -11    1    1    2    0    0  0.45625019545E+02 -0.47219992513E+02 -0.21477044739E+03  0.22458342587E+03  0.00000000000E+00 0.  1.
         11    1    1    2    0    0 -0.24639314099E+02 -0.15943009097E+03 -0.60912140700E+03  0.63012216131E+03  0.00000000000E+00 0. -1.
</event>
<event>
 7    1  0.2670433E-009  0.6300974E+02  0.7561462E-02  0.1385618E+00
          1   -1    0    0  501    0  0.00000000000E+00  0.00000000000E+00  0.17141014477E+03  0.17141014477E+03  0.00000000000E+00 0. -1.
         -1   -1    0    0    0  501 -0.00000000000E+00 -0.00000000000E+00 -0.76533064718E+02  0.76533064718E+02  0.00000000000E+00 0.  1.
         25    2    1    2    0    0  0.25960872430E+02 -0.10950966593E+02  0.82563481907E+02  0.15250604404E+03  0.12508986512E+03 0.  0.
          5    1    3    3  502    0  0.13093351436E+02 -0.11848643647E+02 -0.32190894338E+02  0.36953379905E+02  0.41800000000E+01 0. -1.
         -5    1    3    3    0  502  0.12867520994E+02  0.89767705493E+00  0.11475437625E+03  0.11555266413E+03  0.41800000000E+01 0. -1.
        -11    1    1    2    0    0  0.27822650973E+02 -0.18093874118E+02  0.81251740442E+01  0.34168796306E+02  0.00000000000E+00 0. -1.
         11    1    1    2    0    0 -0.53783523403E+02  0.29044840710E+02  0.41884241043E+01  0.61268369148E+02  0.00000000000E+00 0.  1.
</event>
<event>
 7    1  0.2670433E-009  0.1038443E+03  0.7561462E-02  0.1272413E+00
          3   -1    0    0  501    0  0.00000000000E+00  0.00000000000E+00  0.13195353456E+03  0.13195353456E+03  0.00000000000E+00 0. -1.
         -3   -1    0    0    0  501 -0.00000000000E+00 -0.00000000000E+00 -0.12985307099E+03  0.12985307099E+03  0.00000000000E+00 0.  1.
         25    2    1    2    0    0  0.46412614999E+02  0.27963271307E+02  0.48332774957E+02  0.14463622998E+03  0.12508999366E+03 0.  0.
          5    1    3    3  502    0  0.84842241450E+02  0.18316792550E+02  0.56919365011E+02  0.10387972534E+03  0.41800000000E+01 0.  1.
         -5    1    3    3    0  502 -0.38429626450E+02  0.96464787563E+01 -0.85865900544E+01  0.40756504638E+02  0.41800000000E+01 0.  1.
        -11    1    1    2    0    0 -0.38652966363E+02  0.11817311186E+02 -0.61723879275E+02  0.73780335626E+02  0.00000000000E+00 0.  1.
         11    1    1    2    0    0 -0.77596486362E+01 -0.39780582493E+02  0.15491567885E+02  0.43390039940E+02  0.00000000000E+00 0. -1.
</event>
<event>
 7    1  0.3990204E-009  0.1205214E+03  0.7561462E-02  0.1242239E+00
         -3   -1    0    0    0  501 -0.00000000000E+00  0.00000000000E+00  0.31065416189E+02  0.31065416189E+02  0.00000000000E+00 0.  1.
          3   -1    0    0  501    0  0.00000000000E+00 -0.00000000000E+00 -0.49639947162E+03  0.49639947162E+03  0.00000000000E+00 0. -1.
         25    2    1    2    0    0 -0.55697101482E+02  0.90489509186E+01 -0.21462993350E+03  0.25474787336E+03  0.12508565065E+03 0.  0.
          5    1    3    3  502    0 -0.15145672373E+02 -0.56303195782E+02 -0.72913813711E+02  0.93452329435E+02  0.41800000000E+01 0.  1.
         -5    1    3    3    0  502 -0.40551429109E+02  0.65352146700E+02 -0.14171611979E+03  0.16129554392E+03  0.41800000000E+01 0.  1.
        -11    1    1    2    0    0  0.20693249084E+02 -0.48555324910E+02 -0.10064182816E+03  0.11364245558E+03  0.00000000000E+00 0.  1.
         11    1    1    2    0    0  0.35003852398E+02  0.39506373992E+02 -0.15006229377E+03  0.15907455887E+03  0.00000000000E+00 0. -1.
</event>
<event>
 7    1  0.3397011E-009  0.1782797E+03  0.7561462E-02  0.1169478E+00
          1   -1    0    0  501    0  0.00000000000E+00  0.00000000000E+00  0.87722366401E+02  0.87722366401E+02  0.00000000000E+00 0. -1.
         -1   -1    0    0    0  501 -0.00000000000E+00 -0.00000000000E+00 -0.42540927168E+03  0.42540927168E+03  0.00000000000E+00 0.  1.
         25    2    1    2    0    0 -0.14384608874E+03 -0.95603468700E+01 -0.87192678129E+02  0.20983594980E+03  0.12508183413E+03 0.  0.
          5    1    3    3  502    0  0.12202434951E+02  0.27537388722E+02 -0.14252608393E+02  0.33582978462E+02  0.41800000000E+01 0.  1.
         -5    1    3    3    0  502 -0.15604852369E+03 -0.37097735592E+02 -0.72940069736E+02  0.17625297133E+03  0.41800000000E+01 0.  1.
        -11    1    1    2    0    0  0.84902477031E+02  0.45838011789E+02 -0.10761761399E+03  0.14453755488E+03  0.00000000000E+00 0. -1.
         11    1    1    2    0    0  0.58943611707E+02 -0.36277664919E+02 -0.14287661316E+03  0.15875813340E+03  0.00000000000E+00 0.  1.
</event>
<event>
 7    1  0.2670433E-009  0.1340653E+03  0.7561462E-02  0.1221545E+00
          2   -1    0    0  501    0  0.00000000000E+00  0.00000000000E+00  0.46284580689E+03  0.46284580689E+03  0.00000000000E+00 0. -1.
         -2   -1    0    0    0  501 -0.00000000000E+00 -0.00000000000E+00 -0.57695269420E+02  0.57695269420E+02  0.00000000000E+00 0.  1.
         25    2    1    2    0    0  0.72849336229E+02  0.78616404346E+02  0.30745515720E+03  0.34880253518E+03  0.12508784927E+03 0.  0.
          5    1    3    3  502    0 -0.64551001533E+01  0.80980442982E+02  0.19332510744E+03  0.20974167452E+03  0.41800000000E+01 0.  1.
         -5    1    3    3    0  502  0.79304436382E+02 -0.23640386359E+01  0.11413004976E+03  0.13906086066E+03  0.41800000000E+01 0.  1.
        -11    1    1    2    0    0 -0.16905679869E+02 -0.14783210089E+02 -0.17625941118E+02  0.28548539589E+02  0.00000000000E+00 0.  1.
         11    1    1    2    0    0 -0.55943656359E+02 -0.63833194256E+02  0.11532132139E+03  0.14319000155E+03  0.00000000000E+00 0. -1.
</event>
<event>
 7    1  0.2670433E-009  0.1045384E+03  0.7561462E-02  0.1271032E+00
          1   -1    0    0  501    0  0.00000000000E+00  0.00000000000E+00  0.51958257543E+02  0.51958257543E+02  0.00000000000E+00 0.  1.
         -1   -1    0    0    0  501 -0.00000000000E+00 -0.00000000000E+00 -0.24507393353E+03  0.24507393353E+03  0.00000000000E+00 0. -1.
         25    2    1    2    0    0 -0.29200873716E+02  0.15059806730E+02 -0.88234683300E+02  0.15656179042E+03  0.12508695407E+03 0.  0.
          5    1    3    3  502    0 -0.70453001473E+02  0.21531642217E+02 -0.87674195988E+02  0.11459264407E+03  0.41800000000E+01 0.  1.
         -5    1    3    3    0  502  0.41252127757E+02 -0.64718354870E+01 -0.56048731188E+00  0.41969146347E+02  0.41800000000E+01 0.  1.
        -11    1    1    2    0    0 -0.31415043259E+02 -0.34320934225E+01 -0.38951152954E+02  0.50158513979E+02  0.00000000000E+00 0.  1.
         11    1    1    2    0    0  0.60615916975E+02 -0.11627713307E+02 -0.65929839735E+02  0.90311886676E+02  0.00000000000E+00 0. -1.
</event>
<event>
 7    1  0.2670433E-009  0.1194374E+03  0.7561462E-02  0.1244028E+00
         -3   -1    0    0    0  501 -0.00000000000E+00  0.00000000000E+00  0.14359220275E+02  0.14359220275E+02  0.00000000000E+00 0.  1.
          3   -1    0    0  501    0  0.00000000000E+00 -0.00000000000E+00 -0.11548891483E+04  0.11548891483E+04  0.00000000000E+00 0. -1.
         25    2    1    2    0    0 -0.55610587455E+02  0.16511678057E+02 -0.78058627833E+03  0.79267115167E+03  0.12508974313E+03 0.  0.
          5    1    3    3  502    0 -0.19994004699E+02  0.65134879881E+02 -0.55318076449E+03  0.55737666205E+03  0.41800000000E+01 0. -1.
         -5    1    3    3    0  502 -0.35616582756E+02 -0.48623201823E+02 -0.22740551384E+03  0.23529448962E+03  0.41800000000E+01 0. -1.
        -11    1    1    2    0    0  0.13510063174E+02  0.38569340458E+02 -0.15098462390E+03  0.15641762204E+03  0.00000000000E+00 0. -1.
         11    1    1    2    0    0  0.42100524281E+02 -0.55081018515E+02 -0.20895902577E+03  0.22015959483E+03  0.00000000000E+00 0.  1.
</event>
<event>
 7    1  0.2670433E-009  0.1184032E+03  0.7561462E-02  0.1245755E+00
         -1   -1    0    0    0  501 -0.00000000000E+00  0.00000000000E+00  0.50286403938E+02  0.50286403938E+02  0.00000000000E+00 0.  1.
          1   -1    0    0  501    0  0.00000000000E+00 -0.00000000000E+00 -0.45283766836E+03  0.45283766836E+03  0.00000000000E+00 0. -1.
         25    2    1    2    0    0  0.53598692113E+02  0.88637698572E+02 -0.22414609738E+03  0.27680218940E+03  0.12509403535E+03 0.  0.
          5    1    3    3  502    0  0.30552904574E+02  0.10065996619E+03 -0.85342450538E+02  0.13552385412E+03  0.41800000000E+01 0. -1.
         -5    1    3    3    0  502  0.23045787539E+02 -0.12022267620E+02 -0.13880364684E+03  0.14127833528E+03  0.41800000000E+01 0. -1.
        -11    1    1    2    0    0 -0.87872161485E+01 -0.30839522948E+02  0.15179284799E+01  0.32102888502E+02  0.00000000000E+00 0.  1.
         11    1    1    2    0    0 -0.44811475965E+02 -0.57798175625E+02 -0.17992309552E+03  0.19421899440E+03  0.00000000000E+00 0. -1.
</event>
<event>
 7    1  0.2670433E-009  0.1126879E+03  0.7561462E-02  0.1255672E+00
          2   -1    0    0  501    0  0.00000000000E+00  0.00000000000E+00  0.55817265223E+03  0.55817265223E+03  0.00000000000E+00 0.  1.
         -2   -1    0    0    0  501 -0.00000000000E+00 -0.00000000000E+00 -0.51263199301E+02  0.51263199301E+02  0.00000000000E+00 0. -1.
         25    2    1    2    0    0  0.84878461508E+02 -0.40261255025E+02  0.10696846996E+03  0.18951682218E+03  0.12509616477E+03 0.  0.
          5    1    3    3  502    0  0.56320782267E+02 -0.39080025525E+02 -0.96687715853E+01  0.69355868203E+02  0.41800000000E+01 0. -1.
         -5    1    3    3    0  502  0.28557679241E+02 -0.11812295001E+01  0.11663724154E+03  0.12016095398E+03  0.41800000000E+01 0. -1.
        -11    1    1    2    0    0 -0.29938067363E+02 -0.27447829669E+02  0.11720813930E+03  0.12404603641E+03  0.00000000000E+00 0.  1.
         11    1    1    2    0    0 -0.54940394145E+02  0.67709084694E+02  0.28273284367E+03  0.29587299294E+03  0.00000000000E+00 0. -1.
</event>
<event>
 7    1  0.2670433E-009  0.8420702E+02  0.7561462E-02  0.1317519E+00
          1   -1    0    0  501    0  0.00000000000E+00  0.00000000000E+00  0.11680150353E+03  0.11680150353E+03  0.00000000000E+00 0. -1.
         -1   -1    0    0    0  501 -0.00000000000E+00 -0.00000000000E+00 -0.10736144644E+03  0.10736144644E+03  0.00000000000E+00 0.  1.
         25    2    1    2    0    0  0.23285490245E+02  0.16596636635E+02  0.12619665916E+02  0.12892845644E+03  0.12508248681E+03 0.  0.
          5    1    3    3  502    0  0.54230829534E+02 -0.76754147622E+01 -0.36435186014E+02  0.65915779929E+02  0.41800000000E+01 0. -1.
         -5    1    3    3    0  502 -0.30945339290E+02  0.24272051397E+02  0.49054851930E+02  0.63012676507E+02  0.41800000000E+01 0. -1.
        -11    1    1    2    0    0  0.18995178797E+02  0.12382435720E+02  0.27385891143E+02  0.35554585718E+02  0.00000000000E+00 0. -1.
         11    1    1    2    0    0 -0.42280669042E+02 -0.28979072355E+02 -0.30565499967E+02  0.59679907820E+02  0.00000000000E+00 0.  1.
</event>
<event>
 7    1  0.2670433E-009  0.9820078E+02  0.7561462E-02  0.1284126E+00
         -1   -1    0    0    0  501 -0.00000000000E+00  0.00000000000E+00  0.14978842472E+03  0.14978842472E+03  0.00000000000E+00 0.  1.
          1   -1    0    0  501    0  0.00000000000E+00 -0.00000000000E+00 -0.89498348460E+02  0.89498348460E+02  0.00000000000E+00 0. -1.
         25    2    1    2    0    0  0.19944245658E+02  0.21285711126E+02  0.14825484056E+02  0.12929966778E+03  0.12509098560E+03 0.  0.
          5    1    3    3  502    0 -0.43565547915E+02 -0.21102216381E+02  0.20247569791E+02  0.52637410496E+02  0.41800000000E+01 0.  1.
         -5    1    3    3    0  502  0.63509793573E+02  0.42387927507E+02 -0.54220857341E+01  0.76662257283E+02  0.41800000000E+01 0.  1.
        -11    1    1    2    0    0 -0.39186429703E+02  0.41989090852E+01 -0.14545784648E+02  0.42009367544E+02  0.00000000000E+00 0. -1.
         11    1    1    2    0    0  0.19242184045E+02 -0.25484620211E+02  0.60010376853E+02  0.67977737857E+02  0.00000000000E+00 0.  1.
</event>
<event>
 7    1  0.2670433E-009  0.1478986E+03  0.7561462E-02  0.1203079E+00
         -2   -1    0    0    0  501 -0.00000000000E+00  0.00000000000E+00  0.57166210063E+02  0.57166210063E+02  0.00000000000E+00 0.  1.
          2   -1    0    0  501    0  0.00000000000E+00 -0.00000000000E+00 -0.40513696169E+03  0.40513696169E+03  0.00000000000E+00 0. -1.
         25    2    1    2    0    0 -0.21962038695E+02 -0.97808134058E+02 -0.14093585263E+03  0.21344060158E+03  0.12508082832E+03 0.  0.
          5    1    3    3  502    0  0.20583316834E+02 -0.11298209248E+03 -0.10223500206E+03  0.15381187925E+03  0.41800000000E+01 0.  1.
         -5    1    3    3    0  502 -0.42545355529E+02  0.15173958422E+02 -0.38700850573E+02  0.59628722327E+02  0.41800000000E+01 0.  1.
        -11    1    1    2    0    0 -0.58064509838E+01  0.10631529761E+03 -0.18028342572E+03  0.20937710230E+03  0.00000000000E+00 0.  1.
         11    1    1    2    0    0  0.27768489679E+02 -0.85071635517E+01 -0.26751473276E+02  0.39485467874E+02  0.00000000000E+00 0. -1.
</event>
<event>
 7    1  0.3428054E-009  0.1178867E+03  0.7561462E-02  0.1246625E+00
          1   -1    0    0  501    0  0.00000000000E+00  0.00000000000E+00  0.74991609875E+03  0.74991609875E+03  0.00000000000E+00 0. -1.
         -1   -1    0    0    0  501 -0.00000000000E+00 -0.00000000000E+00 -0.19512931350E+02  0.19512931350E+02  0.00000000000E+00 0.  1.
         25    2    1    2    0    0  0.19742050538E+02  0.45797411573E+02  0.34916759765E+03  0.37423645569E+03  0.12509101508E+03 0.  0.
          5    1    3    3  502    0 -0.29596158616E+02  0.71714013879E+02  0.17923534065E+03  0.19534997346E+03  0.41800000000E+01 0.  1.
         -5    1    3    3    0  502  0.49338209153E+02 -0.25916602306E+02  0.16993225700E+03  0.17888648223E+03  0.41800000000E+01 0.  1.
        -11    1    1    2    0    0  0.22362864965E+02  0.15941139511E+02  0.72111589116E+02  0.77164103981E+02  0.00000000000E+00 0.  1.
         11    1    1    2    0    0 -0.42104915502E+02 -0.61738551084E+02  0.30912398063E+03  0.31802847042E+03  0.00000000000E+00 0. -1.
</event>
<event>
 7    1  0.2670433E-009  0.9521601E+02  0.7561462E-02  0.1290690E+00
         -2   -1    0    0    0  501 -0.00000000000E+00  0.00000000000E+00  0.65548654564E+02  0.65548654564E+02  0.00000000000E+00 0.  1.
          2   -1    0    0  501    0  0.00000000000E+00 -0.00000000000E+00 -0.22153311846E+03  0.22153311846E+03  0.00000000000E+00 0. -1.
         25    2    1    2    0    0 -0.32737784468E+02  0.41457800363E+02 -0.83838586083E+02  0.15959869449E+03  0.12510924435E+03 0.  0.
          5    1    3    3  502    0  0.38617856733E+02  0.10732583210E+02 -0.69716174783E+02  0.80525428452E+02  0.41800000000E+01 0.  1.
         -5    1    3    3    0  502 -0.71355641201E+02  0.30725217153E+02 -0.14122411299E+02  0.79073266033E+02  0.41800000000E+01 0.  1.
        -11    1    1    2    0    0 -0.94613217672E+01  0.40298022142E+01  0.16402398884E+02  0.19359612718E+02  0.00000000000E+00 0.  1.
         11    1    1    2    0    0  0.42199106235E+02 -0.45487602577E+02 -0.88548276699E+02  0.10812346582E+03  0.00000000000E+00 0. -1.
</event>
<event>
 7    1  0.2670433E-009  0.7214778E+02  0.7561462E-02  0.1352938E+00
          2   -1    0    0  501    0  0.00000000000E+00  0.00000000000E+00  0.97457108973E+03  0.97457108973E+03  0.00000000000E+00 0. -1.
         -2   -1    0    0    0  501 -0.00000000000E+00 -0.00000000000E+00 -0.30083218979E+02  0.30083218979E+02  0.00000000000E+00 0.  1.
         25    2    1    2    0    0  0.10077555469E+02  0.17335648329E+02  0.88500147425E+03  0.89402294685E+03  0.12508932102E+03 0.  0.
          5    1    3    3  502    0  0.50224983429E+02  0.25604575124E+02  0.76613914969E+03  0.76822185097E+03  0.41800000000E+01 0. -1.
         -5    1    3    3    0  502 -0.40147427960E+02 -0.82689267954E+01  0.11886232456E+03  0.12580109587E+03  0.41800000000E+01 0. -1.
        -11    1    1    2    0    0 -0.34632023041E+00  0.13870503628E+02 -0.20197051644E+02  0.24503707959E+02  0.00000000000E+00 0.  1.
         11    1    1    2    0    0 -0.97312352389E+01 -0.31206151957E+02  0.79683448148E+02  0.86127653910E+02  0.00000000000E+00 0. -1.
</event>
<event>
 7    1  0.2670433E-009  0.2393642E+03  0.7561462E-02  0.1120217E+00
          2   -1    0    0  501    0  0.00000000000E+00  0.00000000000E+00  0.22784621617E+03  0.22784621617E+03  0.00000000000E+00 0. -1.
         -2   -1    0    0    0  501 -0.00000000000E+00 -0.00000000000E+00 -0.59057954237E+03  0.59057954237E+03  0.00000000000E+00 0.  1.
         25    2    1    2    0    0  0.19725722574E+03  0.91029543824E+02  0.12259731860E+03  0.27905905617E+03  0.12508822225E+03 0.  0.
          5    1    3    3  502    0  0.14173463737E+03  0.19114351696E+01  0.94070045269E+02  0.17017346101E+03  0.41800000000E+01 0. -1.
         -5    1    3    3    0  502  0.55522588377E+02  0.89118108655E+02  0.28527273329E+02  0.10888559516E+03  0.41800000000E+01 0. -1.
        -11    1    1    2    0    0 -0.14398042090E+03 -0.23602517850E+02 -0.25895926267E+03  0.29723280467E+03  0.00000000000E+00 0.  1.
         11    1    1    2    0    0 -0.53276804843E+02 -0.67427025975E+02 -0.22637138213E+03  0.24213389770E+03  0.00000000000E+00 0. -1.
</event>
<event>
 7    1  0.2670433E-009  0.1192241E+03  0.7561462E-02  0.1244383E+00
          2   -1    0    0  501    0  0.00000000000E+00  0.00000000000E+00  0.98257628269E+03  0.98257628269E+03  0.00000000000E+00 0. -1.
         -2   -1    0    0    0  501 -0.00000000000E+00 -0.00000000000E+00 -0.15665685960E+02  0.15665685960E+02  0.00000000000E+00 0.  1.
         25    2    1    2    0    0  0.55936498431E+02  0.26341321398E+02  0.53081324547E+03  0.54884923920E+03  0.12510007489E+03 0.  0.
          5    1    3    3  502    0  0.14145437068E+02 -0.50152889313E+02  0.19739210186E+03  0.20419725751E+03  0.41800000000E+01 0. -1.
         -5    1    3    3    0  502  0.41791061363E+02  0.76494210711E+02  0.33342114360E+03  0.34465198169E+03  0.41800000000E+01 0. -1.
        -11    1    1    2    0    0  0.12105985219E+02  0.15009672127E+02  0.30726024468E+02  0.36275800681E+02  0.00000000000E+00 0.  1.
         11    1    1    2    0    0 -0.68042483650E+02 -0.41350993525E+02  0.40537132679E+03  0.41311692876E+03  0.00000000000E+00 0. -1.
</event>
<event>
 7    1  0.2670433E-009  0.1120093E+03  0.7561462E-02  0.1256894E+00
          2   -1    0    0  501    0  0.00000000000E+00  0.00000000000E+00  0.77742384377E+02  0.77742384377E+02  0.00000000000E+00 0. -1.
         -2   -1    0    0    0  501 -0.00000000000E+00 -0.00000000000E+00 -0.18339839246E+03  0.18339839246E+03  0.00000000000E+00 0.  1.
         25    2    1    2    0    0 -0.28082859008E+02 -0.39468950539E+02 -0.70044469064E+02  0.15132354744E+03  0.12508454475E+03 0.  0.
          5    1    3    3  502    0  0.18506938717E+02  0.36997307775E+02 -0.80913100285E+01  0.42358579547E+02  0.41800000000E+01 0.  1.
         -5    1    3    3    0  502 -0.46589797725E+02 -0.76466258314E+02 -0.61953159036E+02  0.10896496789E+03  0.41800000000E+01 0.  1.
        -11    1    1    2    0    0  0.33826271092E+02 -0.15729430515E+02 -0.39315687756E+02  0.54197369899E+02  0.00000000000E+00 0.  1.
         11    1    1    2    0    0 -0.57434120832E+01  0.55198381054E+02  0.37041487338E+01  0.55619859504E+02  0.00000000000E+00 0. -1.
</event>
<event>
 7    1  0.2670433E-009  0.1259004E+03  0.7561462E-02  0.1233669E+00
         -1   -1    0    0    0  501 -0.00000000000E+00  0.00000000000E+00  0.61401629052E+02  0.61401629052E+02  0.00000000000E+00 0.  1.
          1   -1    0    0  501    0  0.00000000000E+00 -0.00000000000E+00 -0.41655198935E+03  0.41655198935E+03  0.00000000000E+00 0. -1.
         25    2    1    2    0    0  0.72856707924E+02 -0.59211440034E+02 -0.81721535538E+02  0.17645885842E+03  0.12508087314E+03 0.  0.
          5    1    3    3  502    0  0.43175693668E+01 -0.75573773857E+02 -0.11122615328E+02  0.76623897525E+02  0.41800000000E+01 0.  1.
         -5    1    3    3    0  502  0.68539138558E+02  0.16362333823E+02 -0.70598920211E+02  0.99834960897E+02  0.41800000000E+01 0.  1.
        -11    1    1    2    0    0 -0.36840685239E+02  0.58791758138E+02 -0.85322437514E+02  0.10997102008E+03  0.00000000000E+00 0.  1.
         11    1    1    2    0    0 -0.36016022686E+02  0.41968189659E+00 -0.18810638724E+03  0.19152373990E+03  0.00000000000E+00 0. -1.
</event>
<event>
 7    1  0.2670433E-009  0.3774003E+03  0.7561462E-02  0.1051899E+00
         -2   -1    0    0    0  501 -0.00000000000E+00  0.00000000000E+00  0.27134865013E+03  0.27134865013E+03  0.00000000000E+00 0.  1.
          2   -1    0    0  501    0  0.00000000000E+00 -0.00000000000E+00 -0.62126581320E+03  0.62126581320E+03  0.00000000000E+00 0. -1.
         25    2    1    2    0    0 -0.36661140790E+03 -0.76515009283E+02 -0.37975376567E+02  0.39666948337E+03  0.12508428662E+03 0.  0.
          5    1    3    3  502    0 -0.24836175711E+03 -0.65372794625E+02 -0.82464393241E+02  0.26976844371E+03  0.41800000000E+01 0. -1.
         -5    1    3    3    0  502 -0.11824965080E+03 -0.11142214658E+02  0.44489016674E+02  0.12690103966E+03  0.41800000000E+01 0. -1.
        -11    1    1    2    0    0  0.15589095387E+03  0.29918871281E+01 -0.84715329706E+02  0.17744753584E+03  0.00000000000E+00 0.  1.
         11    1    1    2    0    0  0.21072045403E+03  0.73523122155E+02 -0.22722645680E+03  0.31849744411E+03  0.00000000000E+00 0. -1.
</event>
<event>
 7    1  0.2670433E-009  0.1135270E+03  0.7561462E-02  0.1254174E+00
         -1   -1    0    0    0  501 -0.00000000000E+00  0.00000000000E+00  0.24665755523E+02  0.24665755523E+02  0.00000000000E+00 0.  1.
          1   -1    0    0  501    0  0.00000000000E+00 -0.00000000000E+00 -0.63463561817E+03  0.63463561817E+03  0.00000000000E+00 0. -1.
         25    2    1    2    0    0  0.42809123556E+02  0.28597483519E+02 -0.24634130402E+03  0.28103902370E+03  0.12509379543E+03 0.  0.
          5    1    3    3  502    0 -0.39598568172E+02  0.95431795021E+01 -0.36880827754E+02  0.55107047935E+02  0.41800000000E+01 0. -1.
         -5    1    3    3    0  502  0.82407691728E+02  0.19054304017E+02 -0.20946047626E+03  0.22593197577E+03  0.41800000000E+01 0. -1.
        -11    1    1    2    0    0  0.51855370035E+01 -0.48998433013E+02 -0.13360079180E+03  0.14239700770E+03  0.00000000000E+00 0.  1.
         11    1    1    2    0    0 -0.47994660560E+02  0.20400949494E+02 -0.23002776683E+03  0.23586534230E+03  0.00000000000E+00 0. -1.
</event>
<event>
 7    1  0.2670433E-009  0.7734031E+02  0.7561462E-02  0.1336773E+00
          1   -1    0    0  501    0  0.00000000000E+00  0.00000000000E+00  0.52078562125E+02  0.52078562125E+02  0.00000000000E+00 0. -1.
         -1   -1    0    0    0  501 -0.00000000000E+00 -0.00000000000E+00 -0.39053298995E+03  0.39053298995E+03  0.00000000000E+00 0.  1.
         25    2    1    2    0    0 -0.31626592518E+02 -0.92094559111E+01 -0.32214357313E+03  0.34714355734E+03  0.12508841779E+03 0.  0.
          5    1    3    3  502    0  0.13825736787E+01 -0.36578377773E+02 -0.19955325680E+02  0.41899602068E+02  0.41800000000E+01 0.  1.
         -5    1    3    3    0  502 -0.33009166197E+02  0.27368921862E+02 -0.30218824745E+03  0.30524395528E+03  0.41800000000E+01 0.  1.
        -11    1    1    2    0    0  0.75654911133E+01  0.37132688633E+02  0.20744482160E+02  0.43201930061E+02  0.00000000000E+00 0. -1.
         11    1    1    2    0    0  0.24061101405E+02 -0.27923232722E+02 -0.37055336854E+02  0.52266064667E+02  0.00000000000E+00 0.  1.
</event>
<event>
 7    1  0.2670433E-009  0.1875310E+03  0.7561462E-02  0.1160707E+00
         -1   -1    0    0    0  501 -0.00000000000E+00  0.00000000000E+00  0.21483636104E+03  0.21483636104E+03  0.00000000000E+00 0.  1.
          1   -1    0    0  501    0  0.00000000000E+00 -0.00000000000E+00 -0.26084161308E+03  0.26084161308E+03  0.00000000000E+00 0. -1.
         25    2    1    2    0    0  0.16815419695E+03  0.29972174611E+02 -0.14669187806E+03  0.25756166159E+03  0.12508132247E+03 0.  0.
          5    1    3    3  502    0 -0.48789084237E+01  0.27356886570E+02 -0.54787615628E+02  0.61574006012E+02  0.41800000000E+01 0.  1.
         -5    1    3    3    0  502  0.17303310538E+03  0.26152880413E+01 -0.91904262427E+02  0.19598765558E+03  0.41800000000E+01 0.  1.
        -11    1    1    2    0    0 -0.11884621620E+03 -0.36008526910E+02  0.11193348530E+03  0.16718296040E+03  0.00000000000E+00 0.  1.
         11    1    1    2    0    0 -0.49307980754E+02  0.60363522987E+01 -0.11246859287E+02  0.50933352127E+02  0.00000000000E+00 0. -1.
</event>
<event>
 7    1  0.2670433E-009  0.1841087E+03  0.7561462E-02  0.1163885E+00
          1   -1    0    0  501    0  0.00000000000E+00  0.00000000000E+00  0.92666004085E+02  0.92666004085E+02  0.00000000000E+00 0. -1.
         -1   -1    0    0    0  501 -0.00000000000E+00 -0.00000000000E+00 -0.49901654849E+03  0.49901654849E+03  0.00000000000E+00 0.  1.
         25    2    1    2    0    0  0.15751238026E+03 -0.63889211169E+02 -0.11041089898E+03  0.23818109082E+03  0.12509070378E+03 0.  0.
          5    1    3    3  502    0  0.94391404598E+02  0.73625703029E+01 -0.10686464710E+03  0.14283371417E+03  0.41800000000E+01 0.  1.
         -5    1    3    3    0  502  0.63120975660E+02 -0.71251781472E+02 -0.35462518756E+01  0.95347376647E+02  0.41800000000E+01 0.  1.
        -11    1    1    2    0    0 -0.12302647548E+03  0.23840345825E+02 -0.13542368451E+03  0.18450867211E+03  0.00000000000E+00 0. -1.
         11    1    1    2    0    0 -0.34485904781E+02  0.40048865344E+02 -0.16051596091E+03  0.16899278965E+03  0.00000000000E+00 0.  1.
</event>
<event>
 7    1  0.2670433E-009  0.1510317E+03  0.7561462E-02  0.1199211E+00
         -4   -1    0    0    0  501 -0.00000000000E+00  0.00000000000E+00  0.11047317433E+03  0.11047317433E+03  0.00000000000E+00 0.  1.
          4   -1    0    0  501    0  0.00000000000E+00 -0.00000000000E+00 -0.28223756211E+03  0.28223756211E+03  0.00000000000E+00 0. -1.
         25    2    1    2    0    0  0.60640322232E+02  0.11720259980E+03 -0.41663015497E+02  0.18654127186E+03  0.12509253042E+03 0.  0.
          5    1    3    3  502    0  0.22150930651E+02  0.83045056160E-01 -0.57891661690E+02  0.62125578617E+02  0.41800000000E+01 0. -1.
         -5    1    3    3    0  502  0.38489391581E+02  0.11711955475E+03  0.16228646193E+02  0.12441569325E+03  0.41800000000E+01 0. -1.
        -11    1    1    2    0    0 -0.50424034443E+02 -0.13821557231E+02 -0.65610193106E+02  0.83894672853E+02  0.00000000000E+00 0. -1.
         11    1    1    2    0    0 -0.10216287790E+02 -0.10338104257E+03 -0.64491179178E+02  0.12227479172E+03  0.00000000000E+00 0.  1.
</event>
<event>
 7    1  0.2670433E-009  0.1452545E+03  0.7561462E-02  0.1206429E+00
         -1   -1    0    0    0  501 -0.00000000000E+00  0.00000000000E+00  0.63863379053E+02  0.63863379053E+02  0.00000000000E+00 0.  1.
          1   -1    0    0  501    0  0.00000000000E+00 -0.00000000000E+00 -0.34748231387E+03  0.34748231387E+03  0.00000000000E+00 0. -1.
         25    2    1    2    0    0  0.78795488513E+02  0.58489549212E+02 -0.11300917360E+03  0.19505913434E+03  0.12508891315E+03 0.  0.
          5    1    3    3  502    0 -0.33198437224E+02  0.24988749861E+01 -0.20434288530E+02  0.39286297332E+02  0.41800000000E+01 0.  1.
         -5    1    3    3    0  502  0.11199392574E+03  0.55990674226E+02 -0.92574885074E+02  0.15577283701E+03  0.41800000000E+01 0.  1.
        -11    1    1    2    0    0 -0.56003686288E+02  0.12273077413E+02 -0.59752688391E+02  0.82809571168E+02  0.00000000000E+00 0.  1.
         11    1    1    2    0    0 -0.22791802225E+02 -0.70762626625E+02 -0.11085707283E+03  0.13347698742E+03  0.00000000000E+00 0. -1.
</event>
<event>
 7    1  0.2670433E-009  0.1602059E+03  0.7561462E-02  0.1188465E+00
         -1   -1    0    0    0  501 -0.00000000000E+00  0.00000000000E+00  0.18325013715E+03  0.18325013715E+03  0.00000000000E+00 0.  1.
          1   -1    0    0  501    0  0.00000000000E+00 -0.00000000000E+00 -0.18242702497E+03  0.18242702497E+03  0.00000000000E+00 0. -1.
         25    2    1    2    0    0 -0.70103004989E+02 -0.10466829714E+03  0.74332090433E+02  0.19246484648E+03  0.12509026233E+03 0.  0.
          5    1    3    3  502    0  0.12765592928E+02  0.16416085683E+02 -0.97036176506E+01  0.23325540240E+02  0.41800000000E+01 0. -1.
         -5    1    3    3    0  502 -0.82868597918E+02 -0.12108438282E+03  0.84035708084E+02  0.16913930624E+03  0.41800000000E+01 0. -1.
        -11    1    1    2    0    0  0.39603626611E+02  0.11386737305E+03 -0.40106087105E+02  0.12705402044E+03  0.00000000000E+00 0.  1.
         11    1    1    2    0    0  0.30499378379E+02 -0.91990759153E+01 -0.33402891142E+02  0.46158295201E+02  0.00000000000E+00 0. -1.
</event>
<event>
 7    1  0.2670433E-009  0.1154132E+03  0.7561462E-02  0.1250862E+00
          2   -1    0    0  501    0  0.00000000000E+00  0.00000000000E+00  0.66377288613E+03  0.66377288613E+03  0.00000000000E+00 0. -1.
         -2   -1    0    0    0  501 -0.00000000000E+00 -0.00000000000E+00 -0.24173291934E+02  0.24173291934E+02  0.00000000000E+00 0.  1.
         25    2    1    2    0    0 -0.18481923495E+02 -0.61170435073E+02  0.38846919107E+03  0.41308563988E+03  0.12509208545E+03 0.  0.
          5    1    3    3  502    0 -0.51468221679E+02 -0.68416539611E+02  0.15476317671E+03  0.17691499089E+03  0.41800000000E+01 0.  1.
         -5    1    3    3    0  502  0.32986298184E+02  0.72461045376E+01  0.23370601436E+03  0.23617064900E+03  0.41800000000E+01 0.  1.
        -11    1    1    2    0    0 -0.18597178393E+02  0.70444835552E+02  0.17826209377E+03  0.19257648864E+03  0.00000000000E+00 0. -1.
         11    1    1    2    0    0  0.37079101888E+02 -0.92744004789E+01  0.72868309347E+02  0.82284049537E+02  0.00000000000E+00 0.  1.
</event>
<event>
 7    1  0.2670433E-009  0.2056537E+03  0.7561462E-02  0.1145055E+00
          1   -1    0    0  501    0  0.00000000000E+00  0.00000000000E+00  0.14927357408E+03  0.14927357408E+03  0.00000000000E+00 0. -1.
         -1   -1    0    0    0  501 -0.00000000000E+00 -0.00000000000E+00 -0.32755400969E+03  0.32755400969E+03  0.00000000000E+00 0.  1.
         25    2    1    2    0    0 -0.17177363459E+03 -0.69360322819E+02 -0.14793931735E+03  0.26805260589E+03  0.12509645072E+03 0.  0.
          5    1    3    3  502    0 -0.15145550391E+03 -0.20171226314E+02 -0.58041836516E+02  0.16349915970E+03  0.41800000000E+01 0. -1.
         -5    1    3    3    0  502 -0.20318130677E+02 -0.49189096505E+02 -0.89897480835E+02  0.10455344619E+03  0.41800000000E+01 0. -1.
        -11    1    1    2    0    0  0.35979649567E+02  0.58715707234E+02 -0.22072625157E+02  0.72313693311E+02  0.00000000000E+00 0.  1.
         11    1    1    2    0    0  0.13579398502E+03  0.10644615586E+02 -0.82684930977E+01  0.13646128457E+03  0.00000000000E+00 0. -1.
</event>
<event>
 7    1  0.2670433E-009  0.1008990E+03  0.7561462E-02  0.1278417E+00
          2   -1    0    0  501    0  0.00000000000E+00  0.00000000000E+00  0.30840545469E+03  0.30840545469E+03  0.00000000000E+00 0. -1.
         -2   -1    0    0    0  501 -0.00000000000E+00 -0.00000000000E+00 -0.50389228273E+02  0.50389228273E+02  0.00000000000E+00 0.  1.
         25    2    1    2    0    0 -0.28617387067E+01  0.51806938765E+02  0.19397921032E+03  0.23657406009E+03  0.12508878213E+03 0.  0.
          5    1    3    3  502    0 -0.52493992184E+02  0.22955961657E+02  0.15937615690E+03  0.16941318478E+03  0.41800000000E+01 0. -1.
         -5    1    3    3    0  502  0.49632253477E+02  0.28850977108E+02  0.34603053427E+02  0.67160875305E+02  0.41800000000E+01 0. -1.
        -11    1    1    2    0    0  0.34806282881E+02 -0.39269683948E+02  0.34473937294E+01  0.52587735537E+02  0.00000000000E+00 0.  1.
         11    1    1    2    0    0 -0.31944544174E+02 -0.12537254817E+02  0.60589622361E+02  0.69632887336E+02  0.00000000000E+00 0. -1.
</event>
<event>
 7    1  0.2670433E-009  0.1075977E+03  0.7561462E-02  0.1265084E+00
         -1   -1    0    0    0  501 -0.00000000000E+00  0.00000000000E+00  0.87658978399E+02  0.87658978399E+02  0.00000000000E+00 0.  1.
          1   -1    0    0  501    0  0.00000000000E+00 -0.00000000000E+00 -0.15367657720E+03  0.15367657720E+03  0.00000000000E+00 0. -1.
         25    2    1    2    0    0  0.78029878680E+01 -0.38853000313E+02 -0.26784049477E+02  0.13392249278E+03  0.12508959394E+03 0.  0.
          5    1    3    3  502    0 -0.23150297440E+02 -0.74743414331E+02  0.18728674596E+01  0.78380445839E+02  0.41800000000E+01 0. -1.
         -5    1    3    3    0  502  0.30953285308E+02  0.35890414018E+02 -0.28656916937E+02  0.55542046938E+02  0.41800000000E+01 0. -1.
        -11    1    1    2    0    0  0.35414869203E+02  0.84226002539E+01  0.71412835320E+01  0.37096510432E+02  0.00000000000E+00 0.  1.
         11    1    1    2    0    0 -0.43217857071E+02  0.30430400059E+02 -0.46374832853E+02  0.70316552388E+02  0.00000000000E+00 0. -1.
</event>
<event>
 7    1  0.2670433E-009  0.7829320E+02  0.7561462E-02  0.1333966E+00
          1   -1    0    0  501    0  0.00000000000E+00  0.00000000000E+00  0.56993317665E+02  0.56993317665E+02  0.00000000000E+00 0. -1.
         -1   -1    0    0    0  501 -0.00000000000E+00 -0.00000000000E+00 -0.31699652987E+03  0.31699652987E+03  0.00000000000E+00 0.  1.
         25    2    1    2    0    0  0.61502042588E+02 -0.34174156954E+02 -0.19641454269E+03  0.24325853414E+03  0.12508264310E+03 0.  0.
          5    1    3    3  502    0  0.19287646513E+02 -0.28927558025E+02 -0.19742091051E+03  0.20050263148E+03  0.41800000000E+01 0.  1.
         -5    1    3    3    0  502  0.42214396075E+02 -0.52465989291E+01  0.10063678234E+01  0.42755902663E+02  0.41800000000E+01 0.  1.
        -11    1    1    2    0    0 -0.19309111143E+02  0.30987034812E+02 -0.77925942935E+02  0.86055160693E+02  0.00000000000E+00 0.  1.
         11    1    1    2    0    0 -0.42192931445E+02  0.31871221415E+01  0.14337273418E+02  0.44676152705E+02  0.00000000000E+00 0. -1.
</event>
<event>
 7    1  0.2670433E-009  0.1193124E+03  0.7561462E-02  0.1244236E+00
         -2   -1    0    0    0  501 -0.00000000000E+00  0.00000000000E+00  0.17834269396E+03  0.17834269396E+03  0.00000000000E+00 0.  1.
          2   -1    0    0  501    0  0.00000000000E+00 -0.00000000000E+00 -0.89449106075E+02  0.89449106075E+02  0.00000000000E+00 0. -1.
         25    2    1    2    0    0 -0.12027591682E+02 -0.21240334384E+02  0.53006552379E+01  0.12755908811E+03  0.12508960487E+03 0.  0.
          5    1    3    3  502    0 -0.60898165015E+02  0.19009405042E+02  0.60123614062E+00  0.63935732319E+02  0.41800000000E+01 0. -1.
         -5    1    3    3    0  502  0.48870573334E+02 -0.40249739426E+02  0.46994190972E+01  0.63623355788E+02  0.41800000000E+01 0. -1.
        -11    1    1    2    0    0 -0.31793801267E+02 -0.30073194035E+02  0.22509303346E+02  0.49212920413E+02  0.00000000000E+00 0. -1.
         11    1    1    2    0    0  0.43821392948E+02  0.51313528419E+02  0.61083629300E+02  0.91019791514E+02  0.00000000000E+00 0.  1.
</event>
<event>
 7    1  0.2670433E-009  0.4805318E+03  0.7561462E-02  0.1018989E+00
          1   -1    0    0  501    0  0.00000000000E+00  0.00000000000E+00  0.30672955302E+03  0.30672955302E+03  0.00000000000E+00 0. -1.
         -1   -1    0    0    0  501 -0.00000000000E+00 -0.00000000000E+00 -0.83161043288E+03  0.83161043288E+03  0.00000000000E+00 0.  1.
         25    2    1    2    0    0  0.45766026405E+03 -0.11466725223E+03 -0.10301650762E+03  0.49886063681E+03  0.12509211842E+03 0.  0.
          5    1    3    3  502    0  0.36700250301E+03 -0.14136564138E+03 -0.88644822627E+02  0.40317546895E+03  0.41800000000E+01 0.  1.
         -5    1    3    3    0  502  0.90657761039E+02  0.26698389150E+02 -0.14371684994E+02  0.95685167865E+02  0.41800000000E+01 0.  1.
        -11    1    1    2    0    0 -0.32823937693E+03  0.98666267504E+02 -0.35294213908E+03  0.49197995330E+03  0.00000000000E+00 0.  1.
         11    1    1    2    0    0 -0.12942088712E+03  0.16000984729E+02 -0.68922233157E+02  0.14749939579E+03  0.00000000000E+00 0. -1.
</event>
<event>
 7    1  0.2670433E-009  0.1372283E+03  0.7561462E-02  0.1217108E+00
          2   -1    0    0  501    0  0.00000000000E+00  0.00000000000E+00  0.34568819182E+03  0.34568819182E+03  0.00000000000E+00 0. -1.
         -2   -1    0    0    0  501 -0.00000000000E+00 -0.00000000000E+00 -0.65189700986E+02  0.65189700986E+02  0.00000000000E+00 0.  1.
         25    2    1    2    0    0  0.69128331670E+02 -0.70945585933E+02  0.19143070170E+03  0.24921141145E+03  0.12509441092E+03 0.  0.
          5    1    3    3  502    0 -0.23795866563E+02 -0.28332207130E+02  0.64058330410E+01  0.37781798836E+02  0.41800000000E+01 0. -1.
         -5    1    3    3    0  502  0.92924198233E+02 -0.42613378803E+02  0.18502486865E+03  0.21142961262E+03  0.41800000000E+01 0. -1.
        -11    1    1    2    0    0 -0.90785483783E+02  0.67147586987E+02  0.75319443340E+02  0.13573437681E+03  0.00000000000E+00 0. -1.
         11    1    1    2    0    0  0.21657152112E+02  0.37979989462E+01  0.13748345796E+02  0.25932104537E+02  0.00000000000E+00 0.  1.
</event>
<event>
 7    1  0.2670433E-009  0.9086267E+02  0.7561462E-02  0.1300776E+00
         -2   -1    0    0    0  501 -0.00000000000E+00  0.00000000000E+00  0.63373470903E+02  0.63373470903E+02  0.00000000000E+00 0.  1.
          2   -1    0    0  501    0  0.00000000000E+00 -0.00000000000E+00 -0.21486155951E+03  0.21486155951E+03  0.00000000000E+00 0. -1.
         25    2    1    2    0    0 -0.11741535549E+02  0.42538756303E+02 -0.85049653322E+02  0.15756637107E+03  0.12508520423E+03 0.  0.
          5    1    3    3  502    0 -0.27432764629E+02 -0.14021326865E+02  0.20134396614E+02  0.37040795203E+02  0.41800000000E+01 0. -1.
         -5    1    3    3    0  502  0.15691229080E+02  0.56560083168E+02 -0.10518404994E+03  0.12052557587E+03  0.41800000000E+01 0. -1.
        -11    1    1    2    0    0  0.46492485434E+02 -0.26521313342E+02 -0.13240382244E+02  0.55138362191E+02  0.00000000000E+00 0.  1.
         11    1    1    2    0    0 -0.34750949884E+02 -0.16017442961E+02 -0.53198053038E+02  0.65530297145E+02  0.00000000000E+00 0. -1.
</event>
<event>
 7    1  0.2670433E-009  0.8501025E+02  0.7561462E-02  0.1315406E+00
          2   -1    0    0  501    0  0.00000000000E+00  0.00000000000E+00  0.45586442970E+03  0.45586442970E+03  0.00000000000E+00 0. -1.
         -2   -1    0    0    0  501 -0.00000000000E+00 -0.00000000000E+00 -0.42824278206E+02  0.42824278206E+02  0.00000000000E+00 0.  1.
         25    2    1    2    0    0 -0.87066921596E+01  0.41117148340E+02  0.37005052149E+03  0.39287557573E+03  0.12508958060E+03 0.  0.
          5    1    3    3  502    0  0.27226201601E+02  0.68215712671E+02  0.13720302040E+03  0.15568169679E+03  0.41800000000E+01 0.  1.
         -5    1    3    3    0  502 -0.35932893761E+02 -0.27098564331E+02  0.23284750109E+03  0.23719387894E+03  0.41800000000E+01 0.  1.
        -11    1    1    2    0    0 -0.30115920064E+01 -0.39276878125E+02 -0.18264925945E+02  0.43420621384E+02  0.00000000000E+00 0.  1.
         11    1    1    2    0    0  0.11718284166E+02 -0.18402702156E+01  0.61254555945E+02  0.62392510787E+02  0.00000000000E+00 0. -1.
</event>
<event>
 7    1  0.2670433E-009  0.1083591E+03  0.7561462E-02  0.1263639E+00
          2   -1    0    0  501    0  0.00000000000E+00  0.00000000000E+00  0.18272454734E+03  0.18272454734E+03  0.00000000000E+00 0. -1.
         -2   -1    0    0    0  501 -0.00000000000E+00 -0.00000000000E+00 -0.72809221375E+02  0.72809221375E+02  0.00000000000E+00 0.  1.
         25    2    1    2    0    0  0.70556787884E+01  0.44002058766E+02  0.87682978315E+02  0.15913259845E+03  0.12509562512E+03 0.  0.
          5    1    3    3  502    0 -0.11230045673E+02 -0.37569023395E+02  0.58382343896E+02  0.70452224404E+02  0.41800000000E+01 0.  1.
         -5    1    3    3    0  502  0.18285724462E+02  0.81571082161E+02  0.29300634419E+02  0.88680374048E+02  0.41800000000E+01 0.  1.
        -11    1    1    2    0    0  0.33948794475E+02 -0.71031046034E+00  0.49227762685E+01  0.34311206820E+02  0.00000000000E+00 0.  1.
         11    1    1    2    0    0 -0.41004473264E+02 -0.43291748306E+02  0.17309571384E+02  0.62089963444E+02  0.00000000000E+00 0. -1.
</event>
<event>
 7    1  0.2670433E-009  0.1116380E+03  0.7561462E-02  0.1257566E+00
          2   -1    0    0  501    0  0.00000000000E+00  0.00000000000E+00  0.14851853468E+03  0.14851853468E+03  0.00000000000E+00 0. -1.
         -2   -1    0    0    0  501 -0.00000000000E+00 -0.00000000000E+00 -0.13453318822E+03  0.13453318822E+03  0.00000000000E+00 0.  1.
         25    2    1    2    0    0  0.66001835390E+02 -0.36904221929E+02  0.57499717972E+02  0.15707277445E+03  0.12508986784E+03 0.  0.
          5    1    3    3  502    0  0.60806291607E+02  0.84676029706E+01 -0.21954030215E+02  0.65334196572E+02  0.41800000000E+01 0.  1.
         -5    1    3    3    0  502  0.51955437827E+01 -0.45371824899E+02  0.79453748188E+02  0.91738577877E+02  0.41800000000E+01 0.  1.
        -11    1    1    2    0    0 -0.36166315667E+02 -0.27147771785E+02 -0.49810829561E+01  0.45495220510E+02  0.00000000000E+00 0. -1.
         11    1    1    2    0    0 -0.29835519722E+02  0.64051993713E+02 -0.38533288564E+02  0.80483727941E+02  0.00000000000E+00 0.  1.
</event>
<event>
 7    1  0.2670433E-009  0.6756968E+02  0.7561462E-02  0.1368558E+00
         -1   -1    0    0    0  501 -0.00000000000E+00  0.00000000000E+00  0.66655785931E+02  0.66655785931E+02  0.00000000000E+00 0.  1.
          1   -1    0    0  501    0  0.00000000000E+00 -0.00000000000E+00 -0.21084071786E+03  0.21084071786E+03  0.00000000000E+00 0. -1.
         25    2    1    2    0    0 -0.25699999698E+02  0.38522760422E+02 -0.65316960141E+02  0.14852749823E+03  0.12509843881E+03 0.  0.
          5    1    3    3  502    0  0.15714092333E+02  0.79451760001E-01  0.32012961356E+02  0.35906003749E+02  0.41800000000E+01 0. -1.
         -5    1    3    3    0  502 -0.41414092032E+02  0.38443308662E+02 -0.97329921497E+02  0.11262149448E+03  0.41800000000E+01 0. -1.
        -11    1    1    2    0    0  0.14561096750E+02 -0.46363113692E+02  0.34120296595E+00  0.48597122027E+02  0.00000000000E+00 0.  1.
         11    1    1    2    0    0  0.11138902949E+02  0.78403532708E+01 -0.79209174749E+02  0.80371883534E+02  0.00000000000E+00 0. -1.
</event>
<event>
 7    1  0.2670433E-009  0.9222860E+02  0.7561462E-02  0.1297543E+00
          2   -1    0    0  501    0  0.00000000000E+00  0.00000000000E+00  0.30244743159E+02  0.30244743159E+02  0.00000000000E+00 0. -1.
         -2   -1    0    0    0  501 -0.00000000000E+00 -0.00000000000E+00 -0.60789127610E+03  0.60789127610E+03  0.00000000000E+00 0.  1.
         25    2    1    2    0    0  0.29084222223E+02 -0.12958601393E+02 -0.49656306237E+03  0.51306431330E+03  0.12508516034E+03 0.  0.
          5    1    3    3  502    0  0.60491461289E+02 -0.83287772339E+00 -0.45674788162E+03  0.46075591188E+03  0.41800000000E+01 0. -1.
         -5    1    3    3    0  502 -0.31407239065E+02 -0.12125723670E+02 -0.39815180754E+02  0.52308401416E+02  0.41800000000E+01 0. -1.
        -11    1    1    2    0    0  0.21323731369E+02 -0.20346776756E+02 -0.47628826936E+02  0.56010695400E+02  0.00000000000E+00 0.  1.
         11    1    1    2    0    0 -0.50407953593E+02  0.33305378149E+02 -0.33454643636E+02  0.69061010562E+02  0.00000000000E+00 0. -1.
</event>
<event>
 7    1  0.2670433E-009  0.9769653E+02  0.7561462E-02  0.1285216E+00
          2   -1    0    0  501    0  0.00000000000E+00  0.00000000000E+00  0.48782733494E+03  0.48782733494E+03  0.00000000000E+00 0. -1.
         -2   -1    0    0    0  501 -0.00000000000E+00 -0.00000000000E+00 -0.27780478660E+02  0.27780478660E+02  0.00000000000E+00 0.  1.
         25    2    1    2    0    0  0.38603430168E+02 -0.75180924596E+01  0.26385353315E+03  0.29464020309E+03  0.12508963102E+03 0.  0.
          5    1    3    3  502    0 -0.16287611706E+02 -0.29934818432E+02  0.21493332925E+03  0.21765842063E+03  0.41800000000E+01 0. -1.
         -5    1    3    3    0  502  0.54891041874E+02  0.22416725973E+02  0.48920203899E+02  0.76981782461E+02  0.41800000000E+01 0. -1.
        -11    1    1    2    0    0 -0.59151379087E+02  0.33902137161E+02  0.13455053468E+03  0.15083794925E+03  0.00000000000E+00 0. -1.
         11    1    1    2    0    0  0.20547948919E+02 -0.26384044702E+02  0.61642788457E+02  0.70129661259E+02  0.00000000000E+00 0.  1.
</event>
<event>
 7    1  0.2670433E-009  0.2369366E+03  0.7561462E-02  0.1121851E+00
         -1   -1    0    0    0  501 -0.00000000000E+00  0.00000000000E+00  0.57034053299E+02  0.57034053299E+02  0.00000000000E+00 0.  1.
          1   -1    0    0  501    0  0.00000000000E+00 -0.00000000000E+00 -0.12163445095E+04  0.12163445095E+04  0.00000000000E+00 0. -1.
         25    2    1    2    0    0  0.15136147444E+03 -0.15451240285E+03 -0.34929397310E+03  0.42946334543E+03  0.12509239321E+03 0.  0.
          5    1    3    3  502    0  0.14312802952E+03 -0.16801738656E+03 -0.27127301989E+03  0.34974562005E+03  0.41800000000E+01 0.  1.
         -5    1    3    3    0  502  0.82334449196E+01  0.13504983703E+02 -0.78020953212E+02  0.79717725383E+02  0.41800000000E+01 0.  1.
        -11    1    1    2    0    0 -0.12223235329E+03  0.16539653763E+03 -0.70771480323E+03  0.73699186261E+03  0.00000000000E+00 0.  1.
         11    1    1    2    0    0 -0.29129121146E+02 -0.10884134773E+02 -0.10230167986E+03  0.10692335475E+03  0.00000000000E+00 0. -1.
</event>
<event>
 7    1  0.2670433E-009  0.1170015E+03  0.7561462E-02  0.1248127E+00
          1   -1    0    0  501    0  0.00000000000E+00  0.00000000000E+00  0.17236891744E+04  0.17236891744E+04  0.00000000000E+00 0. -1.
         -1   -1    0    0    0  501 -0.00000000000E+00 -0.00000000000E+00 -0.10614295593E+02  0.10614295593E+02  0.00000000000E+00 0.  1.
         25    2    1    2    0    0 -0.35036634757E+01  0.56295066494E+02  0.13223518967E+04  0.13294521221E+04  0.12508795292E+03 0.  0.
          5    1    3    3  502    0 -0.62790158667E+02  0.31202096730E+02  0.81354355038E+03  0.81657011679E+03  0.41800000000E+01 0.  1.
         -5    1    3    3    0  502  0.59286495192E+02  0.25092969765E+02  0.50880834635E+03  0.51288200530E+03  0.41800000000E+01 0.  1.
        -11    1    1    2    0    0  0.24106842799E+02  0.12697338317E+02  0.53631057572E+02  0.60155237564E+02  0.00000000000E+00 0.  1.
         11    1    1    2    0    0 -0.20603179323E+02 -0.68992404811E+02  0.33709192454E+03  0.34469611038E+03  0.00000000000E+00 0. -1.
</event>
<event>
 7    1  0.2670433E-009  0.1218878E+03  0.7561462E-02  0.1240015E+00
          2   -1    0    0  501    0  0.00000000000E+00  0.00000000000E+00  0.37885060235E+03  0.37885060235E+03  0.00000000000E+00 0. -1.
         -2   -1    0    0    0  501 -0.00000000000E+00 -0.00000000000E+00 -0.58894729435E+02  0.58894729435E+02  0.00000000000E+00 0.  1.
         25    2    1    2    0    0 -0.10072742115E+03  0.29409437384E+02  0.19382022865E+03  0.25342474905E+03  0.12508754542E+03 0.  0.
          5    1    3    3  502    0  0.92070437933E+01  0.22879012060E+02 -0.55496741945E+01  0.25622063382E+02  0.41800000000E+01 0. -1.
         -5    1    3    3    0  502 -0.10993446494E+03  0.65304253238E+01  0.19936990285E+03  0.22780268567E+03  0.41800000000E+01 0. -1.
        -11    1    1    2    0    0  0.30169705114E+02 -0.22546017702E+02 -0.21779235567E+01  0.37726348510E+02  0.00000000000E+00 0.  1.
         11    1    1    2    0    0  0.70557716034E+02 -0.68634196821E+01  0.12831356783E+03  0.14659423423E+03  0.00000000000E+00 0. -1.
</event>
<event>
 7    1  0.2670433E-009  0.9888330E+02  0.7561462E-02  0.1282662E+00
          1   -1    0    0  501    0  0.00000000000E+00  0.00000000000E+00  0.78391185954E+03  0.78391185954E+03  0.00000000000E+00 0. -1.
         -1   -1    0    0    0  501 -0.00000000000E+00 -0.00000000000E+00 -0.19487872593E+02  0.19487872593E+02  0.00000000000E+00 0.  1.
         25    2    1    2    0    0  0.44486054990E+02  0.12169857402E+02  0.54016845327E+03  0.55637864132E+03  0.12509244621E+03 0.  0.
          5    1    3    3  502    0  0.60341782059E+01  0.44575680511E+02  0.68731620892E+02  0.82249077260E+02  0.41800000000E+01 0.  1.
         -5    1    3    3    0  502  0.38451876784E+02 -0.32405823109E+02  0.47143683237E+03  0.47412956406E+03  0.41800000000E+01 0.  1.
        -11    1    1    2    0    0 -0.62135893926E+02 -0.36507587968E+02  0.17578027579E+03  0.18997994276E+03  0.00000000000E+00 0.  1.
         11    1    1    2    0    0  0.17649838936E+02  0.24337730566E+02  0.48475257886E+02  0.57041148049E+02  0.00000000000E+00 0. -1.
</event>
<event>
 7    1  0.2670433E-009  0.1559775E+03  0.7561462E-02  0.1193314E+00
         -1   -1    0    0    0  501 -0.00000000000E+00  0.00000000000E+00  0.19953558718E+03  0.19953558718E+03  0.00000000000E+00 0.  1.
          1   -1    0    0  501    0  0.00000000000E+00 -0.00000000000E+00 -0.17426967626E+03  0.17426967626E+03  0.00000000000E+00 0. -1.
         25    2    1    2    0    0 -0.95617507913E+02 -0.10210567834E+03  0.71859718969E+02  0.20094665122E+03  0.12508980797E+03 0.  0.
          5    1    3    3  502    0 -0.92837553308E+02 -0.73747068667E+02 -0.51280816492E+01  0.11874852025E+03  0.41800000000E+01 0.  1.
         -5    1    3    3    0  502 -0.27799546042E+01 -0.28358609673E+02  0.76987800618E+02  0.82198130966E+02  0.41800000000E+01 0.  1.
        -11    1    1    2    0    0 -0.16038241547E+02  0.21424913973E+02  0.18680076760E+01  0.26827999988E+02  0.00000000000E+00 0.  1.
         11    1    1    2    0    0  0.11165574946E+03  0.80680764368E+02 -0.48461815716E+02  0.14603061223E+03  0.00000000000E+00 0. -1.
</event>
<event>
 7    1  0.2670433E-009  0.1349537E+03  0.7561462E-02  0.1220285E+00
         -4   -1    0    0    0  501 -0.00000000000E+00  0.00000000000E+00  0.17070387895E+03  0.17070387895E+03  0.00000000000E+00 0.  1.
          4   -1    0    0  501    0  0.00000000000E+00 -0.00000000000E+00 -0.18936791937E+03  0.18936791937E+03  0.00000000000E+00 0. -1.
         25    2    1    2    0    0 -0.95490633494E+02  0.36212037928E+02  0.89940067752E+02  0.18483873841E+03  0.12508545341E+03 0.  0.
          5    1    3    3  502    0  0.32221687131E+01 -0.18701866016E+02  0.66653808037E+02  0.69428702203E+02  0.41800000000E+01 0.  1.
         -5    1    3    3    0  502 -0.98712802207E+02  0.54913903943E+02  0.23286259715E+02  0.11541003621E+03  0.41800000000E+01 0.  1.
        -11    1    1    2    0    0 -0.12933870940E+02  0.13027160306E+02 -0.12501200577E+02  0.22209726225E+02  0.00000000000E+00 0.  1.
         11    1    1    2    0    0  0.10842450443E+03 -0.49239198234E+02 -0.96102907592E+02  0.15302333369E+03  0.00000000000E+00 0. -1.
</event>
<event>
 7    1  0.2670433E-009  0.1004027E+03  0.7561462E-02  0.1279451E+00
         -1   -1    0    0    0  501 -0.00000000000E+00  0.00000000000E+00  0.10879032033E+03  0.10879032033E+03  0.00000000000E+00 0.  1.
          1   -1    0    0  501    0  0.00000000000E+00 -0.00000000000E+00 -0.17457810859E+03  0.17457810859E+03  0.00000000000E+00 0. -1.
         25    2    1    2    0    0  0.10473008505E+02 -0.81725965930E+02 -0.64518497578E+02  0.16309355243E+03  0.12509217761E+03 0.  0.
          5    1    3    3  502    0  0.77235491115E+01 -0.88598967968E+02  0.86320966043E+01  0.89450633467E+02  0.41800000000E+01 0.  1.
         -5    1    3    3    0  502  0.27494593935E+01  0.68730020378E+01 -0.73150594182E+02  0.73642918962E+02  0.41800000000E+01 0.  1.
        -11    1    1    2    0    0  0.26136746059E+02  0.39751177733E+02 -0.31349349373E+02  0.56974269033E+02  0.00000000000E+00 0. -1.
         11    1    1    2    0    0 -0.36609754564E+02  0.41974788197E+02  0.30080058691E+02  0.63300607456E+02  0.00000000000E+00 0.  1.
</event>
<event>
 7    1  0.2670433E-009  0.1140027E+03  0.7561462E-02  0.1253332E+00
         -1   -1    0    0    0  501 -0.00000000000E+00  0.00000000000E+00  0.25632482837E+02  0.25632482837E+02  0.00000000000E+00 0.  1.
          1   -1    0    0  501    0  0.00000000000E+00 -0.00000000000E+00 -0.77773035425E+03  0.77773035425E+03  0.00000000000E+00 0. -1.
         25    2    1    2    0    0  0.34793835013E+02 -0.51003889867E+02 -0.22348536885E+03  0.26344520458E+03  0.12508260466E+03 0.  0.
          5    1    3    3  502    0 -0.21507806523E+00  0.29786619646E+02 -0.13587347431E+03  0.13916307840E+03  0.41800000000E+01 0.  1.
         -5    1    3    3    0  502  0.35008913078E+02 -0.80790509513E+02 -0.87611894545E+02  0.12428212618E+03  0.41800000000E+01 0.  1.
        -11    1    1    2    0    0 -0.23406878454E+02  0.77489601205E+02 -0.40109273054E+03  0.40917954341E+03  0.00000000000E+00 0.  1.
         11    1    1    2    0    0 -0.11386956559E+02 -0.26485711338E+02 -0.12751977202E+03  0.13073808910E+03  0.00000000000E+00 0. -1.
</event>
<event>
 7    1  0.2670433E-009  0.2343264E+03  0.7561462E-02  0.1123631E+00
          2   -1    0    0  501    0  0.00000000000E+00  0.00000000000E+00  0.92394784005E+03  0.92394784005E+03  0.00000000000E+00 0. -1.
         -2   -1    0    0    0  501 -0.00000000000E+00 -0.00000000000E+00 -0.89740978707E+02  0.89740978707E+02  0.00000000000E+00 0.  1.
         25    2    1    2    0    0 -0.17233141875E+03 -0.13347903307E+03  0.15611149517E+03  0.29585949519E+03  0.12508905554E+03 0.  0.
          5    1    3    3  502    0 -0.15650293381E+01 -0.67241309670E+02  0.32250504669E+02  0.74708838128E+02  0.41800000000E+01 0.  1.
         -5    1    3    3    0  502 -0.17076638941E+03 -0.66237723399E+02  0.12386099050E+03  0.22115065706E+03  0.41800000000E+01 0.  1.
        -11    1    1    2    0    0  0.10053167834E+03  0.81401401477E+02  0.25966393908E+03  0.29010027192E+03  0.00000000000E+00 0.  1.
         11    1    1    2    0    0  0.71799740404E+02  0.52077631592E+02  0.41843142710E+03  0.42772905164E+03  0.00000000000E+00 0. -1.
</event>
<event>
 7    1  0.2670433E-009  0.1567802E+03  0.7561462E-02  0.1192381E+00
         -3   -1    0    0    0  501 -0.00000000000E+00  0.00000000000E+00  0.27536262091E+03  0.27536262091E+03  0.00000000000E+00 0.  1.
          3   -1    0    0  501    0  0.00000000000E+00 -0.00000000000E+00 -0.10100758861E+03  0.10100758861E+03  0.00000000000E+00 0. -1.
         25    2    1    2    0    0  0.24728022614E+02 -0.12414482101E+03  0.88222980696E+02  0.19863150193E+03  0.12509103705E+03 0.  0.
          5    1    3    3  502    0  0.69807315137E+02 -0.78567821841E+02  0.83354346854E+02  0.13420649543E+03  0.41800000000E+01 0. -1.
         -5    1    3    3    0  502 -0.45079292523E+02 -0.45576999166E+02  0.48686338417E+01  0.64425006502E+02  0.41800000000E+01 0. -1.
        -11    1    1    2    0    0  0.23438171806E+02  0.55818837531E+02  0.41988565649E+01  0.60685425905E+02  0.00000000000E+00 0. -1.
         11    1    1    2    0    0 -0.48166194420E+02  0.68325983476E+02  0.81933195046E+02  0.11705328169E+03  0.00000000000E+00 0.  1.
</event>
<event>
 7    1  0.2670433E-009  0.9821798E+02  0.7561462E-02  0.1284089E+00
         -1   -1    0    0    0  501 -0.00000000000E+00  0.00000000000E+00  0.12912655199E+03  0.12912655199E+03  0.00000000000E+00 0.  1.
          1   -1    0    0  501    0  0.00000000000E+00 -0.00000000000E+00 -0.14397410843E+03  0.14397410843E+03  0.00000000000E+00 0. -1.
         25    2    1    2    0    0 -0.21633596169E+02  0.75853831136E+02 -0.30616411672E+02  0.15101929198E+03  0.12509055002E+03 0.  0.
          5    1    3    3  502    0  0.25543577435E+02  0.22107759803E+02  0.38559407491E+02  0.51434693522E+02  0.41800000000E+01 0. -1.
         -5    1    3    3    0  502 -0.47177173603E+02  0.53746071334E+02 -0.69175819162E+02  0.99584598457E+02  0.41800000000E+01 0. -1.
        -11    1    1    2    0    0  0.32940745544E+02 -0.71352957743E+02 -0.22643916029E+02  0.81786821853E+02  0.00000000000E+00 0. -1.
         11    1    1    2    0    0 -0.11307149375E+02 -0.45008733936E+01  0.38412771261E+02  0.40294546582E+02  0.00000000000E+00 0.  1.
</event>
<event>
 7    1  0.2670433E-009  0.4022389E+03  0.7561462E-02  0.1043007E+00
          2   -1    0    0  501    0  0.00000000000E+00  0.00000000000E+00  0.11608168072E+03  0.11608168072E+03  0.00000000000E+00 0. -1.
         -2   -1    0    0    0  501 -0.00000000000E+00 -0.00000000000E+00 -0.14947900183E+04  0.14947900183E+04  0.00000000000E+00 0.  1.
         25    2    1    2    0    0  0.27865584083E+03  0.28603998312E+03 -0.78331429066E+03  0.88808621889E+03  0.12509158511E+03 0.  0.
          5    1    3    3  502    0  0.22125202961E+03  0.25530650053E+03 -0.72787300066E+03  0.80246523121E+03  0.41800000000E+01 0.  1.
         -5    1    3    3    0  502  0.57403811216E+02  0.30733482587E+02 -0.55441290004E+02  0.85620987680E+02  0.41800000000E+01 0.  1.
        -11    1    1    2    0    0 -0.15193923438E+03 -0.12705678851E+03 -0.22109560271E+03  0.29683703271E+03  0.00000000000E+00 0. -1.
         11    1    1    2    0    0 -0.12671660645E+03 -0.15898319461E+03 -0.37429844424E+03  0.42594844744E+03  0.00000000000E+00 0.  1.
</event>
<event>
 7    1  0.2670433E-009  0.8940416E+02  0.7561462E-02  0.1304301E+00
         -2   -1    0    0    0  501 -0.00000000000E+00  0.00000000000E+00  0.46556502395E+02  0.46556502395E+02  0.00000000000E+00 0.  1.
          2   -1    0    0  501    0  0.00000000000E+00 -0.00000000000E+00 -0.25990780545E+03  0.25990780545E+03  0.00000000000E+00 0. -1.
         25    2    1    2    0    0  0.63855986245E+01  0.14810821583E+02 -0.10035469672E+03  0.16118119288E+03  0.12509266757E+03 0.  0.
          5    1    3    3  502    0  0.51321171105E+02 -0.31402847347E+02 -0.37302239461E+02  0.70914955361E+02  0.41800000000E+01 0. -1.
         -5    1    3    3    0  502 -0.44935572480E+02  0.46213668931E+02 -0.63052457259E+02  0.90266237523E+02  0.41800000000E+01 0. -1.
        -11    1    1    2    0    0  0.56941478825E+01  0.18031634274E+02  0.70952988777E+01  0.20196693315E+02  0.00000000000E+00 0.  1.
         11    1    1    2    0    0 -0.12079746507E+02 -0.32842455857E+02 -0.12009190521E+03  0.12508642164E+03  0.00000000000E+00 0. -1.
</event>
<event>
 7    1  0.2670433E-009  0.9959923E+02  0.7561462E-02  0.1281141E+00
         -1   -1    0    0    0  501 -0.00000000000E+00  0.00000000000E+00  0.20770287935E+02  0.20770287935E+02  0.00000000000E+00 0.  1.
          1   -1    0    0  501    0  0.00000000000E+00 -0.00000000000E+00 -0.63779849124E+03  0.63779849124E+03  0.00000000000E+00 0. -1.
         25    2    1    2    0    0  0.64082225570E+01  0.40496494789E+02 -0.38393044821E+03  0.40587433035E+03  0.12510136514E+03 0.  0.
          5    1    3    3  502    0 -0.58096987496E+02  0.65454539864E+01 -0.17455338712E+03  0.18413163845E+03  0.41800000000E+01 0.  1.
         -5    1    3    3    0  502  0.64505210053E+02  0.33951040803E+02 -0.20937706110E+03  0.22174269190E+03  0.41800000000E+01 0.  1.
        -11    1    1    2    0    0  0.15340167943E+02  0.58159966178E+01 -0.26294661895E+01  0.16615073325E+02  0.00000000000E+00 0.  1.
         11    1    1    2    0    0 -0.21748390500E+02 -0.46312491407E+02 -0.23046828890E+03  0.23607937551E+03  0.00000000000E+00 0. -1.
</event>
<event>
 7    1  0.2670433E-009  0.1147852E+03  0.7561462E-02  0.1251956E+00
          1   -1    0    0  501    0  0.00000000000E+00  0.00000000000E+00  0.81690023123E+03  0.81690023123E+03  0.00000000000E+00 0. -1.
         -1   -1    0    0    0  501 -0.00000000000E+00 -0.00000000000E+00 -0.16810328768E+02  0.16810328768E+02  0.00000000000E+00 0.  1.
         25    2    1    2    0    0 -0.13021384404E+00 -0.42715868853E+02  0.42694491277E+03  0.44693908866E+03  0.12509167847E+03 0.  0.
          5    1    3    3  502    0 -0.57472378301E+02 -0.20239037813E+01  0.13859505243E+03  0.15011073050E+03  0.41800000000E+01 0. -1.
         -5    1    3    3    0  502  0.57342164457E+02 -0.40691965071E+02  0.28834986035E+03  0.29682835816E+03  0.41800000000E+01 0. -1.
        -11    1    1    2    0    0  0.44769880403E+02  0.93343444516E+01  0.15385260083E+03  0.16050574743E+03  0.00000000000E+00 0.  1.
         11    1    1    2    0    0 -0.44639666559E+02  0.33381524401E+02  0.21929238887E+03  0.22626572391E+03  0.00000000000E+00 0. -1.
</event>
<event>
 7    1  0.2670433E-009  0.1787581E+03  0.7561462E-02  0.1169010E+00
         -2   -1    0    0    0  501 -0.00000000000E+00  0.00000000000E+00  0.22404345608E+03  0.22404345608E+03  0.00000000000E+00 0. -1.
          2   -1    0    0  501    0  0.00000000000E+00 -0.00000000000E+00 -0.19188689654E+03  0.19188689654E+03  0.00000000000E+00 0.  1.
         25    2    1    2    0    0  0.89139764456E+02  0.13415257689E+03 -0.55230874341E+02  0.21128365733E+03  0.12509005908E+03 0.  0.
          5    1    3    3  502    0  0.63994207656E+02  0.41388846474E+02  0.30721167069E+02  0.82277322101E+02  0.41800000000E+01 0. -1.
         -5    1    3    3    0  502  0.25145556800E+02  0.92763730412E+02 -0.85952041410E+02  0.12900633523E+03  0.41800000000E+01 0. -1.
        -11    1    1    2    0    0 -0.75255834793E+02 -0.14758772349E+03  0.76598205483E+02  0.18251811384E+03  0.00000000000E+00 0. -1.
         11    1    1    2    0    0 -0.13883929663E+02  0.13435146608E+02  0.10789228406E+02  0.22128581447E+02  0.00000000000E+00 0.  1.
</event>
<event>
 7    1  0.2670433E-009  0.1101250E+03  0.7561462E-02  0.1260339E+00
         -1   -1    0    0    0  501 -0.00000000000E+00  0.00000000000E+00  0.11744782161E+03  0.11744782161E+03  0.00000000000E+00 0.  1.
          1   -1    0    0  501    0  0.00000000000E+00 -0.00000000000E+00 -0.16552137421E+03  0.16552137421E+03  0.00000000000E+00 0. -1.
         25    2    1    2    0    0 -0.68131325261E+02 -0.11248505521E+02 -0.78212066407E+02  0.16289723368E+03  0.12509986032E+03 0.  0.
          5    1    3    3  502    0 -0.18682594739E+02 -0.59157473707E+02 -0.51074803292E+01  0.62387537192E+02  0.41800000000E+01 0. -1.
         -5    1    3    3    0  502 -0.49448730522E+02  0.47908968186E+02 -0.73104586078E+02  0.10050969649E+03  0.41800000000E+01 0. -1.
        -11    1    1    2    0    0  0.42978720522E+02 -0.21293693474E+02  0.54236264678E+02  0.72402791421E+02  0.00000000000E+00 0.  1.
         11    1    1    2    0    0  0.25152604739E+02  0.32542198995E+02 -0.24097750867E+02  0.47669170723E+02  0.00000000000E+00 0. -1.
</event>
<event>
 7    1  0.2670433E-009  0.1236358E+03  0.7561462E-02  0.1237217E+00
          1   -1    0    0  501    0  0.00000000000E+00  0.00000000000E+00  0.69740716562E+03  0.69740716562E+03  0.00000000000E+00 0. -1.
         -1   -1    0    0    0  501 -0.00000000000E+00 -0.00000000000E+00 -0.26700063706E+02  0.26700063706E+02  0.00000000000E+00 0.  1.
         25    2    1    2    0    0  0.78952413614E+02  0.82169698254E+01  0.42352902714E+03  0.44869047261E+03  0.12508117835E+03 0.  0.
          5    1    3    3  502    0  0.33311450354E+02  0.53050721560E+02  0.32589460552E+03  0.33188672478E+03  0.41800000000E+01 0.  1.
         -5    1    3    3    0  502  0.45640963259E+02 -0.44833751734E+02  0.97634421624E+02  0.11680374783E+03  0.41800000000E+01 0.  1.
        -11    1    1    2    0    0 -0.90860572517E+02  0.17047225239E+02  0.17293282856E+03  0.19609185276E+03  0.00000000000E+00 0.  1.
         11    1    1    2    0    0  0.11908158903E+02 -0.25264195065E+02  0.74245246221E+02  0.79324903953E+02  0.00000000000E+00 0. -1.
</event>
<event>
 7    1  0.2670433E-009  0.1193765E+03  0.7561462E-02  0.1244129E+00
         -2   -1    0    0    0  501 -0.00000000000E+00  0.00000000000E+00  0.81114261593E+02  0.81114261593E+02  0.00000000000E+00 0.  1.
          2   -1    0    0  501    0  0.00000000000E+00 -0.00000000000E+00 -0.19865935061E+03  0.19865935061E+03  0.00000000000E+00 0. -1.
         25    2    1    2    0    0 -0.62831235168E+02  0.15771631038E+02 -0.81761720662E+02  0.16288265801E+03  0.12509705374E+03 0.  0.
          5    1    3    3  502    0 -0.23240318073E+02 -0.47333269090E+02 -0.69387099210E+02  0.87250172972E+02  0.41800000000E+01 0. -1.
         -5    1    3    3    0  502 -0.39590917095E+02  0.63104900127E+02 -0.12374621452E+02  0.75632485035E+02  0.41800000000E+01 0. -1.
        -11    1    1    2    0    0  0.83756029768E+02 -0.26341451811E+02 -0.29443046996E+02  0.92605818513E+02  0.00000000000E+00 0.  1.
         11    1    1    2    0    0 -0.20924794600E+02  0.10569820773E+02 -0.63403213581E+01  0.24285135683E+02  0.00000000000E+00 0. -1.
</event>
<event>
 7    1  0.2670433E-009  0.7255916E+02  0.7561462E-02  0.1351601E+00
         -2   -1    0    0    0  501 -0.00000000000E+00  0.00000000000E+00  0.77077321018E+02  0.77077321018E+02  0.00000000000E+00 0.  1.
          2   -1    0    0  501    0  0.00000000000E+00 -0.00000000000E+00 -0.16429573680E+03  0.16429573680E+03  0.00000000000E+00 0. -1.
         25    2    1    2    0    0  0.15967391110E+02  0.59230896907E+01 -0.78656675327E+02  0.14874643639E+03  0.12509432119E+03 0.  0.
          5    1    3    3  502    0 -0.14933696356E+02 -0.44544477387E+02  0.36283507904E+01  0.47306057562E+02  0.41800000000E+01 0. -1.
         -5    1    3    3    0  502  0.30901087466E+02  0.50467567078E+02 -0.82285026118E+02  0.10144037883E+03  0.41800000000E+01 0. -1.
        -11    1    1    2    0    0  0.35715531250E+01  0.11750589062E+02 -0.45571272439E+02  0.47197173716E+02  0.00000000000E+00 0. -1.
         11    1    1    2    0    0 -0.19538944235E+02 -0.17673678753E+02  0.37009531981E+02  0.45429447718E+02  0.00000000000E+00 0.  1.
</event>
<event>
 7    1  0.2699797E-009  0.8723525E+02  0.7561462E-02  0.1309688E+00
          2   -1    0    0  501    0  0.00000000000E+00  0.00000000000E+00  0.57015260149E+03  0.57015260149E+03  0.00000000000E+00 0. -1.
         -2   -1    0    0    0  501 -0.00000000000E+00 -0.00000000000E+00 -0.25789977758E+02  0.25789977758E+02  0.00000000000E+00 0.  1.
         25    2    1    2    0    0  0.54096813316E+02 -0.86284688676E+01  0.29581403382E+03  0.32581339751E+03  0.12509001441E+03 0.  0.
          5    1    3    3  502    0  0.29486179650E+02 -0.32190219943E+02  0.20571566125E+02  0.48438690973E+02  0.41800000000E+01 0.  1.
         -5    1    3    3    0  502  0.24610633667E+02  0.23561751076E+02  0.27524246770E+03  0.27737470654E+03  0.41800000000E+01 0.  1.
        -11    1    1    2    0    0 -0.60443150354E+02 -0.22520039616E+02  0.10602934124E+03  0.12410780722E+03  0.00000000000E+00 0.  1.
         11    1    1    2    0    0  0.63463370373E+01  0.31148508484E+02  0.14251924868E+03  0.14602137452E+03  0.00000000000E+00 0. -1.
</event>
<event>
 7    1  0.2670433E-009  0.1024911E+03  0.7561462E-02  0.1275143E+00
         -3   -1    0    0    0  501 -0.00000000000E+00  0.00000000000E+00  0.65847189564E+03  0.65847189564E+03  0.00000000000E+00 0.  1.
          3   -1    0    0  501    0  0.00000000000E+00 -0.00000000000E+00 -0.31231240731E+02  0.31231240731E+02  0.00000000000E+00 0. -1.
         25    2    1    2    0    0 -0.58915160355E+02  0.17679840129E+02  0.50834610182E+03  0.52711568750E+03  0.12510641835E+03 0.  0.
          5    1    3    3  502    0 -0.74978509926E+02  0.21646390376E+02  0.15720137962E+03  0.17555651318E+03  0.41800000000E+01 0.  1.
         -5    1    3    3    0  502  0.16063349571E+02 -0.39665502470E+01  0.35114472220E+03  0.35155917432E+03  0.41800000000E+01 0.  1.
        -11    1    1    2    0    0  0.21046947477E+02  0.37404108003E+02  0.58085244494E+02  0.72221443640E+02  0.00000000000E+00 0.  1.
         11    1    1    2    0    0  0.37868212878E+02 -0.55083948132E+02  0.60809308593E+02  0.90366005223E+02  0.00000000000E+00 0. -1.
</event>
<event>
 7    1  0.2670433E-009  0.1139873E+03  0.7561462E-02  0.1253359E+00
          2   -1    0    0  501    0  0.00000000000E+00  0.00000000000E+00  0.24335655308E+03  0.24335655308E+03  0.00000000000E+00 0. -1.
         -2   -1    0    0    0  501 -0.00000000000E+00 -0.00000000000E+00 -0.73170960183E+02  0.73170960183E+02  0.00000000000E+00 0.  1.
         25    2    1    2    0    0 -0.76953166465E+01 -0.71310094691E+02  0.12749911838E+03  0.19247671318E+03  0.12508761900E+03 0.  0.
          5    1    3    3  502    0 -0.38708607775E+02 -0.94894648710E+02  0.10711839948E+03  0.14830770235E+03  0.41800000000E+01 0.  1.
         -5    1    3    3    0  502  0.31013291129E+02  0.23584554019E+02  0.20380718895E+02  0.44169010828E+02  0.41800000000E+01 0.  1.
        -11    1    1    2    0    0  0.24340140133E+02  0.17733561597E+02  0.58470472273E+02  0.65770188965E+02  0.00000000000E+00 0. -1.
         11    1    1    2    0    0 -0.16644823486E+02  0.53576533094E+02 -0.15783997752E+02  0.58280611118E+02  0.00000000000E+00 0.  1.
</event>
<event>
 7    1  0.2777831E-009  0.9075768E+02  0.7561462E-02  0.1301027E+00
          3   -1    0    0  501    0  0.00000000000E+00  0.00000000000E+00  0.16175526187E+03  0.16175526187E+03  0.00000000000E+00 0. -1.
         -3   -1    0    0    0  501 -0.00000000000E+00 -0.00000000000E+00 -0.95965883234E+02  0.95965883234E+02  0.00000000000E+00 0.  1.
         25    2    1    2    0    0  0.96121770322E+01  0.28004926547E+02 -0.18850774139E+02  0.12991925948E+03  0.12508793882E+03 0.  0.
          5    1    3    3  502    0  0.74178900685E+01  0.64194059461E+02 -0.50098952204E+02  0.81873559682E+02  0.41800000000E+01 0. -1.
         -5    1    3    3    0  502  0.21942869637E+01 -0.36189132914E+02  0.31248178065E+02  0.48045699794E+02  0.41800000000E+01 0. -1.
        -11    1    1    2    0    0  0.67050665169E+01 -0.51347268084E+02  0.17151031268E+02  0.54549589643E+02  0.00000000000E+00 0.  1.
         11    1    1    2    0    0 -0.16317243549E+02  0.23342341536E+02  0.67489121511E+02  0.73252295990E+02  0.00000000000E+00 0. -1.
</event>
<event>
 7    1  0.2670433E-009  0.1046947E+03  0.7561462E-02  0.1270722E+00
         -1   -1    0    0    0  501 -0.00000000000E+00  0.00000000000E+00  0.86978513058E+01  0.86978513058E+01  0.00000000000E+00 0.  1.
          1   -1    0    0  501    0  0.00000000000E+00 -0.00000000000E+00 -0.17309818344E+04  0.17309818344E+04  0.00000000000E+00 0. -1.
         25    2    1    2    0    0 -0.17857722208E+02  0.47960828670E+01 -0.13295000429E+04  0.13354995318E+04  0.12508690896E+03 0.  0.
          5    1    3    3  502    0 -0.64392068705E+02  0.15239949526E+02 -0.46836440498E+03  0.47303412438E+03  0.41800000000E+01 0.  1.
         -5    1    3    3    0  502  0.46534346497E+02 -0.10443866659E+02 -0.86113563792E+03  0.86246540745E+03  0.41800000000E+01 0.  1.
        -11    1    1    2    0    0  0.18969135426E+02 -0.48197573845E+02 -0.22237678508E+03  0.22832929896E+03  0.00000000000E+00 0. -1.
         11    1    1    2    0    0 -0.11114132178E+01  0.43401490978E+02 -0.17040715507E+03  0.17585085487E+03  0.00000000000E+00 0.  1.
</event>
<event>
 7    1  0.2670433E-009  0.9853644E+02  0.7561462E-02  0.1283404E+00
         -1   -1    0    0    0  501 -0.00000000000E+00  0.00000000000E+00  0.82948032263E+02  0.82948032263E+02  0.00000000000E+00 0.  1.
          1   -1    0    0  501    0  0.00000000000E+00 -0.00000000000E+00 -0.29236978676E+03  0.29236978676E+03  0.00000000000E+00 0. -1.
         25    2    1    2    0    0  0.41943248469E+02 -0.48076608090E+02 -0.22081605537E+03  0.26167981798E+03  0.12508397377E+03 0.  0.
          5    1    3    3  502    0  0.17634189167E+02  0.29859154055E+02 -0.11187598102E+02  0.36676538274E+02  0.41800000000E+01 0. -1.
         -5    1    3    3    0  502  0.24309059303E+02 -0.77935762146E+02 -0.20962845726E+03  0.22500327971E+03  0.41800000000E+01 0. -1.
        -11    1    1    2    0    0 -0.14957341260E+01  0.38892605291E+02  0.45545471708E+02  0.59910449506E+02  0.00000000000E+00 0.  1.
         11    1    1    2    0    0 -0.40447514343E+02  0.91840027997E+01 -0.34151170839E+02  0.53727551532E+02  0.00000000000E+00 0. -1.
</event>
<event>
 7    1  0.2670433E-009  0.1146110E+03  0.7561462E-02  0.1252262E+00
         -1   -1    0    0    0  501 -0.00000000000E+00  0.00000000000E+00  0.11219081299E+03  0.11219081299E+03  0.00000000000E+00 0.  1.
          1   -1    0    0  501    0  0.00000000000E+00 -0.00000000000E+00 -0.23221640401E+03  0.23221640401E+03  0.00000000000E+00 0. -1.
         25    2    1    2    0    0 -0.26866443724E+02  0.29458704348E+02 -0.18422667597E+03  0.22622374826E+03  0.12509234619E+03 0.  0.
          5    1    3    3  502    0 -0.76833128215E+02  0.14861811649E+02 -0.12179786868E+03  0.14483230390E+03  0.41800000000E+01 0.  1.
         -5    1    3    3    0  502  0.49966684491E+02  0.14596892698E+02 -0.62428807285E+02  0.81391444357E+02  0.41800000000E+01 0.  1.
        -11    1    1    2    0    0  0.95360100998E+01 -0.61482680346E+02  0.34163123380E+02  0.70980099114E+02  0.00000000000E+00 0.  1.
         11    1    1    2    0    0  0.17330433624E+02  0.32023975998E+02  0.30037961569E+02  0.47203369621E+02  0.00000000000E+00 0. -1.
</event>
<event>
 7    1  0.2670433E-009  0.8671229E+02  0.7561462E-02  0.1311014E+00
          3   -1    0    0  501    0  0.00000000000E+00  0.00000000000E+00  0.89879790298E+02  0.89879790298E+02  0.00000000000E+00 0. -1.
         -3   -1    0    0    0  501 -0.00000000000E+00 -0.00000000000E+00 -0.14467152293E+03  0.14467152293E+03  0.00000000000E+00 0.  1.
         25    2    1    2    0    0 -0.18117984076E+02  0.29900742272E+02 -0.23445439580E+02  0.13198932041E+03  0.12509666794E+03 0.  0.
          5    1    3    3  502    0 -0.34515961619E+02 -0.35755339259E+02 -0.37930193134E+02  0.62657544184E+02  0.41800000000E+01 0.  1.
         -5    1    3    3    0  502  0.16397977542E+02  0.65656081530E+02  0.14484753554E+02  0.69331776228E+02  0.41800000000E+01 0.  1.
        -11    1    1    2    0    0 -0.13333364755E+02 -0.15792830383E+01 -0.53242780697E+02  0.54909620714E+02  0.00000000000E+00 0.  1.
         11    1    1    2    0    0  0.31451348831E+02 -0.28321459233E+02  0.21896487640E+02  0.47652372107E+02  0.00000000000E+00 0. -1.
</event>
<event>
 7    1  0.2670433E-009  0.1173640E+03  0.7561462E-02  0.1247510E+00
         -2   -1    0    0    0  501 -0.00000000000E+00  0.00000000000E+00  0.22181700273E+02  0.22181700273E+02  0.00000000000E+00 0.  1.
          2   -1    0    0  501    0  0.00000000000E+00 -0.00000000000E+00 -0.62557671738E+03  0.62557671738E+03  0.00000000000E+00 0. -1.
         25    2    1    2    0    0 -0.42323161694E+02 -0.71876486079E+01 -0.33006087391E+03  0.35557060022E+03  0.12508940381E+03 0.  0.
          5    1    3    3  502    0 -0.33811884780E+02 -0.64752895308E+02 -0.20210639073E+03  0.21494335667E+03  0.41800000000E+01 0.  1.
         -5    1    3    3    0  502 -0.85112769138E+01  0.57565246700E+02 -0.12795448318E+03  0.14062724355E+03  0.41800000000E+01 0.  1.
        -11    1    1    2    0    0 -0.27536991224E+02  0.17461736091E+02 -0.82630212073E+02  0.88831019696E+02  0.00000000000E+00 0. -1.
         11    1    1    2    0    0  0.69860152918E+02 -0.10274087483E+02 -0.19070393112E+03  0.20335679773E+03  0.00000000000E+00 0.  1.
</event>
<event>
 7    1  0.2670433E-009  0.1783451E+03  0.7561462E-02  0.1169414E+00
          2   -1    0    0  501    0  0.00000000000E+00  0.00000000000E+00  0.15628346135E+03  0.15628346135E+03  0.00000000000E+00 0. -1.
         -2   -1    0    0    0  501 -0.00000000000E+00 -0.00000000000E+00 -0.25661772759E+03  0.25661772759E+03  0.00000000000E+00 0.  1.
         25    2    1    2    0    0 -0.16326510381E+03 -0.60451123384E+01 -0.49934630518E+02  0.21173109534E+03  0.12507818317E+03 0.  0.
          5    1    3    3  502    0  0.43433390834E+01  0.17465520049E+02 -0.37705409173E+02  0.41989037449E+02  0.41800000000E+01 0. -1.
         -5    1    3    3    0  502 -0.16760844289E+03 -0.23510632388E+02 -0.12229221345E+02  0.16974205789E+03  0.41800000000E+01 0. -1.
        -11    1    1    2    0    0  0.89353660853E+02 -0.18078186054E+02 -0.76654306905E+02  0.11910827127E+03  0.00000000000E+00 0.  1.
         11    1    1    2    0    0  0.73911442954E+02  0.24123298392E+02  0.26254671177E+02  0.82061822326E+02  0.00000000000E+00 0. -1.
</event>
<event>
 7    1  0.2670433E-009  0.2060184E+03  0.7561462E-02  0.1144758E+00
         -1   -1    0    0    0  501 -0.00000000000E+00  0.00000000000E+00  0.74640965356E+03  0.74640965356E+03  0.00000000000E+00 0.  1.
          1   -1    0    0  501    0  0.00000000000E+00 -0.00000000000E+00 -0.66691358594E+02  0.66691358594E+02  0.00000000000E+00 0. -1.
         25    2    1    2    0    0 -0.14302991114E+03 -0.13121220770E+03  0.30986232969E+03  0.38644061646E+03  0.12508991869E+03 0.  0.
          5    1    3    3  502    0 -0.83541526003E+02 -0.12485745629E+03  0.13659158507E+03  0.20308447619E+03  0.41800000000E+01 0.  1.
         -5    1    3    3    0  502 -0.59488385138E+02 -0.63547514068E+01  0.17327074462E+03  0.18335614026E+03  0.41800000000E+01 0.  1.
        -11    1    1    2    0    0  0.14227552563E+03  0.10817819707E+03  0.35932504673E+03  0.40132198634E+03  0.00000000000E+00 0.  1.
         11    1    1    2    0    0  0.75438551303E+00  0.23034010632E+02  0.10530918552E+02  0.25338409359E+02  0.00000000000E+00 0. -1.
</event>
<event>
 7    1  0.2670433E-009  0.1386422E+03  0.7561462E-02  0.1215168E+00
          1   -1    0    0  501    0  0.00000000000E+00  0.00000000000E+00  0.82653694641E+03  0.82653694641E+03  0.00000000000E+00 0. -1.
         -1   -1    0    0    0  501 -0.00000000000E+00 -0.00000000000E+00 -0.26164354375E+02  0.26164354375E+02  0.00000000000E+00 0.  1.
         25    2    1    2    0    0  0.49524255291E+02  0.82570621919E+02  0.35910504416E+03  0.39226905636E+03  0.12509204758E+03 0.  0.
          5    1    3    3  502    0  0.63978344102E+02 -0.43165129792E+01  0.20362514913E+03  0.21352408425E+03  0.41800000000E+01 0. -1.
         -5    1    3    3    0  502 -0.14454088811E+02  0.86887134898E+02  0.15547989504E+03  0.17874497211E+03  0.41800000000E+01 0. -1.
        -11    1    1    2    0    0  0.19910016143E+02 -0.36310552048E+02  0.85340049178E+02  0.94856675709E+02  0.00000000000E+00 0.  1.
         11    1    1    2    0    0 -0.69434271434E+02 -0.46260069870E+02  0.35592749869E+03  0.36557556871E+03  0.00000000000E+00 0. -1.
</event>
<event>
 7    1  0.2670433E-009  0.1092236E+03  0.7561462E-02  0.1262014E+00
         -1   -1    0    0    0  501 -0.00000000000E+00  0.00000000000E+00  0.66075720737E+03  0.66075720737E+03  0.00000000000E+00 0.  1.
          1   -1    0    0  501    0  0.00000000000E+00 -0.00000000000E+00 -0.22887434526E+02  0.22887434526E+02  0.00000000000E+00 0. -1.
         25    2    1    2    0    0 -0.36659315914E+02 -0.44258377662E+02  0.35200635068E+03  0.37796579403E+03  0.12508781355E+03 0.  0.
          5    1    3    3  502    0 -0.75231480557E+01 -0.77753423846E+02  0.13161119208E+03  0.15310509775E+03  0.41800000000E+01 0.  1.
         -5    1    3    3    0  502 -0.29136167859E+02  0.33495046184E+02  0.22039515860E+03  0.22486069628E+03  0.41800000000E+01 0.  1.
        -11    1    1    2    0    0  0.59724563163E+02  0.22210999099E+02  0.24852642546E+03  0.25656526670E+03  0.00000000000E+00 0.  1.
         11    1    1    2    0    0 -0.23065247248E+02  0.22047378563E+02  0.37336996706E+02  0.49113581168E+02  0.00000000000E+00 0. -1.
</event>
<event>
 7    1  0.4548815E-009  0.1821525E+03  0.7561462E-02  0.1165736E+00
         -1   -1    0    0    0  501 -0.00000000000E+00  0.00000000000E+00  0.50193891963E+02  0.50193891963E+02  0.00000000000E+00 0.  1.
          1   -1    0    0  501    0  0.00000000000E+00 -0.00000000000E+00 -0.87334230590E+03  0.87334230590E+03  0.00000000000E+00 0. -1.
         25    2    1    2    0    0  0.15321001825E+03  0.48641375363E+02 -0.60061084389E+03  0.63420840758E+03  0.12509046867E+03 0.  0.
          5    1    3    3  502    0 -0.12190794145E+02  0.14910191660E+02 -0.15078428592E+02  0.24814525706E+02  0.41800000000E+01 0.  1.
         -5    1    3    3    0  502  0.16540081239E+03  0.33731183704E+02 -0.58553241530E+03  0.60939388187E+03  0.41800000000E+01 0.  1.
        -11    1    1    2    0    0 -0.78326381077E+02  0.12180701780E+02 -0.14619912331E+03  0.16630566775E+03  0.00000000000E+00 0.  1.
         11    1    1    2    0    0 -0.74883637171E+02 -0.60822077143E+02 -0.76338446735E+02  0.12302212254E+03  0.00000000000E+00 0. -1.
</event>
<event>
 7    1  0.2670433E-009  0.1606443E+03  0.7561462E-02  0.1187971E+00
          1   -1    0    0  501    0  0.00000000000E+00  0.00000000000E+00  0.59960672439E+02  0.59960672439E+02  0.00000000000E+00 0. -1.
         -1   -1    0    0    0  501 -0.00000000000E+00 -0.00000000000E+00 -0.51665528157E+03  0.51665528157E+03  0.00000000000E+00 0.  1.
         25    2    1    2    0    0 -0.54285357027E+02 -0.12370179919E+03 -0.19189847729E+03  0.26593464615E+03  0.12508866986E+03 0.  0.
          5    1    3    3  502    0 -0.36861939733E+02 -0.14490247386E+03 -0.18389619861E+03  0.23704601620E+03  0.41800000000E+01 0.  1.
         -5    1    3    3    0  502 -0.17423417294E+02  0.21200674670E+02 -0.80022786773E+01  0.28888629955E+02  0.41800000000E+01 0.  1.
        -11    1    1    2    0    0  0.92349487509E+01  0.82149594737E+02 -0.76390886934E+02  0.11255846392E+03  0.00000000000E+00 0. -1.
         11    1    1    2    0    0  0.45050408276E+02  0.41552204451E+02 -0.18840524490E+03  0.19812284393E+03  0.00000000000E+00 0.  1.
</event>
<event>
 7    1  0.2670433E-009  0.9176386E+02  0.7561462E-02  0.1298636E+00
         -1   -1    0    0    0  501 -0.00000000000E+00  0.00000000000E+00  0.10553664401E+03  0.10553664401E+03  0.00000000000E+00 0.  1.
          1   -1    0    0  501    0  0.00000000000E+00 -0.00000000000E+00 -0.13539253807E+03  0.13539253807E+03  0.00000000000E+00 0. -1.
         25    2    1    2    0    0  0.12378058873E+02 -0.76378622483E+01  0.43550304746E+01  0.12601090580E+03  0.12509288072E+03 0.  0.
          5    1    3    3  502    0  0.74146304352E+01 -0.60481786358E+02  0.28680192103E+02  0.67476285053E+02  0.41800000000E+01 0. -1.
         -5    1    3    3    0  502  0.49634284380E+01  0.52843924110E+02 -0.24325161628E+02  0.58534620742E+02  0.41800000000E+01 0. -1.
        -11    1    1    2    0    0  0.36744857945E+01  0.36231641455E+02 -0.62020636209E+02  0.71922131533E+02  0.00000000000E+00 0. -1.
         11    1    1    2    0    0 -0.16052544668E+02 -0.28593779207E+02  0.27809711683E+02  0.42996144752E+02  0.00000000000E+00 0.  1.
</event>
<event>
 7    1  0.2670433E-009  0.1080866E+03  0.7561462E-02  0.1264155E+00
         -2   -1    0    0    0  501 -0.00000000000E+00  0.00000000000E+00  0.36243805860E+02  0.36243805860E+02  0.00000000000E+00 0.  1.
          2   -1    0    0  501    0  0.00000000000E+00 -0.00000000000E+00 -0.40185359670E+03  0.40185359670E+03  0.00000000000E+00 0. -1.
         25    2    1    2    0    0  0.48876317297E+02 -0.55031171945E+01 -0.22943660653E+03  0.26591098648E+03  0.12509323573E+03 0.  0.
          5    1    3    3  502    0  0.21554497692E+02 -0.62086147972E+02 -0.79145451237E+02  0.10295999705E+03  0.41800000000E+01 0. -1.
         -5    1    3    3    0  502  0.27321819606E+02  0.56583030778E+02 -0.15029115529E+03  0.16295098943E+03  0.41800000000E+01 0. -1.
        -11    1    1    2    0    0  0.10641805135E+01  0.31175439293E+02 -0.10151430883E+03  0.10619884836E+03  0.00000000000E+00 0. -1.
         11    1    1    2    0    0 -0.49940497811E+02 -0.25672322098E+02 -0.34658875476E+02  0.65987567714E+02  0.00000000000E+00 0.  1.
</event>
<event>
 7    1  0.2670433E-009  0.1214782E+03  0.7561462E-02  0.1240678E+00
          1   -1    0    0  501    0  0.00000000000E+00  0.00000000000E+00  0.28921102233E+02  0.28921102233E+02  0.00000000000E+00 0. -1.
         -1   -1    0    0    0  501 -0.00000000000E+00 -0.00000000000E+00 -0.72762256296E+03  0.72762256296E+03  0.00000000000E+00 0.  1.
         25    2    1    2    0    0  0.89571211572E+02  0.21391112425E+02 -0.29930490755E+03  0.33721059686E+03  0.12508787838E+03 0.  0.
          5    1    3    3  502    0  0.91338523170E+02 -0.80623339425E+01 -0.10019624473E+03  0.13588409363E+03  0.41800000000E+01 0. -1.
         -5    1    3    3    0  502 -0.17673115972E+01  0.29453446368E+02 -0.19910866282E+03  0.20132650323E+03  0.41800000000E+01 0. -1.
        -11    1    1    2    0    0 -0.10439287075E+03 -0.16091071695E+02 -0.37970878230E+03  0.39412631656E+03  0.00000000000E+00 0. -1.
         11    1    1    2    0    0  0.14821659181E+02 -0.53000407299E+01 -0.19687770877E+02  0.25206751769E+02  0.00000000000E+00 0.  1.
</event>
<event>
 7    1  0.2670433E-009  0.9762782E+02  0.7561462E-02  0.1285365E+00
         -1   -1    0    0    0  501 -0.00000000000E+00  0.00000000000E+00  0.18119271447E+03  0.18119271447E+03  0.00000000000E+00 0.  1.
          1   -1    0    0  501    0  0.00000000000E+00 -0.00000000000E+00 -0.82477619319E+02  0.82477619319E+02  0.00000000000E+00 0. -1.
         25    2    1    2    0    0  0.17993703325E+02 -0.36163490442E+02  0.12910820504E+02  0.13208141172E+03  0.12508892292E+03 0.  0.
          5    1    3    3  502    0 -0.41605787919E+02 -0.41193313422E+02 -0.22018829142E+02  0.62691561600E+02  0.41800000000E+01 0.  1.
         -5    1    3    3    0  502  0.59599491244E+02  0.50298229798E+01  0.34929649646E+02  0.69389850124E+02  0.41800000000E+01 0.  1.
        -11    1    1    2    0    0  0.19434137843E+02  0.33936036257E+02  0.85582583970E+02  0.94094202529E+02  0.00000000000E+00 0.  1.
         11    1    1    2    0    0 -0.37427841168E+02  0.22274541858E+01  0.22169068044E+00  0.37494719540E+02  0.00000000000E+00 0. -1.
</event>
<event>
 7    1  0.2670433E-009  0.1291552E+03  0.7561462E-02  0.1228715E+00
          2   -1    0    0  501    0  0.00000000000E+00  0.00000000000E+00  0.70851751486E+03  0.70851751486E+03  0.00000000000E+00 0. -1.
         -2   -1    0    0    0  501 -0.00000000000E+00 -0.00000000000E+00 -0.39475087837E+02  0.39475087837E+02  0.00000000000E+00 0.  1.
         25    2    1    2    0    0  0.83859733136E+02  0.56663364811E+02  0.18430672175E+03  0.24466109059E+03  0.12508752860E+03 0.  0.
          5    1    3    3  502    0  0.61516446659E+02 -0.14109154351E+02  0.15000443034E+03  0.16279478790E+03  0.41800000000E+01 0.  1.
         -5    1    3    3    0  502  0.22343286477E+02  0.70772519162E+02  0.34302291404E+02  0.81866302681E+02  0.41800000000E+01 0.  1.
        -11    1    1    2    0    0 -0.86426477465E+02 -0.67453653446E+02  0.47787496265E+03  0.49028972179E+03  0.00000000000E+00 0. -1.
         11    1    1    2    0    0  0.25667443292E+01  0.10790288635E+02  0.68607426252E+01  0.13041790316E+02  0.00000000000E+00 0.  1.
</event>
<event>
 7    1  0.2670433E-009  0.1223763E+03  0.7561462E-02  0.1239228E+00
         -2   -1    0    0    0  501 -0.00000000000E+00  0.00000000000E+00  0.10866751378E+03  0.10866751378E+03  0.00000000000E+00 0.  1.
          2   -1    0    0  501    0  0.00000000000E+00 -0.00000000000E+00 -0.51510338619E+03  0.51510338619E+03  0.00000000000E+00 0. -1.
         25    2    1    2    0    0  0.96245353852E+02 -0.37931659309E+01 -0.45524667246E+03  0.48184827390E+03  0.12510263798E+03 0.  0.
          5    1    3    3  502    0 -0.58701352581E+01 -0.58260965829E+01 -0.27089002910E+03  0.27104848673E+03  0.41800000000E+01 0.  1.
         -5    1    3    3    0  502  0.10211548911E+03  0.20329306520E+01 -0.18435664335E+03  0.21079978717E+03  0.41800000000E+01 0.  1.
        -11    1    1    2    0    0 -0.10397030951E+03 -0.22057457380E+02  0.39072421691E+02  0.11323873375E+03  0.00000000000E+00 0.  1.
         11    1    1    2    0    0  0.77249556574E+01  0.25850623311E+02  0.97383783624E+01  0.28683892320E+02  0.00000000000E+00 0. -1.
</event>
<event>
 7    1  0.2670433E-009  0.9807885E+02  0.7561462E-02  0.1284389E+00
         -2   -1    0    0    0  501 -0.00000000000E+00  0.00000000000E+00  0.37208367682E+02  0.37208367682E+02  0.00000000000E+00 0.  1.
          2   -1    0    0  501    0  0.00000000000E+00 -0.00000000000E+00 -0.34436833197E+03  0.34436833197E+03  0.00000000000E+00 0. -1.
         25    2    1    2    0    0  0.21300211051E+02 -0.89827395548E+00 -0.21687562672E+03  0.25127250816E+03  0.12509328522E+03 0.  0.
          5    1    3    3  502    0 -0.37253989228E+01  0.48900539022E+02 -0.17400989963E+03  0.18083710593E+03  0.41800000000E+01 0.  1.
         -5    1    3    3    0  502  0.25025609974E+02 -0.49798812977E+02 -0.42865727094E+02  0.70435402233E+02  0.41800000000E+01 0.  1.
        -11    1    1    2    0    0  0.20037485796E+02 -0.32312989955E+02 -0.54036897636E+02  0.66072811829E+02  0.00000000000E+00 0. -1.
         11    1    1    2    0    0 -0.41337696848E+02  0.33211263911E+02 -0.36247439933E+02  0.64231379659E+02  0.00000000000E+00 0.  1.
</event>
<event>
 7    1  0.2670433E-009  0.1114177E+03  0.7561462E-02  0.1257967E+00
         -1   -1    0    0    0  501 -0.00000000000E+00  0.00000000000E+00  0.10289180241E+03  0.10289180241E+03  0.00000000000E+00 0.  1.
          1   -1    0    0  501    0  0.00000000000E+00 -0.00000000000E+00 -0.15737418825E+03  0.15737418825E+03  0.00000000000E+00 0. -1.
         25    2    1    2    0    0 -0.31858648330E+01  0.43996137154E+02 -0.82587667162E+02  0.15625540643E+03  0.12509684029E+03 0.  0.
          5    1    3    3  502    0  0.33811249395E+02 -0.27428512584E+02 -0.56785732112E+02  0.71677162749E+02  0.41800000000E+01 0. -1.
         -5    1    3    3    0  502 -0.36997114228E+02  0.71424649738E+02 -0.25801935050E+02  0.84578243678E+02  0.41800000000E+01 0. -1.
        -11    1    1    2    0    0  0.71278348550E+01 -0.70951686758E+02  0.11848715980E+02  0.72286512946E+02  0.00000000000E+00 0. -1.
         11    1    1    2    0    0 -0.39419700220E+01  0.26955549604E+02  0.16256565351E+02  0.31724071288E+02  0.00000000000E+00 0.  1.
</event>
<event>
 7    1  0.2670433E-009  0.1290369E+03  0.7561462E-02  0.1228892E+00
          2   -1    0    0  501    0  0.00000000000E+00  0.00000000000E+00  0.38746993707E+03  0.38746993707E+03  0.00000000000E+00 0. -1.
         -2   -1    0    0    0  501 -0.00000000000E+00 -0.00000000000E+00 -0.70550080133E+02  0.70550080133E+02  0.00000000000E+00 0.  1.
         25    2    1    2    0    0  0.44593002483E+02  0.10454997423E+03  0.11104516860E+03  0.20223035409E+03  0.12508738412E+03 0.  0.
          5    1    3    3  502    0  0.24592902306E+02  0.23777486475E+02 -0.25086532252E+02  0.42626121186E+02  0.41800000000E+01 0. -1.
         -5    1    3    3    0  502  0.20000100178E+02  0.80772487757E+02  0.13613170085E+03  0.15960423291E+03  0.41800000000E+01 0. -1.
        -11    1    1    2    0    0 -0.68999968336E+02 -0.73722827270E+02  0.96941488625E+02  0.13997750929E+03  0.00000000000E+00 0. -1.
         11    1    1    2    0    0  0.24406965853E+02 -0.30827146962E+02  0.10893319972E+03  0.11581215382E+03  0.00000000000E+00 0.  1.
</event>
<event>
 7    1  0.2670433E-009  0.6876988E+02  0.7561462E-02  0.1364327E+00
          3   -1    0    0  501    0  0.00000000000E+00  0.00000000000E+00  0.65210052155E+02  0.65210052155E+02  0.00000000000E+00 0. -1.
         -3   -1    0    0    0  501 -0.00000000000E+00 -0.00000000000E+00 -0.28526077195E+03  0.28526077195E+03  0.00000000000E+00 0.  1.
         25    2    1    2    0    0 -0.75138746438E+01 -0.22964594476E+02 -0.22108971432E+03  0.25516936643E+03  0.12508762079E+03 0.  0.
          5    1    3    3  502    0 -0.43631046311E+01 -0.37491174773E+02 -0.23274544947E+03  0.23582311489E+03  0.41800000000E+01 0.  1.
         -5    1    3    3    0  502 -0.31507700127E+01  0.14526580297E+02  0.11655735149E+02  0.19346251540E+02  0.41800000000E+01 0.  1.
        -11    1    1    2    0    0 -0.10377876245E+02 -0.28132133394E+02 -0.21252642956E+02  0.36753123367E+02  0.00000000000E+00 0.  1.
         11    1    1    2    0    0  0.17891750889E+02  0.51096727870E+02  0.22291637479E+02  0.58548334309E+02  0.00000000000E+00 0. -1.
</event>
<event>
 7    1  0.2670433E-009  0.1161110E+03  0.7561462E-02  0.1249654E+00
          2   -1    0    0  501    0  0.00000000000E+00  0.00000000000E+00  0.29967199282E+03  0.29967199282E+03  0.00000000000E+00 0. -1.
         -2   -1    0    0    0  501 -0.00000000000E+00 -0.00000000000E+00 -0.74430199218E+02  0.74430199218E+02  0.00000000000E+00 0.  1.
         25    2    1    2    0    0  0.42193730307E+02 -0.80901559230E+02  0.63593404611E+02  0.16738405230E+03  0.12509167315E+03 0.  0.
          5    1    3    3  502    0  0.58794869669E+02 -0.68469495488E+01 -0.11604969535E+02  0.60463750590E+02  0.41800000000E+01 0. -1.
         -5    1    3    3    0  502 -0.16601139362E+02 -0.74054609681E+02  0.75198374147E+02  0.10692030171E+03  0.41800000000E+01 0. -1.
        -11    1    1    2    0    0 -0.20043632322E+02  0.96229636056E+01  0.11836548212E+03  0.12043560928E+03  0.00000000000E+00 0. -1.
         11    1    1    2    0    0 -0.22150097985E+02  0.71278595624E+02  0.43282906868E+02  0.86282530456E+02  0.00000000000E+00 0.  1.
</event>
<event>
 7    1  0.2670433E-009  0.1221645E+03  0.7561462E-02  0.1239568E+00
         -2   -1    0    0    0  501 -0.00000000000E+00  0.00000000000E+00  0.13117286006E+03  0.13117286006E+03  0.00000000000E+00 0.  1.
          2   -1    0    0  501    0  0.00000000000E+00 -0.00000000000E+00 -0.19977807086E+03  0.19977807086E+03  0.00000000000E+00 0. -1.
         25    2    1    2    0    0  0.66094951749E+02 -0.10007130671E+03 -0.32961596593E+02  0.17640316705E+03  0.12509516946E+03 0.  0.
          5    1    3    3  502    0  0.59482790951E+02 -0.69965486667E+02  0.37575995132E+02  0.99311628494E+02  0.41800000000E+01 0.  1.
         -5    1    3    3    0  502  0.66121607979E+01 -0.30105820047E+02 -0.70537591725E+02  0.77091538560E+02  0.41800000000E+01 0.  1.
        -11    1    1    2    0    0 -0.13301187061E+01  0.11469207876E+02  0.26159065336E+02  0.28593856758E+02  0.00000000000E+00 0.  1.
         11    1    1    2    0    0 -0.64764833043E+02  0.88602098839E+02 -0.61802679541E+02  0.12595390711E+03  0.00000000000E+00 0. -1.
</event>
<event>
 7    1  0.2670433E-009  0.8975571E+02  0.7561462E-02  0.1303444E+00
         -1   -1    0    0    0  501 -0.00000000000E+00  0.00000000000E+00  0.55396014504E+03  0.55396014504E+03  0.00000000000E+00 0. -1.
          1   -1    0    0  501    0  0.00000000000E+00 -0.00000000000E+00 -0.23274168101E+02  0.23274168101E+02  0.00000000000E+00 0.  1.
         25    2    1    2    0    0  0.25744907415E+02 -0.12449535610E+02  0.35152219369E+03  0.37421038485E+03  0.12509103995E+03 0.  0.
          5    1    3    3  502    0 -0.28577928530E+02  0.28781938025E+01  0.28666214800E+03  0.28812782145E+03  0.41800000000E+01 0.  1.
         -5    1    3    3    0  502  0.54322835945E+02 -0.15327729413E+02  0.64860045696E+02  0.86082563402E+02  0.41800000000E+01 0.  1.
        -11    1    1    2    0    0  0.31287144854E+02 -0.96230129466E+01  0.45671152000E+02  0.56190229901E+02  0.00000000000E+00 0.  1.
         11    1    1    2    0    0 -0.57032052269E+02  0.22072548557E+02  0.13349263125E+03  0.14683369839E+03  0.00000000000E+00 0. -1.
</event>
<event>
 7    1  0.2670433E-009  0.1089028E+03  0.7561462E-02  0.1262615E+00
         -2   -1    0    0    0  501 -0.00000000000E+00  0.00000000000E+00  0.41531334933E+02  0.41531334933E+02  0.00000000000E+00 0.  1.
          2   -1    0    0  501    0  0.00000000000E+00 -0.00000000000E+00 -0.45829008465E+03  0.45829008465E+03  0.00000000000E+00 0. -1.
         25    2    1    2    0    0 -0.19801131134E+02 -0.70272979379E+02 -0.28482632731E+03  0.31954468888E+03  0.12510953216E+03 0.  0.
          5    1    3    3  502    0 -0.36877138040E+02  0.26300225332E+02 -0.11023012074E+03  0.11924670680E+03  0.41800000000E+01 0.  1.
         -5    1    3    3    0  502  0.17076006907E+02 -0.96573204711E+02 -0.17459620657E+03  0.20029798209E+03  0.41800000000E+01 0.  1.
        -11    1    1    2    0    0  0.90179038693E+01  0.12653872395E+02  0.15298294051E+02  0.21805524017E+02  0.00000000000E+00 0.  1.
         11    1    1    2    0    0  0.10783227264E+02  0.57619106983E+02 -0.14723071646E+03  0.15847120669E+03  0.00000000000E+00 0. -1.
</event>
<event>
 7    1  0.2670433E-009  0.1027474E+03  0.7561462E-02  0.1274622E+00
         -2   -1    0    0    0  501 -0.00000000000E+00  0.00000000000E+00  0.59791579513E+03  0.59791579513E+03  0.00000000000E+00 0.  1.
          2   -1    0    0  501    0  0.00000000000E+00 -0.00000000000E+00 -0.22592973623E+02  0.22592973623E+02  0.00000000000E+00 0. -1.
         25    2    1    2    0    0 -0.20179217443E+02 -0.34062287931E+02  0.27907476032E+03  0.30837902584E+03  0.12508981354E+03 0.  0.
          5    1    3    3  502    0  0.26613835620E+02 -0.67570947639E+02  0.17186794349E+03  0.18662848553E+03  0.41800000000E+01 0. -1.
         -5    1    3    3    0  502 -0.46793053063E+02  0.33508659708E+02  0.10720681683E+03  0.12175054031E+03  0.41800000000E+01 0. -1.
        -11    1    1    2    0    0 -0.13990270659E+02 -0.11489267418E+02  0.10848517681E+02  0.21105005918E+02  0.00000000000E+00 0. -1.
         11    1    1    2    0    0  0.34169488102E+02  0.45551555349E+02  0.28539954350E+03  0.29102473699E+03  0.00000000000E+00 0.  1.
</event>
<event>
 7    1  0.2670433E-009  0.1194715E+03  0.7561462E-02  0.1243971E+00
          2   -1    0    0  501    0  0.00000000000E+00  0.00000000000E+00  0.16459873933E+03  0.16459873933E+03  0.00000000000E+00 0. -1.
         -2   -1    0    0    0  501 -0.00000000000E+00 -0.00000000000E+00 -0.11090450119E+03  0.11090450119E+03  0.00000000000E+00 0.  1.
         25    2    1    2    0    0 -0.21623083743E+01 -0.60746065132E+02 -0.24624989397E+02  0.14124051023E+03  0.12509089344E+03 0.  0.
          5    1    3    3  502    0  0.86318416376E+01  0.38103996047E+02 -0.31043194202E+01  0.39414875414E+02  0.41800000000E+01 0. -1.
         -5    1    3    3    0  502 -0.10794150012E+02 -0.98850061180E+02 -0.21520669976E+02  0.10182563482E+03  0.41800000000E+01 0. -1.
        -11    1    1    2    0    0 -0.35244562086E+02  0.91807488520E+01  0.44079621995E+01  0.36686447591E+02  0.00000000000E+00 0.  1.
         11    1    1    2    0    0  0.37406870460E+02  0.51565316280E+02  0.73911265342E+02  0.97576282698E+02  0.00000000000E+00 0. -1.
</event>
<event>
 7    1  0.2670433E-009  0.1141588E+03  0.7561462E-02  0.1253057E+00
          4   -1    0    0  501    0  0.00000000000E+00  0.00000000000E+00  0.23732788293E+03  0.23732788293E+03  0.00000000000E+00 0. -1.
         -4   -1    0    0    0  501 -0.00000000000E+00 -0.00000000000E+00 -0.76105739578E+02  0.76105739578E+02  0.00000000000E+00 0.  1.
         25    2    1    2    0    0  0.26198093364E+02 -0.75663112194E+02  0.86490408595E+02  0.17187076630E+03  0.12509085852E+03 0.  0.
          5    1    3    3  502    0 -0.41429125008E+02  0.78220331265E+00  0.65504835473E+01  0.42158812551E+02  0.41800000000E+01 0. -1.
         -5    1    3    3    0  502  0.67627218372E+02 -0.76445315507E+02  0.79939925048E+02  0.12971195374E+03  0.41800000000E+01 0. -1.
        -11    1    1    2    0    0 -0.31697163775E+02  0.59036892055E+02  0.23033993080E+01  0.67047523916E+02  0.00000000000E+00 0.  1.
         11    1    1    2    0    0  0.54990704118E+01  0.16626220139E+02  0.72428335452E+02  0.74515332300E+02  0.00000000000E+00 0. -1.
</event>
<event>
 7    1  0.2670433E-009  0.9852877E+02  0.7561462E-02  0.1283421E+00
          1   -1    0    0  501    0  0.00000000000E+00  0.00000000000E+00  0.46620141886E+02  0.46620141886E+02  0.00000000000E+00 0. -1.
         -1   -1    0    0    0  501 -0.00000000000E+00 -0.00000000000E+00 -0.26316173577E+03  0.26316173577E+03  0.00000000000E+00 0.  1.
         25    2    1    2    0    0  0.10799208555E+01 -0.57590565003E+01 -0.89987914270E+02  0.15420862448E+03  0.12509253451E+03 0.  0.
          5    1    3    3  502    0  0.95439381917E+01  0.49966441088E+02 -0.38535915558E+01  0.51186468515E+02  0.41800000000E+01 0. -1.
         -5    1    3    3    0  502 -0.84640173362E+01 -0.55725497588E+02 -0.86134322714E+02  0.10302215597E+03  0.41800000000E+01 0. -1.
        -11    1    1    2    0    0 -0.19555908332E+02 -0.37591146197E+02 -0.48553824474E+02  0.64443787087E+02  0.00000000000E+00 0. -1.
         11    1    1    2    0    0  0.18475987477E+02  0.43350202698E+02 -0.77999855145E+02  0.91129466089E+02  0.00000000000E+00 0.  1.
</event>
<event>
 7    1  0.2670433E-009  0.1302068E+03  0.7561462E-02  0.1227149E+00
          2   -1    0    0  501    0  0.00000000000E+00  0.00000000000E+00  0.24129825902E+03  0.24129825902E+03  0.00000000000E+00 0. -1.
         -2   -1    0    0    0  501 -0.00000000000E+00 -0.00000000000E+00 -0.96454702085E+02  0.96454702085E+02  0.00000000000E+00 0.  1.
         25    2    1    2    0    0  0.89303128395E+02 -0.17468984886E+02  0.16747274750E+02  0.15558957734E+03  0.12508969258E+03 0.  0.
          5    1    3    3  502    0 -0.17112037893E+02 -0.25613487216E+02 -0.26018602228E+02  0.40537792615E+02  0.41800000000E+01 0.  1.
         -5    1    3    3    0  502  0.10641516629E+03  0.81445023306E+01  0.42765876978E+02  0.11505178472E+03  0.41800000000E+01 0.  1.
        -11    1    1    2    0    0 -0.56397691241E+02  0.50639555340E+02  0.48867315089E+02  0.90183582909E+02  0.00000000000E+00 0.  1.
         11    1    1    2    0    0 -0.32905437154E+02 -0.33170570455E+02  0.79228967093E+02  0.91979800854E+02  0.00000000000E+00 0. -1.
</event>
<event>
 7    1  0.2670433E-009  0.1834206E+03  0.7561462E-02  0.1164533E+00
          2   -1    0    0  501    0  0.00000000000E+00  0.00000000000E+00  0.18030441491E+03  0.18030441491E+03  0.00000000000E+00 0. -1.
         -2   -1    0    0    0  501 -0.00000000000E+00 -0.00000000000E+00 -0.23660557334E+03  0.23660557334E+03  0.00000000000E+00 0.  1.
         25    2    1    2    0    0  0.10967229434E+03 -0.13291661757E+03 -0.61627771718E+02  0.22167494663E+03  0.12508781054E+03 0.  0.
          5    1    3    3  502    0  0.72005049926E+02 -0.20363772760E+02  0.19996289139E+02  0.77567612025E+02  0.41800000000E+01 0.  1.
         -5    1    3    3    0  502  0.37667244411E+02 -0.11255284481E+03 -0.81624060857E+02  0.14410733461E+03  0.41800000000E+01 0.  1.
        -11    1    1    2    0    0 -0.32581098551E+02  0.28135218748E+02 -0.38715368936E+02  0.57896444698E+02  0.00000000000E+00 0.  1.
         11    1    1    2    0    0 -0.77091195786E+02  0.10478139882E+03  0.44041982224E+02  0.13733859693E+03  0.00000000000E+00 0. -1.
</event>
<event>
 7    1  0.2670433E-009  0.1314860E+03  0.7561462E-02  0.1225267E+00
          2   -1    0    0  501    0  0.00000000000E+00  0.00000000000E+00  0.76179154165E+02  0.76179154165E+02  0.00000000000E+00 0. -1.
         -2   -1    0    0    0  501 -0.00000000000E+00 -0.00000000000E+00 -0.28914197997E+03  0.28914197997E+03  0.00000000000E+00 0.  1.
         25    2    1    2    0    0 -0.86011964213E+02 -0.33778115942E+02 -0.16268020255E+03  0.22505746310E+03  0.12508794622E+03 0.  0.
          5    1    3    3  502    0 -0.61309860472E+02  0.37245035884E+02 -0.43266556596E+02  0.83878239184E+02  0.41800000000E+01 0. -1.
         -5    1    3    3    0  502 -0.24702103742E+02 -0.71023151826E+02 -0.11941364596E+03  0.14117922392E+03  0.41800000000E+01 0. -1.
        -11    1    1    2    0    0  0.77577559425E+02 -0.34263058311E+01 -0.63954845070E+00  0.77655819615E+02  0.00000000000E+00 0.  1.
         11    1    1    2    0    0  0.84344047889E+01  0.37204421774E+02 -0.49643074801E+02  0.62607851419E+02  0.00000000000E+00 0. -1.
</event>
<event>
 7    1  0.2670433E-009  0.8555226E+02  0.7561462E-02  0.1313995E+00
         -2   -1    0    0    0  501 -0.00000000000E+00  0.00000000000E+00  0.29701393476E+03  0.29701393476E+03  0.00000000000E+00 0.  1.
          2   -1    0    0  501    0  0.00000000000E+00 -0.00000000000E+00 -0.50026036375E+02  0.50026036375E+02  0.00000000000E+00 0. -1.
         25    2    1    2    0    0  0.23858373654E+02 -0.33632524807E+02  0.19844481823E+03  0.23817430086E+03  0.12508510299E+03 0.  0.
          5    1    3    3  502    0 -0.22387109398E+02 -0.56771903954E+02  0.44280777091E+02  0.75514842021E+02  0.41800000000E+01 0.  1.
         -5    1    3    3    0  502  0.46245483052E+02  0.23139379147E+02  0.15416404114E+03  0.16265945884E+03  0.41800000000E+01 0.  1.
        -11    1    1    2    0    0 -0.53803015267E+01  0.38558070580E+02 -0.15593825562E+02  0.41938524616E+02  0.00000000000E+00 0. -1.
         11    1    1    2    0    0 -0.18478072127E+02 -0.49255457727E+01  0.64136905724E+02  0.66927145663E+02  0.00000000000E+00 0.  1.
</event>
<event>
 7    1  0.2670433E-009  0.1197419E+03  0.7561462E-02  0.1243523E+00
          4   -1    0    0  501    0  0.00000000000E+00  0.00000000000E+00  0.32657793612E+02  0.32657793612E+02  0.00000000000E+00 0. -1.
         -4   -1    0    0    0  501 -0.00000000000E+00 -0.00000000000E+00 -0.45322921303E+03  0.45322921303E+03  0.00000000000E+00 0.  1.
         25    2    1    2    0    0 -0.60292449351E+02 -0.35390641770E+02 -0.23280674452E+03  0.27337550799E+03  0.12509001199E+03 0.  0.
          5    1    3    3  502    0 -0.55053392951E+02 -0.80456597403E+02 -0.16463918652E+03  0.19138357891E+03  0.41800000000E+01 0.  1.
         -5    1    3    3    0  502 -0.52390563998E+01  0.45065955633E+02 -0.68167558009E+02  0.81991929078E+02  0.41800000000E+01 0.  1.
        -11    1    1    2    0    0  0.65241961995E+02  0.48693275606E+01 -0.10038291909E+03  0.11982050910E+03  0.00000000000E+00 0. -1.
         11    1    1    2    0    0 -0.49495126444E+01  0.30521314209E+02 -0.87381755812E+02  0.92690989558E+02  0.00000000000E+00 0.  1.
</event>
<event>
 7    1  0.2670433E-009  0.2445304E+03  0.7561462E-02  0.1116811E+00
          2   -1    0    0  501    0  0.00000000000E+00  0.00000000000E+00  0.65510531399E+03  0.65510531399E+03  0.00000000000E+00 0. -1.
         -2   -1    0    0    0  501 -0.00000000000E+00 -0.00000000000E+00 -0.13898170815E+03  0.13898170815E+03  0.00000000000E+00 0.  1.
         25    2    1    2    0    0  0.75734798530E+02 -0.21189023999E+03  0.44727436277E+03  0.51607774359E+03  0.12509455751E+03 0.  0.
          5    1    3    3  502    0  0.76890642008E+02 -0.69567014650E+02  0.11684881235E+03  0.15627814212E+03  0.41800000000E+01 0.  1.
         -5    1    3    3    0  502 -0.11558434787E+01 -0.14232322534E+03  0.33042555042E+03  0.35979960147E+03  0.41800000000E+01 0.  1.
        -11    1    1    2    0    0 -0.93457845990E+02  0.13634760645E+03  0.10133317278E+03  0.19389030576E+03  0.00000000000E+00 0. -1.
         11    1    1    2    0    0  0.17723047460E+02  0.75542633543E+02 -0.32483929714E+02  0.84118972792E+02  0.00000000000E+00 0.  1.
</event>
<event>
 7    1  0.2670433E-009  0.8012041E+02  0.7561462E-02  0.1328710E+00
          1   -1    0    0  501    0  0.00000000000E+00  0.00000000000E+00  0.10595911430E+03  0.10595911430E+03  0.00000000000E+00 0. -1.
         -1   -1    0    0    0  501 -0.00000000000E+00 -0.00000000000E+00 -0.14346632778E+03  0.14346632778E+03  0.00000000000E+00 0.  1.
         25    2    1    2    0    0 -0.38009863676E+02  0.37756805231E+02  0.59027481436E+01  0.13620919176E+03  0.12509106845E+03 0.  0.
          5    1    3    3  502    0  0.77612559032E+01  0.27172931841E+02  0.58779767240E+02  0.65353949803E+02  0.41800000000E+01 0. -1.
         -5    1    3    3    0  502 -0.45771119579E+02  0.10583873390E+02 -0.52877019097E+02  0.70855241952E+02  0.41800000000E+01 0. -1.
        -11    1    1    2    0    0  0.43313557609E+02  0.29919978118E+01 -0.55422784864E+02  0.70403845106E+02  0.00000000000E+00 0.  1.
         11    1    1    2    0    0 -0.53036939324E+01 -0.40748803043E+02  0.12012823242E+02  0.42812405223E+02  0.00000000000E+00 0. -1.
</event>
<event>
 7    1  0.2670433E-009  0.1447371E+03  0.7561462E-02  0.1207093E+00
         -3   -1    0    0    0  501 -0.00000000000E+00  0.00000000000E+00  0.57383306003E+03  0.57383306003E+03  0.00000000000E+00 0.  1.
          3   -1    0    0  501    0  0.00000000000E+00 -0.00000000000E+00 -0.47910784964E+02  0.47910784964E+02  0.00000000000E+00 0. -1.
         25    2    1    2    0    0 -0.55761483317E+02 -0.10622364897E+03  0.21306439181E+03  0.27465508271E+03  0.12508466245E+03 0.  0.
          5    1    3    3  502    0  0.25687522402E+02 -0.46589886582E+02  0.14041495879E+03  0.15021417839E+03  0.41800000000E+01 0. -1.
         -5    1    3    3    0  502 -0.81449005719E+02 -0.59633762390E+02  0.72649433017E+02  0.12444090432E+03  0.41800000000E+01 0. -1.
        -11    1    1    2    0    0  0.69594866025E+02  0.89370576590E+02  0.18158776457E+03  0.21402023638E+03  0.00000000000E+00 0. -1.
         11    1    1    2    0    0 -0.13833382708E+02  0.16853072382E+02  0.13127011869E+03  0.13306852590E+03  0.00000000000E+00 0.  1.
</event>
<event>
 7    1  0.2670433E-009  0.2832603E+03  0.7561462E-02  0.1093921E+00
         -2   -1    0    0    0  501 -0.00000000000E+00  0.00000000000E+00  0.81438705808E+02  0.81438705808E+02  0.00000000000E+00 0.  1.
          2   -1    0    0  501    0  0.00000000000E+00 -0.00000000000E+00 -0.14009668880E+04  0.14009668880E+04  0.00000000000E+00 0. -1.
         25    2    1    2    0    0  0.65498683213E+01  0.27625392110E+03 -0.31763298923E+03  0.43920103610E+03  0.12509078532E+03 0.  0.
          5    1    3    3  502    0  0.45859007629E+02  0.18673108157E+03 -0.14538102316E+03  0.24109056328E+03  0.41800000000E+01 0.  1.
         -5    1    3    3    0  502 -0.39309139308E+02  0.89522839525E+02 -0.17225196607E+03  0.19811047283E+03  0.41800000000E+01 0.  1.
        -11    1    1    2    0    0 -0.38423880968E+01 -0.14321022091E+03 -0.35601676782E+03  0.38376017288E+03  0.00000000000E+00 0.  1.
         11    1    1    2    0    0 -0.27074802245E+01 -0.13304370019E+03 -0.64587842513E+03  0.65944438481E+03  0.00000000000E+00 0. -1.
</event>
<event>
 7    1  0.2670433E-009  0.1184217E+03  0.7561462E-02  0.1245724E+00
          1   -1    0    0  501    0  0.00000000000E+00  0.00000000000E+00  0.17012724693E+03  0.17012724693E+03  0.00000000000E+00 0. -1.
         -1   -1    0    0    0  501 -0.00000000000E+00 -0.00000000000E+00 -0.84159186522E+02  0.84159186522E+02  0.00000000000E+00 0.  1.
         25    2    1    2    0    0  0.46910357990E+01 -0.48907810836E+02  0.47581225533E+02  0.14256750533E+03  0.12509013061E+03 0.  0.
          5    1    3    3  502    0  0.12605189771E+02 -0.90213876997E+02  0.24541123298E+02  0.94430787060E+02  0.41800000000E+01 0.  1.
         -5    1    3    3    0  502 -0.79141539724E+01  0.41306066161E+02  0.23040102235E+02  0.48136718270E+02  0.41800000000E+01 0.  1.
        -11    1    1    2    0    0 -0.44665068676E+02  0.65362634837E+01  0.74166076709E+01  0.45746007143E+02  0.00000000000E+00 0.  1.
         11    1    1    2    0    0  0.39974032877E+02  0.42371547353E+02  0.30970227205E+02  0.65972920980E+02  0.00000000000E+00 0. -1.
</event>
<event>
 7    1  0.2670433E-009  0.1142996E+03  0.7561462E-02  0.1252809E+00
          4   -1    0    0  501    0  0.00000000000E+00  0.00000000000E+00  0.20166313179E+02  0.20166313179E+02  0.00000000000E+00 0. -1.
         -4   -1    0    0    0  501 -0.00000000000E+00 -0.00000000000E+00 -0.93510657761E+03  0.93510657761E+03  0.00000000000E+00 0.  1.
         25    2    1    2    0    0 -0.75409587514E+02  0.77335892145E+01 -0.67532352523E+03  0.69097937325E+03  0.12507684132E+03 0.  0.
          5    1    3    3  502    0 -0.93158274442E+02 -0.17154362511E+02 -0.62349062780E+03  0.63065899788E+03  0.41800000000E+01 0.  1.
         -5    1    3    3    0  502  0.17748686928E+02  0.24887951725E+02 -0.51832897426E+02  0.60320375366E+02  0.41800000000E+01 0.  1.
        -11    1    1    2    0    0  0.83908316627E+02  0.87708629987E+01 -0.14402061503E+03  0.16691156698E+03  0.00000000000E+00 0.  1.
         11    1    1    2    0    0 -0.84987291125E+01 -0.16504452213E+02 -0.95596124175E+02  0.97381950569E+02  0.00000000000E+00 0. -1.
</event>
<event>
 7    1  0.2710754E-009  0.1648932E+03  0.7561462E-02  0.1183280E+00
          1   -1    0    0  501    0  0.00000000000E+00  0.00000000000E+00  0.26628041597E+03  0.26628041597E+03  0.00000000000E+00 0. -1.
         -1   -1    0    0    0  501 -0.00000000000E+00 -0.00000000000E+00 -0.11459082858E+03  0.11459082858E+03  0.00000000000E+00 0.  1.
         25    2    1    2    0    0 -0.37819455259E+02 -0.12848428105E+03  0.10792591557E+03  0.21268234158E+03  0.12508898231E+03 0.  0.
          5    1    3    3  502    0 -0.71689259645E+02 -0.46536697601E+02  0.20294041495E+02  0.87945066333E+02  0.41800000000E+01 0.  1.
         -5    1    3    3    0  502  0.33869804386E+02 -0.81947583453E+02  0.87631874077E+02  0.12473727525E+03  0.41800000000E+01 0.  1.
        -11    1    1    2    0    0 -0.24103240226E+02  0.49720060076E+02 -0.73019696774E+01  0.55734812501E+02  0.00000000000E+00 0.  1.
         11    1    1    2    0    0  0.61922695486E+02  0.78764220978E+02  0.51065641493E+02  0.11245409047E+03  0.00000000000E+00 0. -1.
</event>
<event>
 7    1  0.2670433E-009  0.9260797E+02  0.7561462E-02  0.1296656E+00
          2   -1    0    0  501    0  0.00000000000E+00  0.00000000000E+00  0.77361018070E+03  0.77361018070E+03  0.00000000000E+00 0. -1.
         -2   -1    0    0    0  501 -0.00000000000E+00 -0.00000000000E+00 -0.19414261379E+02  0.19414261379E+02  0.00000000000E+00 0.  1.
         25    2    1    2    0    0 -0.32520824528E+02 -0.49436415240E+02  0.41847483291E+03  0.44076067472E+03  0.12508886207E+03 0.  0.
          5    1    3    3  502    0 -0.52935222065E+02 -0.33260326657E+02  0.81727933749E+02  0.10298210825E+03  0.41800000000E+01 0.  1.
         -5    1    3    3    0  502  0.20414397537E+02 -0.16176088584E+02  0.33674689917E+03  0.33777856647E+03  0.41800000000E+01 0.  1.
        -11    1    1    2    0    0  0.11349642862E+02 -0.20323504456E+02  0.30005407070E+02  0.37976093531E+02  0.00000000000E+00 0.  1.
         11    1    1    2    0    0  0.21171181666E+02  0.69759919696E+02  0.30571567934E+03  0.31428767383E+03  0.00000000000E+00 0. -1.
</event>
<event>
 7    1  0.2670433E-009  0.9011628E+02  0.7561462E-02  0.1302570E+00
          1   -1    0    0  501    0  0.00000000000E+00  0.00000000000E+00  0.10920133023E+04  0.10920133023E+04  0.00000000000E+00 0. -1.
         -1   -1    0    0    0  501 -0.00000000000E+00 -0.00000000000E+00 -0.22052185986E+02  0.22052185986E+02  0.00000000000E+00 0.  1.
         25    2    1    2    0    0  0.27023788303E+02  0.70500430847E+02  0.86850442554E+03  0.88070837121E+03  0.12508677813E+03 0.  0.
          5    1    3    3  502    0 -0.11985430829E+02  0.58936015494E+01  0.65599367687E+01  0.15456075239E+02  0.41800000000E+01 0.  1.
         -5    1    3    3    0  502  0.39009219132E+02  0.64606829298E+02  0.86194448877E+03  0.86525229597E+03  0.41800000000E+01 0.  1.
        -11    1    1    2    0    0 -0.26824553128E+02 -0.77786578683E+01  0.66616232053E+01  0.28713087477E+02  0.00000000000E+00 0.  1.
         11    1    1    2    0    0 -0.19923517543E+00 -0.62721772979E+02  0.19479506761E+03  0.20464402964E+03  0.00000000000E+00 0. -1.
</event>
<event>
 7    1  0.2670433E-009  0.1320574E+03  0.7561462E-02  0.1224434E+00
         -2   -1    0    0    0  501 -0.00000000000E+00  0.00000000000E+00  0.49553612143E+02  0.49553612143E+02  0.00000000000E+00 0.  1.
          2   -1    0    0  501    0  0.00000000000E+00 -0.00000000000E+00 -0.46976515886E+03  0.46976515886E+03  0.00000000000E+00 0. -1.
         25    2    1    2    0    0  0.25571998630E+02  0.74258700431E+02 -0.35113144122E+03  0.38093310871E+03  0.12509381516E+03 0.  0.
          5    1    3    3  502    0  0.74374662623E+02  0.40769295926E+02 -0.24557436807E+03  0.25984219939E+03  0.41800000000E+01 0.  1.
         -5    1    3    3    0  502 -0.48802663992E+02  0.33489404505E+02 -0.10555707315E+03  0.12109090931E+03  0.41800000000E+01 0.  1.
        -11    1    1    2    0    0 -0.59430066193E+02 -0.39640373737E+02 -0.43128776936E+02  0.83446889683E+02  0.00000000000E+00 0. -1.
         11    1    1    2    0    0  0.33858067563E+02 -0.34618326694E+02 -0.25951328556E+02  0.54938772611E+02  0.00000000000E+00 0.  1.
</event>
<event>
 7    1  0.2713564E-009  0.1440359E+03  0.7561462E-02  0.1207999E+00
          2   -1    0    0  501    0  0.00000000000E+00  0.00000000000E+00  0.11334183715E+04  0.11334183715E+04  0.00000000000E+00 0. -1.
         -2   -1    0    0    0  501 -0.00000000000E+00 -0.00000000000E+00 -0.20530326464E+02  0.20530326464E+02  0.00000000000E+00 0.  1.
         25    2    1    2    0    0  0.74607553584E+02 -0.67085858979E+02  0.73662750914E+03  0.75387968968E+03  0.12509076613E+03 0.  0.
          5    1    3    3  502    0  0.81582125646E+02 -0.97586809578E+02  0.62765875090E+03  0.64043095538E+03  0.41800000000E+01 0. -1.
         -5    1    3    3    0  502 -0.69745720614E+01  0.30500950599E+02  0.10896875824E+03  0.11344873431E+03  0.41800000000E+01 0. -1.
        -11    1    1    2    0    0  0.14507164484E+02 -0.42212449763E+01  0.15333933175E+02  0.21526872442E+02  0.00000000000E+00 0.  1.
         11    1    1    2    0    0 -0.89114718069E+02  0.71307103956E+02  0.36092660270E+03  0.37854213581E+03  0.00000000000E+00 0. -1.
</event>
<event>
 7    1  0.2670433E-009  0.1839500E+03  0.7561462E-02  0.1164034E+00
          2   -1    0    0  501    0  0.00000000000E+00  0.00000000000E+00  0.82976091737E+03  0.82976091737E+03  0.00000000000E+00 0.  1.
         -2   -1    0    0    0  501 -0.00000000000E+00 -0.00000000000E+00 -0.11056430133E+03  0.11056430133E+03  0.00000000000E+00 0. -1.
         25    2    1    2    0    0  0.90011793044E+02  0.14836448330E+03  0.20694434430E+02  0.21491884601E+03  0.12509079888E+03 0.  0.
          5    1    3    3  502    0  0.19979357249E+02  0.11523845810E+02 -0.42601708698E+02  0.48624599971E+02  0.41800000000E+01 0.  1.
         -5    1    3    3    0  502  0.70032435795E+02  0.13684063749E+03  0.63296143128E+02  0.16629424604E+03  0.41800000000E+01 0.  1.
        -11    1    1    2    0    0  0.10377408721E+02 -0.46576085840E+02  0.25514938306E+03  0.25957316899E+03  0.00000000000E+00 0.  1.
         11    1    1    2    0    0 -0.10038920176E+03 -0.10178839746E+03  0.44335279855E+03  0.46583320370E+03  0.00000000000E+00 0. -1.
</event>
<event>
 7    1  0.2670433E-009  0.1161559E+03  0.7561462E-02  0.1249577E+00
         -4   -1    0    0    0  501 -0.00000000000E+00  0.00000000000E+00  0.20612984975E+03  0.20612984975E+03  0.00000000000E+00 0.  1.
          4   -1    0    0  501    0  0.00000000000E+00 -0.00000000000E+00 -0.80408570232E+02  0.80408570232E+02  0.00000000000E+00 0. -1.
         25    2    1    2    0    0  0.38151614335E+02 -0.49950931302E+02  0.69667743020E+02  0.15636797477E+03  0.12508680146E+03 0.  0.
          5    1    3    3  502    0 -0.41768465969E+02 -0.42185485173E+02  0.32137961786E+02  0.67635352416E+02  0.41800000000E+01 0.  1.
         -5    1    3    3    0  502  0.79920080305E+02 -0.77654461280E+01  0.37529781234E+02  0.88732622349E+02  0.41800000000E+01 0.  1.
        -11    1    1    2    0    0  0.12916446900E+02  0.37736835112E+02  0.65626306782E+02  0.76796584993E+02  0.00000000000E+00 0.  1.
         11    1    1    2    0    0 -0.51068061236E+02  0.12214096190E+02 -0.95727702846E+01  0.53373860222E+02  0.00000000000E+00 0. -1.
</event>
<event>
 7    1  0.2867455E-009  0.1704071E+03  0.7561462E-02  0.1177424E+00
         -1   -1    0    0    0  501 -0.00000000000E+00  0.00000000000E+00  0.16278867213E+03  0.16278867213E+03  0.00000000000E+00 0.  1.
          1   -1    0    0  501    0  0.00000000000E+00 -0.00000000000E+00 -0.20600745551E+03  0.20600745551E+03  0.00000000000E+00 0. -1.
         25    2    1    2    0    0 -0.10670174066E+03  0.84931343841E+02  0.32477165824E+02  0.18788512262E+03  0.12508980124E+03 0.  0.
          5    1    3    3  502    0 -0.18436968565E+02 -0.32518156891E+02  0.12986348942E+01  0.37636567193E+02  0.41800000000E+01 0.  1.
         -5    1    3    3    0  502 -0.88264772097E+02  0.11744950073E+03  0.31178530930E+02  0.15024855542E+03  0.41800000000E+01 0.  1.
        -11    1    1    2    0    0  0.51003514627E+02  0.41382637984E+01  0.43725710949E+00  0.51172990194E+02  0.00000000000E+00 0.  1.
         11    1    1    2    0    0  0.55698226036E+02 -0.89069607640E+02 -0.76133206315E+02  0.12973801483E+03  0.00000000000E+00 0. -1.
</event>
<event>
 7    1  0.2670433E-009  0.1077659E+03  0.7561462E-02  0.1264764E+00
         -2   -1    0    0    0  501 -0.00000000000E+00  0.00000000000E+00  0.22228512888E+03  0.22228512888E+03  0.00000000000E+00 0.  1.
          2   -1    0    0  501    0  0.00000000000E+00 -0.00000000000E+00 -0.84296579858E+02  0.84296579858E+02  0.00000000000E+00 0. -1.
         25    2    1    2    0    0  0.60371839229E+02  0.26525528835E+02  0.14255474557E+03  0.20079380656E+03  0.12509170483E+03 0.  0.
          5    1    3    3  502    0 -0.15705466320E+02 -0.27904472149E+02  0.25906615328E+01  0.32396067129E+02  0.41800000000E+01 0. -1.
         -5    1    3    3    0  502  0.76077305548E+02  0.54430000984E+02  0.13996408403E+03  0.16839773943E+03  0.41800000000E+01 0. -1.
        -11    1    1    2    0    0 -0.42698591500E+02 -0.46366399462E+02 -0.29279919736E+02  0.69500549746E+02  0.00000000000E+00 0.  1.
         11    1    1    2    0    0 -0.17673247729E+02  0.19840870627E+02  0.24713723194E+02  0.36287352433E+02  0.00000000000E+00 0. -1.
</event>
<event>
 7    1  0.2670433E-009  0.2486239E+03  0.7561462E-02  0.1114178E+00
          1   -1    0    0  501    0  0.00000000000E+00  0.00000000000E+00  0.23723563388E+03  0.23723563388E+03  0.00000000000E+00 0. -1.
         -1   -1    0    0    0  501 -0.00000000000E+00 -0.00000000000E+00 -0.31202783655E+03  0.31202783655E+03  0.00000000000E+00 0.  1.
         25    2    1    2    0    0  0.15817569624E+03  0.18090953510E+03 -0.10328600641E+03  0.28993668636E+03  0.12508985653E+03 0.  0.
          5    1    3    3  502    0  0.28534133880E+02  0.54027961156E+02 -0.88854526516E+02  0.10791578506E+03  0.41800000000E+01 0. -1.
         -5    1    3    3    0  502  0.12964156236E+03  0.12688157394E+03 -0.14431479896E+02  0.18202090130E+03  0.41800000000E+01 0. -1.
        -11    1    1    2    0    0 -0.45195349215E+02 -0.49732402338E+01 -0.10421905178E+02  0.46647280913E+02  0.00000000000E+00 0.  1.
         11    1    1    2    0    0 -0.11298034702E+03 -0.17593629486E+03  0.38915708926E+02  0.21267950316E+03  0.00000000000E+00 0. -1.
</event>
<event>
 7    1  0.2670433E-009  0.1127300E+03  0.7561462E-02  0.1255596E+00
         -1   -1    0    0    0  501 -0.00000000000E+00  0.00000000000E+00  0.34638793935E+02  0.34638793935E+02  0.00000000000E+00 0.  1.
          1   -1    0    0  501    0  0.00000000000E+00 -0.00000000000E+00 -0.40849723239E+03  0.40849723239E+03  0.00000000000E+00 0. -1.
         25    2    1    2    0    0  0.40394221964E+01 -0.49648735831E+02 -0.24416904847E+03  0.27882983292E+03  0.12508492152E+03 0.  0.
          5    1    3    3  502    0  0.59836371885E+02 -0.13661551085E+02 -0.16082827319E+03  0.17219243664E+03  0.41800000000E+01 0.  1.
         -5    1    3    3    0  502 -0.55796949689E+02 -0.35987184746E+02 -0.83340775280E+02  0.10663739628E+03  0.41800000000E+01 0.  1.
        -11    1    1    2    0    0 -0.15323778394E+02  0.71338124904E+02 -0.76235841573E+02  0.10552653595E+03  0.00000000000E+00 0.  1.
         11    1    1    2    0    0  0.11284356197E+02 -0.21689389073E+02 -0.53453548406E+02  0.58779657453E+02  0.00000000000E+00 0. -1.
</event>
<event>
 7    1  0.2670433E-009  0.1930273E+03  0.7561462E-02  0.1155759E+00
          2   -1    0    0  501    0  0.00000000000E+00  0.00000000000E+00  0.71216426036E+03  0.71216426036E+03  0.00000000000E+00 0. -1.
         -2   -1    0    0    0  501 -0.00000000000E+00 -0.00000000000E+00 -0.59888662580E+02  0.59888662580E+02  0.00000000000E+00 0.  1.
         25    2    1    2    0    0  0.17489591925E+03  0.15065255814E+02  0.31705457862E+03  0.38338724442E+03  0.12508648550E+03 0.  0.
          5    1    3    3  502    0  0.36475894080E+02 -0.26795506153E+02  0.17434774601E+03  0.18017518957E+03  0.41800000000E+01 0. -1.
         -5    1    3    3    0  502  0.13842002517E+03  0.41860761967E+02  0.14270683262E+03  0.20321205485E+03  0.41800000000E+01 0. -1.
        -11    1    1    2    0    0 -0.11859991843E+03  0.31678265689E+02  0.22624090649E+03  0.25739930252E+03  0.00000000000E+00 0.  1.
         11    1    1    2    0    0 -0.56296000825E+02 -0.46743521503E+02  0.10898011267E+03  0.13126637600E+03  0.00000000000E+00 0. -1.
</event>
<event>
 7    1  0.2670433E-009  0.1714443E+03  0.7561462E-02  0.1176350E+00
         -3   -1    0    0    0  501 -0.00000000000E+00  0.00000000000E+00  0.28318383178E+03  0.28318383178E+03  0.00000000000E+00 0. -1.
          3   -1    0    0  501    0  0.00000000000E+00 -0.00000000000E+00 -0.18407938337E+03  0.18407938337E+03  0.00000000000E+00 0.  1.
         25    2    1    2    0    0  0.67687949433E+02  0.13600635185E+03 -0.79967788080E+02  0.21241632421E+03  0.12508581622E+03 0.  0.
          5    1    3    3  502    0  0.84495155123E+01  0.80863400788E+02  0.19896697912E+02  0.83807129095E+02  0.41800000000E+01 0. -1.
         -5    1    3    3    0  502  0.59238433920E+02  0.55142951059E+02 -0.99864485993E+02  0.12860919511E+03  0.41800000000E+01 0. -1.
        -11    1    1    2    0    0 -0.51960128965E+02 -0.93326504216E+01  0.41266891011E+02  0.67006788161E+02  0.00000000000E+00 0. -1.
         11    1    1    2    0    0 -0.15727820468E+02 -0.12667370142E+03  0.13780534548E+03  0.18784010278E+03  0.00000000000E+00 0.  1.
</event>
<event>
 7    1  0.2670433E-009  0.1117721E+03  0.7561462E-02  0.1257323E+00
          3   -1    0    0  501    0  0.00000000000E+00  0.00000000000E+00  0.19227629314E+02  0.19227629314E+02  0.00000000000E+00 0. -1.
         -3   -1    0    0    0  501 -0.00000000000E+00 -0.00000000000E+00 -0.82224899187E+03  0.82224899187E+03  0.00000000000E+00 0.  1.
         25    2    1    2    0    0 -0.14670588830E+02 -0.59602832005E+02 -0.49866144615E+03  0.51776404085E+03  0.12509452569E+03 0.  0.
          5    1    3    3  502    0  0.24445680646E+02  0.21265485446E+02 -0.47012512011E+02  0.57249112299E+02  0.41800000000E+01 0.  1.
         -5    1    3    3    0  502 -0.39116269476E+02 -0.80868317451E+02 -0.45164893414E+03  0.46051492855E+03  0.41800000000E+01 0.  1.
        -11    1    1    2    0    0 -0.23223410007E+02  0.58604987728E+02 -0.24730441966E+03  0.25521235735E+03  0.00000000000E+00 0.  1.
         11    1    1    2    0    0  0.37893998837E+02  0.99784427709E+00 -0.57055496741E+02  0.68500222988E+02  0.00000000000E+00 0. -1.
</event>
<event>
 7    1  0.2670433E-009  0.1408540E+03  0.7561462E-02  0.1212184E+00
          2   -1    0    0  501    0  0.00000000000E+00  0.00000000000E+00  0.37360510926E+03  0.37360510926E+03  0.00000000000E+00 0. -1.
         -2   -1    0    0    0  501 -0.00000000000E+00 -0.00000000000E+00 -0.64535194395E+02  0.64535194395E+02  0.00000000000E+00 0.  1.
         25    2    1    2    0    0  0.60257221726E+02  0.69967697681E+02  0.24877055415E+03  0.29336231566E+03  0.12509295803E+03 0.  0.
          5    1    3    3  502    0 -0.12813453328E+02  0.78782720851E+02  0.15174818632E+03  0.17151060067E+03  0.41800000000E+01 0. -1.
         -5    1    3    3    0  502  0.73070675054E+02 -0.88150231696E+01  0.97022367827E+02  0.12185171499E+03  0.41800000000E+01 0. -1.
        -11    1    1    2    0    0 -0.13694909500E+02 -0.79384118193E+02  0.53705277852E+02  0.96817589500E+02  0.00000000000E+00 0. -1.
         11    1    1    2    0    0 -0.46562312226E+02  0.94164205116E+01  0.65940828629E+01  0.47960398496E+02  0.00000000000E+00 0.  1.
</event>
<event>
 7    1  0.2670433E-009  0.1076341E+03  0.7561462E-02  0.1265015E+00
          1   -1    0    0  501    0  0.00000000000E+00  0.00000000000E+00  0.86784746431E+02  0.86784746431E+02  0.00000000000E+00 0. -1.
         -1   -1    0    0    0  501 -0.00000000000E+00 -0.00000000000E+00 -0.19306599050E+03  0.19306599050E+03  0.00000000000E+00 0.  1.
         25    2    1    2    0    0  0.86060751928E+01  0.51855910466E+02 -0.65553157019E+01  0.13584616997E+03  0.12509240485E+03 0.  0.
          5    1    3    3  502    0 -0.44729116759E+02  0.20316726915E+02  0.35576636433E+02  0.60799940284E+02  0.41800000000E+01 0. -1.
         -5    1    3    3    0  502  0.53335191952E+02  0.31539183550E+02 -0.42131952135E+02  0.75046229687E+02  0.41800000000E+01 0. -1.
        -11    1    1    2    0    0  0.35335984992E+02 -0.48201599033E+02 -0.58933874546E+02  0.83935853803E+02  0.00000000000E+00 0. -1.
         11    1    1    2    0    0 -0.43942060185E+02 -0.36543114329E+01 -0.40792053822E+02  0.60068713157E+02  0.00000000000E+00 0.  1.
</event>
<event>
 7    1  0.2670433E-009  0.9740879E+02  0.7561462E-02  0.1285841E+00
         -1   -1    0    0    0  501 -0.00000000000E+00  0.00000000000E+00  0.10324713676E+03  0.10324713676E+03  0.00000000000E+00 0.  1.
          1   -1    0    0  501    0  0.00000000000E+00 -0.00000000000E+00 -0.18439741942E+03  0.18439741942E+03  0.00000000000E+00 0. -1.
         25    2    1    2    0    0 -0.83752860631E+02  0.17691267720E+01 -0.35654597655E+02  0.15471470594E+03  0.12509084070E+03 0.  0.
          5    1    3    3  502    0 -0.26450769931E+02 -0.33079075020E+02 -0.67935852388E+02  0.80166207805E+02  0.41800000000E+01 0. -1.
         -5    1    3    3    0  502 -0.57302090699E+02  0.34848201791E+02  0.32281254733E+02  0.74548498132E+02  0.41800000000E+01 0. -1.
        -11    1    1    2    0    0  0.19306156020E+02  0.58315182386E+01 -0.62642841131E+02  0.65809268422E+02  0.00000000000E+00 0. -1.
         11    1    1    2    0    0  0.64446704611E+02 -0.76006450106E+01  0.17147156127E+02  0.67120581814E+02  0.00000000000E+00 0.  1.
</event>
<event>
 7    1  0.2670433E-009  0.1391122E+03  0.7561462E-02  0.1214529E+00
         -1   -1    0    0    0  501 -0.00000000000E+00  0.00000000000E+00  0.45568013545E+02  0.45568013545E+02  0.00000000000E+00 0.  1.
          1   -1    0    0  501    0  0.00000000000E+00 -0.00000000000E+00 -0.83818265951E+03  0.83818265951E+03  0.00000000000E+00 0. -1.
         25    2    1    2    0    0  0.49855941084E+02  0.99995726340E+02 -0.14918919136E+03  0.22447488246E+03  0.12508716116E+03 0.  0.
          5    1    3    3  502    0  0.37228097485E+02  0.11343939001E+03 -0.60726975966E+02  0.13401367265E+03  0.41800000000E+01 0. -1.
         -5    1    3    3    0  502  0.12627843599E+02 -0.13443663667E+02 -0.88462215398E+02  0.90461209808E+02  0.41800000000E+01 0. -1.
        -11    1    1    2    0    0  0.18873275276E+02 -0.44821779637E+00 -0.45944644912E+02  0.49672042589E+02  0.00000000000E+00 0. -1.
         11    1    1    2    0    0 -0.68729216360E+02 -0.99547508544E+02 -0.59748080969E+03  0.60960374801E+03  0.00000000000E+00 0.  1.
</event>
<event>
 7    1  0.2670433E-009  0.1149901E+03  0.7561462E-02  0.1251598E+00
          2   -1    0    0  501    0  0.00000000000E+00  0.00000000000E+00  0.10085743099E+04  0.10085743099E+04  0.00000000000E+00 0. -1.
         -2   -1    0    0    0  501 -0.00000000000E+00 -0.00000000000E+00 -0.13837660647E+02  0.13837660647E+02  0.00000000000E+00 0.  1.
         25    2    1    2    0    0 -0.27769219665E+02 -0.36688849494E+02  0.53545669979E+03  0.55179614530E+03  0.12509159596E+03 0.  0.
          5    1    3    3  502    0  0.43389752690E+02  0.99500732840E+01  0.24741357804E+03  0.25142121151E+03  0.41800000000E+01 0. -1.
         -5    1    3    3    0  502 -0.71158972355E+02 -0.46638922778E+02  0.28804312175E+03  0.30037493379E+03  0.41800000000E+01 0. -1.
        -11    1    1    2    0    0  0.20341315856E+02  0.66406848631E+02  0.36286166583E+03  0.36944854473E+03  0.00000000000E+00 0.  1.
         11    1    1    2    0    0  0.74279038090E+01 -0.29717999136E+02  0.96418283603E+02  0.10116728048E+03  0.00000000000E+00 0. -1.
</event>
<event>
 7    1  0.2670433E-009  0.1060587E+03  0.7561462E-02  0.1268048E+00
         -2   -1    0    0    0  501 -0.00000000000E+00  0.00000000000E+00  0.22330324072E+02  0.22330324072E+02  0.00000000000E+00 0.  1.
          2   -1    0    0  501    0  0.00000000000E+00 -0.00000000000E+00 -0.61978636254E+03  0.61978636254E+03  0.00000000000E+00 0. -1.
         25    2    1    2    0    0 -0.60890990962E+00  0.65187074938E+01 -0.45753751527E+03  0.47437481990E+03  0.12509207632E+03 0.  0.
          5    1    3    3  502    0  0.48503858333E+01  0.64006207032E+02 -0.18835189145E+03  0.19903323390E+03  0.41800000000E+01 0.  1.
         -5    1    3    3    0  502 -0.54592957430E+01 -0.57487499538E+02 -0.26918562382E+03  0.27534158600E+03  0.41800000000E+01 0.  1.
        -11    1    1    2    0    0  0.43512959377E+02 -0.15255749337E+02 -0.91503814408E+02  0.10246493826E+03  0.00000000000E+00 0.  1.
         11    1    1    2    0    0 -0.42904049467E+02  0.87370418437E+01 -0.48414708789E+02  0.65276928451E+02  0.00000000000E+00 0. -1.
</event>
<event>
 7    1  0.2670433E-009  0.6415279E+02  0.7561462E-02  0.1381187E+00
         -1   -1    0    0    0  501 -0.00000000000E+00  0.00000000000E+00  0.64959203665E+02  0.64959203665E+02  0.00000000000E+00 0.  1.
          1   -1    0    0  501    0  0.00000000000E+00 -0.00000000000E+00 -0.26235158015E+03  0.26235158015E+03  0.00000000000E+00 0. -1.
         25    2    1    2    0    0  0.94669386153E+00 -0.89814442543E+01 -0.19977086710E+03  0.23587534384E+03  0.12508883211E+03 0.  0.
          5    1    3    3  502    0 -0.68001327082E+01 -0.28332279676E+02  0.51263069557E+01  0.29878274707E+02  0.41800000000E+01 0.  1.
         -5    1    3    3    0  502  0.77468265698E+01  0.19350835422E+02 -0.20489717406E+03  0.20599706913E+03  0.41800000000E+01 0.  1.
        -11    1    1    2    0    0 -0.38972551401E+02  0.64370588441E+01  0.25351453441E+02  0.46936038189E+02  0.00000000000E+00 0.  1.
         11    1    1    2    0    0  0.38025857540E+02  0.25443854102E+01 -0.22972962826E+02  0.44499401791E+02  0.00000000000E+00 0. -1.
</event>
<event>
 7    1  0.2670433E-009  0.1064881E+03  0.7561462E-02  0.1267215E+00
          1   -1    0    0  501    0  0.00000000000E+00  0.00000000000E+00  0.81124778421E+02  0.81124778421E+02  0.00000000000E+00 0. -1.
         -1   -1    0    0    0  501 -0.00000000000E+00 -0.00000000000E+00 -0.14723863515E+03  0.14723863515E+03  0.00000000000E+00 0.  1.
         25    2    1    2    0    0 -0.10464067656E+02  0.77980929557E+01 -0.29407140032E+02  0.12915570345E+03  0.12508440703E+03 0.  0.
          5    1    3    3  502    0  0.30046448099E+02  0.54615108950E+02 -0.57170007344E+01  0.62735601267E+02  0.41800000000E+01 0.  1.
         -5    1    3    3    0  502 -0.40510515755E+02 -0.46817015994E+02 -0.23690139297E+02  0.66420102178E+02  0.41800000000E+01 0.  1.
        -11    1    1    2    0    0  0.44328408213E+02  0.15925770925E+02 -0.33371270652E+02  0.57725901112E+02  0.00000000000E+00 0.  1.
         11    1    1    2    0    0 -0.33864340557E+02 -0.23723863881E+02 -0.33354460458E+01  0.41481809015E+02  0.00000000000E+00 0. -1.
</event>
<event>
 7    1  0.2670433E-009  0.1456400E+03  0.7561462E-02  0.1205935E+00
          1   -1    0    0  501    0  0.00000000000E+00  0.00000000000E+00  0.79127220594E+03  0.79127220594E+03  0.00000000000E+00 0. -1.
         -1   -1    0    0    0  501 -0.00000000000E+00 -0.00000000000E+00 -0.28404807955E+02  0.28404807955E+02  0.00000000000E+00 0.  1.
         25    2    1    2    0    0 -0.99518457293E+02 -0.16847221627E+02  0.38734637003E+03  0.41937075199E+03  0.12508742958E+03 0.  0.
          5    1    3    3  502    0 -0.76861432319E+02 -0.68903234317E+02  0.26514312603E+03  0.28455875520E+03  0.41800000000E+01 0. -1.
         -5    1    3    3    0  502 -0.22657024974E+02  0.52056012690E+02  0.12220324399E+03  0.13481199680E+03  0.41800000000E+01 0. -1.
        -11    1    1    2    0    0  0.46997675323E+02  0.50248630561E+02  0.26153674031E+03  0.27043515469E+03  0.00000000000E+00 0. -1.
         11    1    1    2    0    0  0.52520781970E+02 -0.33401408933E+02  0.11398428765E+03  0.12987110721E+03  0.00000000000E+00 0.  1.
</event>
<event>
 7    1  0.2670433E-009  0.1594821E+03  0.7561462E-02  0.1189283E+00
         -1   -1    0    0    0  501 -0.00000000000E+00  0.00000000000E+00  0.13471536376E+03  0.13471536376E+03  0.00000000000E+00 0.  1.
          1   -1    0    0  501    0  0.00000000000E+00 -0.00000000000E+00 -0.28520212923E+03  0.28520212923E+03  0.00000000000E+00 0. -1.
         25    2    1    2    0    0 -0.36332861684E+02  0.15237614083E+03 -0.12789576732E+03  0.23778775143E+03  0.12508845791E+03 0.  0.
          5    1    3    3  502    0 -0.36178759685E+02  0.15056836410E+03 -0.54450545613E+02  0.16420130706E+03  0.41800000000E+01 0.  1.
         -5    1    3    3    0  502 -0.15410199815E+00  0.18077767242E+01 -0.73445221711E+02  0.73586444379E+02  0.41800000000E+01 0.  1.
        -11    1    1    2    0    0  0.40195670796E+02 -0.11308082686E+03  0.22597228908E+02  0.12212125167E+03  0.00000000000E+00 0.  1.
         11    1    1    2    0    0 -0.38628091121E+01 -0.39295313963E+02 -0.45188227053E+02  0.60008489882E+02  0.00000000000E+00 0. -1.
</event>
<event>
 7    1  0.2670433E-009  0.1118246E+03  0.7561462E-02  0.1257228E+00
         -4   -1    0    0    0  501 -0.00000000000E+00  0.00000000000E+00  0.45768255250E+03  0.45768255250E+03  0.00000000000E+00 0.  1.
          4   -1    0    0  501    0  0.00000000000E+00 -0.00000000000E+00 -0.67259769849E+02  0.67259769849E+02  0.00000000000E+00 0. -1.
         25    2    1    2    0    0  0.10458882669E+03 -0.40152552888E+01  0.34536944573E+03  0.38194582892E+03  0.12509043625E+03 0.  0.
          5    1    3    3  502    0  0.68004533627E+02 -0.25273618549E+02  0.32810501191E+03  0.33605616143E+03  0.41800000000E+01 0.  1.
         -5    1    3    3    0  502  0.36584293064E+02  0.21258363260E+02  0.17264433812E+02  0.45889667491E+02  0.41800000000E+01 0.  1.
        -11    1    1    2    0    0 -0.64700494444E+01  0.79670258405E+01 -0.21872379676E+02  0.24160629819E+02  0.00000000000E+00 0. -1.
         11    1    1    2    0    0 -0.98118777247E+02 -0.39517705517E+01  0.66925716603E+02  0.11883586362E+03  0.00000000000E+00 0.  1.
</event>
<event>
 7    1  0.2670433E-009  0.7717321E+02  0.7561462E-02  0.1337270E+00
          2   -1    0    0  501    0  0.00000000000E+00  0.00000000000E+00  0.17794866700E+02  0.17794866700E+02  0.00000000000E+00 0.  1.
         -2   -1    0    0    0  501 -0.00000000000E+00 -0.00000000000E+00 -0.77829475617E+03  0.77829475617E+03  0.00000000000E+00 0. -1.
         25    2    1    2    0    0 -0.27493483110E+02  0.53365599914E+02 -0.59939028143E+03  0.61524001930E+03  0.12509113882E+03 0.  0.
          5    1    3    3  502    0 -0.26859249002E+02  0.65618559614E+02 -0.59800070328E+03  0.60220389251E+03  0.41800000000E+01 0. -1.
         -5    1    3    3    0  502 -0.63423410734E+00 -0.12252959699E+02 -0.13895781409E+01  0.13036126791E+02  0.41800000000E+01 0. -1.
        -11    1    1    2    0    0 -0.91507692188E+01 -0.12112231265E+02 -0.87757960982E+02  0.89061228597E+02  0.00000000000E+00 0. -1.
         11    1    1    2    0    0  0.36644252329E+02 -0.41253368650E+02 -0.73351647065E+02  0.91788374977E+02  0.00000000000E+00 0.  1.
</event>
<event>
 7    1  0.2670433E-009  0.8113782E+02  0.7561462E-02  0.1325853E+00
          2   -1    0    0  501    0  0.00000000000E+00  0.00000000000E+00  0.10815545747E+04  0.10815545747E+04  0.00000000000E+00 0. -1.
         -2   -1    0    0    0  501 -0.00000000000E+00 -0.00000000000E+00 -0.12625204381E+02  0.12625204381E+02  0.00000000000E+00 0.  1.
         25    2    1    2    0    0 -0.34091868106E+02 -0.18751926674E+00  0.77008552850E+03  0.78092366540E+03  0.12509100422E+03 0.  0.
          5    1    3    3  502    0 -0.16671192587E+02  0.34060123207E+02  0.69581127955E+02  0.79353805345E+02  0.41800000000E+01 0.  1.
         -5    1    3    3    0  502 -0.17420675519E+02 -0.34247642474E+02  0.70050440055E+03  0.70156986005E+03  0.41800000000E+01 0.  1.
        -11    1    1    2    0    0  0.18313394731E+02  0.39268178690E+02  0.21605657210E+03  0.22035837319E+03  0.00000000000E+00 0. -1.
         11    1    1    2    0    0  0.15778473375E+02 -0.39080659423E+02  0.82787269735E+02  0.92897740517E+02  0.00000000000E+00 0.  1.
</event>
<event>
 7    1  0.2670433E-009  0.1388876E+03  0.7561462E-02  0.1214834E+00
          2   -1    0    0  501    0  0.00000000000E+00  0.00000000000E+00  0.30550434143E+03  0.30550434143E+03  0.00000000000E+00 0. -1.
         -2   -1    0    0    0  501 -0.00000000000E+00 -0.00000000000E+00 -0.10391130881E+03  0.10391130881E+03  0.00000000000E+00 0.  1.
         25    2    1    2    0    0 -0.12899038120E+02  0.11420430036E+03  0.20179664139E+03  0.26377844478E+03  0.12509266985E+03 0.  0.
          5    1    3    3  502    0 -0.44175358316E+01 -0.18894713698E+02 -0.22491590642E+01  0.19976384684E+02  0.41800000000E+01 0. -1.
         -5    1    3    3    0  502 -0.84815022887E+01  0.13309901406E+03  0.20404580046E+03  0.24380206010E+03  0.41800000000E+01 0. -1.
        -11    1    1    2    0    0 -0.86415412751E+01 -0.95713736544E+02  0.33313707930E+02  0.10171331641E+03  0.00000000000E+00 0. -1.
         11    1    1    2    0    0  0.21540579395E+02 -0.18490563814E+02 -0.33517316699E+02  0.43923889053E+02  0.00000000000E+00 0.  1.
</event>
<event>
 7    1  0.2670433E-009  0.2219346E+03  0.7561462E-02  0.1132449E+00
          2   -1    0    0  501    0  0.00000000000E+00  0.00000000000E+00  0.15089299238E+04  0.15089299238E+04  0.00000000000E+00 0.  1.
         -2   -1    0    0    0  501 -0.00000000000E+00 -0.00000000000E+00 -0.38017562730E+02  0.38017562730E+02  0.00000000000E+00 0. -1.
         25    2    1    2    0    0 -0.57414926041E+02 -0.19540335772E+03  0.55541922354E+03  0.60466283068E+03  0.12509068305E+03 0.  0.
          5    1    3    3  502    0 -0.68748113123E+01 -0.18734743819E+03  0.44443006111E+03  0.48237109909E+03  0.41800000000E+01 0.  1.
         -5    1    3    3    0  502 -0.50540114728E+02 -0.80559195309E+01  0.11098916244E+03  0.12229173159E+03  0.41800000000E+01 0.  1.
        -11    1    1    2    0    0  0.19076857747E+00  0.29588947206E+02  0.42144733030E+02  0.51494861021E+02  0.00000000000E+00 0. -1.
         11    1    1    2    0    0  0.57224157463E+02  0.16581441051E+03  0.87334840449E+03  0.89078979482E+03  0.00000000000E+00 0.  1.
</event>
<event>
 7    1  0.2670433E-009  0.1194681E+03  0.7561462E-02  0.1243977E+00
          2   -1    0    0  501    0  0.00000000000E+00  0.00000000000E+00  0.10804854170E+04  0.10804854170E+04  0.00000000000E+00 0. -1.
         -2   -1    0    0    0  501 -0.00000000000E+00 -0.00000000000E+00 -0.16500614655E+02  0.16500614655E+02  0.00000000000E+00 0.  1.
         25    2    1    2    0    0  0.36237570379E+02  0.56477917777E+02  0.75589112993E+03  0.76910751703E+03  0.12510817617E+03 0.  0.
          5    1    3    3  502    0 -0.36442715033E+02  0.36015759032E+02  0.15106572409E+03  0.15957296692E+03  0.41800000000E+01 0.  1.
         -5    1    3    3    0  502  0.72680285413E+02  0.20462158745E+02  0.60482540584E+03  0.60953455011E+03  0.41800000000E+01 0.  1.
        -11    1    1    2    0    0  0.29890936121E+02 -0.11983026826E+02  0.99160415657E+02  0.10425856812E+03  0.00000000000E+00 0. -1.
         11    1    1    2    0    0 -0.66128506500E+02 -0.44494890951E+02  0.20893325676E+03  0.22361994650E+03  0.00000000000E+00 0.  1.
</event>
<event>
 7    1  0.2670433E-009  0.8546306E+02  0.7561462E-02  0.1314226E+00
          2   -1    0    0  501    0  0.00000000000E+00  0.00000000000E+00  0.39500056800E+03  0.39500056800E+03  0.00000000000E+00 0.  1.
         -2   -1    0    0    0  501 -0.00000000000E+00 -0.00000000000E+00 -0.48569903620E+02  0.48569903620E+02  0.00000000000E+00 0. -1.
         25    2    1    2    0    0 -0.39989757652E+02 -0.21862148701E+02  0.30661590266E+03  0.33427161871E+03  0.12508824506E+03 0.  0.
          5    1    3    3  502    0  0.31547487909E+02 -0.40272326827E+02  0.18435521701E+03  0.19136724573E+03  0.41800000000E+01 0.  1.
         -5    1    3    3    0  502 -0.71537245561E+02  0.18410178126E+02  0.12226068565E+03  0.14290437298E+03  0.41800000000E+01 0.  1.
        -11    1    1    2    0    0  0.23289333995E+02  0.11710109848E+02  0.69234358285E+02  0.73979160023E+02  0.00000000000E+00 0.  1.
         11    1    1    2    0    0  0.16700423656E+02  0.10152038853E+02 -0.29419596566E+02  0.35319692882E+02  0.00000000000E+00 0. -1.
</event>
<event>
 7    1  0.2670433E-009  0.1061773E+03  0.7561462E-02  0.1267817E+00
         -2   -1    0    0    0  501 -0.00000000000E+00  0.00000000000E+00  0.50927057555E+02  0.50927057555E+02  0.00000000000E+00 0.  1.
          2   -1    0    0  501    0  0.00000000000E+00 -0.00000000000E+00 -0.44007282928E+03  0.44007282928E+03  0.00000000000E+00 0. -1.
         25    2    1    2    0    0  0.58358342306E+02  0.73229187175E+02 -0.28174794660E+03  0.32217943085E+03  0.12509784284E+03 0.  0.
          5    1    3    3  502    0  0.44414529685E+02  0.16139807275E+02 -0.16132890044E+02  0.50108745417E+02  0.41800000000E+01 0. -1.
         -5    1    3    3    0  502  0.13943812620E+02  0.57089379900E+02 -0.26561505655E+03  0.27207068544E+03  0.41800000000E+01 0. -1.
        -11    1    1    2    0    0  0.91376033057E+01 -0.84731578254E+01 -0.64894428530E+02  0.66080080599E+02  0.00000000000E+00 0. -1.
         11    1    1    2    0    0 -0.67495945611E+02 -0.64756029349E+02 -0.42503396597E+02  0.10274037538E+03  0.00000000000E+00 0.  1.
</event>
<event>
 7    1  0.2670433E-009  0.2083178E+03  0.7561462E-02  0.1142905E+00
          1   -1    0    0  501    0  0.00000000000E+00  0.00000000000E+00  0.19297252982E+04  0.19297252982E+04  0.00000000000E+00 0.  1.
         -1   -1    0    0    0  501 -0.00000000000E+00 -0.00000000000E+00 -0.25808071537E+02  0.25808071537E+02  0.00000000000E+00 0. -1.
         25    2    1    2    0    0 -0.49140497538E+02 -0.18732507087E+03  0.85280280413E+03  0.88341764546E+03  0.12509453583E+03 0.  0.
          5    1    3    3  502    0 -0.39700218494E+02 -0.19123235622E+03  0.84981727570E+03  0.87198210755E+03  0.41800000000E+01 0. -1.
         -5    1    3    3    0  502 -0.94402790445E+01  0.39072853458E+01  0.29855284352E+01  0.11435537908E+02  0.41800000000E+01 0. -1.
        -11    1    1    2    0    0  0.50219052435E+02  0.43576458645E+02  0.38068651362E+03  0.38644932737E+03  0.00000000000E+00 0. -1.
         11    1    1    2    0    0 -0.10785548967E+01  0.14374861223E+03  0.67042790890E+03  0.68566639689E+03  0.00000000000E+00 0.  1.
</event>
<event>
 7    1  0.2670433E-009  0.8603562E+02  0.7561462E-02  0.1312746E+00
          1   -1    0    0  501    0  0.00000000000E+00  0.00000000000E+00  0.39329902881E+02  0.39329902881E+02  0.00000000000E+00 0. -1.
         -1   -1    0    0    0  501 -0.00000000000E+00 -0.00000000000E+00 -0.37126267049E+03  0.37126267049E+03  0.00000000000E+00 0.  1.
         25    2    1    2    0    0  0.39688073027E+02  0.33551972643E+02 -0.21238386776E+03  0.25190354224E+03  0.12509040452E+03 0.  0.
          5    1    3    3  502    0  0.62128394438E+00 -0.16534387786E+02  0.10547002937E+02  0.20061995019E+02  0.41800000000E+01 0. -1.
         -5    1    3    3    0  502  0.39066789083E+02  0.50086360429E+02 -0.22293087070E+03  0.23184154723E+03  0.41800000000E+01 0. -1.
        -11    1    1    2    0    0  0.14939269139E+02 -0.33543762624E+02 -0.88590555872E+02  0.95899178115E+02  0.00000000000E+00 0.  1.
         11    1    1    2    0    0 -0.54627342167E+02 -0.82100192522E-02 -0.30958343981E+02  0.62789853015E+02  0.00000000000E+00 0. -1.
</event>
<event>
 7    1  0.2670433E-009  0.1629690E+03  0.7561462E-02  0.1185385E+00
          1   -1    0    0  501    0  0.00000000000E+00  0.00000000000E+00  0.33403375038E+03  0.33403375038E+03  0.00000000000E+00 0. -1.
         -1   -1    0    0    0  501 -0.00000000000E+00 -0.00000000000E+00 -0.93826537680E+02  0.93826537680E+02  0.00000000000E+00 0.  1.
         25    2    1    2    0    0 -0.94629419161E+02 -0.75802995146E+02  0.44434223227E+02  0.17978438181E+03  0.12508877929E+03 0.  0.
          5    1    3    3  502    0 -0.39668457589E+02 -0.10426406868E+03  0.35298408611E+02  0.11708130762E+03  0.41800000000E+01 0.  1.
         -5    1    3    3    0  502 -0.54960961572E+02  0.28461073532E+02  0.91358146165E+01  0.62703074185E+02  0.41800000000E+01 0.  1.
        -11    1    1    2    0    0  0.77353609716E+01  0.64131303499E+02  0.87347216338E+02  0.10863791281E+03  0.00000000000E+00 0.  1.
         11    1    1    2    0    0  0.86894058189E+02  0.11671691647E+02  0.10842577313E+03  0.13943799344E+03  0.00000000000E+00 0. -1.
</event>
<event>
 7    1  0.2670433E-009  0.7668238E+02  0.7561462E-02  0.1338739E+00
          1   -1    0    0  501    0  0.00000000000E+00  0.00000000000E+00  0.88458496615E+02  0.88458496615E+02  0.00000000000E+00 0. -1.
         -1   -1    0    0    0  501 -0.00000000000E+00 -0.00000000000E+00 -0.14935245689E+03  0.14935245689E+03  0.00000000000E+00 0.  1.
         25    2    1    2    0    0 -0.14257005079E+02 -0.22686600521E+02 -0.57528783327E+01  0.12807615857E+03  0.12510980277E+03 0.  0.
          5    1    3    3  502    0 -0.94690313068E+00 -0.66974479143E+02 -0.32418031150E+02  0.74531058128E+02  0.41800000000E+01 0. -1.
         -5    1    3    3    0  502 -0.13310101948E+02  0.44287878622E+02  0.26665152817E+02  0.53545100443E+02  0.41800000000E+01 0. -1.
        -11    1    1    2    0    0  0.20875274840E+02  0.57747501415E+01  0.21769664537E+02  0.30709007358E+02  0.00000000000E+00 0. -1.
         11    1    1    2    0    0 -0.66182697613E+01  0.16911850380E+02 -0.76910746476E+02  0.79025787572E+02  0.00000000000E+00 0.  1.
</event>
<event>
 7    1  0.2670433E-009  0.1089494E+03  0.7561462E-02  0.1262528E+00
         -2   -1    0    0    0  501 -0.00000000000E+00  0.00000000000E+00  0.64290673257E+02  0.64290673257E+02  0.00000000000E+00 0. -1.
          2   -1    0    0  501    0  0.00000000000E+00 -0.00000000000E+00 -0.27707440926E+03  0.27707440926E+03  0.00000000000E+00 0.  1.
         25    2    1    2    0    0  0.12523058004E+02 -0.25940543625E+02 -0.21653359015E+03  0.25172127939E+03  0.12508824105E+03 0.  0.
          5    1    3    3  502    0  0.62778053293E+02  0.13474828730E+02 -0.10673154259E+03  0.12462644008E+03  0.41800000000E+01 0.  1.
         -5    1    3    3    0  502 -0.50254995290E+02 -0.39415372355E+02 -0.10980204756E+03  0.12709483931E+03  0.41800000000E+01 0.  1.
        -11    1    1    2    0    0 -0.11377719566E+02 -0.30781310022E+02  0.21684187361E+01  0.32888350353E+02  0.00000000000E+00 0. -1.
         11    1    1    2    0    0 -0.11453384381E+01  0.56721853647E+02  0.15814354136E+01  0.56755452771E+02  0.00000000000E+00 0.  1.
</event>
<event>
 7    1  0.2670433E-009  0.8584596E+02  0.7561462E-02  0.1313235E+00
          1   -1    0    0  501    0  0.00000000000E+00  0.00000000000E+00  0.41881431090E+03  0.41881431090E+03  0.00000000000E+00 0. -1.
         -1   -1    0    0    0  501 -0.00000000000E+00 -0.00000000000E+00 -0.45098744239E+02  0.45098744239E+02  0.00000000000E+00 0.  1.
         25    2    1    2    0    0 -0.10261168600E+02 -0.55524823280E+02  0.31086471742E+03  0.33981268158E+03  0.12508992145E+03 0.  0.
          5    1    3    3  502    0 -0.46766249713E+01 -0.59980442170E+02  0.48695658503E+02  0.77512991305E+02  0.41800000000E+01 0. -1.
         -5    1    3    3    0  502 -0.55845436287E+01  0.44556188903E+01  0.26216905891E+03  0.26229969028E+03  0.41800000000E+01 0. -1.
        -11    1    1    2    0    0 -0.28502158725E+02 -0.71759828619E+01  0.33992608081E+02  0.44937347342E+02  0.00000000000E+00 0.  1.
         11    1    1    2    0    0  0.38763327325E+02  0.62700806142E+02  0.28858241160E+02  0.79163026211E+02  0.00000000000E+00 0. -1.
</event>
<event>
 7    1  0.2670433E-009  0.1088208E+03  0.7561462E-02  0.1262769E+00
          2   -1    0    0  501    0  0.00000000000E+00  0.00000000000E+00  0.18484703170E+03  0.18484703170E+03  0.00000000000E+00 0. -1.
         -2   -1    0    0    0  501 -0.00000000000E+00 -0.00000000000E+00 -0.11650950376E+03  0.11650950376E+03  0.00000000000E+00 0.  1.
         25    2    1    2    0    0 -0.22754485857E+02  0.72054818646E+02  0.10296847559E+03  0.17877484729E+03  0.12509306752E+03 0.  0.
          5    1    3    3  502    0 -0.66776103714E+02  0.39820704059E+02  0.21748366203E+02  0.80840585917E+02  0.41800000000E+01 0. -1.
         -5    1    3    3    0  502  0.44021617857E+02  0.32234114587E+02  0.81220109389E+02  0.97934261375E+02  0.41800000000E+01 0. -1.
        -11    1    1    2    0    0  0.61982534806E+01 -0.67642755156E+02 -0.60892997083E+02  0.91224545847E+02  0.00000000000E+00 0.  1.
         11    1    1    2    0    0  0.16556232376E+02 -0.44120634894E+01  0.26262049429E+02  0.31357142327E+02  0.00000000000E+00 0. -1.
</event>
<event>
 7    1  0.2670433E-009  0.1588455E+03  0.7561462E-02  0.1190006E+00
          1   -1    0    0  501    0  0.00000000000E+00  0.00000000000E+00  0.10054644344E+03  0.10054644344E+03  0.00000000000E+00 0. -1.
         -1   -1    0    0    0  501 -0.00000000000E+00 -0.00000000000E+00 -0.41921514136E+03  0.41921514136E+03  0.00000000000E+00 0.  1.
         25    2    1    2    0    0  0.14042464771E+03 -0.41348449323E+02 -0.49710005733E+02  0.19886427591E+03  0.12508852713E+03 0.  0.
          5    1    3    3  502    0  0.28187365619E+02 -0.51145006716E+02 -0.62214990775E+02  0.85431357063E+02  0.41800000000E+01 0. -1.
         -5    1    3    3    0  502  0.11223728209E+03  0.97965573930E+01  0.12504985042E+02  0.11343291885E+03  0.41800000000E+01 0. -1.
        -11    1    1    2    0    0 -0.10537104932E+03  0.30040238135E+02 -0.10123752192E+03  0.14917945498E+03  0.00000000000E+00 0.  1.
         11    1    1    2    0    0 -0.35053598391E+02  0.11308211188E+02 -0.16772117026E+03  0.17171785391E+03  0.00000000000E+00 0. -1.
</event>
<event>
 7    1  0.2670433E-009  0.1155055E+03  0.7561462E-02  0.1250701E+00
          2   -1    0    0  501    0  0.00000000000E+00  0.00000000000E+00  0.29507039095E+03  0.29507039095E+03  0.00000000000E+00 0. -1.
         -2   -1    0    0    0  501 -0.00000000000E+00 -0.00000000000E+00 -0.63994157340E+02  0.63994157340E+02  0.00000000000E+00 0.  1.
         25    2    1    2    0    0  0.20863951776E+01  0.55382731847E+02  0.43423278718E+02  0.14354148563E+03  0.12508787684E+03 0.  0.
          5    1    3    3  502    0 -0.52967273682E+02 -0.66985389813E+01  0.13416014609E+02  0.55207466468E+02  0.41800000000E+01 0.  1.
         -5    1    3    3    0  502  0.55053668860E+02  0.62081270829E+02  0.30007264108E+02  0.88334019165E+02  0.41800000000E+01 0.  1.
        -11    1    1    2    0    0  0.34101435309E+02 -0.84853201237E+01  0.12261910734E+03  0.12755529794E+03  0.00000000000E+00 0.  1.
         11    1    1    2    0    0 -0.36187830486E+02 -0.46897411724E+02  0.65033847552E+02  0.87967764716E+02  0.00000000000E+00 0. -1.
</event>
<event>
 7    1  0.2670433E-009  0.1160486E+03  0.7561462E-02  0.1249762E+00
         -2   -1    0    0    0  501 -0.00000000000E+00  0.00000000000E+00  0.32569703878E+02  0.32569703878E+02  0.00000000000E+00 0.  1.
          2   -1    0    0  501    0  0.00000000000E+00 -0.00000000000E+00 -0.53673417470E+03  0.53673417470E+03  0.00000000000E+00 0. -1.
         25    2    1    2    0    0  0.15095110741E+01 -0.74305217128E+02 -0.28511526908E+03  0.32009640558E+03  0.12508976093E+03 0.  0.
          5    1    3    3  502    0 -0.46710708906E+02 -0.48379389984E+02 -0.23923868223E+03  0.24854592167E+03  0.41800000000E+01 0.  1.
         -5    1    3    3    0  502  0.48220219980E+02 -0.25925827143E+02 -0.45876586850E+02  0.71550483918E+02  0.41800000000E+01 0.  1.
        -11    1    1    2    0    0 -0.40077458555E+02  0.25087718579E+02 -0.49303762022E+02  0.68311472369E+02  0.00000000000E+00 0.  1.
         11    1    1    2    0    0  0.38567947480E+02  0.49217498549E+02 -0.16974543972E+03  0.18089600062E+03  0.00000000000E+00 0. -1.
</event>
<event>
 7    1  0.2670433E-009  0.1808343E+03  0.7561462E-02  0.1166998E+00
          2   -1    0    0  501    0  0.00000000000E+00  0.00000000000E+00  0.15706576625E+03  0.15706576625E+03  0.00000000000E+00 0. -1.
         -2   -1    0    0    0  501 -0.00000000000E+00 -0.00000000000E+00 -0.28097573637E+03  0.28097573637E+03  0.00000000000E+00 0.  1.
         25    2    1    2    0    0  0.15103573488E+03 -0.64743160166E+02  0.11360133919E+02  0.20683625108E+03  0.12509481251E+03 0.  0.
          5    1    3    3  502    0  0.43664737720E+02  0.30732008365E+02 -0.24184002222E+02  0.58765670436E+02  0.41800000000E+01 0. -1.
         -5    1    3    3    0  502  0.10737099716E+03 -0.95475168531E+02  0.35544136141E+02  0.14807058064E+03  0.41800000000E+01 0. -1.
        -11    1    1    2    0    0 -0.91785122568E+02  0.37380742590E+02 -0.23621923410E+02  0.10188142081E+03  0.00000000000E+00 0. -1.
         11    1    1    2    0    0 -0.59250612315E+02  0.27362417576E+02 -0.11164818064E+03  0.12932383073E+03  0.00000000000E+00 0.  1.
</event>
<event>
 7    1  0.2670433E-009  0.8414621E+02  0.7561462E-02  0.1317681E+00
          3   -1    0    0  501    0  0.00000000000E+00  0.00000000000E+00  0.40253816262E+02  0.40253816262E+02  0.00000000000E+00 0. -1.
         -3   -1    0    0    0  501 -0.00000000000E+00 -0.00000000000E+00 -0.46125089524E+03  0.46125089524E+03  0.00000000000E+00 0.  1.
         25    2    1    2    0    0  0.58527824523E+01 -0.57794986782E+01 -0.84578241965E+02  0.15122494594E+03  0.12509135699E+03 0.  0.
          5    1    3    3  502    0  0.22039889594E+02 -0.32487272244E+02 -0.10600695341E+03  0.11311996359E+03  0.41800000000E+01 0. -1.
         -5    1    3    3    0  502 -0.16187107141E+02  0.26707773566E+02  0.21428711441E+02  0.38104982357E+02  0.41800000000E+01 0. -1.
        -11    1    1    2    0    0  0.44177928593E+02 -0.91041613406E+01 -0.16870412373E+03  0.17463005610E+03  0.00000000000E+00 0.  1.
         11    1    1    2    0    0 -0.50030711045E+02  0.14883660019E+02 -0.16771471328E+03  0.17564970947E+03  0.00000000000E+00 0. -1.
</event>
<event>
 7    1  0.2670433E-009  0.1167395E+03  0.7561462E-02  0.1248575E+00
          2   -1    0    0  501    0  0.00000000000E+00  0.00000000000E+00  0.99440380070E+02  0.99440380070E+02  0.00000000000E+00 0.  1.
         -2   -1    0    0    0  501 -0.00000000000E+00 -0.00000000000E+00 -0.20988500277E+03  0.20988500277E+03  0.00000000000E+00 0. -1.
         25    2    1    2    0    0  0.22626202349E+02  0.49114843179E+02 -0.14370091368E+03  0.19805046314E+03  0.12509924262E+03 0.  0.
          5    1    3    3  502    0  0.62616430946E+02  0.67290188203E+02 -0.92733452569E+02  0.13063595400E+03  0.41800000000E+01 0. -1.
         -5    1    3    3    0  502 -0.39990228597E+02 -0.18175345023E+02 -0.50967461111E+02  0.67414509136E+02  0.41800000000E+01 0. -1.
        -11    1    1    2    0    0 -0.53237889617E+02 -0.34326140590E+02  0.42208674364E+02  0.76119176363E+02  0.00000000000E+00 0.  1.
         11    1    1    2    0    0  0.30611687268E+02 -0.14788702589E+02 -0.89523833879E+01  0.35155743343E+02  0.00000000000E+00 0. -1.
</event>
<event>
 7    1  0.2670433E-009  0.1178818E+03  0.7561462E-02  0.1246633E+00
         -1   -1    0    0    0  501 -0.00000000000E+00  0.00000000000E+00  0.15277490756E+02  0.15277490756E+02  0.00000000000E+00 0.  1.
          1   -1    0    0  501    0  0.00000000000E+00 -0.00000000000E+00 -0.10580128001E+04  0.10580128001E+04  0.00000000000E+00 0. -1.
         25    2    1    2    0    0  0.45648268838E+02 -0.36888150594E+02 -0.44014535386E+03  0.46132471080E+03  0.12509219069E+03 0.  0.
          5    1    3    3  502    0 -0.13806144149E+02  0.33728016062E+02 -0.21243581405E+03  0.21557976755E+03  0.41800000000E+01 0. -1.
         -5    1    3    3    0  502  0.59454412986E+02 -0.70616166656E+02 -0.22770953981E+03  0.24574494326E+03  0.41800000000E+01 0. -1.
        -11    1    1    2    0    0  0.16508611488E+02  0.41183188636E+02 -0.25861420183E+03  0.26239263455E+03  0.00000000000E+00 0. -1.
         11    1    1    2    0    0 -0.62156880325E+02 -0.42950380420E+01 -0.34397575368E+03  0.34957294553E+03  0.00000000000E+00 0.  1.
</event>
<event>
 7    1  0.2670433E-009  0.6390911E+02  0.7561462E-02  0.1382123E+00
         -2   -1    0    0    0  501 -0.00000000000E+00  0.00000000000E+00  0.28910478389E+02  0.28910478389E+02  0.00000000000E+00 0.  1.
          2   -1    0    0  501    0  0.00000000000E+00 -0.00000000000E+00 -0.79240711857E+03  0.79240711857E+03  0.00000000000E+00 0. -1.
         25    2    1    2    0    0  0.12434136066E+02 -0.37123649108E+02 -0.67613519532E+03  0.68872275875E+03  0.12508981978E+03 0.  0.
          5    1    3    3  502    0 -0.17770700456E+02 -0.19436293492E+02 -0.63047320454E+03  0.63103684626E+03  0.41800000000E+01 0.  1.
         -5    1    3    3    0  502  0.30204836522E+02 -0.17687355616E+02 -0.45661990783E+02  0.57685912494E+02  0.41800000000E+01 0.  1.
        -11    1    1    2    0    0  0.19006355374E+02  0.25608092126E+01  0.12120350983E+02  0.22687049090E+02  0.00000000000E+00 0.  1.
         11    1    1    2    0    0 -0.31440491441E+02  0.34562839896E+02 -0.99481795845E+02  0.10990778912E+03  0.00000000000E+00 0. -1.
</event>
<event>
 7    1  0.2670433E-009  0.1257545E+03  0.7561462E-02  0.1233895E+00
         -2   -1    0    0    0  501 -0.00000000000E+00  0.00000000000E+00  0.14633743045E+03  0.14633743045E+03  0.00000000000E+00 0.  1.
          2   -1    0    0  501    0  0.00000000000E+00 -0.00000000000E+00 -0.15277944822E+03  0.15277944822E+03  0.00000000000E+00 0. -1.
         25    2    1    2    0    0 -0.37986777445E+02  0.52073775443E+02  0.76643790586E+02  0.16024143710E+03  0.12509346178E+03 0.  0.
          5    1    3    3  502    0  0.37683443012E+02  0.52150277519E+02  0.41715303557E+02  0.76794090094E+02  0.41800000000E+01 0. -1.
         -5    1    3    3    0  502 -0.75670220457E+02 -0.76502075173E-01  0.34928487028E+02  0.83447347008E+02  0.41800000000E+01 0. -1.
        -11    1    1    2    0    0  0.26564019320E+02  0.23104546475E+02 -0.24746415330E+02  0.43033153056E+02  0.00000000000E+00 0. -1.
         11    1    1    2    0    0  0.11422758125E+02 -0.75178321919E+02 -0.58339393028E+02  0.95842288519E+02  0.00000000000E+00 0.  1.
</event>
<event>
 7    1  0.2670433E-009  0.1031217E+03  0.7561462E-02  0.1273865E+00
          1   -1    0    0  501    0  0.00000000000E+00  0.00000000000E+00  0.13534210030E+03  0.13534210030E+03  0.00000000000E+00 0. -1.
         -1   -1    0    0    0  501 -0.00000000000E+00 -0.00000000000E+00 -0.94545749012E+02  0.94545749012E+02  0.00000000000E+00 0.  1.
         25    2    1    2    0    0 -0.71025938004E+01 -0.23828300960E+02  0.20665857223E+02  0.12919977842E+03  0.12508904957E+03 0.  0.
          5    1    3    3  502    0  0.80727947877E+01  0.44845325573E+02 -0.17598489798E+02  0.49025018966E+02  0.41800000000E+01 0. -1.
         -5    1    3    3    0  502 -0.15175388588E+02 -0.68673626533E+02  0.38264347021E+02  0.80174759451E+02  0.41800000000E+01 0. -1.
        -11    1    1    2    0    0  0.36105619270E+02  0.42324571933E+02  0.32144508874E+02  0.64251494792E+02  0.00000000000E+00 0. -1.
         11    1    1    2    0    0 -0.29003025470E+02 -0.18496270973E+02 -0.12014014809E+02  0.36436576103E+02  0.00000000000E+00 0.  1.
</event>
<event>
 7    1  0.2670433E-009  0.1924360E+03  0.7561462E-02  0.1156282E+00
          2   -1    0    0  501    0  0.00000000000E+00  0.00000000000E+00  0.63566792053E+03  0.63566792053E+03  0.00000000000E+00 0. -1.
         -2   -1    0    0    0  501 -0.00000000000E+00 -0.00000000000E+00 -0.62817401089E+02  0.62817401089E+02  0.00000000000E+00 0.  1.
         25    2    1    2    0    0 -0.86085383339E+02  0.14236773033E+03  0.34392701096E+03  0.40200987637E+03  0.12508752121E+03 0.  0.
          5    1    3    3  502    0 -0.41196709570E+02  0.15186645113E+03  0.22612490139E+03  0.27551865869E+03  0.41800000000E+01 0.  1.
         -5    1    3    3    0  502 -0.44888673769E+02 -0.94987207948E+01  0.11780210957E+03  0.12649121768E+03  0.41800000000E+01 0.  1.
        -11    1    1    2    0    0  0.31585489997E+02 -0.29805128281E+01  0.76696257194E+02  0.82999051215E+02  0.00000000000E+00 0.  1.
         11    1    1    2    0    0  0.54499893342E+02 -0.13938721750E+03  0.15222725129E+03  0.21347639404E+03  0.00000000000E+00 0. -1.
</event>
<event>
 7    1  0.2670433E-009  0.1034161E+03  0.7561462E-02  0.1273272E+00
          2   -1    0    0  501    0  0.00000000000E+00  0.00000000000E+00  0.34643475710E+02  0.34643475710E+02  0.00000000000E+00 0.  1.
         -2   -1    0    0    0  501 -0.00000000000E+00 -0.00000000000E+00 -0.48816227792E+03  0.48816227792E+03  0.00000000000E+00 0. -1.
         25    2    1    2    0    0  0.29138002970E+02  0.61589562027E+02 -0.29755962694E+03  0.32990269730E+03  0.12510699714E+03 0.  0.
          5    1    3    3  502    0  0.49287310745E+02  0.58184793864E+02 -0.29937848450E+03  0.30896546509E+03  0.41800000000E+01 0. -1.
         -5    1    3    3    0  502 -0.20149307775E+02  0.34047681632E+01  0.18188575534E+01  0.20937232216E+02  0.41800000000E+01 0. -1.
        -11    1    1    2    0    0 -0.29190598588E+02 -0.83108801432E+02 -0.14248131771E+03  0.16751146175E+03  0.00000000000E+00 0. -1.
         11    1    1    2    0    0  0.52595618392E-01  0.21519239405E+02 -0.13477857559E+02  0.25391594579E+02  0.00000000000E+00 0.  1.
</event>
<event>
 7    1  0.2670433E-009  0.1165725E+03  0.7561462E-02  0.1248861E+00
          1   -1    0    0  501    0  0.00000000000E+00  0.00000000000E+00  0.22156947014E+02  0.22156947014E+02  0.00000000000E+00 0. -1.
         -1   -1    0    0    0  501 -0.00000000000E+00 -0.00000000000E+00 -0.70060451154E+03  0.70060451154E+03  0.00000000000E+00 0.  1.
         25    2    1    2    0    0  0.23413399962E+02  0.69247245474E+02 -0.48701929080E+03  0.50811258427E+03  0.12508892991E+03 0.  0.
          5    1    3    3  502    0  0.32494505048E+02  0.99216776676E+02 -0.43394513904E+03  0.44634708213E+03  0.41800000000E+01 0.  1.
         -5    1    3    3    0  502 -0.90811050867E+01 -0.29969531201E+02 -0.53074151762E+02  0.61765502146E+02  0.41800000000E+01 0.  1.
        -11    1    1    2    0    0  0.35356021280E+00  0.12208598703E+02 -0.22131388972E+02  0.25277920502E+02  0.00000000000E+00 0.  1.
         11    1    1    2    0    0 -0.23766960174E+02 -0.81455844177E+02 -0.16929688475E+03  0.18937095378E+03  0.00000000000E+00 0. -1.
</event>
<event>
 7    1  0.2670433E-009  0.2509243E+03  0.7561462E-02  0.1112722E+00
          2   -1    0    0  501    0  0.00000000000E+00  0.00000000000E+00  0.12783451804E+04  0.12783451804E+04  0.00000000000E+00 0. -1.
         -2   -1    0    0    0  501 -0.00000000000E+00 -0.00000000000E+00 -0.60128254257E+02  0.60128254257E+02  0.00000000000E+00 0.  1.
         25    2    1    2    0    0 -0.16279170268E+03 -0.16286253276E+03  0.89107151818E+03  0.92880800736E+03  0.12510204236E+03 0.  0.
          5    1    3    3  502    0 -0.52702824848E+02  0.11391074773E+02  0.14427784499E+03  0.15408086606E+03  0.41800000000E+01 0.  1.
         -5    1    3    3    0  502 -0.11008887783E+03 -0.17425360753E+03  0.74679367319E+03  0.77472714130E+03  0.41800000000E+01 0.  1.
        -11    1    1    2    0    0  0.12811019887E+03  0.78135401995E+02  0.16184646849E+03  0.22070714411E+03  0.00000000000E+00 0.  1.
         11    1    1    2    0    0  0.34681503811E+02  0.84727130762E+02  0.16529893952E+03  0.18895828323E+03  0.00000000000E+00 0. -1.
</event>
<event>
 7    1  0.2670433E-009  0.2388169E+03  0.7561462E-02  0.1120583E+00
         -1   -1    0    0    0  501 -0.00000000000E+00  0.00000000000E+00  0.19486493234E+03  0.19486493234E+03  0.00000000000E+00 0.  1.
          1   -1    0    0  501    0  0.00000000000E+00 -0.00000000000E+00 -0.33777509510E+03  0.33777509510E+03  0.00000000000E+00 0. -1.
         25    2    1    2    0    0 -0.14769742905E+03 -0.16373822956E+03 -0.15081699252E+03  0.29498936541E+03  0.12509285395E+03 0.  0.
          5    1    3    3  502    0  0.16120642008E+02 -0.18784946761E+02  0.59999777492E+01  0.25811266078E+02  0.41800000000E+01 0. -1.
         -5    1    3    3    0  502 -0.16381807105E+03 -0.14495328280E+03 -0.15681697027E+03  0.26917809934E+03  0.41800000000E+01 0. -1.
        -11    1    1    2    0    0  0.11251436759E+03  0.67331235380E+02  0.25357104807E+02  0.13355134195E+03  0.00000000000E+00 0.  1.
         11    1    1    2    0    0  0.35183061455E+02  0.96406994178E+02 -0.17450275048E+02  0.10409932007E+03  0.00000000000E+00 0. -1.
</event>
<event>
 7    1  0.2670433E-009  0.9131882E+02  0.7561462E-02  0.1299689E+00
          2   -1    0    0  501    0  0.00000000000E+00  0.00000000000E+00  0.28153696234E+02  0.28153696234E+02  0.00000000000E+00 0. -1.
         -2   -1    0    0    0  501 -0.00000000000E+00 -0.00000000000E+00 -0.53162631203E+03  0.53162631203E+03  0.00000000000E+00 0.  1.
         25    2    1    2    0    0 -0.29390481048E+02  0.44508962164E+02 -0.33673620284E+03  0.36315240864E+03  0.12507419202E+03 0.  0.
          5    1    3    3  502    0  0.31197332805E+02  0.28089875319E+02 -0.34674416809E+02  0.54608627987E+02  0.41800000000E+01 0.  1.
         -5    1    3    3    0  502 -0.60587813853E+02  0.16419086845E+02 -0.30206178603E+03  0.30854378065E+03  0.41800000000E+01 0.  1.
        -11    1    1    2    0    0  0.17047516363E+02  0.11252735342E+02 -0.47803819798E-01  0.20426555070E+02  0.00000000000E+00 0. -1.
         11    1    1    2    0    0  0.12342964685E+02 -0.55761697506E+02 -0.16668860914E+03  0.17620104456E+03  0.00000000000E+00 0.  1.
</event>
<event>
 7    1  0.2670433E-009  0.1100883E+03  0.7561462E-02  0.1260406E+00
          2   -1    0    0  501    0  0.00000000000E+00  0.00000000000E+00  0.50637220032E+03  0.50637220032E+03  0.00000000000E+00 0.  1.
         -2   -1    0    0    0  501 -0.00000000000E+00 -0.00000000000E+00 -0.43058702609E+02  0.43058702609E+02  0.00000000000E+00 0. -1.
         25    2    1    2    0    0 -0.46690088922E+02 -0.71022633524E+02  0.15531408568E+03  0.21677992815E+03  0.12508754199E+03 0.  0.
          5    1    3    3  502    0 -0.30723817336E+02 -0.30516194286E+01 -0.13570461610E+02  0.33983748485E+02  0.41800000000E+01 0.  1.
         -5    1    3    3    0  502 -0.15966271586E+02 -0.67971014096E+02  0.16888454729E+03  0.18279617966E+03  0.41800000000E+01 0.  1.
        -11    1    1    2    0    0 -0.21456453914E+02  0.11730503243E+01  0.10796400738E+03  0.11008170762E+03  0.00000000000E+00 0.  1.
         11    1    1    2    0    0  0.68146542836E+02  0.69849583200E+02  0.20003540465E+03  0.22256926716E+03  0.00000000000E+00 0. -1.
</event>
<event>
 7    1  0.2670433E-009  0.2207985E+03  0.7561462E-02  0.1133289E+00
         -1   -1    0    0    0  501 -0.00000000000E+00  0.00000000000E+00  0.11349437205E+03  0.11349437205E+03  0.00000000000E+00 0.  1.
          1   -1    0    0  501    0  0.00000000000E+00 -0.00000000000E+00 -0.52185003703E+03  0.52185003703E+03  0.00000000000E+00 0. -1.
         25    2    1    2    0    0  0.28756441787E+01  0.21318624050E+03 -0.15658645940E+03  0.29261511118E+03  0.12509053342E+03 0.  0.
          5    1    3    3  502    0  0.11246014020E+02  0.79407379200E+01 -0.66908608125E+02  0.68438018611E+02  0.41800000000E+01 0.  1.
         -5    1    3    3    0  502 -0.83703698414E+01  0.20524550258E+03 -0.89677851272E+02  0.22417709257E+03  0.41800000000E+01 0.  1.
        -11    1    1    2    0    0 -0.31212289730E+02 -0.87217285688E+02 -0.56094258047E+02  0.10829417223E+03  0.00000000000E+00 0. -1.
         11    1    1    2    0    0  0.28336645552E+02 -0.12596895482E+03 -0.19567494754E+03  0.23443512568E+03  0.00000000000E+00 0.  1.
</event>
<event>
 7    1  0.2970780E-009  0.1172795E+03  0.7561462E-02  0.1247654E+00
         -2   -1    0    0    0  501 -0.00000000000E+00  0.00000000000E+00  0.18426456722E+02  0.18426456722E+02  0.00000000000E+00 0.  1.
          2   -1    0    0  501    0  0.00000000000E+00 -0.00000000000E+00 -0.10845145782E+04  0.10845145782E+04  0.00000000000E+00 0. -1.
         25    2    1    2    0    0  0.65796899847E+02 -0.31902290341E+02 -0.78435452651E+03  0.79762526392E+03  0.12508816987E+03 0.  0.
          5    1    3    3  502    0  0.29852435497E+01  0.30562173144E+02 -0.46944694825E+03  0.47046877444E+03  0.41800000000E+01 0.  1.
         -5    1    3    3    0  502  0.62811656297E+02 -0.62464463484E+02 -0.31490757826E+03  0.32715648948E+03  0.41800000000E+01 0.  1.
        -11    1    1    2    0    0 -0.35061961146E+02  0.62407259219E+02 -0.14193467515E+03  0.15896370382E+03  0.00000000000E+00 0. -1.
         11    1    1    2    0    0 -0.30734938701E+02 -0.30504968879E+02 -0.13979891980E+03  0.14635206716E+03  0.00000000000E+00 0.  1.
</event>
<event>
 7    1  0.2670433E-009  0.9533240E+02  0.7561462E-02  0.1290429E+00
          2   -1    0    0  501    0  0.00000000000E+00  0.00000000000E+00  0.51565460314E+03  0.51565460314E+03  0.00000000000E+00 0.  1.
         -2   -1    0    0    0  501 -0.00000000000E+00 -0.00000000000E+00 -0.23623816201E+02  0.23623816201E+02  0.00000000000E+00 0. -1.
         25    2    1    2    0    0 -0.42075297044E+01  0.83871045689E+01  0.33432554385E+03  0.35708405635E+03  0.12508959669E+03 0.  0.
          5    1    3    3  502    0 -0.85602880470E+00 -0.58192561305E+02  0.16819290074E+03  0.17802649026E+03  0.41800000000E+01 0. -1.
         -5    1    3    3    0  502 -0.33515008997E+01  0.66579665874E+02  0.16613264311E+03  0.17905756608E+03  0.41800000000E+01 0. -1.
        -11    1    1    2    0    0 -0.38809954723E+01  0.27988906537E+02  0.13634468308E+03  0.13924192479E+03  0.00000000000E+00 0.  1.
         11    1    1    2    0    0  0.80885251767E+01 -0.36376011106E+02  0.21360560010E+02  0.42952438201E+02  0.00000000000E+00 0. -1.
</event>
<event>
 7    1  0.2670433E-009  0.1080404E+03  0.7561462E-02  0.1264242E+00
         -1   -1    0    0    0  501 -0.00000000000E+00  0.00000000000E+00  0.11027907141E+03  0.11027907141E+03  0.00000000000E+00 0.  1.
          1   -1    0    0  501    0  0.00000000000E+00 -0.00000000000E+00 -0.11724611298E+03  0.11724611298E+03  0.00000000000E+00 0. -1.
         25    2    1    2    0    0  0.18173349011E+02  0.87976606968E+00  0.25504358374E+02  0.12895818048E+03  0.12509474575E+03 0.  0.
          5    1    3    3  502    0  0.49737441161E+02  0.47090969294E+02  0.35959136347E+01  0.68715176178E+02  0.41800000000E+01 0. -1.
         -5    1    3    3    0  502 -0.31564092150E+02 -0.46211203224E+02  0.21908444740E+02  0.60243004304E+02  0.41800000000E+01 0. -1.
        -11    1    1    2    0    0 -0.54012497993E+02 -0.85663265582E+01 -0.10062730136E+02  0.55605669027E+02  0.00000000000E+00 0.  1.
         11    1    1    2    0    0  0.35839148983E+02  0.76865604885E+01 -0.22408669809E+02  0.42961334878E+02  0.00000000000E+00 0. -1.
</event>
<event>
 7    1  0.2670433E-009  0.3212369E+03  0.7561462E-02  0.1075081E+00
         -1   -1    0    0    0  501 -0.00000000000E+00  0.00000000000E+00  0.73771479430E+03  0.73771479430E+03  0.00000000000E+00 0. -1.
          1   -1    0    0  501    0  0.00000000000E+00 -0.00000000000E+00 -0.36688034945E+03  0.36688034945E+03  0.00000000000E+00 0.  1.
         25    2    1    2    0    0  0.11957676180E+03  0.28683051685E+03 -0.23933696233E+03  0.41170441722E+03  0.12509195922E+03 0.  0.
          5    1    3    3  502    0  0.33336492256E+02  0.13926012316E+03 -0.39283299931E+02  0.14854411355E+03  0.41800000000E+01 0. -1.
         -5    1    3    3    0  502  0.86240269547E+02  0.14757039369E+03 -0.20005366240E+03  0.26316030366E+03  0.41800000000E+01 0. -1.
        -11    1    1    2    0    0 -0.13733448230E+03 -0.22216842800E+03  0.49107463305E+03  0.55621386683E+03  0.00000000000E+00 0. -1.
         11    1    1    2    0    0  0.17757720493E+02 -0.64662088850E+02  0.11909677412E+03  0.13667685970E+03  0.00000000000E+00 0.  1.
</event>
<event>
 7    1  0.2670433E-009  0.1144079E+03  0.7561462E-02  0.1252618E+00
          2   -1    0    0  501    0  0.00000000000E+00  0.00000000000E+00  0.82529730107E+03  0.82529730107E+03  0.00000000000E+00 0. -1.
         -2   -1    0    0    0  501 -0.00000000000E+00 -0.00000000000E+00 -0.16463843692E+02  0.16463843692E+02  0.00000000000E+00 0.  1.
         25    2    1    2    0    0 -0.28205158144E+02  0.32633871895E+02  0.42767259181E+03  0.44767309776E+03  0.12508739397E+03 0.  0.
          5    1    3    3  502    0 -0.39415491970E+02 -0.40254447991E+02  0.14814126768E+03  0.15854749818E+03  0.41800000000E+01 0. -1.
         -5    1    3    3    0  502  0.11210333826E+02  0.72888319886E+02  0.27953132414E+03  0.28912559958E+03  0.41800000000E+01 0. -1.
        -11    1    1    2    0    0 -0.28196966869E+02 -0.31178942268E+02  0.19890805145E+03  0.20330176663E+03  0.00000000000E+00 0. -1.
         11    1    1    2    0    0  0.56402125013E+02 -0.14549296277E+01  0.18225281412E+03  0.19078628037E+03  0.00000000000E+00 0.  1.
</event>
<event>
 7    1  0.2670433E-009  0.1189168E+03  0.7561462E-02  0.1244895E+00
          2   -1    0    0  501    0  0.00000000000E+00  0.00000000000E+00  0.55584581556E+03  0.55584581556E+03  0.00000000000E+00 0. -1.
         -2   -1    0    0    0  501 -0.00000000000E+00 -0.00000000000E+00 -0.45985719924E+02  0.45985719924E+02  0.00000000000E+00 0.  1.
         25    2    1    2    0    0  0.26197783059E+02  0.23212276169E+02  0.29939535194E+03  0.32635841485E+03  0.12508838707E+03 0.  0.
          5    1    3    3  502    0  0.45939313276E+02  0.52020409380E+02  0.88471607954E+02  0.11252218141E+03  0.41800000000E+01 0.  1.
         -5    1    3    3    0  502 -0.19741530217E+02 -0.28808133211E+02  0.21092374398E+03  0.21383623344E+03  0.41800000000E+01 0.  1.
        -11    1    1    2    0    0  0.22895944096E+02  0.44177261726E+02  0.17992741457E+03  0.18668082179E+03  0.00000000000E+00 0.  1.
         11    1    1    2    0    0 -0.49093727156E+02 -0.67389537895E+02  0.30537329129E+02  0.88792298844E+02  0.00000000000E+00 0. -1.
</event>
<event>
 7    1  0.2670433E-009  0.9356467E+02  0.7561462E-02  0.1294442E+00
         -1   -1    0    0    0  501 -0.00000000000E+00  0.00000000000E+00  0.44598287157E+02  0.44598287157E+02  0.00000000000E+00 0.  1.
          1   -1    0    0  501    0  0.00000000000E+00 -0.00000000000E+00 -0.39477883437E+03  0.39477883437E+03  0.00000000000E+00 0. -1.
         25    2    1    2    0    0 -0.73182070456E+02  0.12972129848E+02 -0.15587308544E+03  0.21323241998E+03  0.12509098519E+03 0.  0.
          5    1    3    3  502    0 -0.57436368388E+02  0.16040837835E+02 -0.34174983291E+01  0.59878181226E+02  0.41800000000E+01 0.  1.
         -5    1    3    3    0  502 -0.15745702067E+02 -0.30687079865E+01 -0.15245558711E+03  0.15335423875E+03  0.41800000000E+01 0.  1.
        -11    1    1    2    0    0  0.16822779561E+02 -0.43525087131E+02 -0.11540063223E+03  0.12447788977E+03  0.00000000000E+00 0. -1.
         11    1    1    2    0    0  0.56359290894E+02  0.30552957283E+02 -0.78906829542E+02  0.10166681178E+03  0.00000000000E+00 0.  1.
</event>
<event>
 7    1  0.2670433E-009  0.1611717E+03  0.7561462E-02  0.1187380E+00
         -3   -1    0    0    0  501 -0.00000000000E+00  0.00000000000E+00  0.28334810781E+03  0.28334810781E+03  0.00000000000E+00 0.  1.
          3   -1    0    0  501    0  0.00000000000E+00 -0.00000000000E+00 -0.18810243507E+03  0.18810243507E+03  0.00000000000E+00 0. -1.
         25    2    1    2    0    0  0.12070648663E+03 -0.17293518303E+02 -0.11262167081E+03  0.20784928942E+03  0.12509422323E+03 0.  0.
          5    1    3    3  502    0  0.97304080768E+02 -0.57951963304E+02 -0.37858207044E+02  0.11948736513E+03  0.41800000000E+01 0.  1.
         -5    1    3    3    0  502  0.23402405862E+02  0.40658445001E+02 -0.74763463768E+02  0.88361924292E+02  0.41800000000E+01 0.  1.
        -11    1    1    2    0    0 -0.31142988815E+02 -0.43621768648E+02  0.62926115109E+02  0.82658577384E+02  0.00000000000E+00 0.  1.
         11    1    1    2    0    0 -0.89563497814E+02  0.60915286951E+02  0.14494122844E+03  0.18094267608E+03  0.00000000000E+00 0. -1.
</event>
<event>
 7    1  0.2670433E-009  0.8878643E+02  0.7561462E-02  0.1305817E+00
          4   -1    0    0  501    0  0.00000000000E+00  0.00000000000E+00  0.48641180197E+03  0.48641180197E+03  0.00000000000E+00 0. -1.
         -4   -1    0    0    0  501 -0.00000000000E+00 -0.00000000000E+00 -0.33544084080E+02  0.33544084080E+02  0.00000000000E+00 0.  1.
         25    2    1    2    0    0  0.84157050150E+01  0.34086089522E+02  0.36492669581E+03  0.38736412071E+03  0.12508710210E+03 0.  0.
          5    1    3    3  502    0  0.40000791538E+02  0.81605026137E+01  0.33252256634E+03  0.33504535015E+03  0.41800000000E+01 0.  1.
         -5    1    3    3    0  502 -0.31585086523E+02  0.25925586909E+02  0.32404129467E+02  0.52318770568E+02  0.41800000000E+01 0.  1.
        -11    1    1    2    0    0 -0.42650501115E+02 -0.42494356788E+02  0.72132832220E+02  0.93957336533E+02  0.00000000000E+00 0.  1.
         11    1    1    2    0    0  0.34234796100E+02  0.84082672655E+01  0.15808189862E+02  0.38634428806E+02  0.00000000000E+00 0. -1.
</event>
<event>
 7    1  0.2670433E-009  0.1793990E+03  0.7561462E-02  0.1168386E+00
          2   -1    0    0  501    0  0.00000000000E+00  0.00000000000E+00  0.32166300166E+03  0.32166300166E+03  0.00000000000E+00 0.  1.
         -2   -1    0    0    0  501 -0.00000000000E+00 -0.00000000000E+00 -0.13602101468E+03  0.13602101468E+03  0.00000000000E+00 0. -1.
         25    2    1    2    0    0  0.83427588439E+02  0.13770915586E+03  0.14410177097E+02  0.20439886118E+03  0.12508903679E+03 0.  0.
          5    1    3    3  502    0  0.79186896006E+02  0.70660178097E+02  0.61049766030E+02  0.12250702674E+03  0.41800000000E+01 0. -1.
         -5    1    3    3    0  502  0.42406924331E+01  0.67048977766E+02 -0.46639588933E+02  0.81891834438E+02  0.41800000000E+01 0. -1.
        -11    1    1    2    0    0 -0.63035667884E+01 -0.98597979665E+02  0.10647017974E+03  0.14524873742E+03  0.00000000000E+00 0.  1.
         11    1    1    2    0    0 -0.77124021650E+02 -0.39111176198E+02  0.64761630145E+02  0.10803641774E+03  0.00000000000E+00 0. -1.
</event>
<event>
 7    1  0.2670433E-009  0.8064024E+02  0.7561462E-02  0.1327244E+00
         -2   -1    0    0    0  501 -0.00000000000E+00  0.00000000000E+00  0.25861439179E+02  0.25861439179E+02  0.00000000000E+00 0. -1.
          2   -1    0    0  501    0  0.00000000000E+00 -0.00000000000E+00 -0.52644984606E+03  0.52644984606E+03  0.00000000000E+00 0.  1.
         25    2    1    2    0    0 -0.19409421435E+02 -0.31263131357E+02 -0.23021664781E+03  0.26457842127E+03  0.12509167458E+03 0.  0.
          5    1    3    3  502    0 -0.35659394113E+02 -0.31520565222E+02 -0.17013031410E+02  0.50715422292E+02  0.41800000000E+01 0.  1.
         -5    1    3    3    0  502  0.16249972679E+02  0.25743386510E+00 -0.21320361640E+03  0.21386299897E+03  0.41800000000E+01 0.  1.
        -11    1    1    2    0    0 -0.62165972788E+01  0.58787855524E+02 -0.13814572574E+03  0.15026276844E+03  0.00000000000E+00 0.  1.
         11    1    1    2    0    0  0.25626018714E+02 -0.27524724167E+02 -0.13222603333E+03  0.13747009554E+03  0.00000000000E+00 0. -1.
</event>
<event>
 7    1  0.2670433E-009  0.1049406E+03  0.7561462E-02  0.1270237E+00
         -3   -1    0    0    0  501 -0.00000000000E+00  0.00000000000E+00  0.87358119673E+02  0.87358119673E+02  0.00000000000E+00 0.  1.
          3   -1    0    0  501    0  0.00000000000E+00 -0.00000000000E+00 -0.13859202341E+03  0.13859202341E+03  0.00000000000E+00 0. -1.
         25    2    1    2    0    0 -0.18165086458E+02 -0.61903665979E+01 -0.30137628292E+02  0.13009273684E+03  0.12509017762E+03 0.  0.
          5    1    3    3  502    0 -0.19764628487E+02 -0.64503430033E+02 -0.10526310772E+02  0.68407665094E+02  0.41800000000E+01 0.  1.
         -5    1    3    3    0  502  0.15995420290E+01  0.58313063435E+02 -0.19611317520E+02  0.61685071749E+02  0.41800000000E+01 0.  1.
        -11    1    1    2    0    0  0.65475439374E-01  0.42886557700E+02  0.10508961936E+02  0.44155400568E+02  0.00000000000E+00 0.  1.
         11    1    1    2    0    0  0.18099611019E+02 -0.36696191102E+02 -0.31605237382E+02  0.51702005671E+02  0.00000000000E+00 0. -1.
</event>
<event>
 7    1  0.2670433E-009  0.1073719E+03  0.7561462E-02  0.1265516E+00
          1   -1    0    0  501    0  0.00000000000E+00  0.00000000000E+00  0.80727080141E+03  0.80727080141E+03  0.00000000000E+00 0. -1.
         -1   -1    0    0    0  501 -0.00000000000E+00 -0.00000000000E+00 -0.17974239265E+02  0.17974239265E+02  0.00000000000E+00 0.  1.
         25    2    1    2    0    0 -0.28622811920E+02 -0.23418117663E+02  0.31988000473E+03  0.34545155221E+03  0.12508350770E+03 0.  0.
          5    1    3    3  502    0 -0.28191649593E+02 -0.67104383381E+02  0.26677793850E+03  0.27656049654E+03  0.41800000000E+01 0. -1.
         -5    1    3    3    0  502 -0.43116232681E+00  0.43686265718E+02  0.53102066237E+02  0.68891055675E+02  0.41800000000E+01 0. -1.
        -11    1    1    2    0    0  0.60883075706E+02  0.24607627698E+02  0.27623486598E+03  0.28393306506E+03  0.00000000000E+00 0.  1.
         11    1    1    2    0    0 -0.32260263786E+02 -0.11895100345E+01  0.19318169143E+03  0.19586042341E+03  0.00000000000E+00 0. -1.
</event>
<event>
 7    1  0.2670433E-009  0.1689502E+03  0.7561462E-02  0.1178947E+00
         -2   -1    0    0    0  501 -0.00000000000E+00  0.00000000000E+00  0.58837549951E+02  0.58837549951E+02  0.00000000000E+00 0.  1.
          2   -1    0    0  501    0  0.00000000000E+00 -0.00000000000E+00 -0.65257075116E+03  0.65257075116E+03  0.00000000000E+00 0. -1.
         25    2    1    2    0    0 -0.56520541142E+01  0.15199354875E+03 -0.20928285677E+03  0.28736913281E+03  0.12509084609E+03 0.  0.
          5    1    3    3  502    0 -0.34505578826E+02  0.87620433222E+02 -0.19308992585E+03  0.21487011694E+03  0.41800000000E+01 0.  1.
         -5    1    3    3    0  502  0.28853524712E+02  0.64373115525E+02 -0.16192930923E+02  0.72499015874E+02  0.41800000000E+01 0.  1.
        -11    1    1    2    0    0  0.42382346283E+02 -0.56299520020E+02 -0.10566689247E+03  0.12700941459E+03  0.00000000000E+00 0.  1.
         11    1    1    2    0    0 -0.36730292168E+02 -0.95694028727E+02 -0.27878345196E+03  0.29702975371E+03  0.00000000000E+00 0. -1.
</event>
<event>
 7    1  0.2670433E-009  0.9621534E+02  0.7561462E-02  0.1288462E+00
         -2   -1    0    0    0  501 -0.00000000000E+00  0.00000000000E+00  0.53457216477E+03  0.53457216477E+03  0.00000000000E+00 0.  1.
          2   -1    0    0  501    0  0.00000000000E+00 -0.00000000000E+00 -0.25998221083E+02  0.25998221083E+02  0.00000000000E+00 0. -1.
         25    2    1    2    0    0 -0.45082835213E+02  0.52729784599E+01  0.23930409729E+03  0.27381303355E+03  0.12508740955E+03 0.  0.
          5    1    3    3  502    0 -0.53024695525E+02 -0.29599615739E+02  0.43726647706E+02  0.74948300228E+02  0.41800000000E+01 0.  1.
         -5    1    3    3    0  502  0.79418603117E+01  0.34872594199E+02  0.19557744959E+03  0.19886473332E+03  0.41800000000E+01 0.  1.
        -11    1    1    2    0    0  0.49713197518E+02 -0.37953056638E+02  0.20751119365E+03  0.21673193582E+03  0.00000000000E+00 0. -1.
         11    1    1    2    0    0 -0.46303623048E+01  0.32680078178E+02  0.61758652745E+02  0.70025416484E+02  0.00000000000E+00 0.  1.
</event>
<event>
 7    1  0.2670433E-009  0.9957570E+02  0.7561462E-02  0.1281191E+00
         -2   -1    0    0    0  501 -0.00000000000E+00  0.00000000000E+00  0.29763239794E+02  0.29763239794E+02  0.00000000000E+00 0.  1.
          2   -1    0    0  501    0  0.00000000000E+00 -0.00000000000E+00 -0.51917633361E+03  0.51917633361E+03  0.00000000000E+00 0. -1.
         25    2    1    2    0    0 -0.58178266644E+01 -0.35027256392E+02 -0.22380922577E+03  0.25884130053E+03  0.12508994172E+03 0.  0.
          5    1    3    3  502    0  0.44482307091E+02 -0.57067957834E+01 -0.24735859926E+02  0.51386557858E+02  0.41800000000E+01 0. -1.
         -5    1    3    3    0  502 -0.50300133756E+02 -0.29320460609E+02 -0.19907336585E+03  0.20745474267E+03  0.41800000000E+01 0. -1.
        -11    1    1    2    0    0 -0.39536417105E+02  0.19146647858E+01 -0.35266245390E+02  0.53014170583E+02  0.00000000000E+00 0.  1.
         11    1    1    2    0    0  0.45354243769E+02  0.33112591607E+02 -0.23033762265E+03  0.23708410229E+03  0.00000000000E+00 0. -1.
</event>
<event>
 7    1  0.2670433E-009  0.1146134E+03  0.7561462E-02  0.1252258E+00
         -2   -1    0    0    0  501 -0.00000000000E+00  0.00000000000E+00  0.45741269123E+02  0.45741269123E+02  0.00000000000E+00 0.  1.
          2   -1    0    0  501    0  0.00000000000E+00 -0.00000000000E+00 -0.36287234383E+03  0.36287234383E+03  0.00000000000E+00 0. -1.
         25    2    1    2    0    0  0.33660264588E+02 -0.40209438585E+02 -0.12075458702E+03  0.18160246054E+03  0.12509185034E+03 0.  0.
          5    1    3    3  502    0 -0.37909506480E+01  0.41077791736E+02 -0.61542362479E+02  0.74207082278E+02  0.41800000000E+01 0.  1.
         -5    1    3    3    0  502  0.37451215236E+02 -0.81287230321E+02 -0.59212224542E+02  0.10739537826E+03  0.41800000000E+01 0.  1.
        -11    1    1    2    0    0 -0.34344245229E+02 -0.18799508271E+02 -0.14009343977E+03  0.14546174947E+03  0.00000000000E+00 0.  1.
         11    1    1    2    0    0  0.68398064066E+00  0.59008946856E+02 -0.56283047913E+02  0.81549402946E+02  0.00000000000E+00 0. -1.
</event>
<event>
 7    1  0.2670433E-009  0.6489015E+02  0.7561462E-02  0.1378385E+00
         -1   -1    0    0    0  501 -0.00000000000E+00  0.00000000000E+00  0.28713721844E+03  0.28713721844E+03  0.00000000000E+00 0.  1.
          1   -1    0    0  501    0  0.00000000000E+00 -0.00000000000E+00 -0.45839260813E+02  0.45839260813E+02  0.00000000000E+00 0. -1.
         25    2    1    2    0    0 -0.72287291507E+01 -0.21804015192E+02  0.19699893775E+03  0.23448448476E+03  0.12508685988E+03 0.  0.
          5    1    3    3  502    0 -0.37655284860E+02 -0.18095036887E+02  0.19909895356E+03  0.20347780357E+03  0.41800000000E+01 0.  1.
         -5    1    3    3    0  502  0.30426555709E+02 -0.37089783056E+01 -0.21000158019E+01  0.31006681195E+02  0.41800000000E+01 0.  1.
        -11    1    1    2    0    0  0.80724515678E+01 -0.16593064643E+02  0.55498776441E+02  0.58485968018E+02  0.00000000000E+00 0.  1.
         11    1    1    2    0    0 -0.84372241714E+00  0.38397079835E+02 -0.11199756563E+02  0.40006026477E+02  0.00000000000E+00 0. -1.
</event>
<event>
 7    1  0.2670433E-009  0.1068843E+03  0.7561462E-02  0.1266451E+00
         -2   -1    0    0    0  501 -0.00000000000E+00  0.00000000000E+00  0.11222075472E+03  0.11222075472E+03  0.00000000000E+00 0.  1.
          2   -1    0    0  501    0  0.00000000000E+00 -0.00000000000E+00 -0.11912285400E+03  0.11912285400E+03  0.00000000000E+00 0. -1.
         25    2    1    2    0    0  0.21180875041E+02 -0.11907205651E+02 -0.34934865081E+02  0.13213033498E+03  0.12509024587E+03 0.  0.
          5    1    3    3  502    0  0.23787880057E+01  0.55560284884E+02 -0.54844092394E+01  0.56037086233E+02  0.41800000000E+01 0. -1.
         -5    1    3    3    0  502  0.18802087035E+02 -0.67467490536E+02 -0.29450455842E+02  0.76093248750E+02  0.41800000000E+01 0. -1.
        -11    1    1    2    0    0 -0.42728254334E+02  0.35742354128E+02 -0.12785780876E+01  0.55721220006E+02  0.00000000000E+00 0. -1.
         11    1    1    2    0    0  0.21547379293E+02 -0.23835148477E+02  0.29311343892E+02  0.43492053735E+02  0.00000000000E+00 0.  1.
</event>
<event>
 7    1  0.2670433E-009  0.2231174E+03  0.7561462E-02  0.1131580E+00
         -2   -1    0    0    0  501 -0.00000000000E+00  0.00000000000E+00  0.74057754317E+02  0.74057754317E+02  0.00000000000E+00 0.  1.
          2   -1    0    0  501    0  0.00000000000E+00 -0.00000000000E+00 -0.73239153218E+03  0.73239153218E+03  0.00000000000E+00 0. -1.
         25    2    1    2    0    0  0.16209099654E+03 -0.12257950449E+03 -0.28013898974E+03  0.36800085147E+03  0.12509015561E+03 0.  0.
          5    1    3    3  502    0  0.89216375934E+02  0.63595753576E+01 -0.90078747256E+02  0.12701046823E+03  0.41800000000E+01 0.  1.
         -5    1    3    3    0  502  0.72874620607E+02 -0.12893907985E+03 -0.19006024248E+03  0.24099038324E+03  0.41800000000E+01 0.  1.
        -11    1    1    2    0    0 -0.32967515595E+01  0.18207290148E+02 -0.42400785023E+01  0.18982946323E+02  0.00000000000E+00 0.  1.
         11    1    1    2    0    0 -0.15879424498E+03  0.10437221434E+03 -0.37395470963E+03  0.41946548871E+03  0.00000000000E+00 0. -1.
</event>
<event>
 7    1  0.2670433E-009  0.2637521E+03  0.7561462E-02  0.1104910E+00
         -1   -1    0    0    0  501 -0.00000000000E+00  0.00000000000E+00  0.28046813107E+03  0.28046813107E+03  0.00000000000E+00 0.  1.
          1   -1    0    0  501    0  0.00000000000E+00 -0.00000000000E+00 -0.27772456962E+03  0.27772456962E+03  0.00000000000E+00 0. -1.
         25    2    1    2    0    0  0.12425965424E+03  0.21261890002E+03  0.75217894094E+02  0.28627379778E+03  0.12509075659E+03 0.  0.
          5    1    3    3  502    0  0.68901829467E+02  0.20913893395E+03  0.65816868897E+02  0.22986058477E+03  0.41800000000E+01 0.  1.
         -5    1    3    3    0  502  0.55357824771E+02  0.34799660714E+01  0.94010251970E+01  0.56413213009E+02  0.41800000000E+01 0.  1.
        -11    1    1    2    0    0 -0.36477125283E+02 -0.11361702331E+03 -0.72456623659E+02  0.13960433721E+03  0.00000000000E+00 0.  1.
         11    1    1    2    0    0 -0.87782528955E+02 -0.99001876716E+02 -0.17708984395E-01  0.13231456570E+03  0.00000000000E+00 0. -1.
</event>
<event>
 7    1  0.2670433E-009  0.1367018E+03  0.7561462E-02  0.1217837E+00
          1   -1    0    0  501    0  0.00000000000E+00  0.00000000000E+00  0.25063058779E+03  0.25063058779E+03  0.00000000000E+00 0. -1.
         -1   -1    0    0    0  501 -0.00000000000E+00 -0.00000000000E+00 -0.83538002737E+02  0.83538002737E+02  0.00000000000E+00 0.  1.
         25    2    1    2    0    0  0.19892913052E+02 -0.90481325077E+02  0.70493704226E+02  0.17087890972E+03  0.12509053231E+03 0.  0.
          5    1    3    3  502    0  0.54224153306E+02 -0.10006260752E+03  0.72381302987E+02  0.13494187507E+03  0.41800000000E+01 0.  1.
         -5    1    3    3    0  502 -0.34331240254E+02  0.95812824403E+01 -0.18875987615E+01  0.35937034653E+02  0.41800000000E+01 0.  1.
        -11    1    1    2    0    0  0.58311467247E+01  0.96933056612E+02  0.48927724471E+02  0.10873795086E+03  0.00000000000E+00 0.  1.
         11    1    1    2    0    0 -0.25724059777E+02 -0.64517315356E+01  0.47671156353E+02  0.54551729938E+02  0.00000000000E+00 0. -1.
</event>
<event>
 7    1  0.2670433E-009  0.1818499E+03  0.7561462E-02  0.1166025E+00
         -2   -1    0    0    0  501 -0.00000000000E+00  0.00000000000E+00  0.29170971534E+03  0.29170971534E+03  0.00000000000E+00 0.  1.
          2   -1    0    0  501    0  0.00000000000E+00 -0.00000000000E+00 -0.12445920003E+03  0.12445920003E+03  0.00000000000E+00 0. -1.
         25    2    1    2    0    0 -0.83317525587E+02 -0.13070748803E+03  0.61001725366E+02  0.20831537813E+03  0.12509128175E+03 0.  0.
          5    1    3    3  502    0 -0.11539731183E+03 -0.10372883264E+03  0.59280741745E+02  0.16615621878E+03  0.41800000000E+01 0.  1.
         -5    1    3    3    0  502  0.32079786243E+02 -0.26978655386E+02  0.17209836216E+01  0.42159159342E+02  0.41800000000E+01 0.  1.
        -11    1    1    2    0    0  0.79851583572E+02  0.71921195592E+02  0.10303170275E+03  0.14887735068E+03  0.00000000000E+00 0.  1.
         11    1    1    2    0    0  0.34659420152E+01  0.58786292435E+02  0.32170871885E+01  0.58976186570E+02  0.00000000000E+00 0. -1.
</event>
<event>
 7    1  0.2670433E-009  0.1284605E+03  0.7561462E-02  0.1229758E+00
          1   -1    0    0  501    0  0.00000000000E+00  0.00000000000E+00  0.35476593623E+02  0.35476593623E+02  0.00000000000E+00 0. -1.
         -1   -1    0    0    0  501 -0.00000000000E+00 -0.00000000000E+00 -0.51548555838E+03  0.51548555838E+03  0.00000000000E+00 0.  1.
         25    2    1    2    0    0  0.58415459436E+01 -0.79794846196E+02 -0.24536122855E+03  0.28679240666E+03  0.12508561429E+03 0.  0.
          5    1    3    3  502    0 -0.29637147148E+02 -0.99449535444E+02 -0.14405913206E+03  0.17759244500E+03  0.41800000000E+01 0.  1.
         -5    1    3    3    0  502  0.35478693091E+02  0.19654689248E+02 -0.10130209649E+03  0.10919996166E+03  0.41800000000E+01 0.  1.
        -11    1    1    2    0    0  0.32350772382E+02  0.62477159462E+02 -0.94064699107E+02  0.11746546533E+03  0.00000000000E+00 0.  1.
         11    1    1    2    0    0 -0.38192318326E+02  0.17317686734E+02 -0.14058303710E+03  0.14670428001E+03  0.00000000000E+00 0. -1.
</event>
<event>
 7    1  0.3046233E-009  0.9027999E+02  0.7561462E-02  0.1302175E+00
         -3   -1    0    0    0  501 -0.00000000000E+00  0.00000000000E+00  0.47161441532E+02  0.47161441532E+02  0.00000000000E+00 0.  1.
          3   -1    0    0  501    0  0.00000000000E+00 -0.00000000000E+00 -0.35798804747E+03  0.35798804747E+03  0.00000000000E+00 0. -1.
         25    2    1    2    0    0 -0.21454155323E+01 -0.70695703088E+02 -0.18913917316E+03  0.23753827169E+03  0.12509323902E+03 0.  0.
          5    1    3    3  502    0  0.14711459786E+02 -0.43712670035E+02 -0.62768688081E+00  0.46315126702E+02  0.41800000000E+01 0. -1.
         -5    1    3    3    0  502 -0.16856875318E+02 -0.26983033053E+02 -0.18851148628E+03  0.19122314498E+03  0.41800000000E+01 0. -1.
        -11    1    1    2    0    0  0.30298264492E+02  0.67296787704E+02 -0.11777055953E+03  0.13898470117E+03  0.00000000000E+00 0. -1.
         11    1    1    2    0    0 -0.28152848960E+02  0.33989153840E+01 -0.39168732387E+01  0.28626516140E+02  0.00000000000E+00 0.  1.
</event>
<event>
 7    1  0.2670433E-009  0.1684770E+03  0.7561462E-02  0.1179445E+00
          1   -1    0    0  501    0  0.00000000000E+00  0.00000000000E+00  0.86029289398E+02  0.86029289398E+02  0.00000000000E+00 0. -1.
         -1   -1    0    0    0  501 -0.00000000000E+00 -0.00000000000E+00 -0.36770025759E+03  0.36770025759E+03  0.00000000000E+00 0.  1.
         25    2    1    2    0    0 -0.13895439238E+03 -0.22981208456E+01 -0.18494196845E+03  0.26299154606E+03  0.12508963619E+03 0.  0.
          5    1    3    3  502    0 -0.16099694051E+03 -0.11532608009E+02 -0.17019714566E+03  0.23460084546E+03  0.41800000000E+01 0.  1.
         -5    1    3    3    0  502  0.22042548129E+02  0.92344871629E+01 -0.14744822789E+02  0.28390700595E+02  0.41800000000E+01 0.  1.
        -11    1    1    2    0    0  0.77006556550E+02  0.30927981996E+02 -0.89595473557E+02  0.12212247420E+03  0.00000000000E+00 0.  1.
         11    1    1    2    0    0  0.61947835832E+02 -0.28629861150E+02 -0.71335261909E+01  0.68615526739E+02  0.00000000000E+00 0. -1.
</event>
<event>
 7    1  0.2670433E-009  0.1409084E+03  0.7561462E-02  0.1212112E+00
         -3   -1    0    0    0  501 -0.00000000000E+00  0.00000000000E+00  0.19832154759E+03  0.19832154759E+03  0.00000000000E+00 0.  1.
          3   -1    0    0  501    0  0.00000000000E+00 -0.00000000000E+00 -0.10546048051E+03  0.10546048051E+03  0.00000000000E+00 0. -1.
         25    2    1    2    0    0 -0.82050329379E+02 -0.38113497713E+02  0.33503776283E+02  0.15797188167E+03  0.12509083545E+03 0.  0.
          5    1    3    3  502    0 -0.11262688253E+03 -0.38697800447E+02  0.41333244490E+02  0.12612788719E+03  0.41800000000E+01 0.  1.
         -5    1    3    3    0  502  0.30576553147E+02  0.58430273307E+00 -0.78294682079E+01  0.31843994480E+02  0.41800000000E+01 0.  1.
        -11    1    1    2    0    0 -0.21021193702E+02 -0.21498605214E+01  0.21479182708E+01  0.21239727818E+02  0.00000000000E+00 0. -1.
         11    1    1    2    0    0  0.10307152308E+03  0.40263358235E+02  0.57209372527E+02  0.12457041861E+03  0.00000000000E+00 0.  1.
</event>
<event>
 7    1  0.2670433E-009  0.8397964E+02  0.7561462E-02  0.1318123E+00
         -3   -1    0    0    0  501 -0.00000000000E+00  0.00000000000E+00  0.66296251128E+02  0.66296251128E+02  0.00000000000E+00 0.  1.
          3   -1    0    0  501    0  0.00000000000E+00 -0.00000000000E+00 -0.20830748946E+03  0.20830748946E+03  0.00000000000E+00 0. -1.
         25    2    1    2    0    0 -0.28845904755E+02 -0.37330188447E+02 -0.76143170653E+02  0.15385467750E+03  0.12509136725E+03 0.  0.
          5    1    3    3  502    0 -0.32812911500E+02  0.61791866592E+01  0.26102399216E+02  0.42587288640E+02  0.41800000000E+01 0.  1.
         -5    1    3    3    0  502  0.39670067447E+01 -0.43509375106E+02 -0.10224556987E+03  0.11126738886E+03  0.41800000000E+01 0.  1.
        -11    1    1    2    0    0  0.34144997660E+02 -0.15376288147E+02 -0.55215660931E+02  0.66716417128E+02  0.00000000000E+00 0. -1.
         11    1    1    2    0    0 -0.52990929042E+01  0.52706476594E+02 -0.10652406750E+02  0.54032645966E+02  0.00000000000E+00 0.  1.
</event>
<event>
 7    1  0.2670433E-009  0.1750660E+03  0.7561462E-02  0.1172665E+00
          1   -1    0    0  501    0  0.00000000000E+00  0.00000000000E+00  0.66444221602E+03  0.66444221602E+03  0.00000000000E+00 0. -1.
         -1   -1    0    0    0  501 -0.00000000000E+00 -0.00000000000E+00 -0.51194822235E+02  0.51194822235E+02  0.00000000000E+00 0.  1.
         25    2    1    2    0    0 -0.92560981672E+02 -0.11403766819E+03  0.36755122760E+03  0.41510687775E+03  0.12509072689E+03 0.  0.
          5    1    3    3  502    0 -0.10417074469E+03 -0.55584675840E+02  0.31163810572E+03  0.33328213510E+03  0.41800000000E+01 0. -1.
         -5    1    3    3    0  502  0.11609763020E+02 -0.58452992352E+02  0.55913121876E+02  0.81824742653E+02  0.41800000000E+01 0. -1.
        -11    1    1    2    0    0  0.43764494187E+02  0.11540882863E+03  0.18875647235E+03  0.22552945380E+03  0.00000000000E+00 0.  1.
         11    1    1    2    0    0  0.48796487485E+02 -0.13711604338E+01  0.56939693829E+02  0.75000706698E+02  0.00000000000E+00 0. -1.
</event>
<event>
 7    1  0.2670433E-009  0.1105417E+03  0.7561462E-02  0.1259570E+00
          2   -1    0    0  501    0  0.00000000000E+00  0.00000000000E+00  0.54323869259E+02  0.54323869259E+02  0.00000000000E+00 0. -1.
         -2   -1    0    0    0  501 -0.00000000000E+00 -0.00000000000E+00 -0.27760512494E+03  0.27760512494E+03  0.00000000000E+00 0.  1.
         25    2    1    2    0    0  0.51340835231E+02 -0.20826347405E+02 -0.15169342756E+03  0.20427902728E+03  0.12509758955E+03 0.  0.
          5    1    3    3  502    0  0.38884109916E+02 -0.62303196479E+02 -0.14167261432E+03  0.15963165207E+03  0.41800000000E+01 0.  1.
         -5    1    3    3    0  502  0.12456725314E+02  0.41476849074E+02 -0.10020813241E+02  0.44647375205E+02  0.41800000000E+01 0.  1.
        -11    1    1    2    0    0  0.23741618407E+02  0.16294867742E+02 -0.30479071241E+02  0.41930429798E+02  0.00000000000E+00 0. -1.
         11    1    1    2    0    0 -0.75082453638E+02  0.45314796631E+01 -0.41108756880E+02  0.85719537122E+02  0.00000000000E+00 0.  1.
</event>
<event>
 7    1  0.2670433E-009  0.9428323E+02  0.7561462E-02  0.1292799E+00
         -2   -1    0    0    0  501 -0.00000000000E+00  0.00000000000E+00  0.14557153778E+03  0.14557153778E+03  0.00000000000E+00 0.  1.
          2   -1    0    0  501    0  0.00000000000E+00 -0.00000000000E+00 -0.93751470193E+02  0.93751470193E+02  0.00000000000E+00 0. -1.
         25    2    1    2    0    0  0.22576996462E+02  0.29018438280E+02  0.58002798132E+02  0.14269563290E+03  0.12508368610E+03 0.  0.
          5    1    3    3  502    0 -0.63263859292E+01  0.74315697476E+02  0.45160005573E+02  0.87291148197E+02  0.41800000000E+01 0. -1.
         -5    1    3    3    0  502  0.28903382391E+02 -0.45297259196E+02  0.12842792559E+02  0.55404484701E+02  0.41800000000E+01 0. -1.
        -11    1    1    2    0    0 -0.79444380294E+01  0.13133856945E+02  0.33541395208E+02  0.36886819955E+02  0.00000000000E+00 0.  1.
         11    1    1    2    0    0 -0.14632558433E+02 -0.42152295226E+02 -0.39724125754E+02  0.59740555119E+02  0.00000000000E+00 0. -1.
</event>
<event>
 7    1  0.2670433E-009  0.4844468E+02  0.7561462E-02  0.1453916E+00
          2   -1    0    0  501    0  0.00000000000E+00  0.00000000000E+00  0.26809940920E+03  0.26809940920E+03  0.00000000000E+00 0. -1.
         -2   -1    0    0    0  501 -0.00000000000E+00 -0.00000000000E+00 -0.43656396328E+02  0.43656396328E+02  0.00000000000E+00 0.  1.
         25    2    1    2    0    0 -0.11778012659E+01 -0.24751513390E+01  0.14620859149E+03  0.19243790893E+03  0.12509149842E+03 0.  0.
          5    1    3    3  502    0 -0.12896611981E+01  0.17457804943E+02 -0.18888119728E+02  0.26089684673E+02  0.41800000000E+01 0.  1.
         -5    1    3    3    0  502  0.11185993226E+00 -0.19932956282E+02  0.16509671122E+03  0.16634822426E+03  0.41800000000E+01 0.  1.
        -11    1    1    2    0    0  0.28795213995E+02 -0.64357064956E+01 -0.61006500897E+01  0.30129729482E+02  0.00000000000E+00 0.  1.
         11    1    1    2    0    0 -0.27617412729E+02  0.89108578347E+01  0.84335071470E+02  0.89188167114E+02  0.00000000000E+00 0. -1.
</event>
<event>
 7    1  0.2670433E-009  0.1038620E+03  0.7561462E-02  0.1272378E+00
         -1   -1    0    0    0  501 -0.00000000000E+00  0.00000000000E+00  0.29600058364E+02  0.29600058364E+02  0.00000000000E+00 0.  1.
          1   -1    0    0  501    0  0.00000000000E+00 -0.00000000000E+00 -0.44299274819E+03  0.44299274819E+03  0.00000000000E+00 0. -1.
         25    2    1    2    0    0 -0.14422263218E+02 -0.30632009708E+02 -0.21376058324E+03  0.24997419042E+03  0.12508871746E+03 0.  0.
          5    1    3    3  502    0 -0.59456979845E+02 -0.12618424234E+02 -0.18180013841E+03  0.19173711120E+03  0.41800000000E+01 0.  1.
         -5    1    3    3    0  502  0.45034716628E+02 -0.18013585474E+02 -0.31960444825E+02  0.58237079226E+02  0.41800000000E+01 0.  1.
        -11    1    1    2    0    0  0.38284503490E+02  0.53018508240E+02 -0.12329041119E+03  0.13956070691E+03  0.00000000000E+00 0.  1.
         11    1    1    2    0    0 -0.23862240272E+02 -0.22386498531E+02 -0.76341695400E+02  0.83057909219E+02  0.00000000000E+00 0. -1.
</event>
<event>
 7    1  0.2670433E-009  0.2825139E+03  0.7561462E-02  0.1094324E+00
          2   -1    0    0  501    0  0.00000000000E+00  0.00000000000E+00  0.12154306889E+04  0.12154306889E+04  0.00000000000E+00 0. -1.
         -2   -1    0    0    0  501 -0.00000000000E+00 -0.00000000000E+00 -0.79549693922E+02  0.79549693922E+02  0.00000000000E+00 0.  1.
         25    2    1    2    0    0  0.23122579218E+03  0.13464797171E+03  0.34112832949E+03  0.45123372521E+03  0.12509154379E+03 0.  0.
          5    1    3    3  502    0  0.24198163128E+03  0.14299939392E+03  0.32359491980E+03  0.42864330283E+03  0.41800000000E+01 0. -1.
         -5    1    3    3    0  502 -0.10755839098E+02 -0.83514222185E+01  0.17533409692E+02  0.22590422377E+02  0.41800000000E+01 0. -1.
        -11    1    1    2    0    0 -0.15020204240E+03 -0.68523852326E+02  0.60456295948E+03  0.62669972383E+03  0.00000000000E+00 0. -1.
         11    1    1    2    0    0 -0.81023749782E+02 -0.66124119380E+02  0.19018970597E+03  0.21704693375E+03  0.00000000000E+00 0.  1.
</event>
<event>
 7    1  0.2670433E-009  0.1178627E+03  0.7561462E-02  0.1246665E+00
          1   -1    0    0  501    0  0.00000000000E+00  0.00000000000E+00  0.15822578263E+03  0.15822578263E+03  0.00000000000E+00 0. -1.
         -1   -1    0    0    0  501 -0.00000000000E+00 -0.00000000000E+00 -0.91311499164E+02  0.91311499164E+02  0.00000000000E+00 0.  1.
         25    2    1    2    0    0 -0.35915045094E+02  0.30713459889E+02  0.61112904378E+02  0.14702312325E+03  0.12509118516E+03 0.  0.
          5    1    3    3  502    0 -0.33892362176E+02  0.78373406686E+02  0.44185514597E+02  0.96233648947E+02  0.41800000000E+01 0.  1.
         -5    1    3    3    0  502 -0.20226829184E+01 -0.47659946797E+02  0.16927389781E+02  0.50789474300E+02  0.41800000000E+01 0.  1.
        -11    1    1    2    0    0  0.16453477307E+02 -0.62746672587E+02  0.36012322777E+01  0.64967920624E+02  0.00000000000E+00 0.  1.
         11    1    1    2    0    0  0.19461567787E+02  0.32033212698E+02  0.22001468140E+01  0.37546237927E+02  0.00000000000E+00 0. -1.
</event>
<event>
 7    1  0.2670433E-009  0.8922339E+02  0.7561462E-02  0.1304743E+00
         -1   -1    0    0    0  501 -0.00000000000E+00  0.00000000000E+00  0.14101136419E+02  0.14101136419E+02  0.00000000000E+00 0.  1.
          1   -1    0    0  501    0  0.00000000000E+00 -0.00000000000E+00 -0.10767768658E+04  0.10767768658E+04  0.00000000000E+00 0. -1.
         25    2    1    2    0    0 -0.24794946537E+02  0.26686600384E+02 -0.65704224846E+03  0.66983448002E+03  0.12508697110E+03 0.  0.
          5    1    3    3  502    0 -0.37181788214E+02  0.15849426702E+01 -0.51740016694E+02  0.63870956980E+02  0.41800000000E+01 0. -1.
         -5    1    3    3    0  502  0.12386841677E+02  0.25101657714E+02 -0.60530223177E+03  0.60596352304E+03  0.41800000000E+01 0. -1.
        -11    1    1    2    0    0 -0.22948938072E+02 -0.53303144281E+02 -0.22049385254E+03  0.22800310953E+03  0.00000000000E+00 0. -1.
         11    1    1    2    0    0  0.47743884609E+02  0.26616543897E+02 -0.18513962834E+03  0.19304041263E+03  0.00000000000E+00 0.  1.
</event>
<event>
 7    1  0.2670433E-009  0.1087091E+03  0.7561462E-02  0.1262979E+00
         -1   -1    0    0    0  501 -0.00000000000E+00  0.00000000000E+00  0.57062638594E+02  0.57062638594E+02  0.00000000000E+00 0.  1.
          1   -1    0    0  501    0  0.00000000000E+00 -0.00000000000E+00 -0.38131291691E+03  0.38131291691E+03  0.00000000000E+00 0. -1.
         25    2    1    2    0    0 -0.67060824362E+00  0.97044517718E+01 -0.32206511875E+03  0.34564129124E+03  0.12508930969E+03 0.  0.
          5    1    3    3  502    0 -0.51649372410E+02 -0.30237777858E+02 -0.17126936858E+03  0.18147355150E+03  0.41800000000E+01 0.  1.
         -5    1    3    3    0  502  0.50978764166E+02  0.39942229630E+02 -0.15079575017E+03  0.16416773975E+03  0.41800000000E+01 0.  1.
        -11    1    1    2    0    0  0.46176990944E+02 -0.96444245365E+00  0.18239818452E+01  0.46223062985E+02  0.00000000000E+00 0. -1.
         11    1    1    2    0    0 -0.45506382701E+02 -0.87400093181E+01 -0.40091414147E+01  0.46511201277E+02  0.00000000000E+00 0.  1.
</event>
<event>
 7    1  0.2670433E-009  0.1902517E+03  0.7561462E-02  0.1158235E+00
         -3   -1    0    0    0  501 -0.00000000000E+00  0.00000000000E+00  0.27658199249E+03  0.27658199249E+03  0.00000000000E+00 0.  1.
          3   -1    0    0  501    0  0.00000000000E+00 -0.00000000000E+00 -0.23613492766E+03  0.23613492766E+03  0.00000000000E+00 0. -1.
         25    2    1    2    0    0 -0.10761698255E+03 -0.14353452757E+03  0.16706596588E+03  0.27521029433E+03  0.12508434599E+03 0.  0.
          5    1    3    3  502    0 -0.11095019682E+03 -0.14436548435E+03  0.99698886921E+02  0.20762629819E+03  0.41800000000E+01 0.  1.
         -5    1    3    3    0  502  0.33332142758E+01  0.83095677882E+00  0.67367078959E+02  0.67583996139E+02  0.41800000000E+01 0.  1.
        -11    1    1    2    0    0  0.71038804898E+02  0.36519300288E+02 -0.20599594217E+02  0.82489480401E+02  0.00000000000E+00 0.  1.
         11    1    1    2    0    0  0.36578177650E+02  0.10701522729E+03 -0.10601930683E+03  0.15501714542E+03  0.00000000000E+00 0. -1.
</event>
<event>
 7    1  0.2670433E-009  0.8880805E+02  0.7561462E-02  0.1305764E+00
         -1   -1    0    0    0  501 -0.00000000000E+00  0.00000000000E+00  0.13079906985E+03  0.13079906985E+03  0.00000000000E+00 0.  1.
          1   -1    0    0  501    0  0.00000000000E+00 -0.00000000000E+00 -0.20230984840E+03  0.20230984840E+03  0.00000000000E+00 0. -1.
         25    2    1    2    0    0 -0.48131775932E+01 -0.29928857527E+02 -0.16056865425E+03  0.20578784085E+03  0.12508972589E+03 0.  0.
          5    1    3    3  502    0  0.34286261276E+02  0.34188487453E+02 -0.91816723311E+02  0.10388543433E+03  0.41800000000E+01 0. -1.
         -5    1    3    3    0  502 -0.39099438869E+02 -0.64117344980E+02 -0.68751930934E+02  0.10190240652E+03  0.41800000000E+01 0. -1.
        -11    1    1    2    0    0  0.59371151341E+01 -0.11190236662E+02 -0.12470731377E+02  0.17776104010E+02  0.00000000000E+00 0. -1.
         11    1    1    2    0    0 -0.11239375409E+01  0.41119094190E+02  0.10152860707E+03  0.10954497339E+03  0.00000000000E+00 0.  1.
</event>
<event>
 7    1  0.2670433E-009  0.1234158E+03  0.7561462E-02  0.1237566E+00
         -2   -1    0    0    0  501 -0.00000000000E+00  0.00000000000E+00  0.10882887706E+03  0.10882887706E+03  0.00000000000E+00 0.  1.
          2   -1    0    0  501    0  0.00000000000E+00 -0.00000000000E+00 -0.19233254812E+03  0.19233254812E+03  0.00000000000E+00 0. -1.
         25    2    1    2    0    0 -0.77364901310E+02  0.61386521227E+02 -0.42337980256E+02  0.16490577878E+03  0.12509108025E+03 0.  0.
          5    1    3    3  502    0 -0.46297322205E+02 -0.10392761910E+02 -0.67520435712E+02  0.82631308729E+02  0.41800000000E+01 0. -1.
         -5    1    3    3    0  502 -0.31067579105E+02  0.71779283137E+02  0.25182455456E+02  0.82274470050E+02  0.41800000000E+01 0. -1.
        -11    1    1    2    0    0  0.30120261351E+02 -0.66841014981E+02 -0.48825182948E+02  0.88084334120E+02  0.00000000000E+00 0. -1.
         11    1    1    2    0    0  0.47244639959E+02  0.54544937536E+01  0.76594921422E+01  0.48171312280E+02  0.00000000000E+00 0.  1.
</event>
<event>
 7    1  0.2670433E-009  0.1035820E+03  0.7561462E-02  0.1272939E+00
          2   -1    0    0  501    0  0.00000000000E+00  0.00000000000E+00  0.55094877646E+03  0.55094877646E+03  0.00000000000E+00 0. -1.
         -2   -1    0    0    0  501 -0.00000000000E+00 -0.00000000000E+00 -0.26561513227E+02  0.26561513227E+02  0.00000000000E+00 0.  1.
         25    2    1    2    0    0 -0.45499730851E+02  0.26723940733E+02  0.27872220652E+03  0.31002898772E+03  0.12509000881E+03 0.  0.
          5    1    3    3  502    0  0.14852677669E+02  0.37678675642E+02  0.22469494078E+02  0.46504141710E+02  0.41800000000E+01 0.  1.
         -5    1    3    3    0  502 -0.60352408520E+02 -0.10954734908E+02  0.25625271244E+03  0.26352484601E+03  0.41800000000E+01 0.  1.
        -11    1    1    2    0    0  0.66199224880E+02 -0.42738218251E+02  0.16886466308E+03  0.18634421673E+03  0.00000000000E+00 0. -1.
         11    1    1    2    0    0 -0.20699494029E+02  0.16014277517E+02  0.76800393635E+02  0.81137085232E+02  0.00000000000E+00 0.  1.
</event>
<event>
 7    1  0.2670433E-009  0.1056007E+03  0.7561462E-02  0.1268941E+00
          2   -1    0    0  501    0  0.00000000000E+00  0.00000000000E+00  0.56658367468E+03  0.56658367468E+03  0.00000000000E+00 0. -1.
         -2   -1    0    0    0  501 -0.00000000000E+00 -0.00000000000E+00 -0.19837575755E+02  0.19837575755E+02  0.00000000000E+00 0.  1.
         25    2    1    2    0    0  0.24784569379E+02  0.29886824153E+02  0.32673505737E+03  0.35200821293E+03  0.12508591895E+03 0.  0.
          5    1    3    3  502    0  0.45334970357E+02 -0.38043307514E+02  0.13271012154E+03  0.14536850258E+03  0.41800000000E+01 0.  1.
         -5    1    3    3    0  502 -0.20550400978E+02  0.67930131667E+02  0.19402493584E+03  0.20663971035E+03  0.41800000000E+01 0.  1.
        -11    1    1    2    0    0  0.13240102335E+02 -0.39413679178E+02  0.10683634075E+03  0.11464179918E+03  0.00000000000E+00 0.  1.
         11    1    1    2    0    0 -0.38024671714E+02  0.95268550247E+01  0.11317470081E+03  0.11977123832E+03  0.00000000000E+00 0. -1.
</event>
<event>
 7    1  0.2670433E-009  0.8490911E+02  0.7561462E-02  0.1315670E+00
         -2   -1    0    0    0  501 -0.00000000000E+00  0.00000000000E+00  0.41445018087E+02  0.41445018087E+02  0.00000000000E+00 0.  1.
          2   -1    0    0  501    0  0.00000000000E+00 -0.00000000000E+00 -0.69336576819E+03  0.69336576819E+03  0.00000000000E+00 0. -1.
         25    2    1    2    0    0  0.70249293116E+02  0.25718364798E+02 -0.57724727864E+03  0.59536294914E+03  0.12508486335E+03 0.  0.
          5    1    3    3  502    0  0.61518536909E+02  0.22291975186E+02 -0.11039517883E+03  0.12839793787E+03  0.41800000000E+01 0. -1.
         -5    1    3    3    0  502  0.87307562077E+01  0.34263896116E+01 -0.46685209981E+03  0.46696501127E+03  0.41800000000E+01 0. -1.
        -11    1    1    2    0    0  0.60460958055E+01 -0.15959839586E+02  0.13991916786E+02  0.22069107128E+02  0.00000000000E+00 0.  1.
         11    1    1    2    0    0 -0.76295388922E+02 -0.97585252115E+01 -0.88665388244E+02  0.11737873000E+03  0.00000000000E+00 0. -1.
</event>
<event>
 7    1  0.2670433E-009  0.1376536E+03  0.7561462E-02  0.1216522E+00
          1   -1    0    0  501    0  0.00000000000E+00  0.00000000000E+00  0.40703995363E+03  0.40703995363E+03  0.00000000000E+00 0. -1.
         -1   -1    0    0    0  501 -0.00000000000E+00 -0.00000000000E+00 -0.61193636235E+02  0.61193636235E+02  0.00000000000E+00 0.  1.
         25    2    1    2    0    0  0.10531816192E+03  0.36288034010E+02  0.18414524708E+03  0.24892985835E+03  0.12509142940E+03 0.  0.
          5    1    3    3  502    0  0.12163837398E+03  0.50069814026E+02  0.18512956333E+03  0.22714160324E+03  0.41800000000E+01 0.  1.
         -5    1    3    3    0  502 -0.16320212062E+02 -0.13781780016E+02 -0.98431625124E+00  0.21788255108E+02  0.41800000000E+01 0.  1.
        -11    1    1    2    0    0 -0.30910095647E+02 -0.36101227843E+02  0.75342610467E+01  0.48119619224E+02  0.00000000000E+00 0.  1.
         11    1    1    2    0    0 -0.74408066273E+02 -0.18680616717E+00  0.15416680926E+03  0.17118411229E+03  0.00000000000E+00 0. -1.
</event>
<event>
 7    1  0.2670433E-009  0.1726229E+03  0.7561462E-02  0.1175140E+00
         -1   -1    0    0    0  501 -0.00000000000E+00  0.00000000000E+00  0.90956767711E+02  0.90956767711E+02  0.00000000000E+00 0.  1.
          1   -1    0    0  501    0  0.00000000000E+00 -0.00000000000E+00 -0.36947661333E+03  0.36947661333E+03  0.00000000000E+00 0. -1.
         25    2    1    2    0    0 -0.85550846516E+02 -0.12006567311E+03 -0.13677019983E+03  0.23682791626E+03  0.12508661462E+03 0.  0.
          5    1    3    3  502    0  0.15768359154E+02 -0.44348193343E+02 -0.90473920011E+02  0.10207059324E+03  0.41800000000E+01 0.  1.
         -5    1    3    3    0  502 -0.10131920567E+03 -0.75717479770E+02 -0.46296279821E+02  0.13475732301E+03  0.41800000000E+01 0.  1.
        -11    1    1    2    0    0 -0.18398945675E+02  0.19277711334E+02 -0.33597278589E+02  0.42882729447E+02  0.00000000000E+00 0. -1.
         11    1    1    2    0    0  0.10394979219E+03  0.10078796178E+03 -0.10815236719E+03  0.18072273533E+03  0.00000000000E+00 0.  1.
</event>
<event>
 7    1  0.2670433E-009  0.1330080E+03  0.7561462E-02  0.1223059E+00
         -1   -1    0    0    0  501 -0.00000000000E+00  0.00000000000E+00  0.80194629872E+02  0.80194629872E+02  0.00000000000E+00 0.  1.
          1   -1    0    0  501    0  0.00000000000E+00 -0.00000000000E+00 -0.25015348529E+03  0.25015348529E+03  0.00000000000E+00 0. -1.
         25    2    1    2    0    0  0.63073180598E+02 -0.61477102478E+02 -0.12134013199E+03  0.19526448543E+03  0.12508849427E+03 0.  0.
          5    1    3    3  502    0 -0.14046959774E+02 -0.63039605626E+02 -0.19803720518E+02  0.67682853831E+02  0.41800000000E+01 0.  1.
         -5    1    3    3    0  502  0.77120140372E+02  0.15625031481E+01 -0.10153641147E+03  0.12758163160E+03  0.41800000000E+01 0.  1.
        -11    1    1    2    0    0 -0.66433659689E+02  0.40886860221E+01 -0.14122839608E+02  0.68041186730E+02  0.00000000000E+00 0. -1.
         11    1    1    2    0    0  0.33604790911E+01  0.57388416456E+02 -0.34495883820E+02  0.67042443001E+02  0.00000000000E+00 0.  1.
</event>
<event>
 7    1  0.2670433E-009  0.1050997E+03  0.7561462E-02  0.1269923E+00
          3   -1    0    0  501    0  0.00000000000E+00  0.00000000000E+00  0.23226650323E+02  0.23226650323E+02  0.00000000000E+00 0. -1.
         -3   -1    0    0    0  501 -0.00000000000E+00 -0.00000000000E+00 -0.56214204235E+03  0.56214204235E+03  0.00000000000E+00 0.  1.
         25    2    1    2    0    0  0.79413222286E+01 -0.20930879488E+02 -0.22460907930E+03  0.25806563868E+03  0.12508984389E+03 0.  0.
          5    1    3    3  502    0 -0.43275598189E+02  0.29619998248E+02 -0.70824311131E+02  0.88225150280E+02  0.41800000000E+01 0. -1.
         -5    1    3    3    0  502  0.51216920418E+02 -0.50550877736E+02 -0.15378476817E+03  0.16984048840E+03  0.41800000000E+01 0. -1.
        -11    1    1    2    0    0 -0.24305063183E+02 -0.26128144470E+02 -0.19111593653E+03  0.19441892198E+03  0.00000000000E+00 0.  1.
         11    1    1    2    0    0  0.16363740954E+02  0.47059023958E+02 -0.12319037620E+03  0.13288413202E+03  0.00000000000E+00 0. -1.
</event>
<event>
 7    1  0.2670433E-009  0.1548606E+03  0.7561462E-02  0.1194624E+00
         -2   -1    0    0    0  501 -0.00000000000E+00  0.00000000000E+00  0.10497456540E+03  0.10497456540E+03  0.00000000000E+00 0. -1.
          2   -1    0    0  501    0  0.00000000000E+00 -0.00000000000E+00 -0.23895270860E+03  0.23895270860E+03  0.00000000000E+00 0.  1.
         25    2    1    2    0    0  0.10179206410E+03 -0.53119372632E+02 -0.86678969951E+02  0.19064039938E+03  0.12508887234E+03 0.  0.
          5    1    3    3  502    0  0.53229020815E+02 -0.90988374790E+02 -0.38368081082E+02  0.11225771711E+03  0.41800000000E+01 0. -1.
         -5    1    3    3    0  502  0.48563043284E+02  0.37869002158E+02 -0.48310888869E+02  0.78382682276E+02  0.41800000000E+01 0. -1.
        -11    1    1    2    0    0 -0.59739299344E+02  0.74361908182E+02 -0.46618312603E+02  0.10616847152E+03  0.00000000000E+00 0.  1.
         11    1    1    2    0    0 -0.42052764756E+02 -0.21242535550E+02 -0.68086064756E+00  0.47118403107E+02  0.00000000000E+00 0. -1.
</event>
<event>
 7    1  0.2670433E-009  0.9296162E+02  0.7561462E-02  0.1295834E+00
         -2   -1    0    0    0  501 -0.00000000000E+00  0.00000000000E+00  0.61348720502E+02  0.61348720502E+02  0.00000000000E+00 0.  1.
          2   -1    0    0  501    0  0.00000000000E+00 -0.00000000000E+00 -0.26058047901E+03  0.26058047901E+03  0.00000000000E+00 0. -1.
         25    2    1    2    0    0 -0.25245937244E+01 -0.27767290818E+02 -0.33994338511E+02  0.13259416032E+03  0.12509276672E+03 0.  0.
          5    1    3    3  502    0  0.45623560319E+02  0.19458589228E+02  0.11560254898E+02  0.51100468141E+02  0.41800000000E+01 0. -1.
         -5    1    3    3    0  502 -0.48148154044E+02 -0.47225880047E+02 -0.45554593408E+02  0.81493692177E+02  0.41800000000E+01 0. -1.
        -11    1    1    2    0    0 -0.15557742802E+02 -0.15328049679E+02 -0.12724429149E+03  0.12910500449E+03  0.00000000000E+00 0. -1.
         11    1    1    2    0    0  0.18082336526E+02  0.43095340497E+02 -0.37993128516E+02  0.60230034711E+02  0.00000000000E+00 0.  1.
</event>
<event>
 7    1  0.2670433E-009  0.1247517E+03  0.7561462E-02  0.1235458E+00
         -1   -1    0    0    0  501 -0.00000000000E+00  0.00000000000E+00  0.11839835802E+03  0.11839835802E+03  0.00000000000E+00 0.  1.
          1   -1    0    0  501    0  0.00000000000E+00 -0.00000000000E+00 -0.17779612172E+03  0.17779612172E+03  0.00000000000E+00 0. -1.
         25    2    1    2    0    0  0.44055213016E+02  0.84018803511E+02 -0.42684544540E+02  0.16268977669E+03  0.12508385971E+03 0.  0.
          5    1    3    3  502    0  0.63672401006E+02  0.63062427637E+02  0.21500573481E+02  0.92253951077E+02  0.41800000000E+01 0.  1.
         -5    1    3    3    0  502 -0.19617187989E+02  0.20956375874E+02 -0.64185118021E+02  0.70435825613E+02  0.41800000000E+01 0.  1.
        -11    1    1    2    0    0  0.19700655380E+01 -0.84728029247E+02 -0.65538428358E+00  0.84753463805E+02  0.00000000000E+00 0.  1.
         11    1    1    2    0    0 -0.46025278554E+02  0.70922573638E+00 -0.16057834879E+02  0.48751239247E+02  0.00000000000E+00 0. -1.
</event>
<event>
 7    1  0.2670433E-009  0.1303411E+03  0.7561462E-02  0.1226951E+00
         -2   -1    0    0    0  501 -0.00000000000E+00  0.00000000000E+00  0.50813753288E+02  0.50813753288E+02  0.00000000000E+00 0.  1.
          2   -1    0    0  501    0  0.00000000000E+00 -0.00000000000E+00 -0.42001891820E+03  0.42001891820E+03  0.00000000000E+00 0. -1.
         25    2    1    2    0    0  0.64649251173E+02 -0.49820064557E+02 -0.28573570076E+03  0.32242054662E+03  0.12509417926E+03 0.  0.
          5    1    3    3  502    0 -0.95393902217E+01 -0.70954556007E+02 -0.12584022507E+03  0.14484054553E+03  0.41800000000E+01 0. -1.
         -5    1    3    3    0  502  0.74188641395E+02  0.21134491451E+02 -0.15989547569E+03  0.17758000109E+03  0.41800000000E+01 0. -1.
        -11    1    1    2    0    0 -0.81690117316E+02  0.34073175140E+02 -0.35955637063E+02  0.95535670657E+02  0.00000000000E+00 0.  1.
         11    1    1    2    0    0  0.17040866143E+02  0.15746889416E+02 -0.47513827094E+02  0.52876454215E+02  0.00000000000E+00 0. -1.
</event>
<event>
 7    1  0.2670433E-009  0.5849399E+03  0.7561462E-02  0.9937153E-01
          1   -1    0    0  501    0  0.00000000000E+00  0.00000000000E+00  0.14134592668E+04  0.14134592668E+04  0.00000000000E+00 0. -1.
         -1   -1    0    0    0  501 -0.00000000000E+00 -0.00000000000E+00 -0.24693667488E+03  0.24693667488E+03  0.00000000000E+00 0.  1.
         25    2    1    2    0    0 -0.34544882040E+03 -0.46673237830E+03  0.58564205874E+03  0.83414485590E+03  0.12508804576E+03 0.  0.
          5    1    3    3  502    0 -0.22039861841E+03 -0.23617388640E+03  0.25198364724E+03  0.40971561661E+03  0.41800000000E+01 0.  1.
         -5    1    3    3    0  502 -0.12505020199E+03 -0.23055849190E+03  0.33365841150E+03  0.42442923929E+03  0.41800000000E+01 0.  1.
        -11    1    1    2    0    0  0.73550361374E+02  0.58388668161E+02  0.12667994361E+03  0.15769178907E+03  0.00000000000E+00 0. -1.
         11    1    1    2    0    0  0.27189845903E+03  0.40834371014E+03  0.45420058958E+03  0.66855929670E+03  0.00000000000E+00 0.  1.
</event>
<event>
 7    1  0.2670433E-009  0.1389096E+03  0.7561462E-02  0.1214804E+00
         -1   -1    0    0    0  501 -0.00000000000E+00  0.00000000000E+00  0.31656200800E+03  0.31656200800E+03  0.00000000000E+00 0.  1.
          1   -1    0    0  501    0  0.00000000000E+00 -0.00000000000E+00 -0.86556544090E+02  0.86556544090E+02  0.00000000000E+00 0. -1.
         25    2    1    2    0    0 -0.63342579117E+02  0.82602843063E+02  0.38985274368E+02  0.16734565902E+03  0.12509678638E+03 0.  0.
          5    1    3    3  502    0 -0.50406631690E+02 -0.23354991609E+02  0.94063044617E+01  0.56499868274E+02  0.41800000000E+01 0. -1.
         -5    1    3    3    0  502 -0.12935947427E+02  0.10595783467E+03  0.29578969906E+02  0.11084579074E+03  0.41800000000E+01 0. -1.
        -11    1    1    2    0    0  0.53960093023E+02 -0.29780804736E+02  0.16502365898E+03  0.17615730468E+03  0.00000000000E+00 0.  1.
         11    1    1    2    0    0  0.93824860940E+01 -0.52822038327E+02  0.25996530564E+02  0.59615588395E+02  0.00000000000E+00 0. -1.
</event>
<event>
 7    1  0.2670433E-009  0.1279016E+03  0.7561462E-02  0.1230603E+00
          2   -1    0    0  501    0  0.00000000000E+00  0.00000000000E+00  0.67119634929E+03  0.67119634929E+03  0.00000000000E+00 0. -1.
         -2   -1    0    0    0  501 -0.00000000000E+00 -0.00000000000E+00 -0.30418973707E+02  0.30418973707E+02  0.00000000000E+00 0.  1.
         25    2    1    2    0    0  0.83607565647E+02 -0.39645143062E+02  0.33556081043E+03  0.36987819099E+03  0.12508739455E+03 0.  0.
          5    1    3    3  502    0  0.22084674040E+02  0.40414064686E+02  0.56072170405E+02  0.72681429168E+02  0.41800000000E+01 0. -1.
         -5    1    3    3    0  502  0.61522891607E+02 -0.80059207748E+02  0.27948864002E+03  0.29719676182E+03  0.41800000000E+01 0. -1.
        -11    1    1    2    0    0 -0.59928711022E+02 -0.26992143833E+01  0.72903010492E+02  0.94411784762E+02  0.00000000000E+00 0.  1.
         11    1    1    2    0    0 -0.23678854625E+02  0.42344357446E+02  0.23231355466E+03  0.23732534724E+03  0.00000000000E+00 0. -1.
</event>
<event>
 7    1  0.2670433E-009  0.8990524E+02  0.7561462E-02  0.1303081E+00
          1   -1    0    0  501    0  0.00000000000E+00  0.00000000000E+00  0.15059197996E+03  0.15059197996E+03  0.00000000000E+00 0. -1.
         -1   -1    0    0    0  501 -0.00000000000E+00 -0.00000000000E+00 -0.78679320838E+02  0.78679320838E+02  0.00000000000E+00 0.  1.
         25    2    1    2    0    0 -0.11271804855E+02  0.35027000141E+01  0.35868387393E+02  0.13066568997E+03  0.12509060248E+03 0.  0.
          5    1    3    3  502    0  0.28244254027E+02  0.50547523896E+02 -0.25037647373E+01  0.58107927991E+02  0.41800000000E+01 0.  1.
         -5    1    3    3    0  502 -0.39516058882E+02 -0.47044823882E+02  0.38372152130E+02  0.72557761975E+02  0.41800000000E+01 0.  1.
        -11    1    1    2    0    0  0.18203914151E+02  0.24953158103E+02 -0.18993585880E+02  0.36260155741E+02  0.00000000000E+00 0.  1.
         11    1    1    2    0    0 -0.69321092963E+01 -0.28455858117E+02  0.55037857613E+02  0.62345455096E+02  0.00000000000E+00 0. -1.
</event>
<event>
 7    1  0.2670433E-009  0.1463939E+03  0.7561462E-02  0.1204975E+00
         -1   -1    0    0    0  501 -0.00000000000E+00  0.00000000000E+00  0.35311085950E+03  0.35311085950E+03  0.00000000000E+00 0.  1.
          1   -1    0    0  501    0  0.00000000000E+00 -0.00000000000E+00 -0.69088097784E+02  0.69088097784E+02  0.00000000000E+00 0. -1.
         25    2    1    2    0    0 -0.10310613381E+03  0.40913067805E+02  0.14223986356E+03  0.21951035841E+03  0.12509142544E+03 0.  0.
          5    1    3    3  502    0  0.16487782880E+02  0.26505362411E+02  0.75340187004E+02  0.81657806722E+02  0.41800000000E+01 0. -1.
         -5    1    3    3    0  502 -0.11959391669E+03  0.14407705394E+02  0.66899676553E+02  0.13785255169E+03  0.41800000000E+01 0. -1.
        -11    1    1    2    0    0  0.11585158585E+03 -0.21946938141E+02  0.98078712072E+02  0.15337109180E+03  0.00000000000E+00 0.  1.
         11    1    1    2    0    0 -0.12745452040E+02 -0.18966129663E+02  0.43704186087E+02  0.49317507070E+02  0.00000000000E+00 0. -1.
</event>
<event>
 7    1  0.2670433E-009  0.3772863E+03  0.7561462E-02  0.1051941E+00
          1   -1    0    0  501    0  0.00000000000E+00  0.00000000000E+00  0.12425475039E+03  0.12425475039E+03  0.00000000000E+00 0. -1.
         -1   -1    0    0    0  501 -0.00000000000E+00 -0.00000000000E+00 -0.12432730296E+04  0.12432730296E+04  0.00000000000E+00 0.  1.
         25    2    1    2    0    0  0.35081291615E+03  0.13098346246E+03 -0.64848613249E+03  0.75921525379E+03  0.12508864050E+03 0.  0.
          5    1    3    3  502    0  0.12694365771E+03  0.60625324813E+02 -0.13680125620E+03  0.19627067621E+03  0.41800000000E+01 0. -1.
         -5    1    3    3    0  502  0.22386925845E+03  0.70358137648E+02 -0.51168487629E+03  0.56294457758E+03  0.41800000000E+01 0. -1.
        -11    1    1    2    0    0 -0.30009951676E+03 -0.88230499601E+02 -0.42564611031E+03  0.52822244580E+03  0.00000000000E+00 0.  1.
         11    1    1    2    0    0 -0.50713399386E+02 -0.42752962860E+02 -0.44886036371E+02  0.80090080358E+02  0.00000000000E+00 0. -1.
</event>
<event>
 7    1  0.2670433E-009  0.1092917E+03  0.7561462E-02  0.1261887E+00
          1   -1    0    0  501    0  0.00000000000E+00  0.00000000000E+00  0.71598496783E+02  0.71598496783E+02  0.00000000000E+00 0. -1.
         -1   -1    0    0    0  501 -0.00000000000E+00 -0.00000000000E+00 -0.24451154584E+03  0.24451154584E+03  0.00000000000E+00 0.  1.
         25    2    1    2    0    0 -0.36409719025E+02  0.21218817936E+02 -0.19606207200E+02  0.13343669062E+03  0.12508013899E+03 0.  0.
          5    1    3    3  502    0  0.28609846395E+02 -0.27205420936E+02  0.18452914045E+02  0.43779454951E+02  0.41800000000E+01 0.  1.
         -5    1    3    3    0  502 -0.65019565420E+02  0.48424238872E+02 -0.38059121245E+02  0.89657235669E+02  0.41800000000E+01 0.  1.
        -11    1    1    2    0    0  0.26365970464E+02 -0.55788682297E+02 -0.80268158615E+02  0.10124484559E+03  0.00000000000E+00 0. -1.
         11    1    1    2    0    0  0.10043748561E+02  0.34569864361E+02 -0.73038683241E+02  0.81428506413E+02  0.00000000000E+00 0.  1.
</event>
<event>
 7    1  0.2670433E-009  0.2454867E+03  0.7561462E-02  0.1116191E+00
          1   -1    0    0  501    0  0.00000000000E+00  0.00000000000E+00  0.71073909373E+03  0.71073909373E+03  0.00000000000E+00 0. -1.
         -1   -1    0    0    0  501 -0.00000000000E+00 -0.00000000000E+00 -0.10899014686E+03  0.10899014686E+03  0.00000000000E+00 0.  1.
         25    2    1    2    0    0 -0.36166910912E+02 -0.23129714573E+03  0.45741247479E+03  0.52884926328E+03  0.12509578773E+03 0.  0.
          5    1    3    3  502    0  0.45879546063E+01 -0.17157195263E+03  0.40366727219E+03  0.43866014555E+03  0.41800000000E+01 0.  1.
         -5    1    3    3    0  502 -0.40754865518E+02 -0.59725193095E+02  0.53745202601E+02  0.90189117726E+02  0.41800000000E+01 0.  1.
        -11    1    1    2    0    0  0.26856969227E+00  0.19768555546E+03  0.88843447656E+02  0.21673211382E+03  0.00000000000E+00 0.  1.
         11    1    1    2    0    0  0.35898341219E+02  0.33611590264E+02  0.55493024425E+02  0.74147863504E+02  0.00000000000E+00 0. -1.
</event>
<event>
 7    1  0.2670433E-009  0.1470131E+03  0.7561462E-02  0.1204192E+00
         -1   -1    0    0    0  501 -0.00000000000E+00  0.00000000000E+00  0.24346857754E+02  0.24346857754E+02  0.00000000000E+00 0.  1.
          1   -1    0    0  501    0  0.00000000000E+00 -0.00000000000E+00 -0.10175973631E+04  0.10175973631E+04  0.00000000000E+00 0. -1.
         25    2    1    2    0    0  0.26244441974E+02 -0.10452640505E+03 -0.67248884313E+03  0.69246248136E+03  0.12509398018E+03 0.  0.
          5    1    3    3  502    0  0.48262719270E+00 -0.12549564937E+03 -0.43967343234E+03  0.45725221754E+03  0.41800000000E+01 0.  1.
         -5    1    3    3    0  502  0.25761814781E+02  0.20969244320E+02 -0.23281541079E+03  0.23521026382E+03  0.41800000000E+01 0.  1.
        -11    1    1    2    0    0  0.14320904763E+02  0.91148231896E+02 -0.17836022599E+03  0.20081199841E+03  0.00000000000E+00 0. -1.
         11    1    1    2    0    0 -0.40565346738E+02  0.13378173150E+02 -0.14240143624E+03  0.14866974109E+03  0.00000000000E+00 0.  1.
</event>
<event>
 7    1  0.2670433E-009  0.9201585E+02  0.7561462E-02  0.1298042E+00
          2   -1    0    0  501    0  0.00000000000E+00  0.00000000000E+00  0.57621365737E+02  0.57621365737E+02  0.00000000000E+00 0. -1.
         -2   -1    0    0    0  501 -0.00000000000E+00 -0.00000000000E+00 -0.30021064771E+03  0.30021064771E+03  0.00000000000E+00 0.  1.
         25    2    1    2    0    0  0.58154454825E+02 -0.17559987556E+02 -0.75853404258E+02  0.15840248428E+03  0.12508922539E+03 0.  0.
          5    1    3    3  502    0  0.77925488474E+02  0.10888022446E+02 -0.44386036457E+01  0.78918340004E+02  0.41800000000E+01 0.  1.
         -5    1    3    3    0  502 -0.19771033649E+02 -0.28448010002E+02 -0.71414800612E+02  0.79484144275E+02  0.41800000000E+01 0.  1.
        -11    1    1    2    0    0 -0.59244783538E+02  0.69198797304E+01 -0.17565298221E+03  0.18550417589E+03  0.00000000000E+00 0.  1.
         11    1    1    2    0    0  0.10903287134E+01  0.10640107825E+02  0.89171044997E+01  0.13925353277E+02  0.00000000000E+00 0. -1.
</event>
<event>
 7    1  0.2670433E-009  0.2314099E+03  0.7561462E-02  0.1125651E+00
          1   -1    0    0  501    0  0.00000000000E+00  0.00000000000E+00  0.12620341434E+04  0.12620341434E+04  0.00000000000E+00 0. -1.
         -1   -1    0    0    0  501 -0.00000000000E+00 -0.00000000000E+00 -0.52609876047E+02  0.52609876047E+02  0.00000000000E+00 0.  1.
         25    2    1    2    0    0  0.21636423340E+02  0.21340952638E+03  0.38713678457E+03  0.45992839551E+03  0.12508988076E+03 0.  0.
          5    1    3    3  502    0 -0.30239615483E+02  0.55120380200E+02  0.39351924402E+02  0.74288202375E+02  0.41800000000E+01 0.  1.
         -5    1    3    3    0  502  0.51876038823E+02  0.15828914618E+03  0.34778486017E+03  0.38564019314E+03  0.41800000000E+01 0.  1.
        -11    1    1    2    0    0  0.36166396182E+02 -0.83596921558E+02  0.32586878985E+03  0.33835916081E+03  0.00000000000E+00 0.  1.
         11    1    1    2    0    0 -0.57802819522E+02 -0.12981260482E+03  0.49641869290E+03  0.51635646309E+03  0.00000000000E+00 0. -1.
</event>
<event>
 7    1  0.2670433E-009  0.1240622E+03  0.7561462E-02  0.1236542E+00
         -1   -1    0    0    0  501 -0.00000000000E+00  0.00000000000E+00  0.15550001463E+03  0.15550001463E+03  0.00000000000E+00 0.  1.
          1   -1    0    0  501    0  0.00000000000E+00 -0.00000000000E+00 -0.11593055799E+03  0.11593055799E+03  0.00000000000E+00 0. -1.
         25    2    1    2    0    0 -0.78954522620E+02 -0.17025260009E+02  0.16996313166E+02  0.14985084684E+03  0.12507088198E+03 0.  0.
          5    1    3    3  502    0 -0.30470454042E+02  0.50639013801E+02  0.28445009174E+02  0.65721756178E+02  0.41800000000E+01 0.  1.
         -5    1    3    3    0  502 -0.48484068578E+02 -0.67664273810E+02 -0.11448696008E+02  0.84129090667E+02  0.41800000000E+01 0.  1.
        -11    1    1    2    0    0  0.67651141610E+02  0.40943443922E+02  0.41257643506E+02  0.89192128066E+02  0.00000000000E+00 0.  1.
         11    1    1    2    0    0  0.11303381010E+02 -0.23918183913E+02 -0.18684500027E+02  0.32387597707E+02  0.00000000000E+00 0. -1.
</event>
<event>
 7    1  0.2670433E-009  0.8180969E+02  0.7561462E-02  0.1323993E+00
         -2   -1    0    0    0  501 -0.00000000000E+00  0.00000000000E+00  0.54452162261E+02  0.54452162261E+02  0.00000000000E+00 0.  1.
          2   -1    0    0  501    0  0.00000000000E+00 -0.00000000000E+00 -0.23686435597E+03  0.23686435597E+03  0.00000000000E+00 0. -1.
         25    2    1    2    0    0 -0.30510443539E+02 -0.23385319783E+01 -0.82717460276E+02  0.15305255659E+03  0.12508617408E+03 0.  0.
          5    1    3    3  502    0 -0.55492180116E+02  0.29679407509E+02 -0.25878676985E+01  0.63122252363E+02  0.41800000000E+01 0. -1.
         -5    1    3    3    0  502  0.24981736577E+02 -0.32017939487E+02 -0.80129592578E+02  0.89930304225E+02  0.41800000000E+01 0. -1.
        -11    1    1    2    0    0  0.17822929836E+02 -0.24348965271E+02 -0.10410214476E+03  0.10838720164E+03  0.00000000000E+00 0. -1.
         11    1    1    2    0    0  0.12687513703E+02  0.26687497249E+02  0.44074113225E+01  0.29876759998E+02  0.00000000000E+00 0.  1.
</event>
<event>
 7    1  0.2670433E-009  0.1185739E+03  0.7561462E-02  0.1245468E+00
         -3   -1    0    0    0  501 -0.00000000000E+00  0.00000000000E+00  0.22748536180E+02  0.22748536180E+02  0.00000000000E+00 0.  1.
          3   -1    0    0  501    0  0.00000000000E+00 -0.00000000000E+00 -0.10614084534E+04  0.10614084534E+04  0.00000000000E+00 0. -1.
         25    2    1    2    0    0 -0.73532323919E+02  0.74904276264E+02 -0.67210079126E+03  0.69165378602E+03  0.12509129803E+03 0.  0.
          5    1    3    3  502    0 -0.25197769488E+02  0.24565557053E+02 -0.54855635112E+03  0.54969986077E+03  0.41800000000E+01 0. -1.
         -5    1    3    3    0  502 -0.48334554431E+02  0.50338719211E+02 -0.12354444014E+03  0.14195392525E+03  0.41800000000E+01 0. -1.
        -11    1    1    2    0    0  0.13493413480E+02 -0.70298968119E+02 -0.13004671139E+03  0.14844582941E+03  0.00000000000E+00 0.  1.
         11    1    1    2    0    0  0.60038910440E+02 -0.46053081446E+01 -0.23651241456E+03  0.24405737413E+03  0.00000000000E+00 0. -1.
</event>
<event>
 7    1  0.2670433E-009  0.1075728E+03  0.7561462E-02  0.1265132E+00
         -1   -1    0    0    0  501 -0.00000000000E+00  0.00000000000E+00  0.23619102715E+03  0.23619102715E+03  0.00000000000E+00 0.  1.
          1   -1    0    0  501    0  0.00000000000E+00 -0.00000000000E+00 -0.91753725798E+02  0.91753725798E+02  0.00000000000E+00 0. -1.
         25    2    1    2    0    0  0.54730557879E+02 -0.63322083898E+02  0.13929309741E+03  0.20507385276E+03  0.12509035863E+03 0.  0.
          5    1    3    3  502    0 -0.16565021277E+02 -0.18920116008E+02 -0.14836243201E+02  0.29495037412E+02  0.41800000000E+01 0. -1.
         -5    1    3    3    0  502  0.71295579156E+02 -0.44401967891E+02  0.15412934061E+03  0.17557881534E+03  0.41800000000E+01 0. -1.
        -11    1    1    2    0    0 -0.66879069095E+02  0.36681388414E+02 -0.25557331406E+02  0.80445704221E+02  0.00000000000E+00 0. -1.
         11    1    1    2    0    0  0.12148511216E+02  0.26640695484E+02  0.30701535345E+02  0.42425195971E+02  0.00000000000E+00 0.  1.
</event>
<event>
 7    1  0.2670433E-009  0.1119460E+03  0.7561462E-02  0.1257008E+00
         -1   -1    0    0    0  501 -0.00000000000E+00  0.00000000000E+00  0.46632725854E+02  0.46632725854E+02  0.00000000000E+00 0.  1.
          1   -1    0    0  501    0  0.00000000000E+00 -0.00000000000E+00 -0.31403583868E+03  0.31403583868E+03  0.00000000000E+00 0. -1.
         25    2    1    2    0    0  0.47271244072E+02 -0.26096948802E+02 -0.15668535242E+03  0.20763717172E+03  0.12508906492E+03 0.  0.
          5    1    3    3  502    0  0.61156637184E+00 -0.70522613405E+02 -0.94574662308E+02  0.11804936326E+03  0.41800000000E+01 0.  1.
         -5    1    3    3    0  502  0.46659677700E+02  0.44425664603E+02 -0.62110690117E+02  0.89587808463E+02  0.41800000000E+01 0.  1.
        -11    1    1    2    0    0 -0.65752017226E+02  0.16205222371E+02 -0.38640777667E+02  0.77968241612E+02  0.00000000000E+00 0.  1.
         11    1    1    2    0    0  0.18480773154E+02  0.98917264316E+01 -0.72076982730E+02  0.75063151197E+02  0.00000000000E+00 0. -1.
</event>
<event>
 7    1  0.2670433E-009  0.2049398E+03  0.7561462E-02  0.1145637E+00
         -2   -1    0    0    0  501 -0.00000000000E+00  0.00000000000E+00  0.12498926047E+03  0.12498926047E+03  0.00000000000E+00 0. -1.
          2   -1    0    0  501    0  0.00000000000E+00 -0.00000000000E+00 -0.43106229317E+03  0.43106229317E+03  0.00000000000E+00 0.  1.
         25    2    1    2    0    0 -0.32336168187E+02  0.17469773526E+03 -0.36494204547E+02  0.22032799709E+03  0.12509065856E+03 0.  0.
          5    1    3    3  502    0  0.22879745938E+02  0.14740032206E+03 -0.49531579942E+02  0.15722972852E+03  0.41800000000E+01 0. -1.
         -5    1    3    3    0  502 -0.55215914125E+02  0.27297413195E+02  0.13037375395E+02  0.63098268574E+02  0.41800000000E+01 0. -1.
        -11    1    1    2    0    0 -0.22280747141E+02 -0.11841179757E+03 -0.18071589568E+03  0.21720041539E+03  0.00000000000E+00 0.  1.
         11    1    1    2    0    0  0.54616915328E+02 -0.56285937689E+02 -0.88862932476E+02  0.11852314116E+03  0.00000000000E+00 0. -1.
</event>
<event>
 7    1  0.2670433E-009  0.9333920E+02  0.7561462E-02  0.1294961E+00
          2   -1    0    0  501    0  0.00000000000E+00  0.00000000000E+00  0.41629191456E+03  0.41629191456E+03  0.00000000000E+00 0. -1.
         -2   -1    0    0    0  501 -0.00000000000E+00 -0.00000000000E+00 -0.30703333318E+02  0.30703333318E+02  0.00000000000E+00 0.  1.
         25    2    1    2    0    0  0.14303513409E+02  0.59804092015E+01  0.26380879592E+03  0.29237475790E+03  0.12509021727E+03 0.  0.
          5    1    3    3  502    0 -0.55211324124E+02  0.78996932072E+01  0.10530671031E+03  0.11923787611E+03  0.41800000000E+01 0. -1.
         -5    1    3    3    0  502  0.69514837532E+02 -0.19192840057E+01  0.15850208562E+03  0.17313688178E+03  0.41800000000E+01 0. -1.
        -11    1    1    2    0    0 -0.25980368389E+02  0.19875561670E+02  0.12193831771E+03  0.12624963690E+03  0.00000000000E+00 0. -1.
         11    1    1    2    0    0  0.11676854981E+02 -0.25855970871E+02 -0.15853238867E+00  0.28370853079E+02  0.00000000000E+00 0.  1.
</event>
<event>
 7    1  0.2833417E-009  0.1100528E+03  0.7561462E-02  0.1260472E+00
         -2   -1    0    0    0  501 -0.00000000000E+00  0.00000000000E+00  0.27643595148E+03  0.27643595148E+03  0.00000000000E+00 0. -1.
          2   -1    0    0  501    0  0.00000000000E+00 -0.00000000000E+00 -0.60302701900E+02  0.60302701900E+02  0.00000000000E+00 0.  1.
         25    2    1    2    0    0  0.59591470195E+02 -0.24250018869E+02  0.83908644639E+02  0.16378904579E+03  0.12508790566E+03 0.  0.
          5    1    3    3  502    0  0.47883676934E+02  0.44169638842E+02  0.17384576654E+02  0.67553678046E+02  0.41800000000E+01 0.  1.
         -5    1    3    3    0  502  0.11707793261E+02 -0.68419657711E+02  0.66524067985E+02  0.96235367748E+02  0.41800000000E+01 0.  1.
        -11    1    1    2    0    0 -0.97893549912E+01  0.33265318801E+02  0.11399957951E+03  0.11915669110E+03  0.00000000000E+00 0. -1.
         11    1    1    2    0    0 -0.49802115204E+02 -0.90152999323E+01  0.18225025431E+02  0.53792916482E+02  0.00000000000E+00 0.  1.
</event>
<event>
 7    1  0.2670433E-009  0.2450500E+03  0.7561462E-02  0.1116474E+00
         -1   -1    0    0    0  501 -0.00000000000E+00  0.00000000000E+00  0.22642028858E+03  0.22642028858E+03  0.00000000000E+00 0.  1.
          1   -1    0    0  501    0  0.00000000000E+00 -0.00000000000E+00 -0.29970222138E+03  0.29970222138E+03  0.00000000000E+00 0. -1.
         25    2    1    2    0    0  0.41734544924E+02  0.21992337364E+03 -0.11815407849E+03  0.28233294674E+03  0.12507375441E+03 0.  0.
          5    1    3    3  502    0 -0.94633519328E+01 -0.10516937576E+02  0.55867597388E+01  0.15774830907E+02  0.41800000000E+01 0.  1.
         -5    1    3    3    0  502  0.51197896857E+02  0.23044031121E+03 -0.12374083822E+03  0.26655811584E+03  0.41800000000E+01 0.  1.
        -11    1    1    2    0    0 -0.43739422319E+02 -0.39861265325E+02  0.17003569121E+02  0.61572549899E+02  0.00000000000E+00 0.  1.
         11    1    1    2    0    0  0.20048773957E+01 -0.18006210831E+03  0.27868576569E+02  0.18221701332E+03  0.00000000000E+00 0. -1.
</event>
<event>
 7    1  0.2670433E-009  0.1154518E+03  0.7561462E-02  0.1250795E+00
         -2   -1    0    0    0  501 -0.00000000000E+00  0.00000000000E+00  0.28664836582E+02  0.28664836582E+02  0.00000000000E+00 0.  1.
          2   -1    0    0  501    0  0.00000000000E+00 -0.00000000000E+00 -0.54463933538E+03  0.54463933538E+03  0.00000000000E+00 0. -1.
         25    2    1    2    0    0 -0.30991800966E+02  0.52669218655E+02 -0.31668752047E+03  0.34594084485E+03  0.12509813825E+03 0.  0.
          5    1    3    3  502    0 -0.64315005671E+02  0.42626436300E+01 -0.84295792057E+02  0.10619718943E+03  0.41800000000E+01 0.  1.
         -5    1    3    3    0  502  0.33323204705E+02  0.48406575025E+02 -0.23239172841E+03  0.23974365541E+03  0.41800000000E+01 0.  1.
        -11    1    1    2    0    0 -0.30879966385E+02 -0.24475540408E+02 -0.52955514395E+02  0.66006900450E+02  0.00000000000E+00 0. -1.
         11    1    1    2    0    0  0.61871767351E+02 -0.28193678248E+02 -0.14633146394E+03  0.16135642667E+03  0.00000000000E+00 0.  1.
</event>
<event>
 7    1  0.2670433E-009  0.1727638E+03  0.7561462E-02  0.1174996E+00
         -3   -1    0    0    0  501 -0.00000000000E+00  0.00000000000E+00  0.38979799570E+03  0.38979799570E+03  0.00000000000E+00 0.  1.
          3   -1    0    0  501    0  0.00000000000E+00 -0.00000000000E+00 -0.10215561102E+03  0.10215561102E+03  0.00000000000E+00 0. -1.
         25    2    1    2    0    0  0.58823920618E+02 -0.14986076489E+03  0.20854297186E+03  0.29164293670E+03  0.12508768495E+03 0.  0.
          5    1    3    3  502    0 -0.55463801623E+01 -0.55144592676E+01 -0.15246611355E+02  0.17638116445E+02  0.41800000000E+01 0.  1.
         -5    1    3    3    0  502  0.64370300780E+02 -0.14434630562E+03  0.22378958322E+03  0.27400482026E+03  0.41800000000E+01 0.  1.
        -11    1    1    2    0    0 -0.24885187429E+02 -0.14995087186E-01 -0.46267752620E+01  0.25311653987E+02  0.00000000000E+00 0. -1.
         11    1    1    2    0    0 -0.33938733189E+02  0.14987575997E+03  0.83726188084E+02  0.17499901602E+03  0.00000000000E+00 0.  1.
</event>
<event>
 7    1  0.3333962E-009  0.1402582E+03  0.7561462E-02  0.1212982E+00
          1   -1    0    0  501    0  0.00000000000E+00  0.00000000000E+00  0.53240584773E+03  0.53240584773E+03  0.00000000000E+00 0. -1.
         -1   -1    0    0    0  501 -0.00000000000E+00 -0.00000000000E+00 -0.51287637218E+02  0.51287637218E+02  0.00000000000E+00 0.  1.
         25    2    1    2    0    0 -0.32118410142E+02  0.11036491433E+03  0.33949034751E+03  0.37962225945E+03  0.12508939697E+03 0.  0.
          5    1    3    3  502    0  0.38195480747E+02  0.10103564896E+02  0.41640192070E+02  0.57553060464E+02  0.41800000000E+01 0.  1.
         -5    1    3    3    0  502 -0.70313890889E+02  0.10026134944E+03  0.29785015544E+03  0.32206919899E+03  0.41800000000E+01 0.  1.
        -11    1    1    2    0    0  0.33851497025E+02 -0.69020215003E+02  0.14334172885E+03  0.16265474220E+03  0.00000000000E+00 0. -1.
         11    1    1    2    0    0 -0.17330868838E+01 -0.41344699329E+02 -0.17138658430E+01  0.41416483299E+02  0.00000000000E+00 0.  1.
</event>
<event>
 7    1  0.2670433E-009  0.1005308E+03  0.7561462E-02  0.1279184E+00
          1   -1    0    0  501    0  0.00000000000E+00  0.00000000000E+00  0.10415438979E+03  0.10415438979E+03  0.00000000000E+00 0. -1.
         -1   -1    0    0    0  501 -0.00000000000E+00 -0.00000000000E+00 -0.19039043880E+03  0.19039043880E+03  0.00000000000E+00 0.  1.
         25    2    1    2    0    0 -0.38440169761E+02 -0.51499137355E+02  0.17673613473E+02  0.14173827387E+03  0.12509026288E+03 0.  0.
          5    1    3    3  502    0 -0.62305113075E+02 -0.43449373609E+02  0.56855507846E+02  0.94972608445E+02  0.41800000000E+01 0. -1.
         -5    1    3    3    0  502  0.23864943314E+02 -0.80497637456E+01 -0.39181894374E+02  0.46765665423E+02  0.41800000000E+01 0. -1.
        -11    1    1    2    0    0 -0.61745119811E+01 -0.16788059013E+02  0.32019350989E+01  0.18171843935E+02  0.00000000000E+00 0. -1.
         11    1    1    2    0    0  0.44614681742E+02  0.68287196368E+02 -0.10711159758E+03  0.13463471079E+03  0.00000000000E+00 0.  1.
</event>
<event>
 7    1  0.2670433E-009  0.1588329E+03  0.7561462E-02  0.1190021E+00
          1   -1    0    0  501    0  0.00000000000E+00  0.00000000000E+00  0.59729030040E+03  0.59729030040E+03  0.00000000000E+00 0. -1.
         -1   -1    0    0    0  501 -0.00000000000E+00 -0.00000000000E+00 -0.46554792406E+02  0.46554792406E+02  0.00000000000E+00 0.  1.
         25    2    1    2    0    0 -0.26191188799E+02  0.11493010042E+03  0.21177072142E+03  0.27274274681E+03  0.12508741397E+03 0.  0.
          5    1    3    3  502    0 -0.75399552860E+02  0.55636358990E+02  0.13004875264E+03  0.16034540055E+03  0.41800000000E+01 0.  1.
         -5    1    3    3    0  502  0.49208364060E+02  0.59293741426E+02  0.81721968780E+02  0.11239734626E+03  0.41800000000E+01 0.  1.
        -11    1    1    2    0    0 -0.32383688271E+02 -0.36183883584E+02  0.15726710837E+03  0.16459319571E+03  0.00000000000E+00 0.  1.
         11    1    1    2    0    0  0.58574877070E+02 -0.78746216832E+02  0.18169767820E+03  0.20650915029E+03  0.00000000000E+00 0. -1.
</event>
<event>
 7    1  0.2670433E-009  0.1101083E+03  0.7561462E-02  0.1260370E+00
         -2   -1    0    0    0  501 -0.00000000000E+00  0.00000000000E+00  0.16079478298E+02  0.16079478298E+02  0.00000000000E+00 0.  1.
          2   -1    0    0  501    0  0.00000000000E+00 -0.00000000000E+00 -0.84350307748E+03  0.84350307748E+03  0.00000000000E+00 0. -1.
         25    2    1    2    0    0 -0.13336847297E+02  0.32485346993E+02 -0.52242780514E+03  0.53834178756E+03  0.12509156402E+03 0.  0.
          5    1    3    3  502    0  0.13079544131E+02  0.71152732557E+02 -0.20457014086E+03  0.21702580666E+03  0.41800000000E+01 0. -1.
         -5    1    3    3    0  502 -0.26416391428E+02 -0.38667385564E+02 -0.31785766428E+03  0.32131598090E+03  0.41800000000E+01 0. -1.
        -11    1    1    2    0    0 -0.16730080075E+02 -0.58581082430E+02 -0.19225244716E+03  0.20167459492E+03  0.00000000000E+00 0. -1.
         11    1    1    2    0    0  0.30066927372E+02  0.26095735437E+02 -0.11274334689E+03  0.11956617330E+03  0.00000000000E+00 0.  1.
</event>
<event>
 7    1  0.2670433E-009  0.9978596E+02  0.7561462E-02  0.1280747E+00
          2   -1    0    0  501    0  0.00000000000E+00  0.00000000000E+00  0.11442906620E+04  0.11442906620E+04  0.00000000000E+00 0.  1.
         -2   -1    0    0    0  501 -0.00000000000E+00 -0.00000000000E+00 -0.23414759513E+02  0.23414759513E+02  0.00000000000E+00 0. -1.
         25    2    1    2    0    0 -0.88323968070E+02  0.37619497453E+02  0.73147059060E+03  0.74827381770E+03  0.12509249149E+03 0.  0.
          5    1    3    3  502    0 -0.21339564295E+02  0.17155649947E+02  0.58712871628E+03  0.58778167308E+03  0.41800000000E+01 0. -1.
         -5    1    3    3    0  502 -0.66984403775E+02  0.20463847506E+02  0.14434187431E+03  0.16049214462E+03  0.41800000000E+01 0. -1.
        -11    1    1    2    0    0  0.21057084989E+02 -0.25980999401E+02  0.11431601453E+02  0.35342533439E+02  0.00000000000E+00 0. -1.
         11    1    1    2    0    0  0.67266883081E+02 -0.11638498052E+02  0.37797371044E+03  0.38408907037E+03  0.00000000000E+00 0.  1.
</event>
<event>
 7    1  0.2670433E-009  0.1126869E+03  0.7561462E-02  0.1255674E+00
          3   -1    0    0  501    0  0.00000000000E+00  0.00000000000E+00  0.17721255512E+02  0.17721255512E+02  0.00000000000E+00 0. -1.
         -3   -1    0    0    0  501 -0.00000000000E+00 -0.00000000000E+00 -0.79978995685E+03  0.79978995685E+03  0.00000000000E+00 0.  1.
         25    2    1    2    0    0  0.13911845879E+02  0.34632203686E+02 -0.55466519905E+03  0.56981665570E+03  0.12507841175E+03 0.  0.
          5    1    3    3  502    0  0.29146250933E+02  0.77064124666E+02 -0.41053717939E+03  0.41874411197E+03  0.41800000000E+01 0.  1.
         -5    1    3    3    0  502 -0.15234405054E+02 -0.42431920980E+02 -0.14412801966E+03  0.15107254372E+03  0.41800000000E+01 0.  1.
        -11    1    1    2    0    0 -0.25038587381E+02  0.25916686373E+02 -0.97361324801E+02  0.10381634292E+03  0.00000000000E+00 0. -1.
         11    1    1    2    0    0  0.11126741501E+02 -0.60548890058E+02 -0.13004217749E+03  0.14387821374E+03  0.00000000000E+00 0.  1.
</event>
<event>
 7    1  0.2670433E-009  0.1020183E+03  0.7561462E-02  0.1276108E+00
          1   -1    0    0  501    0  0.00000000000E+00  0.00000000000E+00  0.18685993196E+03  0.18685993196E+03  0.00000000000E+00 0. -1.
         -1   -1    0    0    0  501 -0.00000000000E+00 -0.00000000000E+00 -0.64997655972E+02  0.64997655972E+02  0.00000000000E+00 0.  1.
         25    2    1    2    0    0  0.16020386035E+02  0.11214859190E+02  0.56765002970E+02  0.13875277639E+03  0.12509053345E+03 0.  0.
          5    1    3    3  502    0 -0.31304411634E+02  0.49957866044E+02  0.49358933693E+02  0.77003449940E+02  0.41800000000E+01 0. -1.
         -5    1    3    3    0  502  0.47324797670E+02 -0.38743006854E+02  0.74060692771E+01  0.61749326447E+02  0.41800000000E+01 0. -1.
        -11    1    1    2    0    0  0.24392994462E+02 -0.30331198426E+02  0.54819172408E+02  0.67231997146E+02  0.00000000000E+00 0. -1.
         11    1    1    2    0    0 -0.40413380497E+02  0.19116339236E+02  0.10278100615E+02  0.45872814403E+02  0.00000000000E+00 0.  1.
</event>
<event>
 7    1  0.2670433E-009  0.1094494E+03  0.7561462E-02  0.1261593E+00
          1   -1    0    0  501    0  0.00000000000E+00  0.00000000000E+00  0.66292803781E+03  0.66292803781E+03  0.00000000000E+00 0. -1.
         -1   -1    0    0    0  501 -0.00000000000E+00 -0.00000000000E+00 -0.35978571569E+02  0.35978571569E+02  0.00000000000E+00 0.  1.
         25    2    1    2    0    0  0.78313676527E+02  0.42822323807E+02  0.47989989235E+03  0.50390094771E+03  0.12508187350E+03 0.  0.
          5    1    3    3  502    0  0.46386660140E+02  0.46673037683E+02  0.46234962457E+03  0.46702756067E+03  0.41800000000E+01 0. -1.
         -5    1    3    3    0  502  0.31927016387E+02 -0.38507138761E+01  0.17550267784E+02  0.36873387043E+02  0.41800000000E+01 0. -1.
        -11    1    1    2    0    0  0.86611227436E+01 -0.31686666580E+02  0.14107016320E+02  0.35750074064E+02  0.00000000000E+00 0.  1.
         11    1    1    2    0    0 -0.86974799271E+02 -0.11135657227E+02  0.13294255757E+03  0.15925558760E+03  0.00000000000E+00 0. -1.
</event>
<event>
 7    1  0.2670433E-009  0.8986216E+02  0.7561462E-02  0.1303186E+00
          2   -1    0    0  501    0  0.00000000000E+00  0.00000000000E+00  0.37204147967E+03  0.37204147967E+03  0.00000000000E+00 0. -1.
         -2   -1    0    0    0  501 -0.00000000000E+00 -0.00000000000E+00 -0.66630838029E+02  0.66630838029E+02  0.00000000000E+00 0.  1.
         25    2    1    2    0    0 -0.16522046003E+02 -0.11036234277E+02  0.31959785095E+03  0.34377998486E+03  0.12508842946E+03 0.  0.
          5    1    3    3  502    0 -0.50818049087E+01  0.49215786536E+02  0.22883404012E+03  0.23415915250E+03  0.41800000000E+01 0.  1.
         -5    1    3    3    0  502 -0.11440241094E+02 -0.60252020813E+02  0.90763810839E+02  0.10962083236E+03  0.41800000000E+01 0.  1.
        -11    1    1    2    0    0  0.16133449993E+02 -0.26519838554E+02  0.25557491997E+02  0.40209146258E+02  0.00000000000E+00 0. -1.
         11    1    1    2    0    0  0.38859600970E+00  0.37556072831E+02 -0.39744701306E+02  0.54683186586E+02  0.00000000000E+00 0.  1.
</event>
<event>
 7    1  0.2670433E-009  0.1033376E+03  0.7561462E-02  0.1273430E+00
         -1   -1    0    0    0  501 -0.00000000000E+00  0.00000000000E+00  0.29148872152E+03  0.29148872152E+03  0.00000000000E+00 0.  1.
          1   -1    0    0  501    0  0.00000000000E+00 -0.00000000000E+00 -0.74498508181E+02  0.74498508181E+02  0.00000000000E+00 0. -1.
         25    2    1    2    0    0  0.53509464345E+02  0.43089299984E+02  0.28095496362E+02  0.14545500853E+03  0.12509137477E+03 0.  0.
          5    1    3    3  502    0 -0.10236304413E+02  0.49476211269E+02  0.55923404399E+02  0.75482295734E+02  0.41800000000E+01 0. -1.
         -5    1    3    3    0  502  0.63745768758E+02 -0.63869112855E+01 -0.27827908037E+02  0.69972712796E+02  0.41800000000E+01 0. -1.
        -11    1    1    2    0    0 -0.37799036994E+02 -0.58578645815E+02  0.67118126381E+02  0.96773280569E+02  0.00000000000E+00 0. -1.
         11    1    1    2    0    0 -0.15710427350E+02  0.15489345832E+02  0.12177659060E+03  0.12375894060E+03  0.00000000000E+00 0.  1.
</event>
<event>
 7    1  0.2670433E-009  0.1449924E+03  0.7561462E-02  0.1206765E+00
         -2   -1    0    0    0  501 -0.00000000000E+00  0.00000000000E+00  0.58176768864E+02  0.58176768864E+02  0.00000000000E+00 0.  1.
          2   -1    0    0  501    0  0.00000000000E+00 -0.00000000000E+00 -0.59802695406E+03  0.59802695406E+03  0.00000000000E+00 0. -1.
         25    2    1    2    0    0 -0.57485077806E+02  0.64315821352E+02 -0.72300310231E+02  0.16826185284E+03  0.12507460660E+03 0.  0.
          5    1    3    3  502    0 -0.92518399432E+02  0.69099015306E+02 -0.47824355336E+02  0.12505586557E+03  0.41800000000E+01 0.  1.
         -5    1    3    3    0  502  0.35033321625E+02 -0.47831939539E+01 -0.24475954895E+02  0.43205987276E+02  0.41800000000E+01 0.  1.
        -11    1    1    2    0    0  0.55560520051E+02  0.16525478333E+02 -0.22065100539E+03  0.22813796045E+03  0.00000000000E+00 0.  1.
         11    1    1    2    0    0  0.19245577553E+01 -0.80841299685E+02 -0.24689886958E+03  0.25980390963E+03  0.00000000000E+00 0. -1.
</event>
<event>
 7    1  0.2670433E-009  0.1322564E+03  0.7561462E-02  0.1224146E+00
          3   -1    0    0  501    0  0.00000000000E+00  0.00000000000E+00  0.64013305754E+02  0.64013305754E+02  0.00000000000E+00 0. -1.
         -3   -1    0    0    0  501 -0.00000000000E+00 -0.00000000000E+00 -0.37370780668E+03  0.37370780668E+03  0.00000000000E+00 0.  1.
         25    2    1    2    0    0 -0.10246776337E+03  0.15423169736E+02 -0.22158935913E+03  0.27475003462E+03  0.12509284851E+03 0.  0.
          5    1    3    3  502    0  0.16981305564E+02 -0.14816581430E+01 -0.10659975960E+03  0.10803490731E+03  0.41800000000E+01 0.  1.
         -5    1    3    3    0  502 -0.11944906894E+03  0.16904827879E+02 -0.11498959953E+03  0.16671512731E+03  0.41800000000E+01 0.  1.
        -11    1    1    2    0    0  0.96136317519E+02  0.13107176196E+02 -0.36497354707E+02  0.10366313961E+03  0.00000000000E+00 0. -1.
         11    1    1    2    0    0  0.63314458527E+01 -0.28530345932E+02 -0.51607787090E+02  0.59307938203E+02  0.00000000000E+00 0.  1.
</event>
<event>
 7    1  0.2670433E-009  0.1143478E+03  0.7561462E-02  0.1252724E+00
         -2   -1    0    0    0  501 -0.00000000000E+00  0.00000000000E+00  0.29754855004E+03  0.29754855004E+03  0.00000000000E+00 0.  1.
          2   -1    0    0  501    0  0.00000000000E+00 -0.00000000000E+00 -0.57367630269E+02  0.57367630269E+02  0.00000000000E+00 0. -1.
         25    2    1    2    0    0 -0.70785614877E+02 -0.29956326987E+02  0.11740996319E+03  0.18799339581E+03  0.12509369534E+03 0.  0.
          5    1    3    3  502    0 -0.15239297110E+02 -0.74051788133E+02  0.57937525307E+02  0.95342187624E+02  0.41800000000E+01 0. -1.
         -5    1    3    3    0  502 -0.55546317767E+02  0.44095461146E+02  0.59472437883E+02  0.92651208189E+02  0.41800000000E+01 0. -1.
        -11    1    1    2    0    0  0.30842760492E+02  0.28450917447E+02  0.46449995032E+01  0.42217373186E+02  0.00000000000E+00 0. -1.
         11    1    1    2    0    0  0.39942854385E+02  0.15054095403E+01  0.11812595708E+03  0.12470541131E+03  0.00000000000E+00 0.  1.
</event>
<event>
 7    1  0.2670433E-009  0.3056263E+03  0.7561462E-02  0.1082461E+00
          1   -1    0    0  501    0  0.00000000000E+00  0.00000000000E+00  0.13576580429E+04  0.13576580429E+04  0.00000000000E+00 0. -1.
         -1   -1    0    0    0  501 -0.00000000000E+00 -0.00000000000E+00 -0.94446158581E+02  0.94446158581E+02  0.00000000000E+00 0.  1.
         25    2    1    2    0    0  0.29329808129E+03 -0.84338696001E+01  0.10066222133E+04  0.10559498649E+04  0.12508773807E+03 0.  0.
          5    1    3    3  502    0  0.17028875846E+03  0.53118788206E+02  0.63789122059E+03  0.66237644027E+03  0.41800000000E+01 0. -1.
         -5    1    3    3    0  502  0.12300932283E+03 -0.61552657806E+02  0.36873099271E+03  0.39357342462E+03  0.41800000000E+01 0. -1.
        -11    1    1    2    0    0 -0.19597284701E+03  0.20918163597E+02  0.13046374123E+03  0.23635505941E+03  0.00000000000E+00 0.  1.
         11    1    1    2    0    0 -0.97325234283E+02 -0.12484293997E+02  0.12612592984E+03  0.15979927723E+03  0.00000000000E+00 0. -1.
</event>
<event>
 7    1  0.2670433E-009  0.1079110E+03  0.7561462E-02  0.1264488E+00
          2   -1    0    0  501    0  0.00000000000E+00  0.00000000000E+00  0.16900203125E+04  0.16900203125E+04  0.00000000000E+00 0. -1.
         -2   -1    0    0    0  501 -0.00000000000E+00 -0.00000000000E+00 -0.22979687534E+02  0.22979687534E+02  0.00000000000E+00 0.  1.
         25    2    1    2    0    0  0.55351279621E+02 -0.75184525289E+02  0.14527442919E+04  0.14611062046E+04  0.12509550882E+03 0.  0.
          5    1    3    3  502    0 -0.13781800444E+02 -0.53261703744E+01  0.86867382563E+03  0.86880952680E+03  0.41800000000E+01 0.  1.
         -5    1    3    3    0  502  0.69133080065E+02 -0.69858354915E+02  0.58407046627E+03  0.59229667776E+03  0.41800000000E+01 0.  1.
        -11    1    1    2    0    0 -0.54705656922E+02  0.42165782656E+02  0.20679868439E+03  0.21802834218E+03  0.00000000000E+00 0. -1.
         11    1    1    2    0    0 -0.64562269879E+00  0.33018742633E+02  0.74976487057E+01  0.33865453339E+02  0.00000000000E+00 0.  1.
</event>
<event>
 7    1  0.2670433E-009  0.8255755E+02  0.7561462E-02  0.1321946E+00
         -2   -1    0    0    0  501 -0.00000000000E+00  0.00000000000E+00  0.24350873664E+02  0.24350873664E+02  0.00000000000E+00 0.  1.
          2   -1    0    0  501    0  0.00000000000E+00 -0.00000000000E+00 -0.53543758024E+03  0.53543758024E+03  0.00000000000E+00 0. -1.
         25    2    1    2    0    0 -0.24875921709E+02 -0.23484835841E+02 -0.25276228873E+03  0.28408698666E+03  0.12508514057E+03 0.  0.
          5    1    3    3  502    0  0.13534690390E+02 -0.28252633503E+02 -0.34945930776E+01  0.31797542744E+02  0.41800000000E+01 0.  1.
         -5    1    3    3    0  502 -0.38410612099E+02  0.47677976619E+01 -0.24926769565E+03  0.25228944392E+03  0.41800000000E+01 0.  1.
        -11    1    1    2    0    0 -0.89427436952E+01 -0.29997465353E+02 -0.11175603025E+03  0.11605701569E+03  0.00000000000E+00 0. -1.
         11    1    1    2    0    0  0.33818665404E+02  0.53482301194E+02 -0.14656838759E+03  0.15964445155E+03  0.00000000000E+00 0.  1.
</event>
<event>
 7    1  0.2670433E-009  0.8420352E+02  0.7561462E-02  0.1317529E+00
          2   -1    0    0  501    0  0.00000000000E+00  0.00000000000E+00  0.23346354703E+03  0.23346354703E+03  0.00000000000E+00 0. -1.
         -2   -1    0    0    0  501 -0.00000000000E+00 -0.00000000000E+00 -0.60116538534E+02  0.60116538534E+02  0.00000000000E+00 0.  1.
         25    2    1    2    0    0  0.52909745274E+01  0.46630863335E+02  0.10285138906E+03  0.16860591060E+03  0.12508842085E+03 0.  0.
          5    1    3    3  502    0  0.23027264575E+02 -0.14171495460E+02  0.10149416557E+03  0.10511719290E+03  0.41800000000E+01 0.  1.
         -5    1    3    3    0  502 -0.17736290048E+02  0.60802358795E+02  0.13572234910E+01  0.63488717701E+02  0.41800000000E+01 0.  1.
        -11    1    1    2    0    0  0.16897190249E+02  0.79356397986E+01  0.62863377438E+02  0.65576624191E+02  0.00000000000E+00 0. -1.
         11    1    1    2    0    0 -0.22188164777E+02 -0.54566503134E+02  0.76322419953E+01  0.59397550777E+02  0.00000000000E+00 0.  1.
</event>
<event>
 7    1  0.2670433E-009  0.8178980E+02  0.7561462E-02  0.1324048E+00
          2   -1    0    0  501    0  0.00000000000E+00  0.00000000000E+00  0.10896288623E+03  0.10896288623E+03  0.00000000000E+00 0. -1.
         -2   -1    0    0    0  501 -0.00000000000E+00 -0.00000000000E+00 -0.12847355559E+03  0.12847355559E+03  0.00000000000E+00 0.  1.
         25    2    1    2    0    0  0.14340933297E+01  0.37945515473E+02 -0.41245491342E+02  0.13708669502E+03  0.12509857164E+03 0.  0.
          5    1    3    3  502    0  0.42944212145E+02  0.16200110913E+02 -0.68615710521E+02  0.82657347409E+02  0.41800000000E+01 0.  1.
         -5    1    3    3    0  502 -0.41510118815E+02  0.21745404560E+02  0.27370219179E+02  0.54429347611E+02  0.41800000000E+01 0.  1.
        -11    1    1    2    0    0 -0.21019935652E+02  0.63946658648E+01 -0.24815474935E+02  0.33144188670E+02  0.00000000000E+00 0.  1.
         11    1    1    2    0    0  0.19585842323E+02 -0.44340181338E+02  0.46550296911E+02  0.67205558126E+02  0.00000000000E+00 0. -1.
</event>
<event>
 7    1  0.2670433E-009  0.1217965E+03  0.7561462E-02  0.1240162E+00
          3   -1    0    0  501    0  0.00000000000E+00  0.00000000000E+00  0.68972157583E+03  0.68972157583E+03  0.00000000000E+00 0. -1.
         -3   -1    0    0    0  501 -0.00000000000E+00 -0.00000000000E+00 -0.25210494614E+02  0.25210494614E+02  0.00000000000E+00 0.  1.
         25    2    1    2    0    0  0.15261035336E+02 -0.67553048327E+02  0.44339188626E+03  0.46587618472E+03  0.12509173093E+03 0.  0.
          5    1    3    3  502    0  0.89858344288E+01 -0.10465330903E+03  0.32736203014E+03  0.34382616463E+03  0.41800000000E+01 0.  1.
         -5    1    3    3    0  502  0.62752009069E+01  0.37100260702E+02  0.11602985612E+03  0.12205002008E+03  0.41800000000E+01 0.  1.
        -11    1    1    2    0    0 -0.94790231075E+01 -0.15061577335E+02  0.63880334678E+01  0.18907933850E+02  0.00000000000E+00 0.  1.
         11    1    1    2    0    0 -0.57820122282E+01  0.82614625662E+02  0.21473116149E+03  0.23014795188E+03  0.00000000000E+00 0. -1.
</event>
<event>
 7    1  0.2670433E-009  0.1659783E+03  0.7561462E-02  0.1182108E+00
          1   -1    0    0  501    0  0.00000000000E+00  0.00000000000E+00  0.16333569977E+04  0.16333569977E+04  0.00000000000E+00 0. -1.
         -1   -1    0    0    0  501 -0.00000000000E+00 -0.00000000000E+00 -0.44634408750E+02  0.44634408750E+02  0.00000000000E+00 0.  1.
         25    2    1    2    0    0  0.11167157220E+03 -0.90622811767E+02  0.14370324860E+04  0.14496182065E+04  0.12509014711E+03 0.  0.
          5    1    3    3  502    0 -0.23140249761E+02 -0.30559295970E+02  0.44377318942E+03  0.44544523544E+03  0.41800000000E+01 0. -1.
         -5    1    3    3    0  502  0.13481182197E+03 -0.60063515797E+02  0.99325929654E+03  0.10041729711E+04  0.41800000000E+01 0. -1.
        -11    1    1    2    0    0 -0.37236573823E+01  0.11005701547E+02 -0.12028772604E+02  0.16723709553E+02  0.00000000000E+00 0.  1.
         11    1    1    2    0    0 -0.10794791482E+03  0.79617110219E+02  0.16371887560E+03  0.21164949039E+03  0.00000000000E+00 0. -1.
</event>
<event>
 7    1  0.3129226E-009  0.1660464E+03  0.7561462E-02  0.1182035E+00
          2   -1    0    0  501    0  0.00000000000E+00  0.00000000000E+00  0.65425283749E+03  0.65425283749E+03  0.00000000000E+00 0. -1.
         -2   -1    0    0    0  501 -0.00000000000E+00 -0.00000000000E+00 -0.57876020278E+02  0.57876020278E+02  0.00000000000E+00 0.  1.
         25    2    1    2    0    0 -0.24061111784E+02  0.13988524510E+03  0.45138545890E+03  0.48943216504E+03  0.12509273669E+03 0.  0.
          5    1    3    3  502    0  0.20448324421E+02 -0.67954705792E+01  0.14220249668E+02  0.26153399256E+02  0.41800000000E+01 0.  1.
         -5    1    3    3    0  502 -0.44509436205E+02  0.14668071568E+03  0.43716520923E+03  0.46327876578E+03  0.41800000000E+01 0.  1.
        -11    1    1    2    0    0  0.32818385737E+02 -0.24178038685E+02  0.53145858878E+01  0.41108014063E+02  0.00000000000E+00 0.  1.
         11    1    1    2    0    0 -0.87572739527E+01 -0.11570720642E+03  0.13967677243E+03  0.18158867867E+03  0.00000000000E+00 0. -1.
</event>
<event>
 7    1  0.2670433E-009  0.1700147E+03  0.7561462E-02  0.1177833E+00
         -1   -1    0    0    0  501 -0.00000000000E+00  0.00000000000E+00  0.11202936223E+04  0.11202936223E+04  0.00000000000E+00 0.  1.
          1   -1    0    0  501    0  0.00000000000E+00 -0.00000000000E+00 -0.31280969783E+02  0.31280969783E+02  0.00000000000E+00 0. -1.
         25    2    1    2    0    0 -0.11160403196E+03 -0.10136349253E+03  0.52639182867E+03  0.56166400096E+03  0.12509226641E+03 0.  0.
          5    1    3    3  502    0 -0.71375289691E+02 -0.12378933489E+03  0.32533475303E+03  0.35535672970E+03  0.41800000000E+01 0. -1.
         -5    1    3    3    0  502 -0.40228742268E+02  0.22425842368E+02  0.20105707565E+03  0.20630727127E+03  0.41800000000E+01 0. -1.
        -11    1    1    2    0    0  0.49317450480E+02  0.41842933638E+02  0.98327046601E+02  0.11769133405E+03  0.00000000000E+00 0. -1.
         11    1    1    2    0    0  0.62286581479E+02  0.59520558889E+02  0.46429377724E+03  0.47221925707E+03  0.00000000000E+00 0.  1.
</event>
<event>
 7    1  0.2670433E-009  0.1160247E+03  0.7561462E-02  0.1249803E+00
         -3   -1    0    0    0  501 -0.00000000000E+00  0.00000000000E+00  0.25277195614E+02  0.25277195614E+02  0.00000000000E+00 0.  1.
          3   -1    0    0  501    0  0.00000000000E+00 -0.00000000000E+00 -0.60724558991E+03  0.60724558991E+03  0.00000000000E+00 0. -1.
         25    2    1    2    0    0 -0.26672511771E+02 -0.52607234844E+02 -0.30588006412E+03  0.33569154518E+03  0.12508899169E+03 0.  0.
          5    1    3    3  502    0 -0.36615772184E+02 -0.86921072264E+02 -0.26460180170E+03  0.28094051584E+03  0.41800000000E+01 0.  1.
         -5    1    3    3    0  502  0.99432604132E+01  0.34313837420E+02 -0.41278262412E+02  0.54751029341E+02  0.41800000000E+01 0.  1.
        -11    1    1    2    0    0  0.56836398883E+02  0.34259015540E+02 -0.22605773731E+03  0.23559744690E+03  0.00000000000E+00 0. -1.
         11    1    1    2    0    0 -0.30163887113E+02  0.18348219304E+02 -0.50030592864E+02  0.61233793445E+02  0.00000000000E+00 0.  1.
</event>
<event>
 7    1  0.2670433E-009  0.1137887E+03  0.7561462E-02  0.1253710E+00
         -2   -1    0    0    0  501 -0.00000000000E+00  0.00000000000E+00  0.79626596914E+02  0.79626596914E+02  0.00000000000E+00 0.  1.
          2   -1    0    0  501    0  0.00000000000E+00 -0.00000000000E+00 -0.24498200164E+03  0.24498200164E+03  0.00000000000E+00 0. -1.
         25    2    1    2    0    0  0.88790711947E+02 -0.19453474293E+02 -0.94406684388E+02  0.18117039895E+03  0.12509141941E+03 0.  0.
          5    1    3    3  502    0  0.59641241004E+02  0.19648254218E+02  0.11979236201E+02  0.64063296998E+02  0.41800000000E+01 0. -1.
         -5    1    3    3    0  502  0.29149470943E+02 -0.39101728511E+02 -0.10638592059E+03  0.11710710196E+03  0.41800000000E+01 0. -1.
        -11    1    1    2    0    0 -0.84654619234E+02  0.40783584868E+02 -0.32782643653E+02  0.99520887643E+02  0.00000000000E+00 0.  1.
         11    1    1    2    0    0 -0.41360927127E+01 -0.21330110575E+02 -0.38166076682E+02  0.43917311955E+02  0.00000000000E+00 0. -1.
</event>
<event>
 7    1  0.2670433E-009  0.1626994E+03  0.7561462E-02  0.1185682E+00
         -2   -1    0    0    0  501 -0.00000000000E+00  0.00000000000E+00  0.40865658865E+02  0.40865658865E+02  0.00000000000E+00 0.  1.
          2   -1    0    0  501    0  0.00000000000E+00 -0.00000000000E+00 -0.10362081263E+04  0.10362081263E+04  0.00000000000E+00 0. -1.
         25    2    1    2    0    0  0.10667451497E+03  0.10378082511E+03 -0.75427747975E+03  0.77893008230E+03  0.12509054658E+03 0.  0.
          5    1    3    3  502    0  0.97005615861E+02  0.12051304112E+03 -0.73569447804E+03  0.75179606278E+03  0.41800000000E+01 0. -1.
         -5    1    3    3    0  502  0.96688991079E+01 -0.16732216014E+02 -0.18583001711E+02  0.27134019520E+02  0.41800000000E+01 0. -1.
        -11    1    1    2    0    0 -0.37570816634E+02 -0.53634998392E+02 -0.33186382043E+02  0.73413999130E+02  0.00000000000E+00 0.  1.
         11    1    1    2    0    0 -0.69103698334E+02 -0.50145826717E+02 -0.20787860567E+03  0.22472970377E+03  0.00000000000E+00 0. -1.
</event>
<event>
 7    1  0.2670433E-009  0.1751363E+03  0.7561462E-02  0.1172595E+00
         -2   -1    0    0    0  501 -0.00000000000E+00  0.00000000000E+00  0.12401024427E+03  0.12401024427E+03  0.00000000000E+00 0.  1.
          2   -1    0    0  501    0  0.00000000000E+00 -0.00000000000E+00 -0.46409943228E+03  0.46409943228E+03  0.00000000000E+00 0. -1.
         25    2    1    2    0    0 -0.31666753026E+02  0.15011684523E+03 -0.35730453792E+03  0.40847815926E+03  0.12510005320E+03 0.  0.
          5    1    3    3  502    0 -0.49253416047E+02  0.45885637471E+02 -0.51400526329E+02  0.84799040238E+02  0.41800000000E+01 0. -1.
         -5    1    3    3    0  502  0.17586663021E+02  0.10423120775E+03 -0.30590401159E+03  0.32367911902E+03  0.41800000000E+01 0. -1.
        -11    1    1    2    0    0 -0.29820565762E+02 -0.31149314567E+02  0.15123117523E+02  0.45697424697E+02  0.00000000000E+00 0.  1.
         11    1    1    2    0    0  0.61487318787E+02 -0.11896753066E+03  0.20922323848E+01  0.13393409259E+03  0.00000000000E+00 0. -1.
</event>
<event>
 7    1  0.2670433E-009  0.1132600E+03  0.7561462E-02  0.1254649E+00
         -1   -1    0    0    0  501 -0.00000000000E+00  0.00000000000E+00  0.36426145936E+02  0.36426145936E+02  0.00000000000E+00 0.  1.
          1   -1    0    0  501    0  0.00000000000E+00 -0.00000000000E+00 -0.53039077733E+03  0.53039077733E+03  0.00000000000E+00 0. -1.
         25    2    1    2    0    0  0.76690685046E+02  0.36061802788E+02 -0.23525495644E+03  0.27959742223E+03  0.12509160321E+03 0.  0.
          5    1    3    3  502    0  0.62271295300E+02 -0.21211253612E+01 -0.22988889888E+03  0.23821962895E+03  0.41800000000E+01 0.  1.
         -5    1    3    3    0  502  0.14419389746E+02  0.38182928149E+02 -0.53660575635E+01  0.41377793277E+02  0.41800000000E+01 0.  1.
        -11    1    1    2    0    0 -0.25886080953E+02 -0.61134808711E+02 -0.16295347921E+03  0.17595849059E+03  0.00000000000E+00 0.  1.
         11    1    1    2    0    0 -0.50804604093E+02  0.25073005923E+02 -0.95756195736E+02  0.11126101044E+03  0.00000000000E+00 0. -1.
</event>
<event>
 7    1  0.3030230E-009  0.1453274E+03  0.7561462E-02  0.1206335E+00
          3   -1    0    0  501    0  0.00000000000E+00  0.00000000000E+00  0.11775219261E+03  0.11775219261E+03  0.00000000000E+00 0. -1.
         -3   -1    0    0    0  501 -0.00000000000E+00 -0.00000000000E+00 -0.25491419439E+03  0.25491419439E+03  0.00000000000E+00 0.  1.
         25    2    1    2    0    0 -0.13087021517E+02  0.12498402224E+03 -0.12716775910E+03  0.21819581826E+03  0.12508197395E+03 0.  0.
          5    1    3    3  502    0 -0.28538563347E+02  0.11953797758E+03 -0.14731549666E+03  0.19189347471E+03  0.41800000000E+01 0.  1.
         -5    1    3    3    0  502  0.15451541830E+02  0.54460446559E+01  0.20147737562E+02  0.26302343549E+02  0.41800000000E+01 0.  1.
        -11    1    1    2    0    0 -0.35515965821E+02 -0.58199635862E+02 -0.20527871926E+02  0.71203756702E+02  0.00000000000E+00 0. -1.
         11    1    1    2    0    0  0.48602987338E+02 -0.66784386375E+02  0.10533629246E+02  0.83266812037E+02  0.00000000000E+00 0.  1.
</event>
<event>
 7    1  0.2670433E-009  0.1156032E+03  0.7561462E-02  0.1250532E+00
          1   -1    0    0  501    0  0.00000000000E+00  0.00000000000E+00  0.13609330546E+04  0.13609330546E+04  0.00000000000E+00 0. -1.
         -1   -1    0    0    0  501 -0.00000000000E+00 -0.00000000000E+00 -0.17595603770E+02  0.17595603770E+02  0.00000000000E+00 0.  1.
         25    2    1    2    0    0  0.36091035832E+02 -0.73923903728E+02  0.10473666627E+04  0.10580127987E+04  0.12508736807E+03 0.  0.
          5    1    3    3  502    0  0.22038609066E+02  0.12237339987E+02  0.67667069873E+03  0.67715298101E+03  0.41800000000E+01 0.  1.
         -5    1    3    3    0  502  0.14052426766E+02 -0.86161243715E+02  0.37069596399E+03  0.38085981770E+03  0.41800000000E+01 0.  1.
        -11    1    1    2    0    0 -0.26025493565E+02 -0.14138884551E+02  0.11845366397E+03  0.12210038853E+03  0.00000000000E+00 0. -1.
         11    1    1    2    0    0 -0.10065542267E+02  0.88062788279E+02  0.17751712416E+03  0.19841547115E+03  0.00000000000E+00 0.  1.
</event>
<event>
 7    1  0.2670433E-009  0.1885357E+03  0.7561462E-02  0.1159789E+00
         -2   -1    0    0    0  501 -0.00000000000E+00  0.00000000000E+00  0.20755358798E+03  0.20755358798E+03  0.00000000000E+00 0.  1.
          2   -1    0    0  501    0  0.00000000000E+00 -0.00000000000E+00 -0.56325467212E+03  0.56325467212E+03  0.00000000000E+00 0. -1.
         25    2    1    2    0    0 -0.14924614932E+03 -0.64075727097E+02  0.13522986100E+03  0.24559179098E+03  0.12509236828E+03 0.  0.
          5    1    3    3  502    0 -0.22113994807E+02 -0.71768886195E+02  0.32625878472E+02  0.81986109421E+02  0.41800000000E+01 0. -1.
         -5    1    3    3    0  502 -0.12713215452E+03  0.76931590973E+01  0.10260398252E+03  0.16360568156E+03  0.41800000000E+01 0. -1.
        -11    1    1    2    0    0  0.12297550699E+03  0.77054134427E+02 -0.46111601198E+03  0.48341316848E+03  0.00000000000E+00 0. -1.
         11    1    1    2    0    0  0.26270642330E+02 -0.12978407329E+02 -0.29814933160E+02  0.41803300642E+02  0.00000000000E+00 0.  1.
</event>
<event>
 7    1  0.2670433E-009  0.1299698E+03  0.7561462E-02  0.1227501E+00
         -1   -1    0    0    0  501 -0.00000000000E+00  0.00000000000E+00  0.25891058430E+02  0.25891058430E+02  0.00000000000E+00 0. -1.
          1   -1    0    0  501    0  0.00000000000E+00 -0.00000000000E+00 -0.79412603450E+03  0.79412603450E+03  0.00000000000E+00 0.  1.
         25    2    1    2    0    0 -0.60588491687E+02  0.72221400907E+02 -0.46929225196E+03  0.49474234090E+03  0.12509144676E+03 0.  0.
          5    1    3    3  502    0 -0.93162176443E+02  0.60305003071E+02 -0.41926475793E+03  0.43372375328E+03  0.41800000000E+01 0.  1.
         -5    1    3    3    0  502  0.32573684756E+02  0.11916397836E+02 -0.50027494027E+02  0.61018587615E+02  0.41800000000E+01 0.  1.
        -11    1    1    2    0    0  0.72410553239E+02 -0.47654602448E+02 -0.27709486343E+03  0.29033741180E+03  0.00000000000E+00 0.  1.
         11    1    1    2    0    0 -0.11822061552E+02 -0.24566798459E+02 -0.21847860677E+02  0.34937340225E+02  0.00000000000E+00 0. -1.
</event>
<event>
 7    1  0.2670433E-009  0.4700236E+02  0.7561462E-02  0.1462215E+00
         -2   -1    0    0    0  501 -0.00000000000E+00  0.00000000000E+00  0.34744882131E+03  0.34744882131E+03  0.00000000000E+00 0.  1.
          2   -1    0    0  501    0  0.00000000000E+00 -0.00000000000E+00 -0.41092035474E+02  0.41092035474E+02  0.00000000000E+00 0. -1.
         25    2    1    2    0    0  0.18747515100E+02  0.19494126385E+02  0.23579085469E+03  0.26828589863E+03  0.12509398852E+03 0.  0.
          5    1    3    3  502    0  0.16474614227E+02  0.39867613040E+02  0.24247860307E+03  0.24632130405E+03  0.41800000000E+01 0. -1.
         -5    1    3    3    0  502  0.22729008731E+01 -0.20373486655E+02 -0.66877483778E+01  0.21964594584E+02  0.41800000000E+01 0. -1.
        -11    1    1    2    0    0 -0.80525162753E+01 -0.16926973373E+02  0.93212604231E+02  0.95078678122E+02  0.00000000000E+00 0.  1.
         11    1    1    2    0    0 -0.10694998825E+02 -0.25671530119E+01 -0.22646673082E+02  0.25176280030E+02  0.00000000000E+00 0. -1.
</event>
<event>
 7    1  0.2670433E-009  0.1016017E+03  0.7561462E-02  0.1276963E+00
         -1   -1    0    0    0  501 -0.00000000000E+00  0.00000000000E+00  0.59021047363E+02  0.59021047363E+02  0.00000000000E+00 0.  1.
          1   -1    0    0  501    0  0.00000000000E+00 -0.00000000000E+00 -0.29398689547E+03  0.29398689547E+03  0.00000000000E+00 0. -1.
         25    2    1    2    0    0 -0.48593128383E+02 -0.13408318706E+02 -0.19707821407E+03  0.23880423864E+03  0.12508623743E+03 0.  0.
          5    1    3    3  502    0  0.22456608284E+02 -0.45544320411E+02 -0.11354911574E+03  0.12445665295E+03  0.41800000000E+01 0.  1.
         -5    1    3    3    0  502 -0.71049736666E+02  0.32136001705E+02 -0.83529098330E+02  0.11434758569E+03  0.41800000000E+01 0.  1.
        -11    1    1    2    0    0  0.66627789032E+01  0.28749777618E+02  0.23897655123E+02  0.37974205142E+02  0.00000000000E+00 0.  1.
         11    1    1    2    0    0  0.41930349479E+02 -0.15341458912E+02 -0.61785289155E+02  0.76229499047E+02  0.00000000000E+00 0. -1.
</event>
<event>
 7    1  0.2670433E-009  0.1172071E+03  0.7561462E-02  0.1247777E+00
          2   -1    0    0  501    0  0.00000000000E+00  0.00000000000E+00  0.81107575575E+03  0.81107575575E+03  0.00000000000E+00 0. -1.
         -2   -1    0    0    0  501 -0.00000000000E+00 -0.00000000000E+00 -0.17474430628E+02  0.17474430628E+02  0.00000000000E+00 0.  1.
         25    2    1    2    0    0  0.37664118734E+02 -0.30929963261E+02  0.47646063081E+03  0.49500749411E+03  0.12506973272E+03 0.  0.
          5    1    3    3  502    0  0.78837523418E+02  0.48646800667E+01  0.30048491721E+03  0.31072122245E+03  0.41800000000E+01 0. -1.
         -5    1    3    3    0  502 -0.41173404684E+02 -0.35794643327E+02  0.17597571360E+03  0.18428627166E+03  0.41800000000E+01 0. -1.
        -11    1    1    2    0    0 -0.56820555245E+02 -0.78357108642E+01  0.14208703588E+03  0.15322760727E+03  0.00000000000E+00 0.  1.
         11    1    1    2    0    0  0.19156436511E+02  0.38765674125E+02  0.17505365842E+03  0.18031508500E+03  0.00000000000E+00 0. -1.
</event>
<event>
 7    1  0.2670433E-009  0.6828832E+02  0.7561462E-02  0.1366012E+00
         -2   -1    0    0    0  501 -0.00000000000E+00  0.00000000000E+00  0.32869598915E+03  0.32869598915E+03  0.00000000000E+00 0. -1.
          2   -1    0    0  501    0  0.00000000000E+00 -0.00000000000E+00 -0.38076510293E+02  0.38076510293E+02  0.00000000000E+00 0.  1.
         25    2    1    2    0    0  0.19004519567E+02 -0.67347810838E+01  0.16506319652E+03  0.20808531456E+03  0.12508840973E+03 0.  0.
          5    1    3    3  502    0  0.26716416507E+02 -0.45709525871E+02  0.18601150368E+02  0.56272576459E+02  0.41800000000E+01 0. -1.
         -5    1    3    3    0  502 -0.77118969396E+01  0.38974744787E+02  0.14646204616E+03  0.15181273810E+03  0.41800000000E+01 0. -1.
        -11    1    1    2    0    0 -0.13829647286E+02 -0.15451035718E+02 -0.87177519091E+01  0.22494284766E+02  0.00000000000E+00 0.  1.
         11    1    1    2    0    0 -0.51748722815E+01  0.22185816802E+02  0.13427403424E+03  0.13619290011E+03  0.00000000000E+00 0. -1.
</event>
<event>
 7    1  0.2670433E-009  0.1092410E+03  0.7561462E-02  0.1261982E+00
         -1   -1    0    0    0  501 -0.00000000000E+00  0.00000000000E+00  0.65820323856E+02  0.65820323856E+02  0.00000000000E+00 0.  1.
          1   -1    0    0  501    0  0.00000000000E+00 -0.00000000000E+00 -0.21220812951E+03  0.21220812951E+03  0.00000000000E+00 0. -1.
         25    2    1    2    0    0  0.29392648250E+02  0.40829822839E+02 -0.71266100533E+02  0.15249654277E+03  0.12508131862E+03 0.  0.
          5    1    3    3  502    0 -0.30547891537E+02  0.60854097641E+02 -0.53561750104E+02  0.86733663311E+02  0.41800000000E+01 0.  1.
         -5    1    3    3    0  502  0.59940539787E+02 -0.20024274802E+02 -0.17704350429E+02  0.65762879464E+02  0.41800000000E+01 0.  1.
        -11    1    1    2    0    0  0.21974233806E+02 -0.24762493630E+02 -0.61764853096E+02  0.70078135821E+02  0.00000000000E+00 0. -1.
         11    1    1    2    0    0 -0.51366882056E+02 -0.16067329209E+02 -0.13356852022E+02  0.55453774767E+02  0.00000000000E+00 0.  1.
</event>
<event>
 7    1  0.2670433E-009  0.1452994E+03  0.7561462E-02  0.1206371E+00
         -2   -1    0    0    0  501 -0.00000000000E+00  0.00000000000E+00  0.33484033697E+02  0.33484033697E+02  0.00000000000E+00 0. -1.
          2   -1    0    0  501    0  0.00000000000E+00 -0.00000000000E+00 -0.85838209217E+03  0.85838209217E+03  0.00000000000E+00 0.  1.
         25    2    1    2    0    0  0.12945117369E+03  0.38687011635E+01 -0.40395429162E+03  0.44226632463E+03  0.12509140246E+03 0.  0.
          5    1    3    3  502    0  0.11428463356E+03  0.13973437718E+02 -0.15769529682E+03  0.19529852398E+03  0.41800000000E+01 0.  1.
         -5    1    3    3    0  502  0.15166540130E+02 -0.10104736555E+02 -0.24625899480E+03  0.24696780066E+03  0.41800000000E+01 0.  1.
        -11    1    1    2    0    0 -0.79546224891E+02 -0.45552693338E+02 -0.27356521419E+03  0.28851442976E+03  0.00000000000E+00 0.  1.
         11    1    1    2    0    0 -0.49904948795E+02  0.41683992175E+02 -0.14737855267E+03  0.16108537148E+03  0.00000000000E+00 0. -1.
</event>
<event>
 7    1  0.2670433E-009  0.6125632E+02  0.7561462E-02  0.1392634E+00
         -2   -1    0    0    0  501 -0.00000000000E+00  0.00000000000E+00  0.10322775129E+03  0.10322775129E+03  0.00000000000E+00 0.  1.
          2   -1    0    0  501    0  0.00000000000E+00 -0.00000000000E+00 -0.15525450866E+03  0.15525450866E+03  0.00000000000E+00 0. -1.
         25    2    1    2    0    0  0.12505585869E+01 -0.29967887353E+02 -0.87427308165E+02  0.15553265418E+03  0.12508890492E+03 0.  0.
          5    1    3    3  502    0  0.45584154955E+01 -0.11130924081E+01  0.31970396566E+02  0.32582154366E+02  0.41800000000E+01 0.  1.
         -5    1    3    3    0  502 -0.33078569086E+01 -0.28854794945E+02 -0.11939770473E+03  0.12295049981E+03  0.41800000000E+01 0.  1.
        -11    1    1    2    0    0  0.40125284447E+02  0.13194729642E+02  0.39864943694E+02  0.58080574016E+02  0.00000000000E+00 0.  1.
         11    1    1    2    0    0 -0.41375843034E+02  0.16773157711E+02 -0.44643928990E+01  0.44869031752E+02  0.00000000000E+00 0. -1.
</event>
<event>
 7    1  0.3585419E-009  0.1683012E+03  0.7561462E-02  0.1179631E+00
         -1   -1    0    0    0  501 -0.00000000000E+00  0.00000000000E+00  0.22223225919E+03  0.22223225919E+03  0.00000000000E+00 0.  1.
          1   -1    0    0  501    0  0.00000000000E+00 -0.00000000000E+00 -0.16746512669E+03  0.16746512669E+03  0.00000000000E+00 0. -1.
         25    2    1    2    0    0 -0.15058873190E+02 -0.15360617292E+03 -0.10411535816E+02  0.19893479544E+03  0.12508008130E+03 0.  0.
          5    1    3    3  502    0 -0.29697170435E+02 -0.19954876216E+02 -0.47298207352E+02  0.59453442586E+02  0.41800000000E+01 0. -1.
         -5    1    3    3    0  502  0.14638297244E+02 -0.13365129670E+03  0.36886671535E+02  0.13948135285E+03  0.41800000000E+01 0. -1.
        -11    1    1    2    0    0  0.38892975202E+02  0.86169592780E+02  0.72111256836E+02  0.11890288307E+03  0.00000000000E+00 0.  1.
         11    1    1    2    0    0 -0.23834102011E+02  0.67436580137E+02 -0.69325885212E+01  0.71859707367E+02  0.00000000000E+00 0. -1.
</event>
<event>
 7    1  0.2670433E-009  0.1278487E+03  0.7561462E-02  0.1230683E+00
         -1   -1    0    0    0  501 -0.00000000000E+00  0.00000000000E+00  0.69440362195E+02  0.69440362195E+02  0.00000000000E+00 0.  1.
          1   -1    0    0  501    0  0.00000000000E+00 -0.00000000000E+00 -0.26886939574E+03  0.26886939574E+03  0.00000000000E+00 0. -1.
         25    2    1    2    0    0  0.72457280067E+02 -0.32099183430E+00 -0.16795228835E+03  0.22159896476E+03  0.12509184446E+03 0.  0.
          5    1    3    3  502    0  0.73004899663E+02  0.53475652635E+02 -0.10407670685E+03  0.13798113679E+03  0.41800000000E+01 0. -1.
         -5    1    3    3    0  502 -0.54761959639E+00 -0.53796644469E+02 -0.63875581500E+02  0.83617827976E+02  0.41800000000E+01 0. -1.
        -11    1    1    2    0    0 -0.16703208077E+02  0.39576565878E+02 -0.38143842939E+01  0.43125992792E+02  0.00000000000E+00 0.  1.
         11    1    1    2    0    0 -0.55754071989E+02 -0.39255574043E+02 -0.27662360899E+02  0.73584800383E+02  0.00000000000E+00 0. -1.
</event>
<event>
 7    1  0.2670433E-009  0.1513645E+03  0.7561462E-02  0.1198806E+00
          2   -1    0    0  501    0  0.00000000000E+00  0.00000000000E+00  0.31301074322E+02  0.31301074322E+02  0.00000000000E+00 0. -1.
         -2   -1    0    0    0  501 -0.00000000000E+00 -0.00000000000E+00 -0.79156084853E+03  0.79156084853E+03  0.00000000000E+00 0.  1.
         25    2    1    2    0    0 -0.11116389467E+03 -0.22873992395E+02 -0.38237369872E+03  0.41801825492E+03  0.12509590308E+03 0.  0.
          5    1    3    3  502    0 -0.51553212206E+02  0.45444433956E+02 -0.99957968232E+02  0.12137544265E+03  0.41800000000E+01 0.  1.
         -5    1    3    3    0  502 -0.59610682468E+02 -0.68318426351E+02 -0.28241573049E+03  0.29664281227E+03  0.41800000000E+01 0.  1.
        -11    1    1    2    0    0  0.93597895814E+02  0.53498568782E+02 -0.31190151985E+03  0.33000791059E+03  0.00000000000E+00 0.  1.
         11    1    1    2    0    0  0.17565998860E+02 -0.30624576387E+02 -0.65984555633E+02  0.74835757341E+02  0.00000000000E+00 0. -1.
</event>
<event>
 7    1  0.2670433E-009  0.7741148E+02  0.7561462E-02  0.1336562E+00
         -1   -1    0    0    0  501 -0.00000000000E+00  0.00000000000E+00  0.52071536669E+03  0.52071536669E+03  0.00000000000E+00 0.  1.
          1   -1    0    0  501    0  0.00000000000E+00 -0.00000000000E+00 -0.25198139983E+02  0.25198139983E+02  0.00000000000E+00 0. -1.
         25    2    1    2    0    0  0.25679408343E+01  0.21035487441E+02  0.35853027401E+03  0.38031660785E+03  0.12509068218E+03 0.  0.
          5    1    3    3  502    0  0.36221468497E+02  0.14677311420E+02  0.28654279802E+02  0.48641118424E+02  0.41800000000E+01 0. -1.
         -5    1    3    3    0  502 -0.33653527663E+02  0.63581760207E+01  0.32987599421E+03  0.33167548942E+03  0.41800000000E+01 0. -1.
        -11    1    1    2    0    0  0.33968923263E+01  0.29718267777E+02  0.15263051950E+02  0.33580873603E+02  0.00000000000E+00 0. -1.
         11    1    1    2    0    0 -0.59648331606E+01 -0.50753755217E+02  0.12172390074E+03  0.13201602522E+03  0.00000000000E+00 0.  1.
</event>
<event>
 7    1  0.2670433E-009  0.1238235E+03  0.7561462E-02  0.1236919E+00
         -1   -1    0    0    0  501 -0.00000000000E+00  0.00000000000E+00  0.72342031130E+02  0.72342031130E+02  0.00000000000E+00 0.  1.
          1   -1    0    0  501    0  0.00000000000E+00 -0.00000000000E+00 -0.25084720809E+03  0.25084720809E+03  0.00000000000E+00 0. -1.
         25    2    1    2    0    0 -0.69121162873E+02 -0.38104780884E+02 -0.11588819781E+03  0.18790339588E+03  0.12509157568E+03 0.  0.
          5    1    3    3  502    0 -0.20783963546E+02 -0.78512595960E+02 -0.44893709050E+02  0.92893048057E+02  0.41800000000E+01 0.  1.
         -5    1    3    3    0  502 -0.48337199327E+02  0.40407815076E+02 -0.70994488765E+02  0.95010347820E+02  0.41800000000E+01 0.  1.
        -11    1    1    2    0    0  0.79693422236E+02  0.19917069529E+02 -0.15374352507E+02  0.83570939455E+02  0.00000000000E+00 0.  1.
         11    1    1    2    0    0 -0.10572259364E+02  0.18187711356E+02 -0.47242626637E+02  0.51714903886E+02  0.00000000000E+00 0. -1.
</event>
<event>
 7    1  0.2670433E-009  0.1220702E+03  0.7561462E-02  0.1239720E+00
          1   -1    0    0  501    0  0.00000000000E+00  0.00000000000E+00  0.11085296519E+03  0.11085296519E+03  0.00000000000E+00 0. -1.
         -1   -1    0    0    0  501 -0.00000000000E+00 -0.00000000000E+00 -0.45544504556E+03  0.45544504556E+03  0.00000000000E+00 0.  1.
         25    2    1    2    0    0  0.96282544939E+02 -0.69053420362E+02 -0.37085471570E+03  0.40892181518E+03  0.12508048386E+03 0.  0.
          5    1    3    3  502    0 -0.27006726818E+01 -0.73017787565E+01 -0.20991166115E+03  0.21009756660E+03  0.41800000000E+01 0. -1.
         -5    1    3    3    0  502  0.98983217621E+02 -0.61751641606E+02 -0.16094305456E+03  0.19882424857E+03  0.41800000000E+01 0. -1.
        -11    1    1    2    0    0 -0.59368489551E+02  0.45137681530E+02 -0.34656425439E+02  0.82238042715E+02  0.00000000000E+00 0.  1.
         11    1    1    2    0    0 -0.36914055388E+02  0.23915738832E+02  0.60919060778E+02  0.75138152860E+02  0.00000000000E+00 0. -1.
</event>
<event>
 7    1  0.2670433E-009  0.1156262E+03  0.7561462E-02  0.1250492E+00
         -1   -1    0    0    0  501 -0.00000000000E+00  0.00000000000E+00  0.13032070922E+03  0.13032070922E+03  0.00000000000E+00 0.  1.
          1   -1    0    0  501    0  0.00000000000E+00 -0.00000000000E+00 -0.11674017959E+03  0.11674017959E+03  0.00000000000E+00 0. -1.
         25    2    1    2    0    0 -0.57501278021E+01 -0.53992017187E+02  0.31929422782E+02  0.14005901804E+03  0.12509531808E+03 0.  0.
          5    1    3    3  502    0  0.54429360366E+02 -0.12679311939E+01  0.23490521368E+01  0.54654856741E+02  0.41800000000E+01 0.  1.
         -5    1    3    3    0  502 -0.60179488168E+02 -0.52724085993E+02  0.29580370646E+02  0.85404161301E+02  0.41800000000E+01 0.  1.
        -11    1    1    2    0    0  0.39795056958E+02  0.47334919205E+02  0.94366153486E+01  0.62556301390E+02  0.00000000000E+00 0.  1.
         11    1    1    2    0    0 -0.34044929155E+02  0.66570979824E+01 -0.27785508506E+02  0.44445569382E+02  0.00000000000E+00 0. -1.
</event>
<event>
 7    1  0.2670433E-009  0.1531540E+03  0.7561462E-02  0.1196650E+00
          2   -1    0    0  501    0  0.00000000000E+00  0.00000000000E+00  0.31777531595E+03  0.31777531595E+03  0.00000000000E+00 0.  1.
         -2   -1    0    0    0  501 -0.00000000000E+00 -0.00000000000E+00 -0.87954917037E+02  0.87954917037E+02  0.00000000000E+00 0. -1.
         25    2    1    2    0    0  0.10675786809E+03 -0.53480924674E+02  0.17488496351E+03  0.24594621330E+03  0.12508931877E+03 0.  0.
          5    1    3    3  502    0  0.51892313254E+02  0.37289166104E+02  0.87663361834E+02  0.10856164835E+03  0.41800000000E+01 0. -1.
         -5    1    3    3    0  502  0.54865554835E+02 -0.90770090778E+02  0.87221601678E+02  0.13738456495E+03  0.41800000000E+01 0. -1.
        -11    1    1    2    0    0 -0.38099570932E+02  0.55638344340E+02  0.60861348110E+02  0.90836701613E+02  0.00000000000E+00 0. -1.
         11    1    1    2    0    0 -0.68658297157E+02 -0.21574196661E+01 -0.59259127132E+01  0.68947318074E+02  0.00000000000E+00 0.  1.
</event>
<event>
 7    1  0.2670433E-009  0.1169228E+03  0.7561462E-02  0.1248262E+00
          1   -1    0    0  501    0  0.00000000000E+00  0.00000000000E+00  0.10538308484E+04  0.10538308484E+04  0.00000000000E+00 0. -1.
         -1   -1    0    0    0  501 -0.00000000000E+00 -0.00000000000E+00 -0.15400788137E+02  0.15400788137E+02  0.00000000000E+00 0.  1.
         25    2    1    2    0    0 -0.58331545427E+02 -0.85994614903E+01  0.69853856748E+03  0.71209560598E+03  0.12508997512E+03 0.  0.
          5    1    3    3  502    0  0.17383041952E+02 -0.44947659284E+02  0.16407598082E+03  0.17105806647E+03  0.41800000000E+01 0.  1.
         -5    1    3    3    0  502 -0.75714587380E+02  0.36348197793E+02  0.53446258665E+03  0.54103753951E+03  0.41800000000E+01 0.  1.
        -11    1    1    2    0    0  0.34535738939E+02  0.45714348069E+02  0.12139454320E+03  0.13423544243E+03  0.00000000000E+00 0.  1.
         11    1    1    2    0    0  0.23795806488E+02 -0.37114886579E+02  0.21849694961E+03  0.22290058815E+03  0.00000000000E+00 0. -1.
</event>
<event>
 7    1  0.2670433E-009  0.1087671E+03  0.7561462E-02  0.1262870E+00
          1   -1    0    0  501    0  0.00000000000E+00  0.00000000000E+00  0.61750935405E+03  0.61750935405E+03  0.00000000000E+00 0. -1.
         -1   -1    0    0    0  501 -0.00000000000E+00 -0.00000000000E+00 -0.20892711390E+02  0.20892711390E+02  0.00000000000E+00 0.  1.
         25    2    1    2    0    0  0.21375716457E+02 -0.58101287558E+01  0.27507984508E+03  0.30299438361E+03  0.12508395772E+03 0.  0.
          5    1    3    3  502    0 -0.24413562122E+02  0.49307975908E+02  0.12464791982E+03  0.13631535064E+03  0.41800000000E+01 0.  1.
         -5    1    3    3    0  502  0.45789278578E+02 -0.55118104664E+02  0.15043192526E+03  0.16667903297E+03  0.41800000000E+01 0.  1.
        -11    1    1    2    0    0  0.11143388558E+02  0.41102527461E+02  0.20499587377E+03  0.20937263702E+03  0.00000000000E+00 0. -1.
         11    1    1    2    0    0 -0.32519105015E+02 -0.35292398705E+02  0.11654092381E+03  0.12603504481E+03  0.00000000000E+00 0.  1.
</event>
<event>
 7    1  0.2670433E-009  0.1818852E+03  0.7561462E-02  0.1165991E+00
         -2   -1    0    0    0  501 -0.00000000000E+00  0.00000000000E+00  0.17374221523E+03  0.17374221523E+03  0.00000000000E+00 0.  1.
          2   -1    0    0  501    0  0.00000000000E+00 -0.00000000000E+00 -0.42895676680E+03  0.42895676680E+03  0.00000000000E+00 0. -1.
         25    2    1    2    0    0  0.13603707882E+03  0.85812193718E+02  0.80524653973E+02  0.21909317359E+03  0.12509108446E+03 0.  0.
          5    1    3    3  502    0  0.84434250092E+02  0.10291951490E+03  0.93888500913E+02  0.16295426395E+03  0.41800000000E+01 0. -1.
         -5    1    3    3    0  502  0.51602828724E+02 -0.17107321182E+02 -0.13363846940E+02  0.56138909638E+02  0.41800000000E+01 0. -1.
        -11    1    1    2    0    0 -0.53251479034E+02  0.46236460513E+01 -0.52284461048E+02  0.74771404890E+02  0.00000000000E+00 0.  1.
         11    1    1    2    0    0 -0.82785599782E+02 -0.90435839769E+02 -0.28345474449E+03  0.30883440356E+03  0.00000000000E+00 0. -1.
</event>
<event>
 7    1  0.2670433E-009  0.1837492E+03  0.7561462E-02  0.1164223E+00
         -2   -1    0    0    0  501 -0.00000000000E+00  0.00000000000E+00  0.47559056425E+02  0.47559056425E+02  0.00000000000E+00 0.  1.
          2   -1    0    0  501    0  0.00000000000E+00 -0.00000000000E+00 -0.11983704286E+04  0.11983704286E+04  0.00000000000E+00 0. -1.
         25    2    1    2    0    0 -0.14931690568E+03 -0.62761902491E+02 -0.94883362614E+03  0.97065290364E+03  0.12508882652E+03 0.  0.
          5    1    3    3  502    0 -0.82019493653E+00 -0.54330925003E+02 -0.20772708793E+03  0.21475692676E+03  0.41800000000E+01 0. -1.
         -5    1    3    3    0  502 -0.14849671074E+03 -0.84309774879E+01 -0.74110653821E+03  0.75589597688E+03  0.41800000000E+01 0. -1.
        -11    1    1    2    0    0  0.72122579226E+02  0.44950526688E+02 -0.37854528616E+02  0.93033228582E+02  0.00000000000E+00 0.  1.
         11    1    1    2    0    0  0.77194326450E+02  0.17811375803E+02 -0.16412321737E+03  0.18224335276E+03  0.00000000000E+00 0. -1.
</event>
<event>
 7    1  0.2670433E-009  0.9165085E+02  0.7561462E-02  0.1298902E+00
         -1   -1    0    0    0  501 -0.00000000000E+00  0.00000000000E+00  0.12226592798E+03  0.12226592798E+03  0.00000000000E+00 0.  1.
          1   -1    0    0  501    0  0.00000000000E+00 -0.00000000000E+00 -0.12408902800E+03  0.12408902800E+03  0.00000000000E+00 0. -1.
         25    2    1    2    0    0  0.40602582852E+02 -0.41883816136E+02  0.10333155073E+02  0.13840751421E+03  0.12508813736E+03 0.  0.
          5    1    3    3  502    0  0.76389044543E+02 -0.26679720641E+02  0.38999648373E+02  0.89919622958E+02  0.41800000000E+01 0. -1.
         -5    1    3    3    0  502 -0.35786461691E+02 -0.15204095495E+02 -0.28666493300E+02  0.48487891255E+02  0.41800000000E+01 0. -1.
        -11    1    1    2    0    0 -0.19499961533E+02  0.41456996932E+01 -0.47877832569E+02  0.51862531535E+02  0.00000000000E+00 0. -1.
         11    1    1    2    0    0 -0.21102621319E+02  0.37738116443E+02  0.35721577470E+02  0.56084910236E+02  0.00000000000E+00 0.  1.
</event>
<event>
 7    1  0.2670433E-009  0.1495221E+03  0.7561462E-02  0.1201061E+00
         -2   -1    0    0    0  501 -0.00000000000E+00  0.00000000000E+00  0.25888206743E+03  0.25888206743E+03  0.00000000000E+00 0.  1.
          2   -1    0    0  501    0  0.00000000000E+00 -0.00000000000E+00 -0.12567950525E+03  0.12567950525E+03  0.00000000000E+00 0. -1.
         25    2    1    2    0    0  0.11675005543E+03  0.63679575017E+02  0.17927703441E+02  0.18345205302E+03  0.12509032533E+03 0.  0.
          5    1    3    3  502    0  0.61869792087E+02  0.50346429471E+02  0.70233058343E+02  0.10636159560E+03  0.41800000000E+01 0. -1.
         -5    1    3    3    0  502  0.54880263342E+02  0.13333145546E+02 -0.52305354902E+02  0.77090457425E+02  0.41800000000E+01 0. -1.
        -11    1    1    2    0    0 -0.94431740767E+02  0.66299759885E+00  0.50353698506E+02  0.10702003636E+03  0.00000000000E+00 0. -1.
         11    1    1    2    0    0 -0.22318314662E+02 -0.64342572616E+02  0.64921160240E+02  0.94089483296E+02  0.00000000000E+00 0.  1.
</event>
<event>
 7    1  0.2670433E-009  0.1457454E+03  0.7561462E-02  0.1205801E+00
          1   -1    0    0  501    0  0.00000000000E+00  0.00000000000E+00  0.33976837251E+03  0.33976837251E+03  0.00000000000E+00 0. -1.
         -1   -1    0    0    0  501 -0.00000000000E+00 -0.00000000000E+00 -0.81129880970E+02  0.81129880970E+02  0.00000000000E+00 0.  1.
         25    2    1    2    0    0  0.19563128967E+02 -0.12032644599E+03  0.16318459080E+03  0.23903666028E+03  0.12509254440E+03 0.  0.
          5    1    3    3  502    0  0.64758930714E+02 -0.61218024271E+02  0.46552468838E+02  0.10062788062E+03  0.41800000000E+01 0. -1.
         -5    1    3    3    0  502 -0.45195801747E+02 -0.59108421717E+02  0.11663212196E+03  0.13840877966E+03  0.41800000000E+01 0. -1.
        -11    1    1    2    0    0 -0.23420436327E+02  0.33687107241E+02 -0.12960968770E+02  0.43027023410E+02  0.00000000000E+00 0. -1.
         11    1    1    2    0    0  0.38573073593E+01  0.86639338746E+02  0.10841486951E+03  0.13883456979E+03  0.00000000000E+00 0.  1.
</event>
<event>
 7    1  0.2670433E-009  0.7418977E+02  0.7561462E-02  0.1346399E+00
          1   -1    0    0  501    0  0.00000000000E+00  0.00000000000E+00  0.34450468202E+03  0.34450468202E+03  0.00000000000E+00 0. -1.
         -1   -1    0    0    0  501 -0.00000000000E+00 -0.00000000000E+00 -0.41586194459E+02  0.41586194459E+02  0.00000000000E+00 0.  1.
         25    2    1    2    0    0  0.40555307826E+02 -0.17591277915E+02  0.12557562772E+03  0.18267747431E+03  0.12509050839E+03 0.  0.
          5    1    3    3  502    0 -0.18498579665E+01 -0.95732289010E+01 -0.24375312092E+02  0.26583771848E+02  0.41800000000E+01 0. -1.
         -5    1    3    3    0  502  0.42405165792E+02 -0.80180490140E+01  0.14995093981E+03  0.15609370246E+03  0.41800000000E+01 0. -1.
        -11    1    1    2    0    0  0.69943881117E+01  0.40874324915E+02  0.46722245634E+02  0.62470794292E+02  0.00000000000E+00 0.  1.
         11    1    1    2    0    0 -0.47549695937E+02 -0.23283047000E+02  0.13062061421E+03  0.14094260789E+03  0.00000000000E+00 0. -1.
</event>
<event>
 7    1  0.2670433E-009  0.1169060E+03  0.7561462E-02  0.1248290E+00
         -2   -1    0    0    0  501 -0.00000000000E+00  0.00000000000E+00  0.16612694653E+02  0.16612694653E+02  0.00000000000E+00 0.  1.
          2   -1    0    0  501    0  0.00000000000E+00 -0.00000000000E+00 -0.83688942316E+03  0.83688942316E+03  0.00000000000E+00 0. -1.
         25    2    1    2    0    0  0.52637186811E+01 -0.43523790377E+02 -0.47563300596E+03  0.49375704934E+03  0.12508892973E+03 0.  0.
          5    1    3    3  502    0  0.47319603744E+02  0.22814784321E+02 -0.15924882542E+03  0.16774182567E+03  0.41800000000E+01 0.  1.
         -5    1    3    3    0  502 -0.42055885063E+02 -0.66338574697E+02 -0.31638418055E+03  0.32601522366E+03  0.41800000000E+01 0.  1.
        -11    1    1    2    0    0 -0.47674833689E+02  0.35136303081E+02 -0.21924474710E+03  0.22710285928E+03  0.00000000000E+00 0.  1.
         11    1    1    2    0    0  0.42411115008E+02  0.83874872954E+01 -0.12539897544E+03  0.13264220919E+03  0.00000000000E+00 0. -1.
</event>
<event>
 7    1  0.2670433E-009  0.1148895E+03  0.7561462E-02  0.1251774E+00
         -1   -1    0    0    0  501 -0.00000000000E+00  0.00000000000E+00  0.38539560459E+03  0.38539560459E+03  0.00000000000E+00 0.  1.
          1   -1    0    0  501    0  0.00000000000E+00 -0.00000000000E+00 -0.46813859019E+02  0.46813859019E+02  0.00000000000E+00 0. -1.
         25    2    1    2    0    0  0.69143872955E+02 -0.23215082265E+00  0.12234019947E+03  0.18813706241E+03  0.12508997076E+03 0.  0.
          5    1    3    3  502    0  0.10270865688E+03 -0.12041530326E+02  0.70908681244E+02  0.12545748334E+03  0.41800000000E+01 0. -1.
         -5    1    3    3    0  502 -0.33564783928E+02  0.11809379504E+02  0.51431518230E+02  0.62679579065E+02  0.41800000000E+01 0. -1.
        -11    1    1    2    0    0 -0.50397248064E+02 -0.27170230349E+02  0.54805105160E+02  0.79257198924E+02  0.00000000000E+00 0. -1.
         11    1    1    2    0    0 -0.18746624892E+02  0.27402381172E+02  0.16143644093E+03  0.16481520227E+03  0.00000000000E+00 0.  1.
</event>
<event>
 7    1  0.2670433E-009  0.1023601E+03  0.7561462E-02  0.1275410E+00
          2   -1    0    0  501    0  0.00000000000E+00  0.00000000000E+00  0.62253309873E+03  0.62253309873E+03  0.00000000000E+00 0. -1.
         -2   -1    0    0    0  501 -0.00000000000E+00 -0.00000000000E+00 -0.35626555008E+02  0.35626555008E+02  0.00000000000E+00 0.  1.
         25    2    1    2    0    0 -0.30980306558E+02 -0.46926293621E+02  0.50249850150E+03  0.52087855348E+03  0.12509143470E+03 0.  0.
          5    1    3    3  502    0  0.25366097597E+02 -0.38972157879E+02  0.40673069193E+03  0.40940150972E+03  0.41800000000E+01 0.  1.
         -5    1    3    3    0  502 -0.56346404156E+02 -0.79541357429E+01  0.95767809565E+02  0.11147704376E+03  0.41800000000E+01 0.  1.
        -11    1    1    2    0    0  0.54296686116E+02  0.70107023357E+01  0.69988621477E+02  0.88857679503E+02  0.00000000000E+00 0. -1.
         11    1    1    2    0    0 -0.23316379557E+02  0.39915591286E+02  0.14419420747E+02  0.48423420759E+02  0.00000000000E+00 0.  1.
</event>
<event>
 7    1  0.2670433E-009  0.1574587E+03  0.7561462E-02  0.1191596E+00
         -1   -1    0    0    0  501 -0.00000000000E+00  0.00000000000E+00  0.45197701232E+02  0.45197701232E+02  0.00000000000E+00 0.  1.
          1   -1    0    0  501    0  0.00000000000E+00 -0.00000000000E+00 -0.88803092030E+03  0.88803092030E+03  0.00000000000E+00 0. -1.
         25    2    1    2    0    0 -0.97632517520E+02 -0.99550158270E+02 -0.22976396430E+03  0.29644400034E+03  0.12508086807E+03 0.  0.
          5    1    3    3  502    0  0.45650519889E+01 -0.17714958396E+02 -0.13114060000E+03  0.13247637080E+03  0.41800000000E+01 0. -1.
         -5    1    3    3    0  502 -0.10219756951E+03 -0.81835199874E+02 -0.98623364296E+02  0.16396762954E+03  0.41800000000E+01 0. -1.
        -11    1    1    2    0    0  0.68827357392E+01  0.69094816623E+02 -0.35047402708E+03  0.35728631291E+03  0.00000000000E+00 0. -1.
         11    1    1    2    0    0  0.90749781781E+02  0.30455341647E+02 -0.26259522769E+03  0.27949830828E+03  0.00000000000E+00 0.  1.
</event>
<event>
 7    1  0.2670433E-009  0.2086406E+03  0.7561462E-02  0.1142647E+00
         -1   -1    0    0    0  501 -0.00000000000E+00  0.00000000000E+00  0.41603028540E+03  0.41603028540E+03  0.00000000000E+00 0.  1.
          1   -1    0    0  501    0  0.00000000000E+00 -0.00000000000E+00 -0.12514025345E+03  0.12514025345E+03  0.00000000000E+00 0. -1.
         25    2    1    2    0    0  0.13395797266E+03 -0.13346465530E+03  0.22719346850E+03  0.32097123548E+03  0.12509240276E+03 0.  0.
          5    1    3    3  502    0  0.13735172862E+03 -0.15055019883E+03  0.18555530786E+03  0.27564307428E+03  0.41800000000E+01 0.  1.
         -5    1    3    3    0  502 -0.33937559633E+01  0.17085543530E+02  0.41638160633E+02  0.45328161204E+02  0.41800000000E+01 0.  1.
        -11    1    1    2    0    0 -0.77731992887E+02  0.42493038097E+02  0.70238298963E+02  0.11305458702E+03  0.00000000000E+00 0.  1.
         11    1    1    2    0    0 -0.56225979769E+02  0.90971617203E+02 -0.65417355049E+01  0.10714471635E+03  0.00000000000E+00 0. -1.
</event>
<event>
 7    1  0.2670433E-009  0.8136146E+02  0.7561462E-02  0.1325232E+00
         -1   -1    0    0    0  501 -0.00000000000E+00  0.00000000000E+00  0.35776401653E+02  0.35776401653E+02  0.00000000000E+00 0.  1.
          1   -1    0    0  501    0  0.00000000000E+00 -0.00000000000E+00 -0.42200246021E+03  0.42200246021E+03  0.00000000000E+00 0. -1.
         25    2    1    2    0    0 -0.43084552148E+02  0.14566087329E+01 -0.28215451821E+03  0.31163507388E+03  0.12508735661E+03 0.  0.
          5    1    3    3  502    0 -0.33478350853E+02  0.21429441378E+02 -0.28597984205E+03  0.28875935204E+03  0.41800000000E+01 0.  1.
         -5    1    3    3    0  502 -0.96062012946E+01 -0.19972832645E+02  0.38253238382E+01  0.22875721839E+02  0.41800000000E+01 0.  1.
        -11    1    1    2    0    0 -0.27526971758E+02 -0.95280121754E+01 -0.45604913470E+02  0.54114003019E+02  0.00000000000E+00 0. -1.
         11    1    1    2    0    0  0.70611523906E+02  0.80714034424E+01 -0.58466626875E+02  0.92029784961E+02  0.00000000000E+00 0.  1.
</event>
<event>
 7    1  0.2670433E-009  0.1074738E+03  0.7561462E-02  0.1265321E+00
         -1   -1    0    0    0  501 -0.00000000000E+00  0.00000000000E+00  0.15504719719E+02  0.15504719719E+02  0.00000000000E+00 0.  1.
          1   -1    0    0  501    0  0.00000000000E+00 -0.00000000000E+00 -0.87814559811E+03  0.87814559811E+03  0.00000000000E+00 0. -1.
         25    2    1    2    0    0  0.29923531552E+02  0.14111692075E+02 -0.55132608223E+03  0.56630607187E+03  0.12509020943E+03 0.  0.
          5    1    3    3  502    0  0.57919353413E+02  0.50097910005E+02 -0.24932573042E+03  0.26085483384E+03  0.41800000000E+01 0. -1.
         -5    1    3    3    0  502 -0.27995821861E+02 -0.35986217930E+02 -0.30200035181E+03  0.30545123803E+03  0.41800000000E+01 0. -1.
        -11    1    1    2    0    0 -0.40243099898E+02 -0.44723953335E+02 -0.13095759699E+03  0.14411672804E+03  0.00000000000E+00 0.  1.
         11    1    1    2    0    0  0.10319568347E+02  0.30612261260E+02 -0.18035719916E+03  0.18322751791E+03  0.00000000000E+00 0. -1.
</event>
<event>
 7    1  0.2670433E-009  0.8145256E+02  0.7561462E-02  0.1324979E+00
         -1   -1    0    0    0  501 -0.00000000000E+00  0.00000000000E+00  0.11539731888E+03  0.11539731888E+03  0.00000000000E+00 0.  1.
          1   -1    0    0  501    0  0.00000000000E+00 -0.00000000000E+00 -0.13518552473E+03  0.13518552473E+03  0.00000000000E+00 0. -1.
         25    2    1    2    0    0  0.35633214615E+02 -0.35617706980E+02  0.24997766815E+02  0.13715119634E+03  0.12508882954E+03 0.  0.
          5    1    3    3  502    0  0.11113376389E+02  0.12465593852E+02 -0.45278755723E+02  0.48441059904E+02  0.41800000000E+01 0. -1.
         -5    1    3    3    0  502  0.24519838226E+02 -0.48083300832E+02  0.70276522538E+02  0.88710136431E+02  0.41800000000E+01 0. -1.
        -11    1    1    2    0    0 -0.43112276603E+02 -0.10875505632E+02 -0.48983732767E+02  0.66153995287E+02  0.00000000000E+00 0. -1.
         11    1    1    2    0    0  0.74790619879E+01  0.46493212612E+02  0.41977601062E+01  0.47277651984E+02  0.00000000000E+00 0.  1.
</event>
<event>
 7    1  0.2670433E-009  0.1157812E+03  0.7561462E-02  0.1250224E+00
          1   -1    0    0  501    0  0.00000000000E+00  0.00000000000E+00  0.22882751890E+03  0.22882751890E+03  0.00000000000E+00 0. -1.
         -1   -1    0    0    0  501 -0.00000000000E+00 -0.00000000000E+00 -0.66113500092E+02  0.66113500092E+02  0.00000000000E+00 0.  1.
         25    2    1    2    0    0  0.46376518355E+02  0.17288296230E+02  0.53077807908E+02  0.14461789999E+03  0.12508963452E+03 0.  0.
          5    1    3    3  502    0 -0.15591948033E+02 -0.44166682608E+02  0.15591608252E+02  0.49541652616E+02  0.41800000000E+01 0.  1.
         -5    1    3    3    0  502  0.61968466388E+02  0.61454978838E+02  0.37486199655E+02  0.95076247376E+02  0.41800000000E+01 0.  1.
        -11    1    1    2    0    0  0.18382794291E+02  0.15981333758E+02  0.86918576993E+01  0.25862686343E+02  0.00000000000E+00 0.  1.
         11    1    1    2    0    0 -0.64759312646E+02 -0.33269629988E+02  0.10094435320E+03  0.12446043266E+03  0.00000000000E+00 0. -1.
</event>
<event>
 7    1  0.2670433E-009  0.1777664E+03  0.7561462E-02  0.1169982E+00
          2   -1    0    0  501    0  0.00000000000E+00  0.00000000000E+00  0.51162740396E+03  0.51162740396E+03  0.00000000000E+00 0. -1.
         -2   -1    0    0    0  501 -0.00000000000E+00 -0.00000000000E+00 -0.92113879454E+02  0.92113879454E+02  0.00000000000E+00 0.  1.
         25    2    1    2    0    0 -0.19512686728E+02 -0.15800476639E+03  0.80432476046E+02  0.21786023092E+03  0.12508975125E+03 0.  0.
          5    1    3    3  502    0  0.11720933274E+02 -0.13219031755E+03  0.58804041587E+01  0.13290489789E+03  0.41800000000E+01 0.  1.
         -5    1    3    3    0  502 -0.31233620002E+02 -0.25814448848E+02  0.74552071887E+02  0.84955333031E+02  0.41800000000E+01 0.  1.
        -11    1    1    2    0    0  0.20797290721E+02  0.16934112814E+03  0.29948426623E+03  0.34467342616E+03  0.00000000000E+00 0.  1.
         11    1    1    2    0    0 -0.12846039925E+01 -0.11336361748E+02  0.39596782224E+02  0.41207626328E+02  0.00000000000E+00 0. -1.
</event>
<event>
 7    1  0.2670433E-009  0.8532075E+02  0.7561462E-02  0.1314596E+00
          2   -1    0    0  501    0  0.00000000000E+00  0.00000000000E+00  0.80286394172E+02  0.80286394172E+02  0.00000000000E+00 0. -1.
         -2   -1    0    0    0  501 -0.00000000000E+00 -0.00000000000E+00 -0.15605157826E+03  0.15605157826E+03  0.00000000000E+00 0.  1.
         25    2    1    2    0    0 -0.86261170779E+01  0.26049924666E+02 -0.47649903718E+02  0.13664463222E+03  0.12509290036E+03 0.  0.
          5    1    3    3  502    0  0.46739000698E+02  0.30715519589E+01  0.15461084968E+02  0.49502385458E+02  0.41800000000E+01 0. -1.
         -5    1    3    3    0  502 -0.55365117776E+02  0.22978372707E+02 -0.63110988686E+02  0.87142246766E+02  0.41800000000E+01 0. -1.
        -11    1    1    2    0    0  0.32106604589E+02 -0.23743574870E+02  0.21064070595E+02  0.45147386146E+02  0.00000000000E+00 0. -1.
         11    1    1    2    0    0 -0.23480487511E+02 -0.23063497965E+01 -0.49179350968E+02  0.54545954064E+02  0.00000000000E+00 0.  1.
</event>
<event>
 7    1  0.2670433E-009  0.1022551E+03  0.7561462E-02  0.1275624E+00
         -1   -1    0    0    0  501 -0.00000000000E+00  0.00000000000E+00  0.29803407808E+02  0.29803407808E+02  0.00000000000E+00 0.  1.
          1   -1    0    0  501    0  0.00000000000E+00 -0.00000000000E+00 -0.10582050746E+04  0.10582050746E+04  0.00000000000E+00 0. -1.
         25    2    1    2    0    0 -0.50384615296E+02  0.16706746710E+02 -0.82946530213E+03  0.84052199999E+03  0.12508725033E+03 0.  0.
          5    1    3    3  502    0  0.31869040731E+02  0.73107282979E+01 -0.80558416892E+02  0.87041446665E+02  0.41800000000E+01 0. -1.
         -5    1    3    3    0  502 -0.82253656027E+02  0.93960184121E+01 -0.74890688524E+03  0.75348055333E+03  0.41800000000E+01 0. -1.
        -11    1    1    2    0    0  0.65808609216E+02 -0.25871967503E+02 -0.21316525408E+03  0.22458752703E+03  0.00000000000E+00 0. -1.
         11    1    1    2    0    0 -0.15423993920E+02  0.91652207930E+01  0.14228889458E+02  0.22898955344E+02  0.00000000000E+00 0.  1.
</event>
<event>
 7    1  0.2670433E-009  0.5656736E+02  0.7561462E-02  0.1412829E+00
         -1   -1    0    0    0  501 -0.00000000000E+00  0.00000000000E+00  0.21730872074E+03  0.21730872074E+03  0.00000000000E+00 0.  1.
          1   -1    0    0  501    0  0.00000000000E+00 -0.00000000000E+00 -0.61354471061E+02  0.61354471061E+02  0.00000000000E+00 0. -1.
         25    2    1    2    0    0  0.37549511286E+02  0.16355014430E+02  0.93144852954E+02  0.16124924583E+03  0.12509157987E+03 0.  0.
          5    1    3    3  502    0  0.38155154379E+02 -0.19914153187E+01 -0.22194859084E+02  0.44383169224E+02  0.41800000000E+01 0.  1.
         -5    1    3    3    0  502 -0.60564309314E+00  0.18346429748E+02  0.11533971204E+03  0.11686607661E+03  0.41800000000E+01 0.  1.
        -11    1    1    2    0    0 -0.39633408638E+01  0.11547620084E+02 -0.20210317253E+02  0.23611703112E+02  0.00000000000E+00 0. -1.
         11    1    1    2    0    0 -0.33586170422E+02 -0.27902634513E+02  0.83019713981E+02  0.93802242861E+02  0.00000000000E+00 0.  1.
</event>
<event>
 7    1  0.2670433E-009  0.1132280E+03  0.7561462E-02  0.1254706E+00
          2   -1    0    0  501    0  0.00000000000E+00  0.00000000000E+00  0.45230597248E+02  0.45230597248E+02  0.00000000000E+00 0. -1.
         -2   -1    0    0    0  501 -0.00000000000E+00 -0.00000000000E+00 -0.40072630887E+03  0.40072630887E+03  0.00000000000E+00 0.  1.
         25    2    1    2    0    0  0.45917021678E+02 -0.22877302693E+02 -0.29624477927E+03  0.32563574787E+03  0.12508368074E+03 0.  0.
          5    1    3    3  502    0  0.36715897952E+02  0.44327856358E+02 -0.19753837865E+03  0.20579577122E+03  0.41800000000E+01 0. -1.
         -5    1    3    3    0  502  0.92011237257E+01 -0.67205159050E+02 -0.98706400621E+02  0.11983997665E+03  0.41800000000E+01 0. -1.
        -11    1    1    2    0    0  0.25643004828E+02 -0.45342808736E-01 -0.30547507956E+02  0.39883781101E+02  0.00000000000E+00 0.  1.
         11    1    1    2    0    0 -0.71560026506E+02  0.22922645502E+02 -0.28703424398E+02  0.80437377149E+02  0.00000000000E+00 0. -1.
</event>
<event>
 7    1  0.2670433E-009  0.9207045E+02  0.7561462E-02  0.1297914E+00
         -2   -1    0    0    0  501 -0.00000000000E+00  0.00000000000E+00  0.22858401659E+02  0.22858401659E+02  0.00000000000E+00 0.  1.
          2   -1    0    0  501    0  0.00000000000E+00 -0.00000000000E+00 -0.10481100747E+04  0.10481100747E+04  0.00000000000E+00 0. -1.
         25    2    1    2    0    0  0.32948169054E+02 -0.34654940622E+02 -0.89044206324E+03  0.90045453528E+03  0.12507899649E+03 0.  0.
          5    1    3    3  502    0  0.66802109109E+02 -0.67540578607E+01 -0.75571470260E+03  0.75870305338E+03  0.41800000000E+01 0. -1.
         -5    1    3    3    0  502 -0.33853940055E+02 -0.27900882761E+02 -0.13472736064E+03  0.14175148190E+03  0.41800000000E+01 0. -1.
        -11    1    1    2    0    0 -0.10417434529E+02 -0.15005634543E+02  0.62288435391E+01  0.19300013006E+02  0.00000000000E+00 0.  1.
         11    1    1    2    0    0 -0.22530734525E+02  0.49660575165E+02 -0.14103845337E+03  0.15121392811E+03  0.00000000000E+00 0. -1.
</event>
<event>
 7    1  0.2670433E-009  0.1328734E+03  0.7561462E-02  0.1223253E+00
         -1   -1    0    0    0  501 -0.00000000000E+00  0.00000000000E+00  0.13628630569E+03  0.13628630569E+03  0.00000000000E+00 0.  1.
          1   -1    0    0  501    0  0.00000000000E+00 -0.00000000000E+00 -0.16896273101E+03  0.16896273101E+03  0.00000000000E+00 0. -1.
         25    2    1    2    0    0 -0.69737106555E+02 -0.74984103337E+02 -0.42855976572E+02  0.16724300473E+03  0.12509079949E+03 0.  0.
          5    1    3    3  502    0 -0.10195470205E+03 -0.71636888388E+02 -0.17504405526E+02  0.12589869603E+03  0.41800000000E+01 0. -1.
         -5    1    3    3    0  502  0.32217595495E+02 -0.33472149486E+01 -0.25351571047E+02  0.41344308701E+02  0.41800000000E+01 0. -1.
        -11    1    1    2    0    0  0.43756490911E+02  0.21072878950E+02  0.47128119345E+02  0.67673897162E+02  0.00000000000E+00 0.  1.
         11    1    1    2    0    0  0.25980615644E+02  0.53911224386E+02 -0.36948568089E+02  0.70332134817E+02  0.00000000000E+00 0. -1.
</event>
<event>
 7    1  0.2670433E-009  0.2458192E+03  0.7561462E-02  0.1115976E+00
          2   -1    0    0  501    0  0.00000000000E+00  0.00000000000E+00  0.19126715028E+04  0.19126715028E+04  0.00000000000E+00 0. -1.
         -2   -1    0    0    0  501 -0.00000000000E+00 -0.00000000000E+00 -0.36904429468E+02  0.36904429468E+02  0.00000000000E+00 0.  1.
         25    2    1    2    0    0 -0.21553153873E+03 -0.10600213819E+03  0.84393466928E+03  0.88631877858E+03  0.12507978960E+03 0.  0.
          5    1    3    3  502    0 -0.21842788978E+03 -0.94090948263E+02  0.65351143809E+03  0.69545562166E+03  0.41800000000E+01 0. -1.
         -5    1    3    3    0  502  0.28963510525E+01 -0.11911189925E+02  0.19042323118E+03  0.19086315692E+03  0.41800000000E+01 0. -1.
        -11    1    1    2    0    0  0.97176304442E+02  0.57479679261E+02  0.67077326637E+03  0.68020873455E+03  0.00000000000E+00 0. -1.
         11    1    1    2    0    0  0.11835523429E+03  0.48522458927E+02  0.36105913770E+03  0.38304841916E+03  0.00000000000E+00 0.  1.
</event>
<event>
 7    1  0.2670433E-009  0.1565276E+03  0.7561462E-02  0.1192674E+00
          1   -1    0    0  501    0  0.00000000000E+00  0.00000000000E+00  0.83448540819E+03  0.83448540819E+03  0.00000000000E+00 0. -1.
         -1   -1    0    0    0  501 -0.00000000000E+00 -0.00000000000E+00 -0.33485752987E+02  0.33485752987E+02  0.00000000000E+00 0.  1.
         25    2    1    2    0    0 -0.11287006177E+03  0.10457229898E+02  0.57148224787E+03  0.59589334261E+03  0.12509161297E+03 0.  0.
          5    1    3    3  502    0 -0.12553046279E+03  0.43614474579E+02  0.44116921698E+03  0.46076878138E+03  0.41800000000E+01 0. -1.
         -5    1    3    3    0  502  0.12660401021E+02 -0.33157244681E+02  0.13031303089E+03  0.13512456123E+03  0.41800000000E+01 0. -1.
        -11    1    1    2    0    0  0.68361274786E+02  0.38287159006E+02  0.10342716055E+03  0.12975495356E+03  0.00000000000E+00 0.  1.
         11    1    1    2    0    0  0.44508786984E+02 -0.48744388904E+02  0.12609024679E+03  0.14232286501E+03  0.00000000000E+00 0. -1.
</event>
<event>
 7    1  0.2670433E-009  0.1728353E+03  0.7561462E-02  0.1174923E+00
          1   -1    0    0  501    0  0.00000000000E+00  0.00000000000E+00  0.10523960295E+03  0.10523960295E+03  0.00000000000E+00 0. -1.
         -1   -1    0    0    0  501 -0.00000000000E+00 -0.00000000000E+00 -0.37046236248E+03  0.37046236248E+03  0.00000000000E+00 0.  1.
         25    2    1    2    0    0  0.12848911812E+03 -0.73655482474E+02 -0.53127201101E+02  0.20100878538E+03  0.12508976268E+03 0.  0.
          5    1    3    3  502    0 -0.23395079370E+02 -0.81094940008E+00 -0.15416244385E+02  0.28339378409E+02  0.41800000000E+01 0. -1.
         -5    1    3    3    0  502  0.15188419749E+03 -0.72844533073E+02 -0.37710956716E+02  0.17266940697E+03  0.41800000000E+01 0. -1.
        -11    1    1    2    0    0 -0.83478066666E+02  0.68690124212E+02 -0.20075283180E+03  0.22801013191E+03  0.00000000000E+00 0.  1.
         11    1    1    2    0    0 -0.45011051458E+02  0.49653582612E+01 -0.11342726633E+02  0.46683048139E+02  0.00000000000E+00 0. -1.
</event>
<event>
 7    1  0.2670433E-009  0.9452744E+02  0.7561462E-02  0.1292244E+00
          3   -1    0    0  501    0  0.00000000000E+00  0.00000000000E+00  0.71375328748E+02  0.71375328748E+02  0.00000000000E+00 0. -1.
         -3   -1    0    0    0  501 -0.00000000000E+00 -0.00000000000E+00 -0.27464970061E+03  0.27464970061E+03  0.00000000000E+00 0.  1.
         25    2    1    2    0    0  0.51088429943E+02 -0.87753417934E+01 -0.23772789505E+02  0.13747599174E+03  0.12508984166E+03 0.  0.
          5    1    3    3  502    0  0.39035599674E+00  0.22866191343E+02 -0.62132372120E+02  0.66339423796E+02  0.41800000000E+01 0.  1.
         -5    1    3    3    0  502  0.50698073947E+02 -0.31641533136E+02  0.38359582615E+02  0.71136567948E+02  0.41800000000E+01 0.  1.
        -11    1    1    2    0    0 -0.60348969694E+02  0.40612598413E+02 -0.11622652175E+03  0.13711303969E+03  0.00000000000E+00 0. -1.
         11    1    1    2    0    0  0.92605397510E+01 -0.31837256619E+02 -0.63275060609E+02  0.71435997932E+02  0.00000000000E+00 0.  1.
</event>
<event>
 7    1  0.2670433E-009  0.1221736E+03  0.7561462E-02  0.1239554E+00
         -2   -1    0    0    0  501 -0.00000000000E+00  0.00000000000E+00  0.46957567567E+02  0.46957567567E+02  0.00000000000E+00 0.  1.
          2   -1    0    0  501    0  0.00000000000E+00 -0.00000000000E+00 -0.60032783897E+03  0.60032783897E+03  0.00000000000E+00 0. -1.
         25    2    1    2    0    0  0.10847046584E+03 -0.16007952947E+02 -0.42062279273E+03  0.45231810896E+03  0.12508413734E+03 0.  0.
          5    1    3    3  502    0  0.64123396339E+02  0.25896916052E+02 -0.35853899053E+03  0.36517138490E+03  0.41800000000E+01 0.  1.
         -5    1    3    3    0  502  0.44347069505E+02 -0.41904868999E+02 -0.62083802197E+02  0.87146724062E+02  0.41800000000E+01 0.  1.
        -11    1    1    2    0    0 -0.98455381823E+02  0.43662344354E+01 -0.14500022828E+03  0.17532139748E+03  0.00000000000E+00 0. -1.
         11    1    1    2    0    0 -0.10015084021E+02  0.11641718512E+02  0.12252749602E+02  0.19645900098E+02  0.00000000000E+00 0.  1.
</event>
<event>
 7    1  0.2670433E-009  0.9117032E+02  0.7561462E-02  0.1300042E+00
         -1   -1    0    0    0  501 -0.00000000000E+00  0.00000000000E+00  0.27700865813E+02  0.27700865813E+02  0.00000000000E+00 0.  1.
          1   -1    0    0  501    0  0.00000000000E+00 -0.00000000000E+00 -0.54267007501E+03  0.54267007501E+03  0.00000000000E+00 0. -1.
         25    2    1    2    0    0  0.62210327565E+02 -0.48728008000E+01 -0.44160801121E+03  0.46320532717E+03  0.12509064919E+03 0.  0.
          5    1    3    3  502    0  0.81272360612E+02 -0.15351526826E+02 -0.15494704467E+03  0.17568985465E+03  0.41800000000E+01 0. -1.
         -5    1    3    3    0  502 -0.19062033047E+02  0.10478726026E+02 -0.28666096654E+03  0.28751547252E+03  0.41800000000E+01 0. -1.
        -11    1    1    2    0    0 -0.83587211399E+01 -0.17240671725E+02 -0.12127920453E+02  0.22675877825E+02  0.00000000000E+00 0.  1.
         11    1    1    2    0    0 -0.53851606425E+02  0.22113472525E+02 -0.61233277531E+02  0.84489735820E+02  0.00000000000E+00 0. -1.
</event>
<event>
 7    1  0.2670433E-009  0.9377638E+02  0.7561462E-02  0.1293956E+00
         -1   -1    0    0    0  501 -0.00000000000E+00  0.00000000000E+00  0.36085648235E+03  0.36085648235E+03  0.00000000000E+00 0.  1.
          1   -1    0    0  501    0  0.00000000000E+00 -0.00000000000E+00 -0.61066046467E+02  0.61066046467E+02  0.00000000000E+00 0. -1.
         25    2    1    2    0    0  0.10389454007E+02  0.65245676034E+02  0.55347736709E+02  0.15191796209E+03  0.12510298259E+03 0.  0.
          5    1    3    3  502    0  0.32305890646E+01  0.81558895001E+02 -0.11568846976E+02  0.82544537553E+02  0.41800000000E+01 0. -1.
         -5    1    3    3    0  502  0.71588649420E+01 -0.16313218966E+02  0.66916583685E+02  0.69373424540E+02  0.41800000000E+01 0. -1.
        -11    1    1    2    0    0 -0.17061815913E+02 -0.74324233900E+02  0.24695525750E+03  0.25846101546E+03  0.00000000000E+00 0.  1.
         11    1    1    2    0    0  0.66723619062E+01  0.90785578657E+01 -0.25125583288E+01  0.11543551260E+02  0.00000000000E+00 0. -1.
</event>
<event>
 7    1  0.2670433E-009  0.2145064E+03  0.7561462E-02  0.1138046E+00
         -1   -1    0    0    0  501 -0.00000000000E+00  0.00000000000E+00  0.20653477266E+03  0.20653477266E+03  0.00000000000E+00 0.  1.
          1   -1    0    0  501    0  0.00000000000E+00 -0.00000000000E+00 -0.28411200947E+03  0.28411200947E+03  0.00000000000E+00 0. -1.
         25    2    1    2    0    0  0.19051225519E+03 -0.22264929188E+02  0.61324573843E+02  0.23706031515E+03  0.12508494398E+03 0.  0.
          5    1    3    3  502    0  0.13105067381E+03  0.45449552866E+02  0.38059664662E+02  0.14389562689E+03  0.41800000000E+01 0. -1.
         -5    1    3    3    0  502  0.59461581376E+02 -0.67714482054E+02  0.23264909181E+02  0.93164688261E+02  0.41800000000E+01 0. -1.
        -11    1    1    2    0    0 -0.12120312074E+03  0.41481027560E+02 -0.46036222335E+02  0.13612569886E+03  0.00000000000E+00 0.  1.
         11    1    1    2    0    0 -0.69309134453E+02 -0.19216098371E+02 -0.92865588310E+02  0.11746076812E+03  0.00000000000E+00 0. -1.
</event>
<event>
 7    1  0.2670433E-009  0.3305063E+03  0.7561462E-02  0.1070913E+00
          1   -1    0    0  501    0  0.00000000000E+00  0.00000000000E+00  0.60629831957E+03  0.60629831957E+03  0.00000000000E+00 0. -1.
         -1   -1    0    0    0  501 -0.00000000000E+00 -0.00000000000E+00 -0.21697596487E+03  0.21697596487E+03  0.00000000000E+00 0.  1.
         25    2    1    2    0    0  0.31460640044E+03 -0.57418388227E+01  0.34877073503E+02  0.34040140687E+03  0.12508617680E+03 0.  0.
          5    1    3    3  502    0  0.32333411471E+03 -0.47925714956E+01  0.21834118428E+02  0.32413287338E+03  0.41800000000E+01 0. -1.
         -5    1    3    3    0  502 -0.87277142654E+01 -0.94926732702E+00  0.13042955075E+02  0.16268533488E+02  0.41800000000E+01 0. -1.
        -11    1    1    2    0    0 -0.96894144195E+02  0.44723708512E+02  0.11218559516E+03  0.15483634277E+03  0.00000000000E+00 0. -1.
         11    1    1    2    0    0 -0.21771225625E+03 -0.38981869689E+02  0.24225968604E+03  0.32803653480E+03  0.00000000000E+00 0.  1.
</event>
<event>
 7    1  0.2670433E-009  0.6481475E+02  0.7561462E-02  0.1378670E+00
         -4   -1    0    0    0  501 -0.00000000000E+00  0.00000000000E+00  0.13483568295E+03  0.13483568295E+03  0.00000000000E+00 0.  1.
          4   -1    0    0  501    0  0.00000000000E+00 -0.00000000000E+00 -0.17489581591E+03  0.17489581591E+03  0.00000000000E+00 0. -1.
         25    2    1    2    0    0 -0.17653642032E+02 -0.53889538206E+01 -0.12879445133E+03  0.18048830810E+03  0.12508927519E+03 0.  0.
          5    1    3    3  502    0 -0.12659025891E+02  0.12879482306E+02  0.21819749955E+02  0.28630506266E+02  0.41800000000E+01 0.  1.
         -5    1    3    3    0  502 -0.49946161409E+01 -0.18268436126E+02 -0.15061420128E+03  0.15185780183E+03  0.41800000000E+01 0.  1.
        -11    1    1    2    0    0  0.52479428368E+02 -0.10334771560E+02  0.37475541528E+02  0.65309372358E+02  0.00000000000E+00 0.  1.
         11    1    1    2    0    0 -0.34825786335E+02  0.15723725380E+02  0.51258776840E+02  0.63933818413E+02  0.00000000000E+00 0. -1.
</event>
<event>
 7    1  0.2840326E-009  0.1285420E+03  0.7561462E-02  0.1229635E+00
          2   -1    0    0  501    0  0.00000000000E+00  0.00000000000E+00  0.41040411553E+03  0.41040411553E+03  0.00000000000E+00 0. -1.
         -2   -1    0    0    0  501 -0.00000000000E+00 -0.00000000000E+00 -0.52141443225E+02  0.52141443225E+02  0.00000000000E+00 0.  1.
         25    2    1    2    0    0 -0.35445323641E+01 -0.88072948622E+02  0.12660935202E+03  0.19861107474E+03  0.12508806099E+03 0.  0.
          5    1    3    3  502    0  0.94408393584E+00  0.31156740406E+02  0.41136397604E+02  0.51781361270E+02  0.41800000000E+01 0. -1.
         -5    1    3    3    0  502 -0.44886163000E+01 -0.11922968903E+03  0.85472954413E+02  0.14682971347E+03  0.41800000000E+01 0. -1.
        -11    1    1    2    0    0 -0.17965544832E+02  0.81929772509E+02  0.10057142617E+03  0.13095747473E+03  0.00000000000E+00 0.  1.
         11    1    1    2    0    0  0.21510077196E+02  0.61431761124E+01  0.13108189411E+03  0.13297700929E+03  0.00000000000E+00 0. -1.
</event>
<event>
 7    1  0.2670433E-009  0.1154762E+03  0.7561462E-02  0.1250752E+00
          1   -1    0    0  501    0  0.00000000000E+00  0.00000000000E+00  0.44991798088E+02  0.44991798088E+02  0.00000000000E+00 0. -1.
         -1   -1    0    0    0  501 -0.00000000000E+00 -0.00000000000E+00 -0.48203756041E+03  0.48203756041E+03  0.00000000000E+00 0.  1.
         25    2    1    2    0    0  0.56839244186E+02  0.81303122475E+02 -0.22666085855E+03  0.27724214384E+03  0.12508862507E+03 0.  0.
          5    1    3    3  502    0  0.44139441484E+02  0.99630589842E+02 -0.98058955867E+02  0.14665461449E+03  0.41800000000E+01 0. -1.
         -5    1    3    3    0  502  0.12699802702E+02 -0.18327467368E+02 -0.12860190268E+03  0.13058752935E+03  0.41800000000E+01 0. -1.
        -11    1    1    2    0    0 -0.21566349650E+02 -0.29413191997E+02 -0.72540075702E+01  0.37186878419E+02  0.00000000000E+00 0. -1.
         11    1    1    2    0    0 -0.35272894536E+02 -0.51889930477E+02 -0.20313089620E+03  0.21260033623E+03  0.00000000000E+00 0.  1.
</event>
<event>
 7    1  0.2670433E-009  0.2263336E+03  0.7561462E-02  0.1129247E+00
         -1   -1    0    0    0  501 -0.00000000000E+00  0.00000000000E+00  0.42981746506E+02  0.42981746506E+02  0.00000000000E+00 0.  1.
          1   -1    0    0  501    0  0.00000000000E+00 -0.00000000000E+00 -0.19592022738E+04  0.19592022738E+04  0.00000000000E+00 0. -1.
         25    2    1    2    0    0  0.20530824948E+03  0.72764368340E+02 -0.15191251976E+04  0.15397517391E+04  0.12509165180E+03 0.  0.
          5    1    3    3  502    0  0.14922831080E+03  0.87765276814E+02 -0.81337957818E+03  0.83161027119E+03  0.41800000000E+01 0. -1.
         -5    1    3    3    0  502  0.56079938674E+02 -0.15000908474E+02 -0.70574561944E+03  0.70814146788E+03  0.41800000000E+01 0. -1.
        -11    1    1    2    0    0 -0.74834248483E+02 -0.69461793198E+01 -0.22194497241E+03  0.23432452908E+03  0.00000000000E+00 0. -1.
         11    1    1    2    0    0 -0.13047400100E+03 -0.65818189021E+02 -0.17515035731E+03  0.22810775219E+03  0.00000000000E+00 0.  1.
</event>
<event>
 7    1  0.4249862E-009  0.2320364E+03  0.7561462E-02  0.1125215E+00
          2   -1    0    0  501    0  0.00000000000E+00  0.00000000000E+00  0.85980398019E+03  0.85980398019E+03  0.00000000000E+00 0.  1.
         -2   -1    0    0    0  501 -0.00000000000E+00 -0.00000000000E+00 -0.68078901351E+02  0.68078901351E+02  0.00000000000E+00 0. -1.
         25    2    1    2    0    0 -0.19107910811E+03  0.10039021002E+03  0.41672061116E+03  0.48568911593E+03  0.12509368388E+03 0.  0.
          5    1    3    3  502    0 -0.20539013505E+03  0.83615249719E+02  0.40111856269E+03  0.45835596570E+03  0.41800000000E+01 0. -1.
         -5    1    3    3    0  502  0.14311026940E+02  0.16774960298E+02  0.15602048473E+02  0.27333150233E+02  0.41800000000E+01 0. -1.
        -11    1    1    2    0    0  0.82228422484E+02 -0.20313968802E+02  0.74894150574E+02  0.11306327690E+03  0.00000000000E+00 0. -1.
         11    1    1    2    0    0  0.10885068562E+03 -0.80076241215E+02  0.30011031711E+03  0.32913048871E+03  0.00000000000E+00 0.  1.
</event>
<event>
 7    1  0.2670433E-009  0.7724845E+02  0.7561462E-02  0.1337046E+00
          1   -1    0    0  501    0  0.00000000000E+00  0.00000000000E+00  0.61202213554E+02  0.61202213554E+02  0.00000000000E+00 0. -1.
         -1   -1    0    0    0  501 -0.00000000000E+00 -0.00000000000E+00 -0.23955627347E+03  0.23955627347E+03  0.00000000000E+00 0.  1.
         25    2    1    2    0    0 -0.51750428946E+02  0.16210493903E+02 -0.11016963511E+03  0.17528934384E+03  0.12509244003E+03 0.  0.
          5    1    3    3  502    0  0.34950052135E+01  0.26365045740E+02  0.19945576379E+02  0.33505657961E+02  0.41800000000E+01 0. -1.
         -5    1    3    3    0  502 -0.55245434160E+02 -0.10154551836E+02 -0.13011521149E+03  0.14178368588E+03  0.41800000000E+01 0. -1.
        -11    1    1    2    0    0  0.28533694799E+02  0.15089486915E+02 -0.78736002640E+02  0.85095372764E+02  0.00000000000E+00 0.  1.
         11    1    1    2    0    0  0.23216734147E+02 -0.31299980818E+02  0.10551577833E+02  0.40373770427E+02  0.00000000000E+00 0. -1.
</event>
<event>
 7    1  0.2670433E-009  0.1215220E+03  0.7561462E-02  0.1240607E+00
         -2   -1    0    0    0  501 -0.00000000000E+00  0.00000000000E+00  0.16847501462E+02  0.16847501462E+02  0.00000000000E+00 0.  1.
          2   -1    0    0  501    0  0.00000000000E+00 -0.00000000000E+00 -0.95554609001E+03  0.95554609001E+03  0.00000000000E+00 0. -1.
         25    2    1    2    0    0  0.20606494508E+02  0.53061212226E+02 -0.40352737403E+03  0.42628751433E+03  0.12508630392E+03 0.  0.
          5    1    3    3  502    0 -0.17211733506E+02 -0.35009566035E+02 -0.15491446865E+03  0.15980575235E+03  0.41800000000E+01 0.  1.
         -5    1    3    3    0  502  0.37818228014E+02  0.88070778261E+02 -0.24861290537E+03  0.26648176199E+03  0.41800000000E+01 0.  1.
        -11    1    1    2    0    0  0.36434102259E+02 -0.25843884797E+02 -0.25622874829E+03  0.26009329411E+03  0.00000000000E+00 0. -1.
         11    1    1    2    0    0 -0.57040596767E+02 -0.27217327429E+02 -0.27894246623E+03  0.28601278304E+03  0.00000000000E+00 0.  1.
</event>
<event>
 7    1  0.2670433E-009  0.7918558E+02  0.7561462E-02  0.1331379E+00
         -2   -1    0    0    0  501 -0.00000000000E+00  0.00000000000E+00  0.83498970983E+02  0.83498970983E+02  0.00000000000E+00 0.  1.
          2   -1    0    0  501    0  0.00000000000E+00 -0.00000000000E+00 -0.14127037272E+03  0.14127037272E+03  0.00000000000E+00 0. -1.
         25    2    1    2    0    0  0.51646965271E+01 -0.90849759280E+01 -0.47270560756E+02  0.13413176089E+03  0.12509041724E+03 0.  0.
          5    1    3    3  502    0  0.59964367021E+02 -0.24022003857E+02 -0.41488192665E+02  0.76886439065E+02  0.41800000000E+01 0.  1.
         -5    1    3    3    0  502 -0.54799670494E+02  0.14937027929E+02 -0.57823680912E+01  0.57245321820E+02  0.41800000000E+01 0.  1.
        -11    1    1    2    0    0 -0.10185293525E+02  0.21228782140E+02  0.35610235861E+02  0.42690634728E+02  0.00000000000E+00 0.  1.
         11    1    1    2    0    0  0.50205969979E+01 -0.12143806212E+02 -0.46111076842E+02  0.47946948090E+02  0.00000000000E+00 0. -1.
</event>
<event>
 7    1  0.2670433E-009  0.1823059E+03  0.7561462E-02  0.1165590E+00
          1   -1    0    0  501    0  0.00000000000E+00  0.00000000000E+00  0.35325710180E+03  0.35325710180E+03  0.00000000000E+00 0. -1.
         -1   -1    0    0    0  501 -0.00000000000E+00 -0.00000000000E+00 -0.13989345387E+03  0.13989345387E+03  0.00000000000E+00 0.  1.
         25    2    1    2    0    0 -0.16472048483E+03 -0.41200882954E+00  0.22359645329E+03  0.30458947587E+03  0.12508543886E+03 0.  0.
          5    1    3    3  502    0 -0.82575773636E+02  0.48649027250E+02  0.54705396280E+02  0.11043386721E+03  0.41800000000E+01 0.  1.
         -5    1    3    3    0  502 -0.82144711194E+02 -0.49061036079E+02  0.16889105701E+03  0.19415560867E+03  0.41800000000E+01 0.  1.
        -11    1    1    2    0    0  0.83922455102E+02 -0.26074066689E+02 -0.42498703898E+02  0.97616470214E+02  0.00000000000E+00 0.  1.
         11    1    1    2    0    0  0.80798029729E+02  0.26486075519E+02  0.32265898527E+02  0.90944609583E+02  0.00000000000E+00 0. -1.
</event>
<event>
 7    1  0.2670433E-009  0.2120054E+03  0.7561462E-02  0.1139988E+00
         -2   -1    0    0    0  501 -0.00000000000E+00  0.00000000000E+00  0.84718475854E+02  0.84718475854E+02  0.00000000000E+00 0.  1.
          2   -1    0    0  501    0  0.00000000000E+00 -0.00000000000E+00 -0.62366185017E+03  0.62366185017E+03  0.00000000000E+00 0. -1.
         25    2    1    2    0    0  0.19258006402E+03  0.62003534516E+02 -0.27210089871E+03  0.36141013107E+03  0.12508742708E+03 0.  0.
          5    1    3    3  502    0  0.10175593233E+03 -0.84261221800E+01 -0.55792745769E+02  0.11642839937E+03  0.41800000000E+01 0. -1.
         -5    1    3    3    0  502  0.90824131686E+02  0.70429656696E+02 -0.21630815294E+03  0.24498173170E+03  0.41800000000E+01 0. -1.
        -11    1    1    2    0    0 -0.26547947299E+02 -0.25509874431E+02 -0.10879133598E+03  0.11485252276E+03  0.00000000000E+00 0.  1.
         11    1    1    2    0    0 -0.16603211672E+03 -0.36493660085E+02 -0.15805113962E+03  0.23211767219E+03  0.00000000000E+00 0. -1.
</event>
<event>
 7    1  0.2670433E-009  0.8511547E+02  0.7561462E-02  0.1315131E+00
         -2   -1    0    0    0  501 -0.00000000000E+00  0.00000000000E+00  0.44371325170E+02  0.44371325170E+02  0.00000000000E+00 0.  1.
          2   -1    0    0  501    0  0.00000000000E+00 -0.00000000000E+00 -0.22039882185E+03  0.22039882185E+03  0.00000000000E+00 0. -1.
         25    2    1    2    0    0 -0.84214536036E+01 -0.15492312311E+02 -0.11410777149E+03  0.17023230676E+03  0.12509005608E+03 0.  0.
          5    1    3    3  502    0  0.11848875886E+02  0.52366209102E+02 -0.62512256611E+02  0.82509819671E+02  0.41800000000E+01 0. -1.
         -5    1    3    3    0  502 -0.20270329490E+02 -0.67858521414E+02 -0.51595514879E+02  0.87722487093E+02  0.41800000000E+01 0. -1.
        -11    1    1    2    0    0  0.28277814123E+01 -0.14576970447E+02 -0.62203654165E+02  0.63951380021E+02  0.00000000000E+00 0. -1.
         11    1    1    2    0    0  0.55936721913E+01  0.30069282758E+02  0.28392897398E+00  0.30586460237E+02  0.00000000000E+00 0.  1.
</event>
<event>
 7    1  0.2670433E-009  0.1061905E+03  0.7561462E-02  0.1267792E+00
          2   -1    0    0  501    0  0.00000000000E+00  0.00000000000E+00  0.49818013399E+03  0.49818013399E+03  0.00000000000E+00 0. -1.
         -2   -1    0    0    0  501 -0.00000000000E+00 -0.00000000000E+00 -0.27349088621E+02  0.27349088621E+02  0.00000000000E+00 0.  1.
         25    2    1    2    0    0 -0.33323128908E+02 -0.26062757671E+02  0.29693918503E+03  0.32497681127E+03  0.12508936805E+03 0.  0.
          5    1    3    3  502    0 -0.38126098778E+01 -0.64520326955E+02  0.81446951147E+02  0.10406001555E+03  0.41800000000E+01 0. -1.
         -5    1    3    3    0  502 -0.29510519030E+02  0.38457569284E+02  0.21549223389E+03  0.22091679573E+03  0.41800000000E+01 0. -1.
        -11    1    1    2    0    0 -0.47239940343E+00 -0.31877930069E+02  0.43657682717E+02  0.54059401097E+02  0.00000000000E+00 0.  1.
         11    1    1    2    0    0  0.33795528311E+02  0.57940687741E+02  0.13023417762E+03  0.14649301024E+03  0.00000000000E+00 0. -1.
</event>
<event>
 7    1  0.2670433E-009  0.1442338E+03  0.7561462E-02  0.1207743E+00
          2   -1    0    0  501    0  0.00000000000E+00  0.00000000000E+00  0.44803483511E+03  0.44803483511E+03  0.00000000000E+00 0. -1.
         -2   -1    0    0    0  501 -0.00000000000E+00 -0.00000000000E+00 -0.57727170222E+02  0.57727170222E+02  0.00000000000E+00 0.  1.
         25    2    1    2    0    0  0.11116229294E+03 -0.11230066738E+02  0.14547121701E+03  0.22202045958E+03  0.12509212495E+03 0.  0.
          5    1    3    3  502    0  0.39279800813E+02  0.55869774965E+02  0.70952459242E+02  0.98570068373E+02  0.41800000000E+01 0.  1.
         -5    1    3    3    0  502  0.71882492127E+02 -0.67099841704E+02  0.74518757766E+02  0.12345039121E+03  0.41800000000E+01 0.  1.
        -11    1    1    2    0    0 -0.42220441060E+02  0.28010141295E+02  0.18213977461E+03  0.18905562979E+03  0.00000000000E+00 0. -1.
         11    1    1    2    0    0 -0.68941851879E+02 -0.16780074557E+02  0.62696673273E+02  0.94685915965E+02  0.00000000000E+00 0.  1.
</event>
<event>
 7    1  0.2670433E-009  0.1459327E+03  0.7561462E-02  0.1205562E+00
          1   -1    0    0  501    0  0.00000000000E+00  0.00000000000E+00  0.24575737203E+03  0.24575737203E+03  0.00000000000E+00 0. -1.
         -1   -1    0    0    0  501 -0.00000000000E+00 -0.00000000000E+00 -0.12695099277E+03  0.12695099277E+03  0.00000000000E+00 0.  1.
         25    2    1    2    0    0  0.16948116124E+02  0.11732613186E+03  0.14202802794E+03  0.22332147144E+03  0.12509140270E+03 0.  0.
          5    1    3    3  502    0 -0.34940861207E+02  0.38299231875E+02  0.11290620275E+03  0.12431000750E+03  0.41800000000E+01 0.  1.
         -5    1    3    3    0  502  0.51888977331E+02  0.79026899990E+02  0.29121825181E+02  0.99011463944E+02  0.41800000000E+01 0.  1.
        -11    1    1    2    0    0 -0.28898453589E+02 -0.16659066329E+01  0.58501920405E+01  0.29531688263E+02  0.00000000000E+00 0.  1.
         11    1    1    2    0    0  0.11950337465E+02 -0.11566022523E+03 -0.29071840709E+02  0.11985520510E+03  0.00000000000E+00 0. -1.
</event>
<event>
 7    1  0.2670433E-009  0.2542219E+03  0.7561462E-02  0.1110665E+00
         -1   -1    0    0    0  501 -0.00000000000E+00  0.00000000000E+00  0.13259667439E+03  0.13259667439E+03  0.00000000000E+00 0.  1.
          1   -1    0    0  501    0  0.00000000000E+00 -0.00000000000E+00 -0.68431723045E+03  0.68431723045E+03  0.00000000000E+00 0. -1.
         25    2    1    2    0    0  0.16439257784E+03  0.17648858640E+03 -0.86424604312E+02  0.28511659954E+03  0.12509645209E+03 0.  0.
          5    1    3    3  502    0  0.12280822021E+02  0.87021385053E+02 -0.60321226765E+02  0.10667550255E+03  0.41800000000E+01 0.  1.
         -5    1    3    3    0  502  0.15211175582E+03  0.89467201344E+02 -0.26103377547E+02  0.17844109699E+03  0.41800000000E+01 0.  1.
        -11    1    1    2    0    0 -0.11495007352E+03 -0.97391524638E+02 -0.36477995620E+03  0.39466827200E+03  0.00000000000E+00 0. -1.
         11    1    1    2    0    0 -0.49442504326E+02 -0.79097061758E+02 -0.10051599554E+03  0.13712903330E+03  0.00000000000E+00 0.  1.
</event>
<event>
 7    1  0.2670433E-009  0.1035074E+03  0.7561462E-02  0.1273089E+00
          3   -1    0    0  501    0  0.00000000000E+00  0.00000000000E+00  0.22723575242E+03  0.22723575242E+03  0.00000000000E+00 0. -1.
         -3   -1    0    0    0  501 -0.00000000000E+00 -0.00000000000E+00 -0.62675808844E+02  0.62675808844E+02  0.00000000000E+00 0.  1.
         25    2    1    2    0    0  0.10455314083E+02  0.28629721502E+02  0.14106153136E+03  0.19098450119E+03  0.12509096498E+03 0.  0.
          5    1    3    3  502    0 -0.14613412743E+02  0.73174087896E+02  0.10233824502E+03  0.12672248327E+03  0.41800000000E+01 0.  1.
         -5    1    3    3    0  502  0.25068726827E+02 -0.44544366395E+02  0.38723286334E+02  0.64262017917E+02  0.41800000000E+01 0.  1.
        -11    1    1    2    0    0 -0.38945117387E+02 -0.34357504851E+02  0.39960203208E+02  0.65528452967E+02  0.00000000000E+00 0. -1.
         11    1    1    2    0    0  0.28489803303E+02  0.57277833488E+01 -0.16461790989E+02  0.33398607110E+02  0.00000000000E+00 0.  1.
</event>
<event>
 7    1  0.2670433E-009  0.9884233E+02  0.7561462E-02  0.1282749E+00
          2   -1    0    0  501    0  0.00000000000E+00  0.00000000000E+00  0.23271934574E+03  0.23271934574E+03  0.00000000000E+00 0. -1.
         -2   -1    0    0    0  501 -0.00000000000E+00 -0.00000000000E+00 -0.90270824610E+02  0.90270824610E+02  0.00000000000E+00 0.  1.
         25    2    1    2    0    0  0.12745579552E+02  0.31896749863E+02 -0.25455954839E+02  0.13219567421E+03  0.12509131942E+03 0.  0.
          5    1    3    3  502    0 -0.27090646805E+02 -0.26451057955E+02 -0.44820444963E+02  0.58820968182E+02  0.41800000000E+01 0. -1.
         -5    1    3    3    0  502  0.39836226357E+02  0.58347807818E+02  0.19364490123E+02  0.73374706032E+02  0.41800000000E+01 0. -1.
        -11    1    1    2    0    0 -0.58045619042E+01  0.27962470008E+02  0.72855439649E+02  0.78252845024E+02  0.00000000000E+00 0.  1.
         11    1    1    2    0    0 -0.69410176481E+01 -0.59859219871E+02  0.95049036322E+02  0.11254165111E+03  0.00000000000E+00 0. -1.
</event>
<event>
 7    1  0.2670433E-009  0.1022625E+03  0.7561462E-02  0.1275609E+00
          1   -1    0    0  501    0  0.00000000000E+00  0.00000000000E+00  0.29942999584E+02  0.29942999584E+02  0.00000000000E+00 0. -1.
         -1   -1    0    0    0  501 -0.00000000000E+00 -0.00000000000E+00 -0.49899764197E+03  0.49899764197E+03  0.00000000000E+00 0.  1.
         25    2    1    2    0    0  0.34373879919E+02  0.72583715414E+01 -0.37030482118E+03  0.39243726590E+03  0.12508836676E+03 0.  0.
          5    1    3    3  502    0 -0.29499098831E+02  0.30896775899E+02 -0.54643763045E+02  0.69485400139E+02  0.41800000000E+01 0.  1.
         -5    1    3    3    0  502  0.63872978751E+02 -0.23638404357E+02 -0.31566105813E+03  0.32295186576E+03  0.41800000000E+01 0.  1.
        -11    1    1    2    0    0 -0.19430186990E+02  0.39640438580E+02 -0.37479598118E+02  0.57910420586E+02  0.00000000000E+00 0.  1.
         11    1    1    2    0    0 -0.14943692929E+02 -0.46898810122E+02 -0.61270223086E+02  0.78592955067E+02  0.00000000000E+00 0. -1.
</event>
<event>
 7    1  0.2670433E-009  0.1204396E+03  0.7561462E-02  0.1242374E+00
          1   -1    0    0  501    0  0.00000000000E+00  0.00000000000E+00  0.10224872154E+03  0.10224872154E+03  0.00000000000E+00 0. -1.
         -1   -1    0    0    0  501 -0.00000000000E+00 -0.00000000000E+00 -0.16473846075E+03  0.16473846075E+03  0.00000000000E+00 0.  1.
         25    2    1    2    0    0  0.41169381585E+02 -0.39710349235E+02 -0.74946467152E+02  0.15664067172E+03  0.12508995676E+03 0.  0.
          5    1    3    3  502    0 -0.44762968648E+02 -0.18129136909E+02 -0.32054443456E+02  0.58114961176E+02  0.41800000000E+01 0.  1.
         -5    1    3    3    0  502  0.85932350233E+02 -0.21581212326E+02 -0.42892023695E+02  0.98525710547E+02  0.41800000000E+01 0.  1.
        -11    1    1    2    0    0 -0.52572838058E+02 -0.92963360869E+01  0.24295447580E+02  0.58656576266E+02  0.00000000000E+00 0.  1.
         11    1    1    2    0    0  0.11403456473E+02  0.49006685322E+02 -0.11838719641E+02  0.51689934306E+02  0.00000000000E+00 0. -1.
</event>
<event>
 7    1  0.2670433E-009  0.1164924E+03  0.7561462E-02  0.1248998E+00
          3   -1    0    0  501    0  0.00000000000E+00  0.00000000000E+00  0.42709965173E+02  0.42709965173E+02  0.00000000000E+00 0. -1.
         -3   -1    0    0    0  501 -0.00000000000E+00 -0.00000000000E+00 -0.38978389801E+03  0.38978389801E+03  0.00000000000E+00 0.  1.
         25    2    1    2    0    0  0.24844395285E+02  0.64355644156E+02 -0.21358437409E+03  0.25695301930E+03  0.12509067256E+03 0.  0.
          5    1    3    3  502    0  0.36895316368E+02  0.87102313289E+02 -0.89959110894E+02  0.13060701123E+03  0.41800000000E+01 0. -1.
         -5    1    3    3    0  502 -0.12050921083E+02 -0.22746669133E+02 -0.12362526319E+03  0.12634600807E+03  0.41800000000E+01 0. -1.
        -11    1    1    2    0    0  0.32832763609E+02 -0.33082211595E+02 -0.71013512610E+02  0.84943169610E+02  0.00000000000E+00 0. -1.
         11    1    1    2    0    0 -0.57677158894E+02 -0.31273432561E+02 -0.62476046144E+02  0.90597674274E+02  0.00000000000E+00 0.  1.
</event>
<event>
 7    1  0.2670433E-009  0.9352488E+02  0.7561462E-02  0.1294533E+00
          2   -1    0    0  501    0  0.00000000000E+00  0.00000000000E+00  0.11623997280E+03  0.11623997280E+03  0.00000000000E+00 0.  1.
         -2   -1    0    0    0  501 -0.00000000000E+00 -0.00000000000E+00 -0.10057012411E+03  0.10057012411E+03  0.00000000000E+00 0. -1.
         25    2    1    2    0    0  0.10226790094E+02 -0.23888599901E+02 -0.94838402848E+01  0.12811079986E+03  0.12508869403E+03 0.  0.
          5    1    3    3  502    0  0.66279433767E+02 -0.70213208373E+00  0.93702556171E+00  0.66421432888E+02  0.41800000000E+01 0. -1.
         -5    1    3    3    0  502 -0.56052643673E+02 -0.23186467817E+02 -0.10420865846E+02  0.61689366973E+02  0.41800000000E+01 0. -1.
        -11    1    1    2    0    0 -0.48371674945E+01  0.41311964294E+02  0.45316711148E+02  0.61511632172E+02  0.00000000000E+00 0.  1.
         11    1    1    2    0    0 -0.53896225999E+01 -0.17423364393E+02 -0.20163022168E+02  0.27187664878E+02  0.00000000000E+00 0. -1.
</event>
<event>
 7    1  0.2670433E-009  0.1010176E+03  0.7561462E-02  0.1278170E+00
         -2   -1    0    0    0  501 -0.00000000000E+00  0.00000000000E+00  0.27715611725E+02  0.27715611725E+02  0.00000000000E+00 0.  1.
          2   -1    0    0  501    0  0.00000000000E+00 -0.00000000000E+00 -0.45473465962E+03  0.45473465962E+03  0.00000000000E+00 0. -1.
         25    2    1    2    0    0  0.23511284632E+02 -0.79872696874E+01 -0.19977350807E+03  0.23701011940E+03  0.12509102760E+03 0.  0.
          5    1    3    3  502    0 -0.46323543123E+02  0.66558447282E+01 -0.38993740491E+02  0.61058620309E+02  0.41800000000E+01 0.  1.
         -5    1    3    3    0  502  0.69834827756E+02 -0.14643114416E+02 -0.16077976758E+03  0.17595149909E+03  0.41800000000E+01 0.  1.
        -11    1    1    2    0    0 -0.52132183913E+02  0.14722486238E+02 -0.19222986182E+03  0.19971688956E+03  0.00000000000E+00 0. -1.
         11    1    1    2    0    0  0.28620899280E+02 -0.67352165507E+01 -0.35015678006E+02  0.45723262392E+02  0.00000000000E+00 0.  1.
</event>
<event>
 7    1  0.2670433E-009  0.9002439E+02  0.7561462E-02  0.1302793E+00
          3   -1    0    0  501    0  0.00000000000E+00  0.00000000000E+00  0.80255551239E+02  0.80255551239E+02  0.00000000000E+00 0. -1.
         -3   -1    0    0    0  501 -0.00000000000E+00 -0.00000000000E+00 -0.16326702413E+03  0.16326702413E+03  0.00000000000E+00 0.  1.
         25    2    1    2    0    0 -0.12637296387E+02 -0.16234419926E+01 -0.87084496451E+02  0.15295132522E+03  0.12509221214E+03 0.  0.
          5    1    3    3  502    0  0.40885983589E+02 -0.33722101508E+02 -0.10709414431E+02  0.54231058828E+02  0.41800000000E+01 0. -1.
         -5    1    3    3    0  502 -0.53523279976E+02  0.32098659515E+02 -0.76375082020E+02  0.98720266387E+02  0.41800000000E+01 0. -1.
        -11    1    1    2    0    0  0.36480506257E+02 -0.99766299801E+01 -0.29375315674E+02  0.47888095112E+02  0.00000000000E+00 0.  1.
         11    1    1    2    0    0 -0.23843209870E+02  0.11600071973E+02  0.33448339235E+02  0.42683155041E+02  0.00000000000E+00 0. -1.
</event>
<event>
 7    1  0.2670433E-009  0.8723052E+02  0.7561462E-02  0.1309700E+00
          2   -1    0    0  501    0  0.00000000000E+00  0.00000000000E+00  0.10429837425E+03  0.10429837425E+03  0.00000000000E+00 0. -1.
         -2   -1    0    0    0  501 -0.00000000000E+00 -0.00000000000E+00 -0.24759651033E+03  0.24759651033E+03  0.00000000000E+00 0.  1.
         25    2    1    2    0    0  0.15318930937E+02  0.15173012774E+02 -0.20435254553E+03  0.24056850873E+03  0.12509338337E+03 0.  0.
          5    1    3    3  502    0 -0.16944859248E+02 -0.26508818111E+02 -0.17924796991E+03  0.18203613051E+03  0.41800000000E+01 0. -1.
         -5    1    3    3    0  502  0.32263790185E+02  0.41681830885E+02 -0.25104575621E+02  0.58532378220E+02  0.41800000000E+01 0. -1.
        -11    1    1    2    0    0 -0.47844036786E+02 -0.27359373696E+02  0.22765978362E+02  0.59631174362E+02  0.00000000000E+00 0.  1.
         11    1    1    2    0    0  0.32525105849E+02  0.12186360922E+02  0.38288431089E+02  0.51695201501E+02  0.00000000000E+00 0. -1.
</event>
<event>
 7    1  0.2670433E-009  0.1791263E+03  0.7561462E-02  0.1168651E+00
         -2   -1    0    0    0  501 -0.00000000000E+00  0.00000000000E+00  0.96379947136E+02  0.96379947136E+02  0.00000000000E+00 0.  1.
          2   -1    0    0  501    0  0.00000000000E+00 -0.00000000000E+00 -0.45052048130E+03  0.45052048130E+03  0.00000000000E+00 0. -1.
         25    2    1    2    0    0  0.14504966622E+03  0.52164044684E+02 -0.29920867188E+03  0.35907225850E+03  0.12508622733E+03 0.  0.
          5    1    3    3  502    0  0.73937607825E+02 -0.31784044689E+02 -0.17759842511E+03  0.19502735282E+03  0.41800000000E+01 0.  1.
         -5    1    3    3    0  502  0.71112058397E+02  0.83948089373E+02 -0.12161024677E+03  0.16404490568E+03  0.41800000000E+01 0.  1.
        -11    1    1    2    0    0 -0.69760844988E+02 -0.59809397768E+02 -0.63459875806E+02  0.11167316326E+03  0.00000000000E+00 0. -1.
         11    1    1    2    0    0 -0.75288821234E+02  0.76453530842E+01  0.85280135273E+01  0.76155006673E+02  0.00000000000E+00 0.  1.
</event>
<event>
 7    1  0.2670433E-009  0.1297934E+03  0.7561462E-02  0.1227763E+00
         -1   -1    0    0    0  501 -0.00000000000E+00  0.00000000000E+00  0.89190098979E+02  0.89190098979E+02  0.00000000000E+00 0.  1.
          1   -1    0    0  501    0  0.00000000000E+00 -0.00000000000E+00 -0.19757893709E+03  0.19757893709E+03  0.00000000000E+00 0. -1.
         25    2    1    2    0    0  0.56186597877E+02  0.53601123366E+02 -0.53567036201E+02  0.15667349186E+03  0.12508853456E+03 0.  0.
          5    1    3    3  502    0  0.87918471241E+02  0.63585714102E+02 -0.57582674350E+02  0.12290662069E+03  0.41800000000E+01 0.  1.
         -5    1    3    3    0  502 -0.31731873363E+02 -0.99845907357E+01  0.40156381486E+01  0.33766871177E+02  0.41800000000E+01 0.  1.
        -11    1    1    2    0    0  0.15374968960E+02 -0.42326295356E+02 -0.26911145753E+02  0.52460601549E+02  0.00000000000E+00 0.  1.
         11    1    1    2    0    0 -0.71561566837E+02 -0.11274828010E+02 -0.27910656160E+02  0.77634942662E+02  0.00000000000E+00 0. -1.
</event>
<event>
 7    1  0.2670433E-009  0.1067132E+03  0.7561462E-02  0.1266780E+00
          1   -1    0    0  501    0  0.00000000000E+00  0.00000000000E+00  0.25271700592E+02  0.25271700592E+02  0.00000000000E+00 0. -1.
         -1   -1    0    0    0  501 -0.00000000000E+00 -0.00000000000E+00 -0.56662728636E+03  0.56662728636E+03  0.00000000000E+00 0.  1.
         25    2    1    2    0    0  0.19837443048E+02 -0.42834998536E+02 -0.35606323573E+03  0.38033717484E+03  0.12508787902E+03 0.  0.
          5    1    3    3  502    0  0.46813608494E+02  0.14496204383E+02 -0.60205917824E+02  0.77742387555E+02  0.41800000000E+01 0. -1.
         -5    1    3    3    0  502 -0.26976165446E+02 -0.57331202919E+02 -0.29585731791E+03  0.30259478728E+03  0.41800000000E+01 0. -1.
        -11    1    1    2    0    0  0.35604909943E+02  0.19449808440E+02 -0.91985934452E+02  0.10053564939E+03  0.00000000000E+00 0.  1.
         11    1    1    2    0    0 -0.55442352991E+02  0.23385190096E+02 -0.93306415578E+02  0.11102616272E+03  0.00000000000E+00 0. -1.
</event>
<event>
 7    1  0.2670433E-009  0.7258201E+02  0.7561462E-02  0.1351527E+00
          1   -1    0    0  501    0  0.00000000000E+00  0.00000000000E+00  0.35525655386E+03  0.35525655386E+03  0.00000000000E+00 0. -1.
         -1   -1    0    0    0  501 -0.00000000000E+00 -0.00000000000E+00 -0.39234058703E+02  0.39234058703E+02  0.00000000000E+00 0.  1.
         25    2    1    2    0    0 -0.33379192788E+02 -0.30584875957E+01  0.22925405682E+03  0.26330347727E+03  0.12509106170E+03 0.  0.
          5    1    3    3  502    0 -0.52451118871E+02  0.15928003640E+02  0.30851623277E+02  0.63040591920E+02  0.41800000000E+01 0. -1.
         -5    1    3    3    0  502  0.19071926083E+02 -0.18986491236E+02  0.19840243354E+03  0.20026288535E+03  0.41800000000E+01 0. -1.
        -11    1    1    2    0    0  0.18940937536E+02 -0.25020270206E+02 -0.70800561150E+01  0.32169865255E+02  0.00000000000E+00 0.  1.
         11    1    1    2    0    0  0.14438255252E+02  0.28078757801E+02  0.93848494460E+02  0.99017270043E+02  0.00000000000E+00 0. -1.
</event>
<event>
 7    1  0.2670433E-009  0.1450583E+03  0.7561462E-02  0.1206680E+00
          2   -1    0    0  501    0  0.00000000000E+00  0.00000000000E+00  0.53307477180E+03  0.53307477180E+03  0.00000000000E+00 0. -1.
         -2   -1    0    0    0  501 -0.00000000000E+00 -0.00000000000E+00 -0.41983017274E+02  0.41983017274E+02  0.00000000000E+00 0.  1.
         25    2    1    2    0    0  0.99450352743E+02  0.50258963565E+01  0.30929026105E+03  0.34817145252E+03  0.12508901819E+03 0.  0.
          5    1    3    3  502    0  0.60142321818E+01 -0.48960123402E+02  0.12681160521E+03  0.13613199583E+03  0.41800000000E+01 0.  1.
         -5    1    3    3    0  502  0.93436120562E+02  0.53986019758E+02  0.18247865584E+03  0.21203945669E+03  0.41800000000E+01 0.  1.
        -11    1    1    2    0    0 -0.34524597262E+02 -0.44739088628E+02  0.54144981477E+02  0.78263739283E+02  0.00000000000E+00 0.  1.
         11    1    1    2    0    0 -0.64925755481E+02  0.39713192271E+02  0.12765651200E+03  0.14862259728E+03  0.00000000000E+00 0. -1.
</event>
<event>
 7    1  0.2670433E-009  0.8926103E+02  0.7561462E-02  0.1304651E+00
          1   -1    0    0  501    0  0.00000000000E+00  0.00000000000E+00  0.49408434603E+03  0.49408434603E+03  0.00000000000E+00 0. -1.
         -1   -1    0    0    0  501 -0.00000000000E+00 -0.00000000000E+00 -0.24521647230E+02  0.24521647230E+02  0.00000000000E+00 0.  1.
         25    2    1    2    0    0  0.13048747126E+02 -0.10867686995E+02  0.29372955408E+03  0.31970771566E+03  0.12509035169E+03 0.  0.
          5    1    3    3  502    0  0.29369250220E+02  0.35895307686E+02  0.40712918315E+02  0.61854992443E+02  0.41800000000E+01 0.  1.
         -5    1    3    3    0  502 -0.16320503093E+02 -0.46762994682E+02  0.25301663577E+03  0.25785272321E+03  0.41800000000E+01 0.  1.
        -11    1    1    2    0    0  0.24765874493E+02 -0.21252544846E+02  0.28131004106E+02  0.43085642549E+02  0.00000000000E+00 0.  1.
         11    1    1    2    0    0 -0.37814621619E+02  0.32120231842E+02  0.14770214061E+03  0.15581263505E+03  0.00000000000E+00 0. -1.
</event>
<event>
 7    1  0.2670433E-009  0.8700920E+02  0.7561462E-02  0.1310260E+00
         -2   -1    0    0    0  501 -0.00000000000E+00  0.00000000000E+00  0.11195134275E+02  0.11195134275E+02  0.00000000000E+00 0.  1.
          2   -1    0    0  501    0  0.00000000000E+00 -0.00000000000E+00 -0.11699871517E+04  0.11699871517E+04  0.00000000000E+00 0. -1.
         25    2    1    2    0    0  0.23761966091E+02 -0.27676827898E+02 -0.75221013359E+03  0.76341225269E+03  0.12509014610E+03 0.  0.
          5    1    3    3  502    0  0.44016478878E+02 -0.77313375608E+00 -0.89449309944E+02  0.99783263115E+02  0.41800000000E+01 0.  1.
         -5    1    3    3    0  502 -0.20254512786E+02 -0.26903694142E+02 -0.66276082365E+03  0.66362898958E+03  0.41800000000E+01 0.  1.
        -11    1    1    2    0    0 -0.10490624948E+02 -0.32546111150E+02 -0.13322086327E+03  0.13753945242E+03  0.00000000000E+00 0.  1.
         11    1    1    2    0    0 -0.13271341143E+02  0.60222939047E+02 -0.27336102052E+03  0.28023058081E+03  0.00000000000E+00 0. -1.
</event>
<event>
 7    1  0.2670433E-009  0.5517804E+02  0.7561462E-02  0.1419259E+00
          1   -1    0    0  501    0  0.00000000000E+00  0.00000000000E+00  0.54889127599E+03  0.54889127599E+03  0.00000000000E+00 0. -1.
         -1   -1    0    0    0  501 -0.00000000000E+00 -0.00000000000E+00 -0.24070178528E+02  0.24070178528E+02  0.00000000000E+00 0.  1.
         25    2    1    2    0    0 -0.17356628808E+02 -0.24431670005E+02  0.30145226782E+03  0.32774909463E+03  0.12509132739E+03 0.  0.
          5    1    3    3  502    0 -0.17296857576E+02 -0.19652508510E+02  0.31324004882E+03  0.31435998943E+03  0.41800000000E+01 0.  1.
         -5    1    3    3    0  502 -0.59771231796E-01 -0.47791614944E+01 -0.11787780992E+02  0.13389105195E+02  0.41800000000E+01 0.  1.
        -11    1    1    2    0    0 -0.37682656556E+01  0.46670205649E+02  0.47531899535E+02  0.66720232274E+02  0.00000000000E+00 0.  1.
         11    1    1    2    0    0  0.21124894463E+02 -0.22238535644E+02  0.17583693010E+03  0.17849212762E+03  0.00000000000E+00 0. -1.
</event>
<event>
 7    1  0.2691448E-009  0.2179112E+03  0.7561462E-02  0.1135450E+00
         -2   -1    0    0    0  501 -0.00000000000E+00  0.00000000000E+00  0.22465608261E+03  0.22465608261E+03  0.00000000000E+00 0.  1.
          2   -1    0    0  501    0  0.00000000000E+00 -0.00000000000E+00 -0.22401589057E+03  0.22401589057E+03  0.00000000000E+00 0. -1.
         25    2    1    2    0    0 -0.70494563317E+02  0.17900217004E+03 -0.37601095341E+02  0.23253652485E+03  0.12509249651E+03 0.  0.
          5    1    3    3  502    0  0.16234426159E+02 -0.78736669051E+01 -0.17524683431E+02  0.25497806820E+02  0.41800000000E+01 0.  1.
         -5    1    3    3    0  502 -0.86728989476E+02  0.18687583694E+03 -0.20076411910E+02  0.20703871803E+03  0.41800000000E+01 0.  1.
        -11    1    1    2    0    0  0.60126160811E+02 -0.40832910931E+02  0.25369428833E+02  0.76981099942E+02  0.00000000000E+00 0.  1.
         11    1    1    2    0    0  0.10368402507E+02 -0.13816925911E+03  0.12871858545E+02  0.13915434839E+03  0.00000000000E+00 0. -1.
</event>
<event>
 7    1  0.2670433E-009  0.9454282E+02  0.7561462E-02  0.1292209E+00
         -2   -1    0    0    0  501 -0.00000000000E+00  0.00000000000E+00  0.71772529336E+02  0.71772529336E+02  0.00000000000E+00 0. -1.
          2   -1    0    0  501    0  0.00000000000E+00 -0.00000000000E+00 -0.19519482461E+03  0.19519482461E+03  0.00000000000E+00 0.  1.
         25    2    1    2    0    0 -0.34508079401E+02 -0.57649846059E+00 -0.38076812391E+02  0.13523489887E+03  0.12508994498E+03 0.  0.
          5    1    3    3  502    0 -0.67006195667E+02  0.33710749296E+02 -0.11586698018E+01  0.75133612927E+02  0.41800000000E+01 0.  1.
         -5    1    3    3    0  502  0.32498116266E+02 -0.34287247756E+02 -0.36918142589E+02  0.60101285941E+02  0.41800000000E+01 0.  1.
        -11    1    1    2    0    0  0.43360038589E+02 -0.17223450919E+02 -0.97740794685E+02  0.10830513909E+03  0.00000000000E+00 0.  1.
         11    1    1    2    0    0 -0.88519591883E+01  0.17799949379E+02  0.12395311805E+02  0.23427315982E+02  0.00000000000E+00 0. -1.
</event>
<event>
 7    1  0.2670433E-009  0.1119049E+03  0.7561462E-02  0.1257082E+00
          1   -1    0    0  501    0  0.00000000000E+00  0.00000000000E+00  0.21515254385E+02  0.21515254385E+02  0.00000000000E+00 0. -1.
         -1   -1    0    0    0  501 -0.00000000000E+00 -0.00000000000E+00 -0.78318814258E+03  0.78318814258E+03  0.00000000000E+00 0.  1.
         25    2    1    2    0    0 -0.60332008674E+02  0.25984841203E+02 -0.49179925235E+03  0.51169062090E+03  0.12508246743E+03 0.  0.
          5    1    3    3  502    0 -0.49704553582E+02  0.69664678673E+02 -0.21870281011E+03  0.23488742336E+03  0.41800000000E+01 0. -1.
         -5    1    3    3    0  502 -0.10627455091E+02 -0.43679837470E+02 -0.27309644224E+03  0.27680319754E+03  0.41800000000E+01 0. -1.
        -11    1    1    2    0    0  0.74087558221E+02 -0.27747165190E+02 -0.26748671309E+03  0.27894087750E+03  0.00000000000E+00 0.  1.
         11    1    1    2    0    0 -0.13755549547E+02  0.17623239870E+01 -0.23869227540E+01  0.14071898571E+02  0.00000000000E+00 0. -1.
</event>
<event>
 7    1  0.2670433E-009  0.8105802E+02  0.7561462E-02  0.1326075E+00
         -2   -1    0    0    0  501 -0.00000000000E+00  0.00000000000E+00  0.26836816621E+02  0.26836816621E+02  0.00000000000E+00 0.  1.
          2   -1    0    0  501    0  0.00000000000E+00 -0.00000000000E+00 -0.45030050589E+03  0.45030050589E+03  0.00000000000E+00 0. -1.
         25    2    1    2    0    0 -0.11259760288E+02  0.23088609775E+02 -0.25157700179E+03  0.28213117759E+03  0.12508855837E+03 0.  0.
          5    1    3    3  502    0 -0.37324568074E+02 -0.24938795471E+02 -0.30668368850E+02  0.54526031850E+02  0.41800000000E+01 0. -1.
         -5    1    3    3    0  502  0.26064807786E+02  0.48027405246E+02 -0.22090863294E+03  0.22760514574E+03  0.41800000000E+01 0. -1.
        -11    1    1    2    0    0  0.34181447889E+02 -0.90875545984E+01 -0.16288134126E+03  0.16667719208E+03  0.00000000000E+00 0.  1.
         11    1    1    2    0    0 -0.22921687601E+02 -0.14001055177E+02 -0.90053462172E+01  0.28328952841E+02  0.00000000000E+00 0. -1.
</event>
<event>
 7    1  0.2670433E-009  0.7821506E+02  0.7561462E-02  0.1334195E+00
          2   -1    0    0  501    0  0.00000000000E+00  0.00000000000E+00  0.70325275251E+03  0.70325275251E+03  0.00000000000E+00 0. -1.
         -2   -1    0    0    0  501 -0.00000000000E+00 -0.00000000000E+00 -0.28260624726E+02  0.28260624726E+02  0.00000000000E+00 0.  1.
         25    2    1    2    0    0 -0.23172482202E+02 -0.43700128092E+02  0.53845836250E+03  0.55500619904E+03  0.12509119753E+03 0.  0.
          5    1    3    3  502    0 -0.37219120501E+02 -0.16591131783E+02  0.51408848281E+03  0.51571791625E+03  0.41800000000E+01 0.  1.
         -5    1    3    3    0  502  0.14046638298E+02 -0.27108996309E+02  0.24369879691E+02  0.39288282789E+02  0.41800000000E+01 0.  1.
        -11    1    1    2    0    0 -0.21096890084E+02  0.32898366902E+02  0.12286826970E+03  0.12893406461E+03  0.00000000000E+00 0. -1.
         11    1    1    2    0    0  0.44269372286E+02  0.10801761189E+02  0.13665495582E+02  0.47573113593E+02  0.00000000000E+00 0.  1.
</event>
<event>
 7    1  0.2670433E-009  0.8572854E+02  0.7561462E-02  0.1313538E+00
          3   -1    0    0  501    0  0.00000000000E+00  0.00000000000E+00  0.11677915230E+03  0.11677915230E+03  0.00000000000E+00 0. -1.
         -3   -1    0    0    0  501 -0.00000000000E+00 -0.00000000000E+00 -0.11789879089E+03  0.11789879089E+03  0.00000000000E+00 0.  1.
         25    2    1    2    0    0  0.98806621508E+01  0.16625635903E+02  0.38989223941E+02  0.13244481272E+03  0.12508968614E+03 0.  0.
          5    1    3    3  502    0  0.39719722614E+02  0.39110313864E+02 -0.22594010239E+02  0.60292907657E+02  0.41800000000E+01 0. -1.
         -5    1    3    3    0  502 -0.29839060464E+02 -0.22484677962E+02  0.61583234180E+02  0.72151905065E+02  0.41800000000E+01 0. -1.
        -11    1    1    2    0    0  0.31725852951E+02 -0.17724749733E+02  0.94159724894E+01  0.37541404295E+02  0.00000000000E+00 0. -1.
         11    1    1    2    0    0 -0.41606515102E+02  0.10991138300E+01 -0.49524835021E+02  0.64691726163E+02  0.00000000000E+00 0.  1.
</event>
<event>
 7    1  0.2670433E-009  0.1275065E+03  0.7561462E-02  0.1231203E+00
          2   -1    0    0  501    0  0.00000000000E+00  0.00000000000E+00  0.32184097072E+03  0.32184097072E+03  0.00000000000E+00 0. -1.
         -2   -1    0    0    0  501 -0.00000000000E+00 -0.00000000000E+00 -0.66854225217E+02  0.66854225217E+02  0.00000000000E+00 0.  1.
         25    2    1    2    0    0  0.95505176901E+02  0.10834039641E+02  0.17028681720E+03  0.23212823978E+03  0.12508918562E+03 0.  0.
          5    1    3    3  502    0  0.90516281441E+02  0.57717681191E+02  0.96187886189E+02  0.14420162890E+03  0.41800000000E+01 0. -1.
         -5    1    3    3    0  502  0.49888954604E+01 -0.46883641550E+02  0.74098931014E+02  0.87926610877E+02  0.41800000000E+01 0. -1.
        -11    1    1    2    0    0 -0.40270998693E+02  0.95198887249E+01  0.88378989274E+02  0.97587024558E+02  0.00000000000E+00 0. -1.
         11    1    1    2    0    0 -0.55234178208E+02 -0.20353928365E+02 -0.36790609733E+01  0.58979931602E+02  0.00000000000E+00 0.  1.
</event>
<event>
 7    1  0.2670433E-009  0.1011191E+03  0.7561462E-02  0.1277960E+00
          1   -1    0    0  501    0  0.00000000000E+00  0.00000000000E+00  0.38630631596E+03  0.38630631596E+03  0.00000000000E+00 0. -1.
         -1   -1    0    0    0  501 -0.00000000000E+00 -0.00000000000E+00 -0.45987658940E+02  0.45987658940E+02  0.00000000000E+00 0.  1.
         25    2    1    2    0    0 -0.31095855631E+02 -0.68613813091E+02  0.20678772805E+03  0.25314677181E+03  0.12508923223E+03 0.  0.
          5    1    3    3  502    0  0.30465914742E+02 -0.92149639464E+01  0.14245902551E+03  0.14603127703E+03  0.41800000000E+01 0. -1.
         -5    1    3    3    0  502 -0.61561770372E+02 -0.59398849145E+02  0.64328702537E+02  0.10711549478E+03  0.41800000000E+01 0. -1.
        -11    1    1    2    0    0  0.26203180407E+02  0.14101642573E+02  0.11879738011E+03  0.12246746714E+03  0.00000000000E+00 0. -1.
         11    1    1    2    0    0  0.48926752237E+01  0.54512170518E+02  0.14733548858E+02  0.56679735950E+02  0.00000000000E+00 0.  1.
</event>
<event>
 7    1  0.2670433E-009  0.8411875E+02  0.7561462E-02  0.1317753E+00
          1   -1    0    0  501    0  0.00000000000E+00  0.00000000000E+00  0.20313603231E+02  0.20313603231E+02  0.00000000000E+00 0. -1.
         -1   -1    0    0    0  501 -0.00000000000E+00 -0.00000000000E+00 -0.10903817010E+04  0.10903817010E+04  0.00000000000E+00 0.  1.
         25    2    1    2    0    0  0.51495190928E+02 -0.31213278514E+02 -0.88243514689E+03  0.89328882523E+03  0.12508842224E+03 0.  0.
          5    1    3    3  502    0 -0.24388963691E+02 -0.10910406364E+02 -0.47520784614E+02  0.54676831357E+02  0.41800000000E+01 0.  1.
         -5    1    3    3    0  502  0.75884154620E+02 -0.20302872151E+02 -0.83491436227E+03  0.83861199388E+03  0.41800000000E+01 0.  1.
        -11    1    1    2    0    0 -0.34513177190E+02  0.11204979654E+02 -0.18768738761E+03  0.19116293165E+03  0.00000000000E+00 0.  1.
         11    1    1    2    0    0 -0.16982013738E+02  0.20008298860E+02  0.54436732673E-01  0.26243547345E+02  0.00000000000E+00 0. -1.
</event>
<event>
 7    1  0.2670433E-009  0.6631854E+02  0.7561462E-02  0.1373079E+00
          2   -1    0    0  501    0  0.00000000000E+00  0.00000000000E+00  0.87594849626E+03  0.87594849626E+03  0.00000000000E+00 0.  1.
         -2   -1    0    0    0  501 -0.00000000000E+00 -0.00000000000E+00 -0.18744763742E+02  0.18744763742E+02  0.00000000000E+00 0. -1.
         25    2    1    2    0    0  0.41040608504E+02 -0.33022055930E+02  0.61086944755E+03  0.62576642629E+03  0.12508937044E+03 0.  0.
          5    1    3    3  502    0  0.48434595804E+02 -0.28905197210E+02  0.10059516509E+03  0.11540485317E+03  0.41800000000E+01 0. -1.
         -5    1    3    3    0  502 -0.73939872998E+01 -0.41168587191E+01  0.51027428246E+03  0.51036157312E+03  0.41800000000E+01 0. -1.
        -11    1    1    2    0    0 -0.48895639800E+02  0.23365640141E+02  0.25011428809E+03  0.25591774818E+03  0.00000000000E+00 0.  1.
         11    1    1    2    0    0  0.78550312959E+01  0.96564157890E+01 -0.37800031223E+01  0.13009085523E+02  0.00000000000E+00 0. -1.
</event>
<event>
 7    1  0.2670433E-009  0.1234519E+03  0.7561462E-02  0.1237509E+00
          2   -1    0    0  501    0  0.00000000000E+00  0.00000000000E+00  0.17728491378E+03  0.17728491378E+03  0.00000000000E+00 0.  1.
         -2   -1    0    0    0  501 -0.00000000000E+00 -0.00000000000E+00 -0.10451179924E+03  0.10451179924E+03  0.00000000000E+00 0. -1.
         25    2    1    2    0    0 -0.56186537427E+02  0.57732322537E+02  0.33157028118E+02  0.15243732370E+03  0.12509117111E+03 0.  0.
          5    1    3    3  502    0 -0.72258685219E+02  0.96634624782E+01 -0.23111402494E+02  0.76591836522E+02  0.41800000000E+01 0.  1.
         -5    1    3    3    0  502  0.16072147792E+02  0.48068860059E+02  0.56268430611E+02  0.75845487179E+02  0.41800000000E+01 0.  1.
        -11    1    1    2    0    0  0.72698166320E+02 -0.71170613869E+02  0.30587387417E+02  0.10623496568E+03  0.00000000000E+00 0. -1.
         11    1    1    2    0    0 -0.16511628893E+02  0.13438291332E+02  0.90286990053E+01  0.23124423633E+02  0.00000000000E+00 0.  1.
</event>
<event>
 7    1  0.2670433E-009  0.1004174E+03  0.7561462E-02  0.1279421E+00
          2   -1    0    0  501    0  0.00000000000E+00  0.00000000000E+00  0.70372105857E+03  0.70372105857E+03  0.00000000000E+00 0. -1.
         -2   -1    0    0    0  501 -0.00000000000E+00 -0.00000000000E+00 -0.18158659920E+02  0.18158659920E+02  0.00000000000E+00 0.  1.
         25    2    1    2    0    0  0.43761728327E+01 -0.22069167243E+02  0.46439152580E+03  0.48146894051E+03  0.12508657965E+03 0.  0.
          5    1    3    3  502    0 -0.27290680992E+02 -0.61356988958E+02  0.34946044463E+03  0.35587854125E+03  0.41800000000E+01 0.  1.
         -5    1    3    3    0  502  0.31666853825E+02  0.39287821715E+02  0.11493108117E+03  0.12559039926E+03  0.41800000000E+01 0.  1.
        -11    1    1    2    0    0 -0.28454410766E+02 -0.19767970542E+02  0.39998045841E+02  0.52917575743E+02  0.00000000000E+00 0.  1.
         11    1    1    2    0    0  0.24078237933E+02  0.41837137785E+02  0.18117282701E+03  0.18749320224E+03  0.00000000000E+00 0. -1.
</event>
<event>
 7    1  0.2670433E-009  0.2790385E+03  0.7561462E-02  0.1096215E+00
         -1   -1    0    0    0  501 -0.00000000000E+00  0.00000000000E+00  0.67061823301E+03  0.67061823301E+03  0.00000000000E+00 0.  1.
          1   -1    0    0  501    0  0.00000000000E+00 -0.00000000000E+00 -0.12296555296E+03  0.12296555296E+03  0.00000000000E+00 0. -1.
         25    2    1    2    0    0  0.22204712286E+03  0.13450311281E+03  0.35421024752E+03  0.45662730089E+03  0.12509028879E+03 0.  0.
          5    1    3    3  502    0  0.93116287628E+02  0.12841123473E+03  0.20651994545E+03  0.26043818555E+03  0.41800000000E+01 0. -1.
         -5    1    3    3    0  502  0.12893083523E+03  0.60918780766E+01  0.14769030208E+03  0.19618911534E+03  0.41800000000E+01 0. -1.
        -11    1    1    2    0    0 -0.97655955798E+02 -0.10301313768E+03  0.13524552375E+03  0.19606056190E+03  0.00000000000E+00 0.  1.
         11    1    1    2    0    0 -0.12439116706E+03 -0.31489975128E+02  0.58196908774E+02  0.14089592317E+03  0.00000000000E+00 0. -1.
</event>
<event>
 7    1  0.2670433E-009  0.9144818E+02  0.7561462E-02  0.1299382E+00
         -1   -1    0    0    0  501 -0.00000000000E+00  0.00000000000E+00  0.67217058499E+02  0.67217058499E+02  0.00000000000E+00 0.  1.
          1   -1    0    0  501    0  0.00000000000E+00 -0.00000000000E+00 -0.39770755541E+03  0.39770755541E+03  0.00000000000E+00 0. -1.
         25    2    1    2    0    0 -0.53088535634E+02 -0.35025523335E+02 -0.32746929777E+03  0.35627052448E+03  0.12508943092E+03 0.  0.
          5    1    3    3  502    0 -0.96992063840E+01 -0.49392978733E+02 -0.38058251021E+02  0.63242737317E+02  0.41800000000E+01 0. -1.
         -5    1    3    3    0  502 -0.43389329250E+02  0.14367455398E+02 -0.28941104675E+03  0.29302778716E+03  0.41800000000E+01 0. -1.
        -11    1    1    2    0    0  0.24463224860E+02 -0.15113200711E+02 -0.32859487814E+02  0.43664678468E+02  0.00000000000E+00 0. -1.
         11    1    1    2    0    0  0.28625310774E+02  0.50138724047E+02  0.29838288676E+02  0.64989410961E+02  0.00000000000E+00 0.  1.
</event>
<event>
 7    1  0.2670433E-009  0.1390471E+03  0.7561462E-02  0.1214617E+00
         -2   -1    0    0    0  501 -0.00000000000E+00  0.00000000000E+00  0.11975686999E+04  0.11975686999E+04  0.00000000000E+00 0. -1.
          2   -1    0    0  501    0  0.00000000000E+00 -0.00000000000E+00 -0.19896159854E+02  0.19896159854E+02  0.00000000000E+00 0.  1.
         25    2    1    2    0    0  0.86954110028E+02 -0.23793187106E+02  0.88109484204E+03  0.89448443056E+03  0.12508854004E+03 0.  0.
          5    1    3    3  502    0  0.11722986134E+03 -0.25749556281E+02  0.76723815864E+03  0.77658080359E+03  0.41800000000E+01 0.  1.
         -5    1    3    3    0  502 -0.30275751311E+02  0.19563691752E+01  0.11385668340E+03  0.11790362697E+03  0.41800000000E+01 0.  1.
        -11    1    1    2    0    0 -0.42820562774E+02 -0.33983664751E+02  0.14196034785E+03  0.15212241921E+03  0.00000000000E+00 0. -1.
         11    1    1    2    0    0 -0.44133547254E+02  0.57776851857E+02  0.15461735017E+03  0.17085800999E+03  0.00000000000E+00 0.  1.
</event>
<event>
 7    1  0.2670433E-009  0.8311288E+02  0.7561462E-02  0.1320443E+00
          2   -1    0    0  501    0  0.00000000000E+00  0.00000000000E+00  0.54257326599E+03  0.54257326599E+03  0.00000000000E+00 0. -1.
         -2   -1    0    0    0  501 -0.00000000000E+00 -0.00000000000E+00 -0.28355628006E+02  0.28355628006E+02  0.00000000000E+00 0.  1.
         25    2    1    2    0    0 -0.75600873377E+01 -0.22942826450E+01  0.41797655341E+03  0.43636529927E+03  0.12509139279E+03 0.  0.
          5    1    3    3  502    0  0.32615059547E+02 -0.26770980421E+02  0.35563316842E+03  0.35815199341E+03  0.41800000000E+01 0.  1.
         -5    1    3    3    0  502 -0.40175146885E+02  0.24476697776E+02  0.62343384998E+02  0.78213305865E+02  0.41800000000E+01 0.  1.
        -11    1    1    2    0    0  0.25825892017E+02  0.32367957207E+02  0.11757064759E+02  0.43045207909E+02  0.00000000000E+00 0.  1.
         11    1    1    2    0    0 -0.18265804679E+02 -0.30073674562E+02  0.84484019813E+02  0.91518386820E+02  0.00000000000E+00 0. -1.
</event>
<event>
 7    1  0.2670433E-009  0.8045575E+02  0.7561462E-02  0.1327763E+00
         -2   -1    0    0    0  501 -0.00000000000E+00  0.00000000000E+00  0.47715523898E+02  0.47715523898E+02  0.00000000000E+00 0.  1.
          2   -1    0    0  501    0  0.00000000000E+00 -0.00000000000E+00 -0.29246072161E+03  0.29246072161E+03  0.00000000000E+00 0. -1.
         25    2    1    2    0    0 -0.32507506430E+02  0.29223681334E+02 -0.16592819051E+03  0.21235042654E+03  0.12509907163E+03 0.  0.
          5    1    3    3  502    0 -0.63944484805E+02  0.39524555079E+02 -0.46814521442E+02  0.88657540058E+02  0.41800000000E+01 0.  1.
         -5    1    3    3    0  502  0.31436978376E+02 -0.10300873745E+02 -0.11911366906E+03  0.12369288649E+03  0.41800000000E+01 0.  1.
        -11    1    1    2    0    0  0.36684918012E+02 -0.19173663190E+02 -0.97657360335E+02  0.10606777360E+03  0.00000000000E+00 0. -1.
         11    1    1    2    0    0 -0.41774115825E+01 -0.10050018145E+02  0.18840353125E+02  0.21758045365E+02  0.00000000000E+00 0.  1.
</event>
<event>
 7    1  0.3663672E-009  0.1168810E+03  0.7561462E-02  0.1248333E+00
          1   -1    0    0  501    0  0.00000000000E+00  0.00000000000E+00  0.13968613039E+03  0.13968613039E+03  0.00000000000E+00 0. -1.
         -1   -1    0    0    0  501 -0.00000000000E+00 -0.00000000000E+00 -0.12917044579E+03  0.12917044579E+03  0.00000000000E+00 0.  1.
         25    2    1    2    0    0 -0.11098086016E+02  0.72488700437E+02  0.36022725120E+02  0.14941135321E+03  0.12509331133E+03 0.  0.
          5    1    3    3  502    0  0.47936738669E+02  0.30770018322E+02  0.49712201561E+02  0.75719880651E+02  0.41800000000E+01 0.  1.
         -5    1    3    3    0  502 -0.59034824685E+02  0.41718682115E+02 -0.13689476441E+02  0.73691472561E+02  0.41800000000E+01 0.  1.
        -11    1    1    2    0    0 -0.31861095783E+02 -0.33340829138E+02  0.15120654473E+02  0.48532200690E+02  0.00000000000E+00 0. -1.
         11    1    1    2    0    0  0.42959181799E+02 -0.39147871299E+02 -0.40627694997E+02  0.70913022280E+02  0.00000000000E+00 0.  1.
</event>
<event>
 7    1  0.2670433E-009  0.1084382E+03  0.7561462E-02  0.1263490E+00
         -1   -1    0    0    0  501 -0.00000000000E+00  0.00000000000E+00  0.59623394139E+02  0.59623394139E+02  0.00000000000E+00 0.  1.
          1   -1    0    0  501    0  0.00000000000E+00 -0.00000000000E+00 -0.24282294732E+03  0.24282294732E+03  0.00000000000E+00 0. -1.
         25    2    1    2    0    0 -0.34963681754E+02 -0.17304264881E+02 -0.65469752676E+02  0.14647566913E+03  0.12508771525E+03 0.  0.
          5    1    3    3  502    0 -0.75715501924E+02 -0.37988333324E+02 -0.47353512728E+02  0.97137934238E+02  0.41800000000E+01 0.  1.
         -5    1    3    3    0  502  0.40751820170E+02  0.20684068443E+02 -0.18116239948E+02  0.49337734893E+02  0.41800000000E+01 0.  1.
        -11    1    1    2    0    0 -0.22381863652E+02  0.18154947957E+02 -0.46685432258E+01  0.29194952504E+02  0.00000000000E+00 0.  1.
         11    1    1    2    0    0  0.57345545406E+02 -0.85068307578E+00 -0.11306125728E+03  0.12677571983E+03  0.00000000000E+00 0. -1.
</event>
<event>
 7    1  0.2670433E-009  0.9453670E+02  0.7561462E-02  0.1292223E+00
         -1   -1    0    0    0  501 -0.00000000000E+00  0.00000000000E+00  0.16648018721E+02  0.16648018721E+02  0.00000000000E+00 0.  1.
          1   -1    0    0  501    0  0.00000000000E+00 -0.00000000000E+00 -0.72156528194E+03  0.72156528194E+03  0.00000000000E+00 0. -1.
         25    2    1    2    0    0 -0.51283228771E+01  0.15366448125E+02 -0.44640596523E+03  0.46388533020E+03  0.12509550896E+03 0.  0.
          5    1    3    3  502    0  0.40907471125E+02  0.39128077620E+02 -0.11302792388E+03  0.12648008392E+03  0.41800000000E+01 0.  1.
         -5    1    3    3    0  502 -0.46035794002E+02 -0.23761629495E+02 -0.33337804135E+03  0.33740524628E+03  0.41800000000E+01 0.  1.
        -11    1    1    2    0    0  0.10829618350E+02  0.31404665337E+02 -0.46518051815E+02  0.57161724809E+02  0.00000000000E+00 0.  1.
         11    1    1    2    0    0 -0.57012954726E+01 -0.46771113463E+02 -0.21199324618E+03  0.21716624565E+03  0.00000000000E+00 0. -1.
</event>
<event>
 7    1  0.3751115E-009  0.2509752E+03  0.7561462E-02  0.1112690E+00
          2   -1    0    0  501    0  0.00000000000E+00  0.00000000000E+00  0.12104265496E+04  0.12104265496E+04  0.00000000000E+00 0. -1.
         -2   -1    0    0    0  501 -0.00000000000E+00 -0.00000000000E+00 -0.60754855878E+02  0.60754855878E+02  0.00000000000E+00 0.  1.
         25    2    1    2    0    0  0.24653216422E+03  0.40568330704E+01  0.65667811046E+03  0.71250876323E+03  0.12509209023E+03 0.  0.
          5    1    3    3  502    0  0.10179945279E+03  0.64333299516E+01  0.12462569063E+03  0.16110105985E+03  0.41800000000E+01 0.  1.
         -5    1    3    3    0  502  0.14473271143E+03 -0.23764968812E+01  0.53205241983E+03  0.55140770338E+03  0.41800000000E+01 0.  1.
        -11    1    1    2    0    0 -0.15421153902E+03  0.29142525169E+02  0.23434917066E+03  0.28204612979E+03  0.00000000000E+00 0.  1.
         11    1    1    2    0    0 -0.92320625201E+02 -0.33199358239E+02  0.25864441260E+03  0.27662651246E+03  0.00000000000E+00 0. -1.
</event>
<event>
 7    1  0.2670433E-009  0.9860262E+02  0.7561462E-02  0.1283262E+00
          2   -1    0    0  501    0  0.00000000000E+00  0.00000000000E+00  0.45549985495E+02  0.45549985495E+02  0.00000000000E+00 0. -1.
         -2   -1    0    0    0  501 -0.00000000000E+00 -0.00000000000E+00 -0.46849765779E+03  0.46849765779E+03  0.00000000000E+00 0.  1.
         25    2    1    2    0    0 -0.29254874958E+02 -0.28216966888E+02 -0.73689077134E+02  0.15076406073E+03  0.12509067507E+03 0.  0.
          5    1    3    3  502    0 -0.56989247268E+02 -0.46872841595E+02 -0.87343172720E+02  0.11441651893E+03  0.41800000000E+01 0. -1.
         -5    1    3    3    0  502  0.27734372309E+02  0.18655874707E+02  0.13654095586E+02  0.36347541798E+02  0.41800000000E+01 0. -1.
        -11    1    1    2    0    0  0.16974844595E+01  0.52713656244E+02 -0.27896392302E+03  0.28390576140E+03  0.00000000000E+00 0. -1.
         11    1    1    2    0    0  0.27557390499E+02 -0.24496689356E+02 -0.70294672141E+02  0.79377821159E+02  0.00000000000E+00 0.  1.
</event>
<event>
 7    1  0.3543270E-009  0.1915458E+03  0.7561462E-02  0.1157074E+00
          1   -1    0    0  501    0  0.00000000000E+00  0.00000000000E+00  0.11470076000E+04  0.11470076000E+04  0.00000000000E+00 0. -1.
         -1   -1    0    0    0  501 -0.00000000000E+00 -0.00000000000E+00 -0.34564438333E+02  0.34564438333E+02  0.00000000000E+00 0.  1.
         25    2    1    2    0    0  0.16179633538E+03  0.38794488417E+02  0.60413881008E+03  0.63899448097E+03  0.12508868209E+03 0.  0.
          5    1    3    3  502    0  0.17122644817E+03  0.12546546595E+02  0.56651956041E+03  0.59197786877E+03  0.41800000000E+01 0. -1.
         -5    1    3    3    0  502 -0.94301127868E+01  0.26247941822E+02  0.37619249672E+02  0.47016612202E+02  0.41800000000E+01 0. -1.
        -11    1    1    2    0    0 -0.68947432354E+02 -0.55876099361E+02  0.31787634749E+03  0.33003220934E+03  0.00000000000E+00 0. -1.
         11    1    1    2    0    0 -0.92848903025E+02  0.17081610944E+02  0.19042800414E+03  0.21254534807E+03  0.00000000000E+00 0.  1.
</event>
<event>
 7    1  0.2670433E-009  0.1274230E+03  0.7561462E-02  0.1231330E+00
          1   -1    0    0  501    0  0.00000000000E+00  0.00000000000E+00  0.67566168457E+02  0.67566168457E+02  0.00000000000E+00 0. -1.
         -1   -1    0    0    0  501 -0.00000000000E+00 -0.00000000000E+00 -0.32148881414E+03  0.32148881414E+03  0.00000000000E+00 0.  1.
         25    2    1    2    0    0 -0.48141113796E+02  0.52107889223E+02 -0.22816759564E+03  0.26970490259E+03  0.12508990298E+03 0.  0.
          5    1    3    3  502    0 -0.74204688877E+02  0.77272028603E+02 -0.16529676759E+03  0.19702232369E+03  0.41800000000E+01 0.  1.
         -5    1    3    3    0  502  0.26063575081E+02 -0.25164139381E+02 -0.62870828049E+02  0.72682578905E+02  0.41800000000E+01 0.  1.
        -11    1    1    2    0    0  0.10637714183E+02 -0.69154005508E+02  0.14495652585E+01  0.69982416936E+02  0.00000000000E+00 0. -1.
         11    1    1    2    0    0  0.37503399613E+02  0.17046116285E+02 -0.27204615303E+02  0.49367663067E+02  0.00000000000E+00 0.  1.
</event>
<event>
 7    1  0.2670433E-009  0.1515945E+03  0.7561462E-02  0.1198527E+00
         -3   -1    0    0    0  501 -0.00000000000E+00  0.00000000000E+00  0.70259083667E+02  0.70259083667E+02  0.00000000000E+00 0.  1.
          3   -1    0    0  501    0  0.00000000000E+00 -0.00000000000E+00 -0.64327029949E+03  0.64327029949E+03  0.00000000000E+00 0. -1.
         25    2    1    2    0    0 -0.11473974979E+03  0.48051664793E+02 -0.52287945913E+03  0.55183798882E+03  0.12509222380E+03 0.  0.
          5    1    3    3  502    0 -0.63390374460E+02  0.89695019392E+02 -0.31165526304E+03  0.33046938051E+03  0.41800000000E+01 0.  1.
         -5    1    3    3    0  502 -0.51349375330E+02 -0.41643354598E+02 -0.21122419610E+03  0.22136860831E+03  0.41800000000E+01 0.  1.
        -11    1    1    2    0    0  0.30896449212E+02 -0.25884090671E+02 -0.62214192744E+02  0.74129498194E+02  0.00000000000E+00 0. -1.
         11    1    1    2    0    0  0.83843300578E+02 -0.22167574122E+02  0.12082436056E+02  0.87561896138E+02  0.00000000000E+00 0.  1.
</event>
<event>
 7    1  0.2670433E-009  0.1090351E+03  0.7561462E-02  0.1262367E+00
         -2   -1    0    0    0  501 -0.00000000000E+00  0.00000000000E+00  0.27530297957E+02  0.27530297957E+02  0.00000000000E+00 0.  1.
          2   -1    0    0  501    0  0.00000000000E+00 -0.00000000000E+00 -0.63295397078E+03  0.63295397078E+03  0.00000000000E+00 0. -1.
         25    2    1    2    0    0  0.39168523834E+02 -0.41376731893E+01 -0.49455212900E+03  0.51164376422E+03  0.12508492940E+03 0.  0.
          5    1    3    3  502    0  0.33694257677E+02  0.57023749859E+02 -0.31248543885E+03  0.31945521273E+03  0.41800000000E+01 0.  1.
         -5    1    3    3    0  502  0.54742661576E+01 -0.61161423048E+02 -0.18206669015E+03  0.19218855148E+03  0.41800000000E+01 0.  1.
        -11    1    1    2    0    0  0.21698908108E+02 -0.14967604211E+02 -0.65358371720E+02  0.70474027434E+02  0.00000000000E+00 0. -1.
         11    1    1    2    0    0 -0.60867431942E+02  0.19105277401E+02 -0.45513172098E+02  0.78366477082E+02  0.00000000000E+00 0.  1.
</event>
<event>
 7    1  0.2670433E-009  0.1405465E+03  0.7561462E-02  0.1212596E+00
         -1   -1    0    0    0  501 -0.00000000000E+00  0.00000000000E+00  0.14989098723E+03  0.14989098723E+03  0.00000000000E+00 0.  1.
          1   -1    0    0  501    0  0.00000000000E+00 -0.00000000000E+00 -0.16234943393E+03  0.16234943393E+03  0.00000000000E+00 0. -1.
         25    2    1    2    0    0  0.87558031709E+02 -0.65710064894E+02 -0.33340576951E+02  0.16954097974E+03  0.12509327797E+03 0.  0.
          5    1    3    3  502    0  0.91294144907E+02  0.84863076492E+01 -0.16572756822E+02  0.93267180618E+02  0.41800000000E+01 0.  1.
         -5    1    3    3    0  502 -0.37361131986E+01 -0.74196372543E+02 -0.16767820129E+02  0.76273799120E+02  0.41800000000E+01 0.  1.
        -11    1    1    2    0    0 -0.77261917539E+02  0.39565829212E+02 -0.23718426638E+02  0.89985679445E+02  0.00000000000E+00 0. -1.
         11    1    1    2    0    0 -0.10296114170E+02  0.26144235682E+02  0.44600556894E+02  0.52713761976E+02  0.00000000000E+00 0.  1.
</event>
<event>
 7    1  0.2670433E-009  0.1343354E+03  0.7561462E-02  0.1221161E+00
          4   -1    0    0  501    0  0.00000000000E+00  0.00000000000E+00  0.42143681029E+02  0.42143681029E+02  0.00000000000E+00 0. -1.
         -4   -1    0    0    0  501 -0.00000000000E+00 -0.00000000000E+00 -0.73032748809E+03  0.73032748809E+03  0.00000000000E+00 0.  1.
         25    2    1    2    0    0 -0.67182630085E+02 -0.88465583966E+02 -0.55481581330E+03  0.57948908377E+03  0.12508935280E+03 0.  0.
          5    1    3    3  502    0 -0.21419765283E+02  0.20539298187E+02 -0.33624834343E+02  0.45041880505E+02  0.41800000000E+01 0.  1.
         -5    1    3    3    0  502 -0.45762864802E+02 -0.10900488215E+03 -0.52119097896E+03  0.53444720326E+03  0.41800000000E+01 0.  1.
        -11    1    1    2    0    0  0.52079975300E+02  0.30172823524E+02 -0.11537973528E+03  0.13013533886E+03  0.00000000000E+00 0.  1.
         11    1    1    2    0    0  0.15102654785E+02  0.58292760441E+02 -0.17988258478E+02  0.62846746491E+02  0.00000000000E+00 0. -1.
</event>
<event>
 7    1  0.2670433E-009  0.1178618E+03  0.7561462E-02  0.1246667E+00
         -1   -1    0    0    0  501 -0.00000000000E+00  0.00000000000E+00  0.20452717274E+03  0.20452717274E+03  0.00000000000E+00 0.  1.
          1   -1    0    0  501    0  0.00000000000E+00 -0.00000000000E+00 -0.78312760129E+02  0.78312760129E+02  0.00000000000E+00 0. -1.
         25    2    1    2    0    0  0.18558999369E+02 -0.53546734794E+02  0.10680925730E+03  0.17397383141E+03  0.12508791830E+03 0.  0.
          5    1    3    3  502    0 -0.36344234658E+02 -0.69250247723E+02  0.47813732202E+02  0.91761242307E+02  0.41800000000E+01 0.  1.
         -5    1    3    3    0  502  0.54903234027E+02  0.15703512929E+02  0.58995525103E+02  0.82212589104E+02  0.41800000000E+01 0.  1.
        -11    1    1    2    0    0 -0.50653442456E+02  0.42756573453E+02 -0.59677690357E+01  0.66554564632E+02  0.00000000000E+00 0. -1.
         11    1    1    2    0    0  0.32094443087E+02  0.10790161342E+02  0.25372924339E+02  0.42311536823E+02  0.00000000000E+00 0.  1.
</event>
<event>
 7    1  0.2670433E-009  0.8072239E+02  0.7561462E-02  0.1327014E+00
         -2   -1    0    0    0  501 -0.00000000000E+00  0.00000000000E+00  0.43198388874E+02  0.43198388874E+02  0.00000000000E+00 0.  1.
          2   -1    0    0  501    0  0.00000000000E+00 -0.00000000000E+00 -0.37001121021E+03  0.37001121021E+03  0.00000000000E+00 0. -1.
         25    2    1    2    0    0 -0.15025549912E+02 -0.13701123151E+02 -0.28402330871E+03  0.31101301709E+03  0.12508544672E+03 0.  0.
          5    1    3    3  502    0 -0.72500004762E+01 -0.63821072154E+02 -0.91468726280E+02  0.11184673462E+03  0.41800000000E+01 0.  1.
         -5    1    3    3    0  502 -0.77755494362E+01  0.50119949003E+02 -0.19255458243E+03  0.19916628247E+03  0.41800000000E+01 0.  1.
        -11    1    1    2    0    0  0.22817887136E+02 -0.71616648707E+01  0.22730999919E+02  0.32994602201E+02  0.00000000000E+00 0.  1.
         11    1    1    2    0    0 -0.77923372239E+01  0.20862788022E+02 -0.65520512540E+02  0.69201979791E+02  0.00000000000E+00 0. -1.
</event>
<event>
 7    1  0.2670433E-009  0.1687803E+03  0.7561462E-02  0.1179126E+00
          2   -1    0    0  501    0  0.00000000000E+00  0.00000000000E+00  0.14354674794E+04  0.14354674794E+04  0.00000000000E+00 0. -1.
         -2   -1    0    0    0  501 -0.00000000000E+00 -0.00000000000E+00 -0.23890841627E+02  0.23890841627E+02  0.00000000000E+00 0.  1.
         25    2    1    2    0    0  0.92947000258E+02 -0.11383390835E+03  0.63186399132E+03  0.66067908585E+03  0.12508975738E+03 0.  0.
          5    1    3    3  502    0  0.74354526423E+02 -0.93114693960E+01  0.15621693562E+03  0.17331042218E+03  0.41800000000E+01 0. -1.
         -5    1    3    3    0  502  0.18592473836E+02 -0.10452243896E+03  0.47564705570E+03  0.48736866367E+03  0.41800000000E+01 0. -1.
        -11    1    1    2    0    0 -0.18964399566E+00  0.33656368695E+02  0.61784198557E+02  0.70356764493E+02  0.00000000000E+00 0.  1.
         11    1    1    2    0    0 -0.92757356262E+02  0.80177539659E+02  0.71792844786E+03  0.72832247065E+03  0.00000000000E+00 0. -1.
</event>
<event>
 7    1  0.2670433E-009  0.9802816E+02  0.7561462E-02  0.1284498E+00
          1   -1    0    0  501    0  0.00000000000E+00  0.00000000000E+00  0.73459500725E+02  0.73459500725E+02  0.00000000000E+00 0. -1.
         -1   -1    0    0    0  501 -0.00000000000E+00 -0.00000000000E+00 -0.34465255280E+03  0.34465255280E+03  0.00000000000E+00 0.  1.
         25    2    1    2    0    0 -0.44495746210E+02 -0.20134255524E+02 -0.55777772869E+02  0.14541051417E+03  0.12509115879E+03 0.  0.
          5    1    3    3  502    0 -0.25690776645E+01 -0.23642471108E+02  0.36582436048E+02  0.43832791690E+02  0.41800000000E+01 0.  1.
         -5    1    3    3    0  502 -0.41926668545E+02  0.35082155842E+01 -0.92360208917E+02  0.10157772247E+03  0.41800000000E+01 0.  1.
        -11    1    1    2    0    0  0.39737064292E+01 -0.49179681397E+02 -0.76082217723E+01  0.49923105308E+02  0.00000000000E+00 0. -1.
         11    1    1    2    0    0  0.40522039781E+02  0.69313936920E+02 -0.20780705743E+03  0.22277843405E+03  0.00000000000E+00 0.  1.
</event>
<event>
 7    1  0.2670433E-009  0.2406315E+03  0.7561462E-02  0.1119373E+00
         -1   -1    0    0    0  501 -0.00000000000E+00  0.00000000000E+00  0.27041751708E+03  0.27041751708E+03  0.00000000000E+00 0.  1.
          1   -1    0    0  501    0  0.00000000000E+00 -0.00000000000E+00 -0.28991688537E+03  0.28991688537E+03  0.00000000000E+00 0. -1.
         25    2    1    2    0    0  0.20970583867E+03  0.11311294561E+03  0.88261858977E+02  0.28320871426E+03  0.12508374334E+03 0.  0.
          5    1    3    3  502    0  0.18506770036E+03  0.96182976913E+02  0.11896840405E+03  0.24015031195E+03  0.41800000000E+01 0.  1.
         -5    1    3    3    0  502  0.24638138303E+02  0.16929968700E+02 -0.30706545077E+02  0.43058402313E+02  0.41800000000E+01 0.  1.
        -11    1    1    2    0    0 -0.13137473557E+03 -0.45623359377E+02 -0.10400843379E+03  0.17366221917E+03  0.00000000000E+00 0. -1.
         11    1    1    2    0    0 -0.78331103094E+02 -0.67489586236E+02 -0.37527934752E+01  0.10346346902E+03  0.00000000000E+00 0.  1.
</event>
<event>
 7    1  0.2670433E-009  0.9487051E+02  0.7561462E-02  0.1291468E+00
         -1   -1    0    0    0  501 -0.00000000000E+00  0.00000000000E+00  0.12190994647E+03  0.12190994647E+03  0.00000000000E+00 0.  1.
          1   -1    0    0  501    0  0.00000000000E+00 -0.00000000000E+00 -0.17428838851E+03  0.17428838851E+03  0.00000000000E+00 0. -1.
         25    2    1    2    0    0 -0.16200914013E+02  0.58073585912E+02 -0.10532420004E+03  0.17428646079E+03  0.12509025664E+03 0.  0.
          5    1    3    3  502    0  0.37893173182E+02  0.98957259193E+01 -0.92589771692E+02  0.10061886596E+03  0.41800000000E+01 0.  1.
         -5    1    3    3    0  502 -0.54094087195E+02  0.48177859993E+02 -0.12734428349E+02  0.73667594832E+02  0.41800000000E+01 0.  1.
        -11    1    1    2    0    0 -0.14682740127E+02 -0.38568152338E+02  0.70263951817E+02  0.81486858802E+02  0.00000000000E+00 0.  1.
         11    1    1    2    0    0  0.30883654140E+02 -0.19505433575E+02 -0.17318193811E+02  0.40425015385E+02  0.00000000000E+00 0. -1.
</event>
<event>
 7    1  0.2670433E-009  0.1149634E+03  0.7561462E-02  0.1251645E+00
          1   -1    0    0  501    0  0.00000000000E+00  0.00000000000E+00  0.49928719790E+03  0.49928719790E+03  0.00000000000E+00 0. -1.
         -1   -1    0    0    0  501 -0.00000000000E+00 -0.00000000000E+00 -0.29137109220E+02  0.29137109220E+02  0.00000000000E+00 0.  1.
         25    2    1    2    0    0  0.23997099170E+02  0.43555543568E+02  0.29669539347E+03  0.32580564323E+03  0.12509282358E+03 0.  0.
          5    1    3    3  502    0  0.70541657548E+02  0.24878795208E+02  0.11484556304E+03  0.13712058799E+03  0.41800000000E+01 0. -1.
         -5    1    3    3    0  502 -0.46544558378E+02  0.18676748359E+02  0.18184983042E+03  0.18868505523E+03  0.41800000000E+01 0. -1.
        -11    1    1    2    0    0 -0.42158920442E+02  0.13927678694E+02  0.76454099631E+02  0.88411448111E+02  0.00000000000E+00 0.  1.
         11    1    1    2    0    0  0.18161821272E+02 -0.57483222261E+02  0.97000595577E+02  0.11420721578E+03  0.00000000000E+00 0. -1.
</event>
<event>
 7    1  0.2670433E-009  0.8931286E+02  0.7561462E-02  0.1304524E+00
          2   -1    0    0  501    0  0.00000000000E+00  0.00000000000E+00  0.11167886915E+03  0.11167886915E+03  0.00000000000E+00 0. -1.
         -2   -1    0    0    0  501 -0.00000000000E+00 -0.00000000000E+00 -0.12425803635E+03  0.12425803635E+03  0.00000000000E+00 0.  1.
         25    2    1    2    0    0  0.45629659235E+02 -0.51034322592E+01  0.50972500210E+01  0.13334798952E+03  0.12509034147E+03 0.  0.
          5    1    3    3  502    0  0.38298949750E+02  0.30594610781E+02 -0.48051580967E+02  0.68769663328E+02  0.41800000000E+01 0.  1.
         -5    1    3    3    0  502  0.73307094847E+01 -0.35698043041E+02  0.53148830988E+02  0.64578326193E+02  0.41800000000E+01 0.  1.
        -11    1    1    2    0    0  0.11398949194E+02  0.28813299520E+02 -0.25767481332E+02  0.40300190647E+02  0.00000000000E+00 0.  1.
         11    1    1    2    0    0 -0.57028608429E+02 -0.23709867261E+02  0.80910641201E+01  0.62288725332E+02  0.00000000000E+00 0. -1.
</event>
<event>
 7    1  0.2670433E-009  0.9336282E+02  0.7561462E-02  0.1294907E+00
          2   -1    0    0  501    0  0.00000000000E+00  0.00000000000E+00  0.43891614924E+02  0.43891614924E+02  0.00000000000E+00 0. -1.
         -2   -1    0    0    0  501 -0.00000000000E+00 -0.00000000000E+00 -0.32128038245E+03  0.32128038245E+03  0.00000000000E+00 0.  1.
         25    2    1    2    0    0  0.37263741854E+02 -0.15589083744E+02 -0.90039381727E+02  0.15933439449E+03  0.12509497598E+03 0.  0.
          5    1    3    3  502    0  0.62825642969E+02 -0.55214930265E+02 -0.51715633386E+02  0.98426262121E+02  0.41800000000E+01 0. -1.
         -5    1    3    3    0  502 -0.25561901115E+02  0.39625846521E+02 -0.38323748341E+02  0.60908132364E+02  0.41800000000E+01 0. -1.
        -11    1    1    2    0    0 -0.32432742316E+02 -0.64587510054E+01 -0.17859105130E+03  0.18162698545E+03  0.00000000000E+00 0.  1.
         11    1    1    2    0    0 -0.48309995387E+01  0.22047834749E+02 -0.87583345009E+01  0.24210617441E+02  0.00000000000E+00 0. -1.
</event>
<event>
 7    1  0.2670433E-009  0.9400585E+02  0.7561462E-02  0.1293431E+00
         -4   -1    0    0    0  501 -0.00000000000E+00  0.00000000000E+00  0.51876966589E+02  0.51876966589E+02  0.00000000000E+00 0.  1.
          4   -1    0    0  501    0  0.00000000000E+00 -0.00000000000E+00 -0.22318759207E+03  0.22318759207E+03  0.00000000000E+00 0. -1.
         25    2    1    2    0    0 -0.43414445102E+02 -0.29765132612E+02 -0.13768835941E+03  0.19333041971E+03  0.12509112561E+03 0.  0.
          5    1    3    3  502    0 -0.35707148160E+02  0.41569432832E+02 -0.94959009201E+02  0.10971647098E+03  0.41800000000E+01 0. -1.
         -5    1    3    3    0  502 -0.77072969418E+01 -0.71334565445E+02 -0.42729350213E+02  0.83613948734E+02  0.41800000000E+01 0. -1.
        -11    1    1    2    0    0  0.45632097609E+02  0.17749185164E+02 -0.33360511237E+01  0.49075973177E+02  0.00000000000E+00 0.  1.
         11    1    1    2    0    0 -0.22176525077E+01  0.12015947449E+02 -0.30286214946E+02  0.32658165770E+02  0.00000000000E+00 0. -1.
</event>
<event>
 7    1  0.2670433E-009  0.1848383E+03  0.7561462E-02  0.1163201E+00
         -2   -1    0    0    0  501 -0.00000000000E+00  0.00000000000E+00  0.37454355489E+02  0.37454355489E+02  0.00000000000E+00 0.  1.
          2   -1    0    0  501    0  0.00000000000E+00 -0.00000000000E+00 -0.14550051674E+04  0.14550051674E+04  0.00000000000E+00 0. -1.
         25    2    1    2    0    0 -0.13982193515E+03  0.75793549432E+02 -0.11509956639E+04  0.11686462162E+04  0.12509246429E+03 0.  0.
          5    1    3    3  502    0 -0.14919761193E+03  0.26720573810E+02 -0.90156362601E+03  0.91422555237E+03  0.41800000000E+01 0. -1.
         -5    1    3    3    0  502  0.93756767853E+01  0.49072975623E+02 -0.24943203785E+03  0.25442066378E+03  0.41800000000E+01 0. -1.
        -11    1    1    2    0    0  0.92358351393E+02 -0.77280295783E+02 -0.12102620889E+03  0.17073269290E+03  0.00000000000E+00 0.  1.
         11    1    1    2    0    0  0.47463583752E+02  0.14867463505E+01 -0.14552893918E+03  0.15308061385E+03  0.00000000000E+00 0. -1.
</event>
<event>
 7    1  0.2670433E-009  0.1339102E+03  0.7561462E-02  0.1221766E+00
         -1   -1    0    0    0  501 -0.00000000000E+00  0.00000000000E+00  0.44438115055E+02  0.44438115055E+02  0.00000000000E+00 0. -1.
          1   -1    0    0  501    0  0.00000000000E+00 -0.00000000000E+00 -0.66810294800E+03  0.66810294800E+03  0.00000000000E+00 0.  1.
         25    2    1    2    0    0 -0.40901617390E+02 -0.11502995073E+03 -0.21204189330E+03  0.27479793852E+03  0.12508921069E+03 0.  0.
          5    1    3    3  502    0 -0.69377355087E+01 -0.65173859838E+02 -0.20336703919E+03  0.21370865497E+03  0.41800000000E+01 0. -1.
         -5    1    3    3    0  502 -0.33963881881E+02 -0.49856090894E+02 -0.86748541169E+01  0.61089283558E+02  0.41800000000E+01 0. -1.
        -11    1    1    2    0    0 -0.15812813932E+02  0.62159044401E+02 -0.12091816937E+03  0.13687583997E+03  0.00000000000E+00 0. -1.
         11    1    1    2    0    0  0.56714431322E+02  0.52870906331E+02 -0.29070477027E+03  0.30086728455E+03  0.00000000000E+00 0.  1.
</event>
<event>
 7    1  0.2670433E-009  0.8857684E+02  0.7561462E-02  0.1306335E+00
         -2   -1    0    0    0  501 -0.00000000000E+00  0.00000000000E+00  0.45844848275E+02  0.45844848275E+02  0.00000000000E+00 0.  1.
          2   -1    0    0  501    0  0.00000000000E+00 -0.00000000000E+00 -0.30656555333E+03  0.30656555333E+03  0.00000000000E+00 0. -1.
         25    2    1    2    0    0 -0.50787898267E+02  0.13067075426E+02 -0.17410842844E+03  0.22070754498E+03  0.12509163236E+03 0.  0.
          5    1    3    3  502    0  0.33148403375E+02 -0.51849484011E+01 -0.10522022912E+03  0.11051909044E+03  0.41800000000E+01 0. -1.
         -5    1    3    3    0  502 -0.83936301642E+02  0.18252023827E+02 -0.68888199319E+02  0.11018845453E+03  0.41800000000E+01 0. -1.
        -11    1    1    2    0    0  0.26811354166E+02 -0.18731804639E+02  0.82189997267E+01  0.33723599656E+02  0.00000000000E+00 0.  1.
         11    1    1    2    0    0  0.23976544101E+02  0.56647292134E+01 -0.94831276343E+02  0.97979256973E+02  0.00000000000E+00 0. -1.
</event>
<event>
 7    1  0.2670433E-009  0.1025421E+03  0.7561462E-02  0.1275039E+00
          4   -1    0    0  501    0  0.00000000000E+00  0.00000000000E+00  0.14767937990E+03  0.14767937990E+03  0.00000000000E+00 0. -1.
         -4   -1    0    0    0  501 -0.00000000000E+00 -0.00000000000E+00 -0.12367316221E+03  0.12367316221E+03  0.00000000000E+00 0.  1.
         25    2    1    2    0    0  0.33506478462E+02  0.55358007842E+02 -0.35033813517E+02  0.14512770593E+03  0.12508992689E+03 0.  0.
          5    1    3    3  502    0 -0.40052714516E+02  0.40886442348E+02  0.89896866920E+01  0.58087933126E+02  0.41800000000E+01 0.  1.
         -5    1    3    3    0  502  0.73559192978E+02  0.14471565494E+02 -0.44023500208E+02  0.87039772806E+02  0.41800000000E+01 0.  1.
        -11    1    1    2    0    0  0.67393563135E+01 -0.77275105232E+01 -0.21822596862E+02  0.24111388931E+02  0.00000000000E+00 0.  1.
         11    1    1    2    0    0 -0.40245834776E+02 -0.47630497319E+02  0.80862628065E+02  0.10211344725E+03  0.00000000000E+00 0. -1.
</event>
<event>
 7    1  0.2670433E-009  0.1408979E+03  0.7561462E-02  0.1212126E+00
         -1   -1    0    0    0  501 -0.00000000000E+00  0.00000000000E+00  0.29640200898E+03  0.29640200898E+03  0.00000000000E+00 0.  1.
          1   -1    0    0  501    0  0.00000000000E+00 -0.00000000000E+00 -0.10636281819E+03  0.10636281819E+03  0.00000000000E+00 0. -1.
         25    2    1    2    0    0 -0.10184989009E+03  0.87850709222E+02  0.14376847609E+03  0.23325615100E+03  0.12509160660E+03 0.  0.
          5    1    3    3  502    0 -0.10102496472E+03  0.57713560710E+02  0.16068905506E+03  0.19843221362E+03  0.41800000000E+01 0.  1.
         -5    1    3    3    0  502 -0.82492537435E+00  0.30137148512E+02 -0.16920578970E+02  0.34823937385E+02  0.41800000000E+01 0.  1.
        -11    1    1    2    0    0  0.36089719882E+02 -0.24465794675E+02  0.63038091637E+02  0.76647530863E+02  0.00000000000E+00 0.  1.
         11    1    1    2    0    0  0.65760170210E+02 -0.63384914547E+02 -0.16767376939E+02  0.92861145306E+02  0.00000000000E+00 0. -1.
</event>
<event>
 7    1  0.2901452E-009  0.1113899E+03  0.7561462E-02  0.1258017E+00
         -2   -1    0    0    0  501 -0.00000000000E+00  0.00000000000E+00  0.22018416778E+03  0.22018416778E+03  0.00000000000E+00 0.  1.
          2   -1    0    0  501    0  0.00000000000E+00 -0.00000000000E+00 -0.10432808750E+03  0.10432808750E+03  0.00000000000E+00 0. -1.
         25    2    1    2    0    0 -0.81794618615E+02  0.51273356681E+01  0.13257765998E+03  0.19985001145E+03  0.12508613810E+03 0.  0.
          5    1    3    3  502    0 -0.56398446256E+02  0.58272400426E+02  0.10978841057E+03  0.13655557435E+03  0.41800000000E+01 0.  1.
         -5    1    3    3    0  502 -0.25396172359E+02 -0.53145064758E+02  0.22789249408E+02  0.63294437096E+02  0.41800000000E+01 0.  1.
        -11    1    1    2    0    0  0.45611940726E+02  0.19731572777E+01  0.37506706537E+02  0.59085493327E+02  0.00000000000E+00 0.  1.
         11    1    1    2    0    0  0.36182677889E+02 -0.71004929458E+01 -0.54228286230E+02  0.65576750505E+02  0.00000000000E+00 0. -1.
</event>
<event>
 7    1  0.2670433E-009  0.9175833E+02  0.7561462E-02  0.1298649E+00
         -4   -1    0    0    0  501 -0.00000000000E+00  0.00000000000E+00  0.22825974485E+03  0.22825974485E+03  0.00000000000E+00 0.  1.
          4   -1    0    0  501    0  0.00000000000E+00 -0.00000000000E+00 -0.60129687562E+02  0.60129687562E+02  0.00000000000E+00 0. -1.
         25    2    1    2    0    0 -0.25735295671E+02  0.36614726643E+02  0.11106737456E+03  0.17316427211E+03  0.12508780834E+03 0.  0.
          5    1    3    3  502    0 -0.49850473857E+01 -0.21938578572E+02 -0.18492100749E+02  0.29420776967E+02  0.41800000000E+01 0. -1.
         -5    1    3    3    0  502 -0.20750248286E+02  0.58553305215E+02  0.12955947530E+03  0.14374349515E+03  0.41800000000E+01 0. -1.
        -11    1    1    2    0    0  0.52441799674E+02  0.74645087742E+00  0.41004368924E+02  0.66573702111E+02  0.00000000000E+00 0.  1.
         11    1    1    2    0    0 -0.26706504002E+02 -0.37361177520E+02  0.16058313813E+02  0.48651458192E+02  0.00000000000E+00 0. -1.
</event>
<event>
 7    1  0.2670433E-009  0.1178385E+03  0.7561462E-02  0.1246706E+00
          1   -1    0    0  501    0  0.00000000000E+00  0.00000000000E+00  0.14670795092E+03  0.14670795092E+03  0.00000000000E+00 0. -1.
         -1   -1    0    0    0  501 -0.00000000000E+00 -0.00000000000E+00 -0.10956387182E+03  0.10956387182E+03  0.00000000000E+00 0.  1.
         25    2    1    2    0    0  0.52378423996E+02 -0.11523639842E+02 -0.15629622930E+02  0.13699653401E+03  0.12508985427E+03 0.  0.
          5    1    3    3  502    0 -0.53002997767E+01 -0.55604664609E+02  0.15165400179E+02  0.58029593024E+02  0.41800000000E+01 0. -1.
         -5    1    3    3    0  502  0.57678723773E+02  0.44081024766E+02 -0.30795023109E+02  0.78966940987E+02  0.41800000000E+01 0. -1.
        -11    1    1    2    0    0  0.14359061684E+02 -0.26499676497E+02  0.13951062955E+02  0.33212161394E+02  0.00000000000E+00 0.  1.
         11    1    1    2    0    0 -0.66737485680E+02  0.38023316339E+02  0.38822639075E+02  0.86063127326E+02  0.00000000000E+00 0. -1.
</event>
<event>
 7    1  0.2747638E-009  0.1691218E+03  0.7561462E-02  0.1178767E+00
         -3   -1    0    0    0  501 -0.00000000000E+00  0.00000000000E+00  0.49341679493E+02  0.49341679493E+02  0.00000000000E+00 0.  1.
          3   -1    0    0  501    0  0.00000000000E+00 -0.00000000000E+00 -0.76032338886E+03  0.76032338886E+03  0.00000000000E+00 0. -1.
         25    2    1    2    0    0  0.15714532029E+03 -0.12295324893E+02 -0.42809946415E+03  0.47303504566E+03  0.12508867457E+03 0.  0.
          5    1    3    3  502    0  0.14104671415E+02 -0.15646447755E+02  0.17087443862E+00  0.21476840576E+02  0.41800000000E+01 0. -1.
         -5    1    3    3    0  502  0.14304064888E+03  0.33511228616E+01 -0.42827033859E+03  0.45155820508E+03  0.41800000000E+01 0. -1.
        -11    1    1    2    0    0 -0.74722281095E+02 -0.30557645824E+02 -0.80802362004E+02  0.11422001014E+03  0.00000000000E+00 0.  1.
         11    1    1    2    0    0 -0.82423039196E+02  0.42852970717E+02 -0.20207988321E+03  0.22241001256E+03  0.00000000000E+00 0. -1.
</event>
<event>
 7    1  0.2670433E-009  0.9214409E+02  0.7561462E-02  0.1297741E+00
          1   -1    0    0  501    0  0.00000000000E+00  0.00000000000E+00  0.35968833032E+03  0.35968833032E+03  0.00000000000E+00 0. -1.
         -1   -1    0    0    0  501 -0.00000000000E+00 -0.00000000000E+00 -0.41672250501E+02  0.41672250501E+02  0.00000000000E+00 0.  1.
         25    2    1    2    0    0  0.23563903618E+02  0.33090248958E+01  0.93303370332E+02  0.15785587066E+03  0.12508696889E+03 0.  0.
          5    1    3    3  502    0  0.15984449915E+02 -0.48329145632E+02  0.92298217701E+02  0.10548764073E+03  0.41800000000E+01 0. -1.
         -5    1    3    3    0  502  0.75794537032E+01  0.51638170528E+02  0.10051526309E+01  0.52368229927E+02  0.41800000000E+01 0. -1.
        -11    1    1    2    0    0  0.28411158805E+02 -0.50194268236E+01  0.28638898426E+02  0.40651876874E+02  0.00000000000E+00 0.  1.
         11    1    1    2    0    0 -0.51975062423E+02  0.17104019279E+01  0.19607381106E+03  0.20285283329E+03  0.00000000000E+00 0. -1.
</event>
<event>
 7    1  0.3056311E-009  0.1065219E+03  0.7561462E-02  0.1267150E+00
          2   -1    0    0  501    0  0.00000000000E+00  0.00000000000E+00  0.95871611659E+03  0.95871611659E+03  0.00000000000E+00 0. -1.
         -2   -1    0    0    0  501 -0.00000000000E+00 -0.00000000000E+00 -0.26591419262E+02  0.26591419262E+02  0.00000000000E+00 0.  1.
         25    2    1    2    0    0  0.13797727346E+02 -0.33585304253E+02  0.84227196753E+03  0.85228433216E+03  0.12509262817E+03 0.  0.
          5    1    3    3  502    0  0.25007021598E+02  0.37622127618E+02  0.52229337453E+03  0.52426006627E+03  0.41800000000E+01 0. -1.
         -5    1    3    3    0  502 -0.11209294251E+02 -0.71207431871E+02  0.31997859300E+03  0.32802426589E+03  0.41800000000E+01 0. -1.
        -11    1    1    2    0    0 -0.51497263598E+02  0.16463065796E+02  0.65710572849E+02  0.85093360949E+02  0.00000000000E+00 0. -1.
         11    1    1    2    0    0  0.37699536251E+02  0.17122238457E+02  0.24142156956E+02  0.47929842748E+02  0.00000000000E+00 0.  1.
</event>
<event>
 7    1  0.2670433E-009  0.9876472E+02  0.7561462E-02  0.1282915E+00
         -2   -1    0    0    0  501 -0.00000000000E+00  0.00000000000E+00  0.12512670801E+02  0.12512670801E+02  0.00000000000E+00 0.  1.
          2   -1    0    0  501    0  0.00000000000E+00 -0.00000000000E+00 -0.10100453465E+04  0.10100453465E+04  0.00000000000E+00 0. -1.
         25    2    1    2    0    0 -0.18372152382E+02  0.22388328060E+00 -0.53099524586E+03  0.54583905051E+03  0.12508689713E+03 0.  0.
          5    1    3    3  502    0  0.39964685920E+02 -0.79424166491E+01 -0.70205687710E+02  0.81280803944E+02  0.41800000000E+01 0.  1.
         -5    1    3    3    0  502 -0.58336838302E+02  0.81662999297E+01 -0.46078955815E+03  0.46455824657E+03  0.41800000000E+01 0.  1.
        -11    1    1    2    0    0  0.48945598358E+02  0.27587665426E+02 -0.24507946998E+03  0.25143726352E+03  0.00000000000E+00 0. -1.
         11    1    1    2    0    0 -0.30573445975E+02 -0.27811548707E+02 -0.22145795987E+03  0.22528170328E+03  0.00000000000E+00 0.  1.
</event>
<event>
 7    1  0.2670433E-009  0.1085995E+03  0.7561462E-02  0.1263186E+00
          1   -1    0    0  501    0  0.00000000000E+00  0.00000000000E+00  0.28444953645E+03  0.28444953645E+03  0.00000000000E+00 0. -1.
         -1   -1    0    0    0  501 -0.00000000000E+00 -0.00000000000E+00 -0.42139604256E+02  0.42139604256E+02  0.00000000000E+00 0.  1.
         25    2    1    2    0    0  0.17540512978E+02 -0.69548768446E+01  0.13619046073E+03  0.18587928581E+03  0.12508887796E+03 0.  0.
          5    1    3    3  502    0  0.70094765222E+02  0.72969766961E+01  0.63458665013E+02  0.94926268997E+02  0.41800000000E+01 0.  1.
         -5    1    3    3    0  502 -0.52554252244E+02 -0.14251853541E+02  0.72731795721E+02  0.90953016811E+02  0.41800000000E+01 0.  1.
        -11    1    1    2    0    0 -0.48847261508E+02 -0.17891586747E+02  0.66528369467E+02  0.84452281065E+02  0.00000000000E+00 0. -1.
         11    1    1    2    0    0  0.31306748530E+02  0.24846463592E+02  0.39591101991E+02  0.56257573831E+02  0.00000000000E+00 0.  1.
</event>
<event>
 7    1  0.2670433E-009  0.9307553E+02  0.7561462E-02  0.1295570E+00
         -1   -1    0    0    0  501 -0.00000000000E+00  0.00000000000E+00  0.27877995325E+03  0.27877995325E+03  0.00000000000E+00 0.  1.
          1   -1    0    0  501    0  0.00000000000E+00 -0.00000000000E+00 -0.70504078987E+02  0.70504078987E+02  0.00000000000E+00 0. -1.
         25    2    1    2    0    0 -0.13718817958E+02  0.80517968184E+02  0.15562221271E+03  0.21572581661E+03  0.12509198893E+03 0.  0.
          5    1    3    3  502    0  0.16211009833E+02  0.59267293707E+02  0.16624422182E+03  0.17728514498E+03  0.41800000000E+01 0. -1.
         -5    1    3    3    0  502 -0.29929827791E+02  0.21250674477E+02 -0.10622009106E+02  0.38440671623E+02  0.41800000000E+01 0. -1.
        -11    1    1    2    0    0 -0.46128035359E+01 -0.59716396012E+02 -0.13877371208E+02  0.61480951040E+02  0.00000000000E+00 0. -1.
         11    1    1    2    0    0  0.18331621494E+02 -0.20801572172E+02  0.66531032761E+02  0.72077264596E+02  0.00000000000E+00 0.  1.
</event>
<event>
 7    1  0.2670433E-009  0.2112481E+03  0.7561462E-02  0.1140581E+00
         -2   -1    0    0    0  501 -0.00000000000E+00  0.00000000000E+00  0.13059239839E+04  0.13059239839E+04  0.00000000000E+00 0.  1.
          2   -1    0    0  501    0  0.00000000000E+00 -0.00000000000E+00 -0.49197435794E+02  0.49197435794E+02  0.00000000000E+00 0. -1.
         25    2    1    2    0    0  0.11610925082E+03  0.14203278698E+03  0.10185141253E+04  0.10424366379E+04  0.12509376441E+03 0.  0.
          5    1    3    3  502    0  0.93333843999E+02  0.19538139571E+02  0.51081819733E+03  0.51965916566E+03  0.41800000000E+01 0. -1.
         -5    1    3    3    0  502  0.22775406816E+02  0.12249464741E+03  0.50769592794E+03  0.52277747220E+03  0.41800000000E+01 0. -1.
        -11    1    1    2    0    0 -0.53174573028E+02 -0.12699373939E+03  0.15606405082E+03  0.20811278918E+03  0.00000000000E+00 0. -1.
         11    1    1    2    0    0 -0.62934677787E+02 -0.15039047588E+02  0.82148372005E+02  0.10457199263E+03  0.00000000000E+00 0.  1.
</event>
<event>
 7    1  0.2670433E-009  0.1302795E+03  0.7561462E-02  0.1227042E+00
          2   -1    0    0  501    0  0.00000000000E+00  0.00000000000E+00  0.41523119775E+02  0.41523119775E+02  0.00000000000E+00 0.  1.
         -2   -1    0    0    0  501 -0.00000000000E+00 -0.00000000000E+00 -0.47154640847E+03  0.47154640847E+03  0.00000000000E+00 0. -1.
         25    2    1    2    0    0 -0.63024714226E+02  0.54881085698E+02 -0.18648538719E+03  0.23959997238E+03  0.12508916402E+03 0.  0.
          5    1    3    3  502    0 -0.88556583220E+01  0.79418481351E+02 -0.60815367564E+02  0.10050720967E+03  0.41800000000E+01 0. -1.
         -5    1    3    3    0  502 -0.54169055904E+02 -0.24537395654E+02 -0.12567001963E+03  0.13909276270E+03  0.41800000000E+01 0. -1.
        -11    1    1    2    0    0 -0.21488134227E+02 -0.20461734138E+02 -0.91049910141E+02  0.95762772585E+02  0.00000000000E+00 0.  1.
         11    1    1    2    0    0  0.84512848453E+02 -0.34419351560E+02 -0.15248799136E+03  0.17770678328E+03  0.00000000000E+00 0. -1.
</event>
<event>
 7    1  0.2670433E-009  0.1038637E+03  0.7561462E-02  0.1272375E+00
         -1   -1    0    0    0  501 -0.00000000000E+00  0.00000000000E+00  0.44648789422E+02  0.44648789422E+02  0.00000000000E+00 0. -1.
          1   -1    0    0  501    0  0.00000000000E+00 -0.00000000000E+00 -0.56183690925E+03  0.56183690925E+03  0.00000000000E+00 0.  1.
         25    2    1    2    0    0 -0.72614222696E+02 -0.45768553401E+02 -0.42336200459E+03  0.44972320831E+03  0.12509193156E+03 0.  0.
          5    1    3    3  502    0 -0.74537001406E+02 -0.50162983964E+02 -0.14070996501E+03  0.16699956943E+03  0.41800000000E+01 0.  1.
         -5    1    3    3    0  502  0.19227787097E+01  0.43944305629E+01 -0.28265203958E+03  0.28272363887E+03  0.41800000000E+01 0.  1.
        -11    1    1    2    0    0 -0.61510672566E+01  0.30597850050E+02 -0.63962517218E+02  0.71170693863E+02  0.00000000000E+00 0.  1.
         11    1    1    2    0    0  0.78765289952E+02  0.15170703351E+02 -0.29863598018E+02  0.85591796500E+02  0.00000000000E+00 0. -1.
</event>
<event>
 7    1  0.2670433E-009  0.1068001E+03  0.7561462E-02  0.1266613E+00
         -1   -1    0    0    0  501 -0.00000000000E+00  0.00000000000E+00  0.81507462084E+02  0.81507462084E+02  0.00000000000E+00 0.  1.
          1   -1    0    0  501    0  0.00000000000E+00 -0.00000000000E+00 -0.21082259865E+03  0.21082259865E+03  0.00000000000E+00 0. -1.
         25    2    1    2    0    0 -0.69436272421E+02  0.32658704725E+01 -0.95578126562E+02  0.17208849863E+03  0.12508881344E+03 0.  0.
          5    1    3    3  502    0 -0.81196093749E+02  0.48783839981E+02 -0.73571864481E+02  0.12001233406E+03  0.41800000000E+01 0.  1.
         -5    1    3    3    0  502  0.11759821328E+02 -0.45517969508E+02 -0.22006262081E+02  0.52076164573E+02  0.41800000000E+01 0.  1.
        -11    1    1    2    0    0  0.43615788046E+02 -0.10318021145E+02  0.28072546289E+02  0.52885408028E+02  0.00000000000E+00 0.  1.
         11    1    1    2    0    0  0.25820484375E+02  0.70521506720E+01 -0.61809556291E+02  0.67356154072E+02  0.00000000000E+00 0. -1.
</event>
<event>
 7    1  0.2670433E-009  0.1029676E+03  0.7561462E-02  0.1274176E+00
         -1   -1    0    0    0  501 -0.00000000000E+00  0.00000000000E+00  0.49073854504E+02  0.49073854504E+02  0.00000000000E+00 0.  1.
          1   -1    0    0  501    0  0.00000000000E+00 -0.00000000000E+00 -0.36772632973E+03  0.36772632973E+03  0.00000000000E+00 0. -1.
         25    2    1    2    0    0  0.65529409643E+02  0.25283934545E+02 -0.23447099084E+03  0.27487756706E+03  0.12509056899E+03 0.  0.
          5    1    3    3  502    0  0.13142528110E+02  0.46823458755E+02 -0.20530978175E+03  0.21103255961E+03  0.41800000000E+01 0.  1.
         -5    1    3    3    0  502  0.52386881533E+02 -0.21539524210E+02 -0.29161209092E+02  0.63845007445E+02  0.41800000000E+01 0.  1.
        -11    1    1    2    0    0 -0.75823138894E+02 -0.31179715850E+01 -0.28409152110E+02  0.81030550178E+02  0.00000000000E+00 0.  1.
         11    1    1    2    0    0  0.10293729251E+02 -0.22165962960E+02 -0.55772332276E+02  0.60892066999E+02  0.00000000000E+00 0. -1.
</event>
<event>
 7    1  0.2670433E-009  0.1231567E+03  0.7561462E-02  0.1237979E+00
         -2   -1    0    0    0  501 -0.00000000000E+00  0.00000000000E+00  0.10890170503E+03  0.10890170503E+03  0.00000000000E+00 0.  1.
          2   -1    0    0  501    0  0.00000000000E+00 -0.00000000000E+00 -0.19736457670E+03  0.19736457670E+03  0.00000000000E+00 0. -1.
         25    2    1    2    0    0 -0.87357061497E+02 -0.50586179048E+01 -0.95163551787E+02  0.17988987504E+03  0.12508964683E+03 0.  0.
          5    1    3    3  502    0 -0.97903948483E+02 -0.27135064429E+02 -0.23933983086E+02  0.10445957494E+03  0.41800000000E+01 0. -1.
         -5    1    3    3    0  502  0.10546886986E+02  0.22076446524E+02 -0.71229568701E+02  0.75430300102E+02  0.41800000000E+01 0. -1.
        -11    1    1    2    0    0 -0.85144121134E+01  0.20966496242E+02 -0.14542618482E+02  0.26899385320E+02  0.00000000000E+00 0. -1.
         11    1    1    2    0    0  0.95871473611E+02 -0.15907878337E+02  0.21243298598E+02  0.99477021371E+02  0.00000000000E+00 0.  1.
</event>
<event>
 7    1  0.2670433E-009  0.1574577E+03  0.7561462E-02  0.1191597E+00
          2   -1    0    0  501    0  0.00000000000E+00  0.00000000000E+00  0.13534845276E+03  0.13534845276E+03  0.00000000000E+00 0. -1.
         -2   -1    0    0    0  501 -0.00000000000E+00 -0.00000000000E+00 -0.24845967662E+03  0.24845967662E+03  0.00000000000E+00 0.  1.
         25    2    1    2    0    0  0.12003565816E+03 -0.59259096791E+02  0.78062951139E+01  0.18338015518E+03  0.12508854179E+03 0.  0.
          5    1    3    3  502    0  0.12723643876E+03 -0.70666475969E+02  0.37625018714E+02  0.15038609180E+03  0.41800000000E+01 0. -1.
         -5    1    3    3    0  502 -0.72007806018E+01  0.11407379178E+02 -0.29818723600E+02  0.32994063377E+02  0.41800000000E+01 0. -1.
        -11    1    1    2    0    0 -0.10044437618E+03  0.85269087699E+01 -0.54530756225E+02  0.11460970401E+03  0.00000000000E+00 0.  1.
         11    1    1    2    0    0 -0.19591281982E+02  0.50732188021E+02 -0.66386762751E+02  0.85818270197E+02  0.00000000000E+00 0. -1.
</event>
<event>
 7    1  0.2670433E-009  0.8737785E+02  0.7561462E-02  0.1309329E+00
          2   -1    0    0  501    0  0.00000000000E+00  0.00000000000E+00  0.49288483092E+02  0.49288483092E+02  0.00000000000E+00 0. -1.
         -2   -1    0    0    0  501 -0.00000000000E+00 -0.00000000000E+00 -0.28390774488E+03  0.28390774488E+03  0.00000000000E+00 0.  1.
         25    2    1    2    0    0  0.16304465938E+02  0.41620358485E+02 -0.15047555302E+03  0.20072031009E+03  0.12509061106E+03 0.  0.
          5    1    3    3  502    0  0.36455694719E+01 -0.14200323038E+02  0.17501290688E+02  0.23210060898E+02  0.41800000000E+01 0. -1.
         -5    1    3    3    0  502  0.12658896466E+02  0.55820681522E+02 -0.16797684371E+03  0.17751024919E+03  0.41800000000E+01 0. -1.
        -11    1    1    2    0    0 -0.13799797544E+02 -0.71154333639E+02 -0.55879371513E+02  0.91519821725E+02  0.00000000000E+00 0. -1.
         11    1    1    2    0    0 -0.25046683935E+01  0.29533975154E+02 -0.28264337260E+02  0.40956096163E+02  0.00000000000E+00 0.  1.
</event>
<event>
 7    1  0.2670433E-009  0.1105832E+03  0.7561462E-02  0.1259494E+00
          3   -1    0    0  501    0  0.00000000000E+00  0.00000000000E+00  0.21716813586E+03  0.21716813586E+03  0.00000000000E+00 0. -1.
         -3   -1    0    0    0  501 -0.00000000000E+00 -0.00000000000E+00 -0.94257198682E+02  0.94257198682E+02  0.00000000000E+00 0.  1.
         25    2    1    2    0    0 -0.70110212809E+02 -0.13349196898E+02  0.35111148932E+01  0.14405611154E+03  0.12508474066E+03 0.  0.
          5    1    3    3  502    0 -0.26112953754E+02  0.42618429282E+02 -0.36734580547E+02  0.62170078625E+02  0.41800000000E+01 0. -1.
         -5    1    3    3    0  502 -0.43997259055E+02 -0.55967626181E+02  0.40245695440E+02  0.81886032912E+02  0.41800000000E+01 0. -1.
        -11    1    1    2    0    0  0.74090255698E+02 -0.11107097692E+02  0.41544506009E+02  0.85666093573E+02  0.00000000000E+00 0.  1.
         11    1    1    2    0    0 -0.39800428890E+01  0.24456294591E+02  0.77855316279E+02  0.81703129435E+02  0.00000000000E+00 0. -1.
</event>
<event>
 7    1  0.2670433E-009  0.8979446E+02  0.7561462E-02  0.1303350E+00
          2   -1    0    0  501    0  0.00000000000E+00  0.00000000000E+00  0.63276710455E+02  0.63276710455E+02  0.00000000000E+00 0. -1.
         -2   -1    0    0    0  501 -0.00000000000E+00 -0.00000000000E+00 -0.24182129169E+03  0.24182129169E+03  0.00000000000E+00 0.  1.
         25    2    1    2    0    0  0.15736153365E+02 -0.59989357337E+02 -0.88627247713E+02  0.16537414160E+03  0.12508984034E+03 0.  0.
          5    1    3    3  502    0  0.13124604266E+02 -0.78690074686E+02 -0.55538221044E+01  0.80079338354E+02  0.41800000000E+01 0.  1.
         -5    1    3    3    0  502  0.26115490989E+01  0.18700717349E+02 -0.83073425608E+02  0.85294803244E+02  0.41800000000E+01 0.  1.
        -11    1    1    2    0    0  0.18526385272E+02  0.27409824034E+02  0.52135482839E+01  0.33491886936E+02  0.00000000000E+00 0. -1.
         11    1    1    2    0    0 -0.34262538637E+02  0.32579533303E+02 -0.95130881808E+02  0.10623197361E+03  0.00000000000E+00 0.  1.
</event>
<event>
 7    1  0.2670433E-009  0.8984541E+02  0.7561462E-02  0.1303226E+00
         -2   -1    0    0    0  501 -0.00000000000E+00  0.00000000000E+00  0.23144956159E+02  0.23144956159E+02  0.00000000000E+00 0.  1.
          2   -1    0    0  501    0  0.00000000000E+00 -0.00000000000E+00 -0.73862385561E+03  0.73862385561E+03  0.00000000000E+00 0. -1.
         25    2    1    2    0    0  0.40990029407E+02 -0.38037396803E+02 -0.51512363744E+03  0.53303408178E+03  0.12508374961E+03 0.  0.
          5    1    3    3  502    0 -0.52588809761E+01 -0.20511603670E+02 -0.72913447117E+01  0.22781962645E+02  0.41800000000E+01 0. -1.
         -5    1    3    3    0  502  0.46248910383E+02 -0.17525793133E+02 -0.50783229273E+03  0.51025211913E+03  0.41800000000E+01 0. -1.
        -11    1    1    2    0    0 -0.62093256403E+02  0.53779225471E+02 -0.16811212004E+03  0.18710815719E+03  0.00000000000E+00 0.  1.
         11    1    1    2    0    0  0.21103226995E+02 -0.15741828668E+02 -0.32243141974E+02  0.41626572808E+02  0.00000000000E+00 0. -1.
</event>
<event>
 7    1  0.3043091E-009  0.1107678E+03  0.7561462E-02  0.1259155E+00
          1   -1    0    0  501    0  0.00000000000E+00  0.00000000000E+00  0.99902463041E+03  0.99902463041E+03  0.00000000000E+00 0. -1.
         -1   -1    0    0    0  501 -0.00000000000E+00 -0.00000000000E+00 -0.17506201129E+02  0.17506201129E+02  0.00000000000E+00 0.  1.
         25    2    1    2    0    0  0.74615999241E+02 -0.93987542611E+01  0.51241449976E+03  0.53279737216E+03  0.12509410976E+03 0.  0.
          5    1    3    3  502    0  0.71408822018E+02 -0.35331601662E+02  0.49437463660E+03  0.50077070167E+03  0.41800000000E+01 0.  1.
         -5    1    3    3    0  502  0.32071772234E+01  0.25932847401E+02  0.18039863159E+02  0.32026670493E+02  0.41800000000E+01 0.  1.
        -11    1    1    2    0    0 -0.58235451523E+02 -0.35016483659E+02  0.32586042795E+03  0.33287015553E+03  0.00000000000E+00 0. -1.
         11    1    1    2    0    0 -0.16380547718E+02  0.44415237920E+02  0.14324350158E+03  0.15086330384E+03  0.00000000000E+00 0.  1.
</event>
<event>
 7    1  0.2670433E-009  0.1174052E+03  0.7561462E-02  0.1247440E+00
         -1   -1    0    0    0  501 -0.00000000000E+00  0.00000000000E+00  0.42773605680E+02  0.42773605680E+02  0.00000000000E+00 0.  1.
          1   -1    0    0  501    0  0.00000000000E+00 -0.00000000000E+00 -0.34117727455E+03  0.34117727455E+03  0.00000000000E+00 0. -1.
         25    2    1    2    0    0 -0.28696164253E+02 -0.44305910898E+02 -0.14830425174E+03  0.20107070341E+03  0.12509513620E+03 0.  0.
          5    1    3    3  502    0 -0.75828680318E+02 -0.24164689342E+02 -0.11458938279E+03  0.13957836515E+03  0.41800000000E+01 0. -1.
         -5    1    3    3    0  502  0.47132516065E+02 -0.20141221556E+02 -0.33714868952E+02  0.61492338262E+02  0.41800000000E+01 0. -1.
        -11    1    1    2    0    0 -0.25609635853E+02 -0.94301762151E+01 -0.30148604424E+02  0.40665956532E+02  0.00000000000E+00 0.  1.
         11    1    1    2    0    0  0.54305800106E+02  0.53736087113E+02 -0.11995081271E+03  0.14221422029E+03  0.00000000000E+00 0. -1.
</event>
<event>
 7    1  0.2670433E-009  0.1274434E+03  0.7561462E-02  0.1231299E+00
          1   -1    0    0  501    0  0.00000000000E+00  0.00000000000E+00  0.90796548512E+03  0.90796548512E+03  0.00000000000E+00 0. -1.
         -1   -1    0    0    0  501 -0.00000000000E+00 -0.00000000000E+00 -0.18533240988E+02  0.18533240988E+02  0.00000000000E+00 0.  1.
         25    2    1    2    0    0  0.17896088729E+02 -0.64160413849E+02  0.49219176904E+03  0.51218894985E+03  0.12509178285E+03 0.  0.
          5    1    3    3  502    0  0.63557698225E+01  0.36429188504E+02  0.18527716461E+03  0.18897772808E+03  0.41800000000E+01 0.  1.
         -5    1    3    3    0  502  0.11540318906E+02 -0.10058960235E+03  0.30691460443E+03  0.32321122177E+03  0.41800000000E+01 0.  1.
        -11    1    1    2    0    0 -0.57269194559E+02  0.32775587451E+02  0.19356449017E+03  0.20450235116E+03  0.00000000000E+00 0.  1.
         11    1    1    2    0    0  0.39373105830E+02  0.31384826398E+02  0.20367598493E+03  0.20980742510E+03  0.00000000000E+00 0. -1.
</event>
<event>
 7    1  0.2670433E-009  0.1261694E+03  0.7561462E-02  0.1233253E+00
          2   -1    0    0  501    0  0.00000000000E+00  0.00000000000E+00  0.64985679486E+03  0.64985679486E+03  0.00000000000E+00 0. -1.
         -2   -1    0    0    0  501 -0.00000000000E+00 -0.00000000000E+00 -0.35717917389E+02  0.35717917389E+02  0.00000000000E+00 0.  1.
         25    2    1    2    0    0  0.90380768546E+02  0.81272540732E+02  0.32244349057E+03  0.36659378654E+03  0.12508913030E+03 0.  0.
          5    1    3    3  502    0  0.20989364521E+02  0.92216321989E+01  0.22725255223E+03  0.22844427509E+03  0.41800000000E+01 0. -1.
         -5    1    3    3    0  502  0.69391404025E+02  0.72050908533E+02  0.95190938336E+02  0.13814951145E+03  0.41800000000E+01 0. -1.
        -11    1    1    2    0    0 -0.42681234263E+02 -0.66430154512E+02  0.18651658214E+03  0.20254157252E+03  0.00000000000E+00 0. -1.
         11    1    1    2    0    0 -0.47699534283E+02 -0.14842386220E+02  0.10517880476E+03  0.11643935318E+03  0.00000000000E+00 0.  1.
</event>
<event>
 7    1  0.2670433E-009  0.9544511E+02  0.7561462E-02  0.1290177E+00
          1   -1    0    0  501    0  0.00000000000E+00  0.00000000000E+00  0.58857962108E+03  0.58857962108E+03  0.00000000000E+00 0. -1.
         -1   -1    0    0    0  501 -0.00000000000E+00 -0.00000000000E+00 -0.27511242692E+02  0.27511242692E+02  0.00000000000E+00 0.  1.
         25    2    1    2    0    0 -0.28526408834E+02 -0.42996150419E+01  0.16273077103E+03  0.20727417539E+03  0.12509611207E+03 0.  0.
          5    1    3    3  502    0  0.15317436628E+02 -0.39488061262E+02  0.14028043778E+03  0.14659469455E+03  0.41800000000E+01 0. -1.
         -5    1    3    3    0  502 -0.43843845462E+02  0.35188446221E+02  0.22450333253E+02  0.60679480844E+02  0.41800000000E+01 0. -1.
        -11    1    1    2    0    0  0.43754040777E+02 -0.30925863588E+02  0.23542914288E+03  0.24144917983E+03  0.00000000000E+00 0. -1.
         11    1    1    2    0    0 -0.15227631944E+02  0.35225478630E+02  0.16290846447E+03  0.16736750855E+03  0.00000000000E+00 0.  1.
</event>
<event>
 7    1  0.2670433E-009  0.1270382E+03  0.7561462E-02  0.1231918E+00
          1   -1    0    0  501    0  0.00000000000E+00  0.00000000000E+00  0.12982300882E+04  0.12982300882E+04  0.00000000000E+00 0. -1.
         -1   -1    0    0    0  501 -0.00000000000E+00 -0.00000000000E+00 -0.17165928355E+02  0.17165928355E+02  0.00000000000E+00 0.  1.
         25    2    1    2    0    0 -0.83703051847E+02  0.42069005145E+02  0.51560791811E+03  0.53877215639E+03  0.12509160322E+03 0.  0.
          5    1    3    3  502    0 -0.86107442880E+02  0.59068668975E+01  0.16487333417E+03  0.18614529679E+03  0.41800000000E+01 0.  1.
         -5    1    3    3    0  502  0.24043910336E+01  0.36162138248E+02  0.35073458394E+03  0.35262685960E+03  0.41800000000E+01 0.  1.
        -11    1    1    2    0    0  0.43043906665E+02  0.27160615178E+02  0.30717890026E+03  0.31136691167E+03  0.00000000000E+00 0.  1.
         11    1    1    2    0    0  0.40659145182E+02 -0.69229620324E+02  0.45827734149E+03  0.46525694852E+03  0.00000000000E+00 0. -1.
</event>
<event>
 7    1  0.2670433E-009  0.7482138E+02  0.7561462E-02  0.1344425E+00
          1   -1    0    0  501    0  0.00000000000E+00  0.00000000000E+00  0.13653597254E+03  0.13653597254E+03  0.00000000000E+00 0. -1.
         -1   -1    0    0    0  501 -0.00000000000E+00 -0.00000000000E+00 -0.22507569569E+03  0.22507569569E+03  0.00000000000E+00 0.  1.
         25    2    1    2    0    0 -0.29923640943E+01  0.73726037518E+02 -0.16533137363E+03  0.22006108353E+03  0.12509170446E+03 0.  0.
          5    1    3    3  502    0 -0.62628646069E+01  0.28342313167E+02  0.15761368305E+02  0.33292691685E+02  0.41800000000E+01 0. -1.
         -5    1    3    3    0  502  0.32705005126E+01  0.45383724351E+02 -0.18109274194E+03  0.18676839184E+03  0.41800000000E+01 0. -1.
        -11    1    1    2    0    0  0.69964175098E+01 -0.35045057848E+02 -0.17326234994E+02  0.39715291219E+02  0.00000000000E+00 0.  1.
         11    1    1    2    0    0 -0.40040534155E+01 -0.38680979670E+02  0.94117885477E+02  0.10183529348E+03  0.00000000000E+00 0. -1.
</event>
<event>
 7    1  0.2670433E-009  0.3058922E+03  0.7561462E-02  0.1082332E+00
          2   -1    0    0  501    0  0.00000000000E+00  0.00000000000E+00  0.28685411602E+04  0.28685411602E+04  0.00000000000E+00 0.  1.
         -2   -1    0    0    0  501 -0.00000000000E+00 -0.00000000000E+00 -0.34861789252E+02  0.34861789252E+02  0.00000000000E+00 0. -1.
         25    2    1    2    0    0 -0.29556338145E+03 -0.62896403632E+01  0.14643585652E+04  0.14991304764E+04  0.12509558593E+03 0.  0.
          5    1    3    3  502    0 -0.28429767910E+03 -0.16599313083E+02  0.11633838444E+04  0.11977396000E+04  0.41800000000E+01 0.  1.
         -5    1    3    3    0  502 -0.11265702343E+02  0.10309672720E+02  0.30097472083E+03  0.30139087641E+03  0.41800000000E+01 0.  1.
        -11    1    1    2    0    0  0.67563825321E+01  0.20897714279E+02  0.84061197774E+02  0.86882956547E+02  0.00000000000E+00 0. -1.
         11    1    1    2    0    0  0.28880699891E+03 -0.14608073916E+02  0.12852596080E+04  0.13173895166E+04  0.00000000000E+00 0.  1.
</event>
<event>
 7    1  0.2670433E-009  0.9755661E+02  0.7561462E-02  0.1285520E+00
          1   -1    0    0  501    0  0.00000000000E+00  0.00000000000E+00  0.56100877790E+03  0.56100877790E+03  0.00000000000E+00 0. -1.
         -1   -1    0    0    0  501 -0.00000000000E+00 -0.00000000000E+00 -0.25712721005E+02  0.25712721005E+02  0.00000000000E+00 0.  1.
         25    2    1    2    0    0  0.36734628467E+02  0.24365519583E+02  0.37002082835E+03  0.39307243988E+03  0.12508964028E+03 0.  0.
          5    1    3    3  502    0  0.40518638407E+02 -0.28473012912E+02  0.57217956832E+02  0.75788122464E+02  0.41800000000E+01 0.  1.
         -5    1    3    3    0  502 -0.37840099398E+01  0.52838532495E+02  0.31280287152E+03  0.31728431742E+03  0.41800000000E+01 0.  1.
        -11    1    1    2    0    0 -0.55310089839E+02 -0.39786750678E+02  0.15085523096E+03  0.16552791993E+03  0.00000000000E+00 0. -1.
         11    1    1    2    0    0  0.18575461372E+02  0.15421231096E+02  0.14419997578E+02  0.28121139092E+02  0.00000000000E+00 0.  1.
</event>
<event>
 7    1  0.2670433E-009  0.1026099E+03  0.7561462E-02  0.1274901E+00
          2   -1    0    0  501    0  0.00000000000E+00  0.00000000000E+00  0.43907054813E+03  0.43907054813E+03  0.00000000000E+00 0. -1.
         -2   -1    0    0    0  501 -0.00000000000E+00 -0.00000000000E+00 -0.45758558348E+02  0.45758558348E+02  0.00000000000E+00 0.  1.
         25    2    1    2    0    0 -0.24300374880E+02  0.14334864373E+02  0.35538021577E+03  0.37780739773E+03  0.12508930996E+03 0.  0.
          5    1    3    3  502    0 -0.43210652223E+02 -0.43881665893E+02  0.12518417515E+03  0.13957546767E+03  0.41800000000E+01 0.  1.
         -5    1    3    3    0  502  0.18910277344E+02  0.58216530266E+02  0.23019604061E+03  0.23823193006E+03  0.41800000000E+01 0.  1.
        -11    1    1    2    0    0  0.48099229702E+02 -0.27022046204E+02  0.52681156977E+02  0.76282574546E+02  0.00000000000E+00 0. -1.
         11    1    1    2    0    0 -0.23798854822E+02  0.12687181830E+02 -0.14749382962E+02  0.30739134201E+02  0.00000000000E+00 0.  1.
</event>
<event>
 7    1  0.2670433E-009  0.1143513E+03  0.7561462E-02  0.1252718E+00
          1   -1    0    0  501    0  0.00000000000E+00  0.00000000000E+00  0.95509935722E+03  0.95509935722E+03  0.00000000000E+00 0. -1.
         -1   -1    0    0    0  501 -0.00000000000E+00 -0.00000000000E+00 -0.27213201512E+02  0.27213201512E+02  0.00000000000E+00 0.  1.
         25    2    1    2    0    0 -0.79974522051E+02  0.77595896445E+02  0.45144094408E+03  0.48152182328E+03  0.12508914011E+03 0.  0.
          5    1    3    3  502    0 -0.41144655335E+01  0.82999173332E+01  0.28958225660E+03  0.28976054457E+03  0.41800000000E+01 0.  1.
         -5    1    3    3    0  502 -0.75860056517E+02  0.69295979112E+02  0.16185868748E+03  0.19176127870E+03  0.41800000000E+01 0.  1.
        -11    1    1    2    0    0  0.14621419939E+02 -0.34377936025E+02  0.31109257287E+02  0.48614959583E+02  0.00000000000E+00 0.  1.
         11    1    1    2    0    0  0.65353102111E+02 -0.43217960420E+02  0.44533595434E+03  0.45217577587E+03  0.00000000000E+00 0. -1.
</event>
<event>
 7    1  0.2670433E-009  0.9798293E+02  0.7561462E-02  0.1284596E+00
          1   -1    0    0  501    0  0.00000000000E+00  0.00000000000E+00  0.84928553837E+02  0.84928553837E+02  0.00000000000E+00 0. -1.
         -1   -1    0    0    0  501 -0.00000000000E+00 -0.00000000000E+00 -0.17309037953E+03  0.17309037953E+03  0.00000000000E+00 0.  1.
         25    2    1    2    0    0  0.28146259760E+02 -0.22675939002E+02 -0.95044274518E+02  0.16120424153E+03  0.12508790198E+03 0.  0.
          5    1    3    3  502    0  0.33210355347E+02  0.42497568180E+02 -0.11958201767E+02  0.55402545004E+02  0.41800000000E+01 0.  1.
         -5    1    3    3    0  502 -0.50640955865E+01 -0.65173507182E+02 -0.83086072751E+02  0.10580169653E+03  0.41800000000E+01 0.  1.
        -11    1    1    2    0    0  0.60103637387E+01 -0.20471228687E+02 -0.25276034009E+02  0.33076782968E+02  0.00000000000E+00 0.  1.
         11    1    1    2    0    0 -0.34156623499E+02  0.43147167690E+02  0.32158482837E+02  0.63737908868E+02  0.00000000000E+00 0. -1.
</event>
<event>
 7    1  0.2670433E-009  0.1005419E+03  0.7561462E-02  0.1279160E+00
          2   -1    0    0  501    0  0.00000000000E+00  0.00000000000E+00  0.29719695935E+03  0.29719695935E+03  0.00000000000E+00 0. -1.
         -2   -1    0    0    0  501 -0.00000000000E+00 -0.00000000000E+00 -0.45890916409E+02  0.45890916409E+02  0.00000000000E+00 0.  1.
         25    2    1    2    0    0 -0.21207099808E+02  0.17759801569E+02  0.93091488273E+02  0.15836162767E+03  0.12508888158E+03 0.  0.
          5    1    3    3  502    0  0.40394411793E+02 -0.21770391720E+02  0.65380561766E+02  0.79985928241E+02  0.41800000000E+01 0. -1.
         -5    1    3    3    0  502 -0.61601511601E+02  0.39530193289E+02  0.27710926507E+02  0.78375699428E+02  0.41800000000E+01 0. -1.
        -11    1    1    2    0    0 -0.15629370632E+02 -0.36977529969E+02  0.30481243202E+02  0.50405566519E+02  0.00000000000E+00 0. -1.
         11    1    1    2    0    0  0.36836470440E+02  0.19217728400E+02  0.12773331147E+03  0.13432068157E+03  0.00000000000E+00 0.  1.
</event>
<event>
 7    1  0.2670433E-009  0.8980485E+02  0.7561462E-02  0.1303325E+00
          2   -1    0    0  501    0  0.00000000000E+00  0.00000000000E+00  0.32132311548E+03  0.32132311548E+03  0.00000000000E+00 0. -1.
         -2   -1    0    0    0  501 -0.00000000000E+00 -0.00000000000E+00 -0.41997352668E+02  0.41997352668E+02  0.00000000000E+00 0.  1.
         25    2    1    2    0    0 -0.34691556540E+02  0.21227376431E+02  0.18175501081E+03  0.22435728888E+03  0.12508878251E+03 0.  0.
          5    1    3    3  502    0 -0.15319133751E+02  0.67193942635E+02  0.14986540392E+03  0.16500549530E+03  0.41800000000E+01 0. -1.
         -5    1    3    3    0  502 -0.19372422788E+02 -0.45966566204E+02  0.31889606894E+02  0.59351793579E+02  0.41800000000E+01 0. -1.
        -11    1    1    2    0    0  0.32385447391E+02  0.62087645813E+01 -0.44666925323E+01  0.33276377545E+02  0.00000000000E+00 0.  1.
         11    1    1    2    0    0  0.23061091485E+01 -0.27436141012E+02  0.10203744453E+03  0.10568680173E+03  0.00000000000E+00 0. -1.
</event>
<event>
 7    1  0.2670433E-009  0.8926503E+02  0.7561462E-02  0.1304641E+00
         -1   -1    0    0    0  501 -0.00000000000E+00  0.00000000000E+00  0.30837240267E+02  0.30837240267E+02  0.00000000000E+00 0.  1.
          1   -1    0    0  501    0  0.00000000000E+00 -0.00000000000E+00 -0.44843261187E+03  0.44843261187E+03  0.00000000000E+00 0. -1.
         25    2    1    2    0    0  0.35513062325E+02 -0.14743639525E+02 -0.18245453031E+03  0.22453593349E+03  0.12509267483E+03 0.  0.
          5    1    3    3  502    0  0.21927920266E+02 -0.52892853153E+02 -0.17363575686E+03  0.18288066071E+03  0.41800000000E+01 0. -1.
         -5    1    3    3    0  502  0.13585142058E+02  0.38149213629E+02 -0.88187734480E+01  0.41655272780E+02  0.41800000000E+01 0. -1.
        -11    1    1    2    0    0 -0.47437805448E+02 -0.13858041122E+02 -0.64260924587E+02  0.81066991546E+02  0.00000000000E+00 0.  1.
         11    1    1    2    0    0  0.11924743124E+02  0.28601680646E+02 -0.17087991670E+03  0.17366692710E+03  0.00000000000E+00 0. -1.
</event>
<event>
 7    1  0.2670433E-009  0.9644064E+02  0.7561462E-02  0.1287964E+00
          2   -1    0    0  501    0  0.00000000000E+00  0.00000000000E+00  0.38863886299E+03  0.38863886299E+03  0.00000000000E+00 0.  1.
         -2   -1    0    0    0  501 -0.00000000000E+00 -0.00000000000E+00 -0.38111472052E+02  0.38111472052E+02  0.00000000000E+00 0. -1.
         25    2    1    2    0    0 -0.13576874937E+02  0.37616618891E+02  0.12792453244E+03  0.18333408157E+03  0.12508939970E+03 0.  0.
          5    1    3    3  502    0 -0.20239511337E+02 -0.30799785367E+02  0.10402197199E+03  0.11043689444E+03  0.41800000000E+01 0.  1.
         -5    1    3    3    0  502  0.66626364008E+01  0.68416404257E+02  0.23902560448E+02  0.72897187129E+02  0.41800000000E+01 0.  1.
        -11    1    1    2    0    0 -0.30436882173E+02 -0.29067274316E+02  0.16575510140E+03  0.17101480601E+03  0.00000000000E+00 0.  1.
         11    1    1    2    0    0  0.44013757110E+02 -0.85493445744E+01  0.56847757097E+02  0.72401447462E+02  0.00000000000E+00 0. -1.
</event>
<event>
 7    1  0.2670433E-009  0.1078303E+03  0.7561462E-02  0.1264641E+00
         -1   -1    0    0    0  501 -0.00000000000E+00  0.00000000000E+00  0.75928872857E+02  0.75928872857E+02  0.00000000000E+00 0.  1.
          1   -1    0    0  501    0  0.00000000000E+00 -0.00000000000E+00 -0.27844050694E+03  0.27844050694E+03  0.00000000000E+00 0. -1.
         25    2    1    2    0    0 -0.37035508563E+02  0.50812890918E+02 -0.19938536070E+03  0.24363276045E+03  0.12509524820E+03 0.  0.
          5    1    3    3  502    0 -0.55425785831E+02  0.84112523586E+02 -0.13146079577E+03  0.16566939242E+03  0.41800000000E+01 0.  1.
         -5    1    3    3    0  502  0.18390277268E+02 -0.33299632667E+02 -0.67924564930E+02  0.77963368031E+02  0.41800000000E+01 0.  1.
        -11    1    1    2    0    0  0.14034660692E+02 -0.51683696832E+02  0.36569826411E+02  0.64850045664E+02  0.00000000000E+00 0.  1.
         11    1    1    2    0    0  0.23000847872E+02  0.87080591335E+00 -0.39696099790E+02  0.45886573682E+02  0.00000000000E+00 0. -1.
</event>
<event>
 7    1  0.2670433E-009  0.1037088E+03  0.7561462E-02  0.1272685E+00
          2   -1    0    0  501    0  0.00000000000E+00  0.00000000000E+00  0.15385886948E+03  0.15385886948E+03  0.00000000000E+00 0.  1.
         -2   -1    0    0    0  501 -0.00000000000E+00 -0.00000000000E+00 -0.13459532305E+03  0.13459532305E+03  0.00000000000E+00 0. -1.
         25    2    1    2    0    0  0.35516549164E+02  0.35279171237E+02  0.90857985226E+02  0.16250553560E+03  0.12508729125E+03 0.  0.
          5    1    3    3  502    0  0.43749865836E+02  0.66188929506E+02  0.10116952179E+03  0.12863813466E+03  0.41800000000E+01 0.  1.
         -5    1    3    3    0  502 -0.82333166727E+01 -0.30909758269E+02 -0.10311536566E+02  0.33867400934E+02  0.41800000000E+01 0.  1.
        -11    1    1    2    0    0 -0.51169659078E+02  0.60374332686E+01 -0.62217084842E+02  0.80782115947E+02  0.00000000000E+00 0. -1.
         11    1    1    2    0    0  0.15653109915E+02 -0.41316604506E+02 -0.93773539508E+01  0.45166540990E+02  0.00000000000E+00 0.  1.
</event>
<event>
 7    1  0.2670433E-009  0.1123733E+03  0.7561462E-02  0.1256237E+00
          2   -1    0    0  501    0  0.00000000000E+00  0.00000000000E+00  0.11851171648E+04  0.11851171648E+04  0.00000000000E+00 0.  1.
         -2   -1    0    0    0  501 -0.00000000000E+00 -0.00000000000E+00 -0.13000836169E+02  0.13000836169E+02  0.00000000000E+00 0. -1.
         25    2    1    2    0    0 -0.12390693745E+02  0.36300511630E+02  0.88646323075E+03  0.89606712210E+03  0.12509185184E+03 0.  0.
          5    1    3    3  502    0 -0.57737613754E+02 -0.17158675946E+02  0.38309746506E+03  0.38782623988E+03  0.41800000000E+01 0. -1.
         -5    1    3    3    0  502  0.45346920009E+02  0.53459187576E+02  0.50336576569E+03  0.50824088222E+03  0.41800000000E+01 0. -1.
        -11    1    1    2    0    0  0.42372883494E+02 -0.46084847124E+02  0.14556361984E+03  0.15845517287E+03  0.00000000000E+00 0.  1.
         11    1    1    2    0    0 -0.29982189749E+02  0.97843354942E+01  0.14008947809E+03  0.14359570604E+03  0.00000000000E+00 0. -1.
</event>
<event>
 7    1  0.2670433E-009  0.1099862E+03  0.7561462E-02  0.1260595E+00
         -1   -1    0    0    0  501 -0.00000000000E+00  0.00000000000E+00  0.13180044687E+03  0.13180044687E+03  0.00000000000E+00 0.  1.
          1   -1    0    0  501    0  0.00000000000E+00 -0.00000000000E+00 -0.21101773055E+03  0.21101773055E+03  0.00000000000E+00 0. -1.
         25    2    1    2    0    0 -0.11210937482E+02  0.34886178931E+02  0.77813625327E+02  0.15181007859E+03  0.12509440066E+03 0.  0.
          5    1    3    3  502    0 -0.60109786499E+02  0.28979990521E+02  0.95676744627E+01  0.67542868447E+02  0.41800000000E+01 0. -1.
         -5    1    3    3    0  502  0.48898849016E+02  0.59061884106E+01  0.68245950864E+02  0.84267210147E+02  0.41800000000E+01 0. -1.
        -11    1    1    2    0    0 -0.33552044795E+02 -0.46587664258E+02 -0.57530724700E+02  0.81276899888E+02  0.00000000000E+00 0. -1.
         11    1    1    2    0    0  0.44762982277E+02  0.11701485326E+02 -0.99500184307E+02  0.10973119893E+03  0.00000000000E+00 0.  1.
</event>
<event>
 7    1  0.2670433E-009  0.1320327E+03  0.7561462E-02  0.1224470E+00
          1   -1    0    0  501    0  0.00000000000E+00  0.00000000000E+00  0.38998237298E+03  0.38998237298E+03  0.00000000000E+00 0. -1.
         -1   -1    0    0    0  501 -0.00000000000E+00 -0.00000000000E+00 -0.48378020995E+02  0.48378020995E+02  0.00000000000E+00 0.  1.
         25    2    1    2    0    0  0.81490122909E+02  0.13541149460E+02  0.20739325722E+03  0.25589745922E+03  0.12509014204E+03 0.  0.
          5    1    3    3  502    0  0.99175467186E+01  0.58951053503E+02  0.11970649913E+03  0.13386822915E+03  0.41800000000E+01 0. -1.
         -5    1    3    3    0  502  0.71572576191E+02 -0.45409904043E+02  0.87686758091E+02  0.12202923007E+03  0.41800000000E+01 0. -1.
        -11    1    1    2    0    0 -0.21003207464E+02 -0.46043724758E+02  0.81346882790E+02  0.95804356128E+02  0.00000000000E+00 0.  1.
         11    1    1    2    0    0 -0.60486915445E+02  0.32502575298E+02  0.52864211975E+02  0.86658578622E+02  0.00000000000E+00 0. -1.
</event>
<event>
 7    1  0.2670433E-009  0.1172305E+03  0.7561462E-02  0.1247737E+00
          1   -1    0    0  501    0  0.00000000000E+00  0.00000000000E+00  0.73346735043E+02  0.73346735043E+02  0.00000000000E+00 0. -1.
         -1   -1    0    0    0  501 -0.00000000000E+00 -0.00000000000E+00 -0.32469747138E+03  0.32469747138E+03  0.00000000000E+00 0.  1.
         25    2    1    2    0    0  0.44746795912E+02  0.37292168600E+02 -0.22251998902E+03  0.26183183634E+03  0.12509110051E+03 0.  0.
          5    1    3    3  502    0  0.82925882362E+02  0.50347356769E+02 -0.14861669186E+03  0.17752732691E+03  0.41800000000E+01 0. -1.
         -5    1    3    3    0  502 -0.38179086450E+02 -0.13055188169E+02 -0.73903297156E+02  0.84304509434E+02  0.41800000000E+01 0. -1.
        -11    1    1    2    0    0  0.18842299461E+02  0.61043191588E+01 -0.52139931603E+02  0.55775150640E+02  0.00000000000E+00 0.  1.
         11    1    1    2    0    0 -0.63589095373E+02 -0.43396487759E+02  0.23309184281E+02  0.80437219445E+02  0.00000000000E+00 0. -1.
</event>
<event>
 7    1  0.2670433E-009  0.1245959E+03  0.7561462E-02  0.1235702E+00
         -1   -1    0    0    0  501 -0.00000000000E+00  0.00000000000E+00  0.57494085389E+03  0.57494085389E+03  0.00000000000E+00 0.  1.
          1   -1    0    0  501    0  0.00000000000E+00 -0.00000000000E+00 -0.30259912790E+02  0.30259912790E+02  0.00000000000E+00 0. -1.
         25    2    1    2    0    0 -0.12745718190E+02  0.72762189577E+02  0.27152804106E+03  0.30794575116E+03  0.12508524699E+03 0.  0.
          5    1    3    3  502    0 -0.41552730902E+02 -0.21156578682E+02  0.81642127966E+02  0.94112378175E+02  0.41800000000E+01 0. -1.
         -5    1    3    3    0  502  0.28807012711E+02  0.93918768259E+02  0.18988591309E+03  0.21383337299E+03  0.41800000000E+01 0. -1.
        -11    1    1    2    0    0 -0.24968335154E+02 -0.35366080086E+01  0.14209098991E+03  0.14431138129E+03  0.00000000000E+00 0.  1.
         11    1    1    2    0    0  0.37714053344E+02 -0.69225581568E+02  0.13106191013E+03  0.15294363423E+03  0.00000000000E+00 0. -1.
</event>
<event>
 7    1  0.2670433E-009  0.1117028E+03  0.7561462E-02  0.1257449E+00
         -4   -1    0    0    0  501 -0.00000000000E+00  0.00000000000E+00  0.11017489928E+03  0.11017489928E+03  0.00000000000E+00 0.  1.
          4   -1    0    0  501    0  0.00000000000E+00 -0.00000000000E+00 -0.19159992789E+03  0.19159992789E+03  0.00000000000E+00 0. -1.
         25    2    1    2    0    0  0.37773006027E+02  0.20332141136E+02  0.45617007205E+02  0.13988663220E+03  0.12508861889E+03 0.  0.
          5    1    3    3  502    0 -0.35738559333E+02  0.37404471431E+02  0.37156046973E+02  0.63830896381E+02  0.41800000000E+01 0. -1.
         -5    1    3    3    0  502  0.73511565360E+02 -0.17072330295E+02  0.84609602321E+01  0.76055735822E+02  0.41800000000E+01 0. -1.
        -11    1    1    2    0    0  0.20871835361E+02 -0.29936262300E+02 -0.26512742255E+02  0.45108079251E+02  0.00000000000E+00 0.  1.
         11    1    1    2    0    0 -0.58644841387E+02  0.96041211643E+01 -0.10052929355E+03  0.11678011572E+03  0.00000000000E+00 0. -1.
</event>
<event>
 7    1  0.2670433E-009  0.1104497E+03  0.7561462E-02  0.1259739E+00
          1   -1    0    0  501    0  0.00000000000E+00  0.00000000000E+00  0.23619734953E+02  0.23619734953E+02  0.00000000000E+00 0. -1.
         -1   -1    0    0    0  501 -0.00000000000E+00 -0.00000000000E+00 -0.68317420511E+03  0.68317420511E+03  0.00000000000E+00 0.  1.
         25    2    1    2    0    0  0.29794160413E+02 -0.24891128896E+02 -0.22431594270E+03  0.25975529382E+03  0.12509160733E+03 0.  0.
          5    1    3    3  502    0  0.70742598155E+02 -0.34650870494E+02 -0.18845262828E+03  0.20429650885E+03  0.41800000000E+01 0.  1.
         -5    1    3    3    0  502 -0.40948437742E+02  0.97597415979E+01 -0.35863314419E+02  0.55458784973E+02  0.41800000000E+01 0.  1.
        -11    1    1    2    0    0  0.32029841433E+02  0.19854057154E+02 -0.21291423737E+03  0.21622341872E+03  0.00000000000E+00 0.  1.
         11    1    1    2    0    0 -0.61824001846E+02  0.50370717425E+01 -0.22232429008E+03  0.23081522752E+03  0.00000000000E+00 0. -1.
</event>
<event>
 7    1  0.2670433E-009  0.9186570E+02  0.7561462E-02  0.1298396E+00
         -2   -1    0    0    0  501 -0.00000000000E+00  0.00000000000E+00  0.54417044524E+03  0.54417044524E+03  0.00000000000E+00 0.  1.
          2   -1    0    0  501    0  0.00000000000E+00 -0.00000000000E+00 -0.27011567693E+02  0.27011567693E+02  0.00000000000E+00 0. -1.
         25    2    1    2    0    0  0.47050589192E+02 -0.25701673555E+02  0.30781716372E+03  0.33656391058E+03  0.12509806418E+03 0.  0.
          5    1    3    3  502    0  0.12645572638E+02 -0.39803663448E+02  0.20303273614E+02  0.46625502149E+02  0.41800000000E+01 0.  1.
         -5    1    3    3    0  502  0.34405016553E+02  0.14101989892E+02  0.28751389010E+03  0.28993840843E+03  0.41800000000E+01 0.  1.
        -11    1    1    2    0    0 -0.73974321327E+02  0.21918548502E+02  0.17115991627E+03  0.18774541251E+03  0.00000000000E+00 0. -1.
         11    1    1    2    0    0  0.26923732135E+02  0.37831250535E+01  0.38181797565E+02  0.46872689837E+02  0.00000000000E+00 0.  1.
</event>
<event>
 7    1  0.2670433E-009  0.8764721E+02  0.7561462E-02  0.1308651E+00
          1   -1    0    0  501    0  0.00000000000E+00  0.00000000000E+00  0.18463277048E+03  0.18463277048E+03  0.00000000000E+00 0. -1.
         -1   -1    0    0    0  501 -0.00000000000E+00 -0.00000000000E+00 -0.10580944762E+03  0.10580944762E+03  0.00000000000E+00 0.  1.
         25    2    1    2    0    0  0.14907178232E+02 -0.40255479893E+02 -0.36487497201E+02  0.13719160393E+03  0.12508985216E+03 0.  0.
          5    1    3    3  502    0  0.15412451821E+02  0.44145840528E+02 -0.20311669474E+02  0.51151101883E+02  0.41800000000E+01 0. -1.
         -5    1    3    3    0  502 -0.50527358900E+00 -0.84401320421E+02 -0.16175827728E+02  0.86040502049E+02  0.41800000000E+01 0. -1.
        -11    1    1    2    0    0 -0.73737419128E+01  0.31218663546E+02  0.13030297086E+03  0.13419329804E+03  0.00000000000E+00 0. -1.
         11    1    1    2    0    0 -0.75334363193E+01  0.90368163469E+01 -0.14992150798E+02  0.19057316129E+02  0.00000000000E+00 0.  1.
</event>
<event>
 7    1  0.2670433E-009  0.1114031E+03  0.7561462E-02  0.1257993E+00
          1   -1    0    0  501    0  0.00000000000E+00  0.00000000000E+00  0.11494386138E+04  0.11494386138E+04  0.00000000000E+00 0. -1.
         -1   -1    0    0    0  501 -0.00000000000E+00 -0.00000000000E+00 -0.19647868982E+02  0.19647868982E+02  0.00000000000E+00 0.  1.
         25    2    1    2    0    0 -0.72220594554E+02  0.18427571957E+02  0.90281523499E+03  0.91448296129E+03  0.12509335824E+03 0.  0.
          5    1    3    3  502    0 -0.92910446422E+02 -0.91616746473E+00  0.84357454956E+03  0.84868644592E+03  0.41800000000E+01 0. -1.
         -5    1    3    3    0  502  0.20689851867E+02  0.19343739422E+02  0.59240685423E+02  0.65796515368E+02  0.41800000000E+01 0. -1.
        -11    1    1    2    0    0  0.69781305982E+02  0.11859010821E+02  0.20562797691E+03  0.21746938104E+03  0.00000000000E+00 0. -1.
         11    1    1    2    0    0  0.24392885719E+01 -0.30286582779E+02  0.21347532913E+02  0.37134140446E+02  0.00000000000E+00 0.  1.
</event>
<event>
 7    1  0.3409909E-009  0.1778597E+03  0.7561462E-02  0.1169891E+00
          2   -1    0    0  501    0  0.00000000000E+00  0.00000000000E+00  0.51503326195E+03  0.51503326195E+03  0.00000000000E+00 0. -1.
         -2   -1    0    0    0  501 -0.00000000000E+00 -0.00000000000E+00 -0.79818565904E+02  0.79818565904E+02  0.00000000000E+00 0.  1.
         25    2    1    2    0    0  0.84738529088E+02  0.13350873514E+03  0.13130618968E+03  0.24061232660E+03  0.12509106920E+03 0.  0.
          5    1    3    3  502    0  0.62273306891E+02  0.13742384588E+03  0.14850814764E+03  0.21174376138E+03  0.41800000000E+01 0. -1.
         -5    1    3    3    0  502  0.22465222196E+02 -0.39151107468E+01 -0.17201957954E+02  0.28868565222E+02  0.41800000000E+01 0. -1.
        -11    1    1    2    0    0 -0.93687698100E+01 -0.97719120543E+02  0.17593355005E+03  0.20146814736E+03  0.00000000000E+00 0.  1.
         11    1    1    2    0    0 -0.75369759278E+02 -0.35789614595E+02  0.12797495631E+03  0.15277135389E+03  0.00000000000E+00 0. -1.
</event>
<event>
 7    1  0.2670433E-009  0.7826747E+02  0.7561462E-02  0.1334041E+00
         -3   -1    0    0    0  501 -0.00000000000E+00  0.00000000000E+00  0.25154421879E+03  0.25154421879E+03  0.00000000000E+00 0.  1.
          3   -1    0    0  501    0  0.00000000000E+00 -0.00000000000E+00 -0.61788143959E+02  0.61788143959E+02  0.00000000000E+00 0. -1.
         25    2    1    2    0    0  0.34836051392E+02  0.26438928257E+02  0.99734361278E+02  0.16584912847E+03  0.12508566341E+03 0.  0.
          5    1    3    3  502    0  0.86006986413E+01  0.14095228032E+02  0.12561240509E+03  0.12676196663E+03  0.41800000000E+01 0.  1.
         -5    1    3    3    0  502  0.26235352750E+02  0.12343700225E+02 -0.25878043814E+02  0.39087161841E+02  0.41800000000E+01 0.  1.
        -11    1    1    2    0    0 -0.70829511886E+02 -0.20425331111E+02  0.81726109355E+02  0.11005985124E+03  0.00000000000E+00 0.  1.
         11    1    1    2    0    0  0.35993460494E+02 -0.60135971463E+01  0.82956041963E+01  0.37423383037E+02  0.00000000000E+00 0. -1.
</event>
<event>
 7    1  0.2670433E-009  0.9743127E+02  0.7561462E-02  0.1285792E+00
          1   -1    0    0  501    0  0.00000000000E+00  0.00000000000E+00  0.39444693493E+03  0.39444693493E+03  0.00000000000E+00 0. -1.
         -1   -1    0    0    0  501 -0.00000000000E+00 -0.00000000000E+00 -0.56244443553E+02  0.56244443553E+02  0.00000000000E+00 0.  1.
         25    2    1    2    0    0  0.58106233025E+02 -0.13375346460E+02  0.29081519432E+03  0.32214269104E+03  0.12508877620E+03 0.  0.
          5    1    3    3  502    0  0.76117968292E+02  0.32973995332E+02  0.22285070889E+03  0.23782586133E+03  0.41800000000E+01 0. -1.
         -5    1    3    3    0  502 -0.18011735266E+02 -0.46349341792E+02  0.67964485436E+02  0.84316829711E+02  0.41800000000E+01 0. -1.
        -11    1    1    2    0    0 -0.21312624919E+02 -0.31933848311E+01 -0.32530540890E+02  0.39021299033E+02  0.00000000000E+00 0.  1.
         11    1    1    2    0    0 -0.36793608106E+02  0.16568731291E+02  0.79917837941E+02  0.89527388408E+02  0.00000000000E+00 0. -1.
</event>
<event>
 7    1  0.2670433E-009  0.1290487E+03  0.7561462E-02  0.1228874E+00
         -1   -1    0    0    0  501 -0.00000000000E+00  0.00000000000E+00  0.46256929754E+02  0.46256929754E+02  0.00000000000E+00 0.  1.
          1   -1    0    0  501    0  0.00000000000E+00 -0.00000000000E+00 -0.56120258755E+03  0.56120258755E+03  0.00000000000E+00 0. -1.
         25    2    1    2    0    0 -0.11063881257E+03  0.62041769551E+01 -0.18983300891E+03  0.25291138940E+03  0.12509260953E+03 0.  0.
          5    1    3    3  502    0  0.38766428224E+01  0.14040261862E+02  0.12900877156E+02  0.19901315135E+02  0.41800000000E+01 0.  1.
         -5    1    3    3    0  502 -0.11451545539E+03 -0.78360849065E+01 -0.20273388607E+03  0.23301007427E+03  0.41800000000E+01 0.  1.
        -11    1    1    2    0    0  0.70828140012E+02 -0.34948719153E+02 -0.12014365492E+03  0.14377947074E+03  0.00000000000E+00 0. -1.
         11    1    1    2    0    0  0.39810672560E+02  0.28744542198E+02 -0.20496899397E+03  0.21076865717E+03  0.00000000000E+00 0.  1.
</event>
<event>
 7    1  0.2670433E-009  0.8048277E+02  0.7561462E-02  0.1327687E+00
          2   -1    0    0  501    0  0.00000000000E+00  0.00000000000E+00  0.44321701735E+03  0.44321701735E+03  0.00000000000E+00 0. -1.
         -2   -1    0    0    0  501 -0.00000000000E+00 -0.00000000000E+00 -0.26764292755E+02  0.26764292755E+02  0.00000000000E+00 0.  1.
         25    2    1    2    0    0 -0.42491116946E+01  0.30526841966E+01  0.22583253621E+03  0.25821490650E+03  0.12508888719E+03 0.  0.
          5    1    3    3  502    0 -0.23029566309E+02  0.47631377397E+02  0.40866721969E+02  0.66982612681E+02  0.41800000000E+01 0. -1.
         -5    1    3    3    0  502  0.18780454614E+02 -0.44578693200E+02  0.18496581424E+03  0.19123229382E+03  0.41800000000E+01 0. -1.
        -11    1    1    2    0    0 -0.74272937357E+01  0.26523076159E+02  0.11503255840E+02  0.29849005948E+02  0.00000000000E+00 0.  1.
         11    1    1    2    0    0  0.11676405430E+02 -0.29575760356E+02  0.17911693254E+03  0.18191739765E+03  0.00000000000E+00 0. -1.
</event>
<event>
 7    1  0.2670433E-009  0.9155313E+02  0.7561462E-02  0.1299134E+00
         -1   -1    0    0    0  501 -0.00000000000E+00  0.00000000000E+00  0.34845765629E+03  0.34845765629E+03  0.00000000000E+00 0.  1.
          1   -1    0    0  501    0  0.00000000000E+00 -0.00000000000E+00 -0.34561352152E+02  0.34561352152E+02  0.00000000000E+00 0. -1.
         25    2    1    2    0    0  0.12546009539E+02  0.13243012009E+02  0.19361459925E+03  0.23122875270E+03  0.12508934132E+03 0.  0.
          5    1    3    3  502    0 -0.51850517094E+02  0.19625809227E+02  0.12506799667E+03  0.13686900563E+03  0.41800000000E+01 0.  1.
         -5    1    3    3    0  502  0.64396526633E+02 -0.63827972173E+01  0.68546602579E+02  0.94359747074E+02  0.41800000000E+01 0.  1.
        -11    1    1    2    0    0  0.15937676308E+02 -0.26749668530E+02  0.11584383201E+03  0.11995560724E+03  0.00000000000E+00 0.  1.
         11    1    1    2    0    0 -0.28483685847E+02  0.13506656521E+02  0.44378728798E+01  0.31834648506E+02  0.00000000000E+00 0. -1.
</event>
<event>
 7    1  0.2670433E-009  0.1509103E+03  0.7561462E-02  0.1199359E+00
         -1   -1    0    0    0  501 -0.00000000000E+00  0.00000000000E+00  0.29635016376E+03  0.29635016376E+03  0.00000000000E+00 0.  1.
          1   -1    0    0  501    0  0.00000000000E+00 -0.00000000000E+00 -0.10033903877E+03  0.10033903877E+03  0.00000000000E+00 0. -1.
         25    2    1    2    0    0 -0.76944412711E+02 -0.10174359208E+03  0.14899881153E+03  0.23263760279E+03  0.12508959677E+03 0.  0.
          5    1    3    3  502    0 -0.86652201896E+02 -0.12174245123E+03  0.10349008556E+03  0.18181721243E+03  0.41800000000E+01 0.  1.
         -5    1    3    3    0  502  0.97077891856E+01  0.19998859147E+02  0.45508725963E+02  0.50820390365E+02  0.41800000000E+01 0.  1.
        -11    1    1    2    0    0  0.66762055241E+02  0.71614145929E+02  0.73690738807E+02  0.12254012773E+03  0.00000000000E+00 0.  1.
         11    1    1    2    0    0  0.10182357470E+02  0.30129446154E+02 -0.26678425345E+02  0.41511472006E+02  0.00000000000E+00 0. -1.
</event>
<event>
 7    1  0.2670433E-009  0.1159635E+03  0.7561462E-02  0.1249909E+00
          3   -1    0    0  501    0  0.00000000000E+00  0.00000000000E+00  0.61021719641E+02  0.61021719641E+02  0.00000000000E+00 0. -1.
         -3   -1    0    0    0  501 -0.00000000000E+00 -0.00000000000E+00 -0.29245779368E+03  0.29245779368E+03  0.00000000000E+00 0.  1.
         25    2    1    2    0    0  0.33551048631E+02  0.26218585750E+02 -0.21256642983E+03  0.25028927874E+03  0.12508856407E+03 0.  0.
          5    1    3    3  502    0 -0.15160711834E+02 -0.42990486401E+02 -0.56638720667E+02  0.72824763530E+02  0.41800000000E+01 0. -1.
         -5    1    3    3    0  502  0.48711760465E+02  0.69209072151E+02 -0.15592770916E+03  0.17746451521E+03  0.41800000000E+01 0. -1.
        -11    1    1    2    0    0  0.25922058590E+02 -0.32543560304E+02 -0.63891800467E+01  0.42093444388E+02  0.00000000000E+00 0.  1.
         11    1    1    2    0    0 -0.59473107221E+02  0.63249745539E+01 -0.12480464162E+02  0.61096790188E+02  0.00000000000E+00 0. -1.
</event>
<event>
 7    1  0.2670433E-009  0.1658604E+03  0.7561462E-02  0.1182235E+00
          1   -1    0    0  501    0  0.00000000000E+00  0.00000000000E+00  0.41610100821E+03  0.41610100821E+03  0.00000000000E+00 0. -1.
         -1   -1    0    0    0  501 -0.00000000000E+00 -0.00000000000E+00 -0.82136593292E+02  0.82136593292E+02  0.00000000000E+00 0.  1.
         25    2    1    2    0    0 -0.95382939051E+02 -0.11482364289E+03  0.15881086812E+03  0.25129793065E+03  0.12508950432E+03 0.  0.
          5    1    3    3  502    0 -0.54305918451E+02 -0.12661091981E+03  0.74482615848E+02  0.15666713202E+03  0.41800000000E+01 0. -1.
         -5    1    3    3    0  502 -0.41077020600E+02  0.11787276916E+02  0.84328252272E+02  0.94630798632E+02  0.41800000000E+01 0. -1.
        -11    1    1    2    0    0  0.20061416708E+02  0.40182626378E+02  0.33383973288E+01  0.45036083308E+02  0.00000000000E+00 0.  1.
         11    1    1    2    0    0  0.75321522343E+02  0.74641016511E+02  0.17181514947E+03  0.20190358754E+03  0.00000000000E+00 0. -1.
</event>
<event>
 7    1  0.2670433E-009  0.9036841E+02  0.7561462E-02  0.1301962E+00
          2   -1    0    0  501    0  0.00000000000E+00  0.00000000000E+00  0.84414853233E+02  0.84414853233E+02  0.00000000000E+00 0. -1.
         -2   -1    0    0    0  501 -0.00000000000E+00 -0.00000000000E+00 -0.16948227980E+03  0.16948227980E+03  0.00000000000E+00 0.  1.
         25    2    1    2    0    0  0.33465256491E+02 -0.20350333786E+02 -0.77532247023E+02  0.15229436800E+03  0.12509302825E+03 0.  0.
          5    1    3    3  502    0  0.71832940176E+02 -0.32744812971E+02 -0.19358559722E+02  0.81390541866E+02  0.41800000000E+01 0.  1.
         -5    1    3    3    0  502 -0.38367683684E+02  0.12394479185E+02 -0.58173687302E+02  0.70903826130E+02  0.41800000000E+01 0.  1.
        -11    1    1    2    0    0 -0.35070983195E+02  0.33142416626E+02  0.33400092051E+02  0.58685260424E+02  0.00000000000E+00 0. -1.
         11    1    1    2    0    0  0.16057267041E+01 -0.12792082840E+02 -0.40935271599E+02  0.42917504617E+02  0.00000000000E+00 0.  1.
</event>
<event>
 7    1  0.2670433E-009  0.1900343E+03  0.7561462E-02  0.1158430E+00
          2   -1    0    0  501    0  0.00000000000E+00  0.00000000000E+00  0.45695158919E+03  0.45695158919E+03  0.00000000000E+00 0. -1.
         -2   -1    0    0    0  501 -0.00000000000E+00 -0.00000000000E+00 -0.96008887802E+02  0.96008887802E+02  0.00000000000E+00 0.  1.
         25    2    1    2    0    0  0.85773019434E+02 -0.14532817008E+03  0.22830661848E+03  0.31023933286E+03  0.12508894328E+03 0.  0.
          5    1    3    3  502    0 -0.28200061909E+02 -0.54380561599E+01  0.24307775612E+02  0.37857050884E+02  0.41800000000E+01 0.  1.
         -5    1    3    3    0  502  0.11397308134E+03 -0.13989011392E+03  0.20399884287E+03  0.27238228198E+03  0.41800000000E+01 0.  1.
        -11    1    1    2    0    0 -0.71826046185E+02  0.13592631419E+03  0.54991914796E+02  0.16327600709E+03  0.00000000000E+00 0.  1.
         11    1    1    2    0    0 -0.13946973249E+02  0.94018558947E+01  0.77644168113E+02  0.79445137038E+02  0.00000000000E+00 0. -1.
</event>
<event>
 7    1  0.2670433E-009  0.8567943E+02  0.7561462E-02  0.1313665E+00
         -2   -1    0    0    0  501 -0.00000000000E+00  0.00000000000E+00  0.25816825377E+03  0.25816825377E+03  0.00000000000E+00 0.  1.
          2   -1    0    0  501    0  0.00000000000E+00 -0.00000000000E+00 -0.47714634627E+02  0.47714634627E+02  0.00000000000E+00 0. -1.
         25    2    1    2    0    0 -0.62842287684E+01 -0.20574619089E+02  0.14604659520E+03  0.19349416148E+03  0.12509027170E+03 0.  0.
          5    1    3    3  502    0  0.32362862165E+02 -0.56784370251E+02  0.45407024441E+02  0.79693725104E+02  0.41800000000E+01 0.  1.
         -5    1    3    3    0  502 -0.38647090933E+02  0.36209751161E+02  0.10063957076E+03  0.11380043637E+03  0.41800000000E+01 0.  1.
        -11    1    1    2    0    0  0.24357403899E+02  0.24169992422E+02 -0.99936860436E+01  0.35739969489E+02  0.00000000000E+00 0. -1.
         11    1    1    2    0    0 -0.18073175131E+02 -0.35953733322E+01  0.74400709989E+02  0.76648757430E+02  0.00000000000E+00 0.  1.
</event>
<event>
 7    1  0.2670433E-009  0.9828545E+02  0.7561462E-02  0.1283943E+00
          2   -1    0    0  501    0  0.00000000000E+00  0.00000000000E+00  0.78596466630E+02  0.78596466630E+02  0.00000000000E+00 0. -1.
         -2   -1    0    0    0  501 -0.00000000000E+00 -0.00000000000E+00 -0.20150797343E+03  0.20150797343E+03  0.00000000000E+00 0.  1.
         25    2    1    2    0    0 -0.17152094554E+02 -0.56257845947E+02 -0.94187178755E+02  0.16726722191E+03  0.12509180351E+03 0.  0.
          5    1    3    3  502    0 -0.45421945432E+02 -0.33259045199E+02  0.95334497082E+01  0.57250993683E+02  0.41800000000E+01 0.  1.
         -5    1    3    3    0  502  0.28269850878E+02 -0.22998800748E+02 -0.10372062846E+03  0.11001622823E+03  0.41800000000E+01 0.  1.
        -11    1    1    2    0    0 -0.29791722490E+02  0.46911069869E+02 -0.33248753488E+02  0.64758588725E+02  0.00000000000E+00 0.  1.
         11    1    1    2    0    0  0.46943817045E+02  0.93467760783E+01  0.45244254438E+01  0.48078629425E+02  0.00000000000E+00 0. -1.
</event>
<event>
 7    1  0.2670433E-009  0.6697510E+02  0.7561462E-02  0.1370692E+00
         -1   -1    0    0    0  501 -0.00000000000E+00  0.00000000000E+00  0.93190382292E+02  0.93190382292E+02  0.00000000000E+00 0.  1.
          1   -1    0    0  501    0  0.00000000000E+00 -0.00000000000E+00 -0.15517076054E+03  0.15517076054E+03  0.00000000000E+00 0. -1.
         25    2    1    2    0    0  0.16625651994E+02  0.57468542633E+02 -0.23476491100E+02  0.14063316050E+03  0.12508994564E+03 0.  0.
          5    1    3    3  502    0  0.85881892229E+01  0.31153482117E+01 -0.68649336371E+02  0.69380589308E+02  0.41800000000E+01 0.  1.
         -5    1    3    3    0  502  0.80374627712E+01  0.54353194421E+02  0.45172845271E+02  0.71252571192E+02  0.41800000000E+01 0.  1.
        -11    1    1    2    0    0 -0.21747835008E+02 -0.15956410743E+02 -0.56179630610E+02  0.62319549636E+02  0.00000000000E+00 0. -1.
         11    1    1    2    0    0  0.51221830134E+01 -0.41512131890E+02  0.17675743463E+02  0.45408432695E+02  0.00000000000E+00 0.  1.
</event>
<event>
 7    1  0.2670433E-009  0.1312936E+03  0.7561462E-02  0.1225549E+00
          4   -1    0    0  501    0  0.00000000000E+00  0.00000000000E+00  0.44835740667E+02  0.44835740667E+02  0.00000000000E+00 0. -1.
         -4   -1    0    0    0  501 -0.00000000000E+00 -0.00000000000E+00 -0.48479095726E+03  0.48479095726E+03  0.00000000000E+00 0.  1.
         25    2    1    2    0    0  0.32258386328E+01  0.64113495725E+02 -0.12151249114E+03  0.18583281809E+03  0.12509038496E+03 0.  0.
          5    1    3    3  502    0  0.52320241178E+02  0.68664248569E+02 -0.53222022203E+02  0.10149996412E+03  0.41800000000E+01 0. -1.
         -5    1    3    3    0  502 -0.49094402545E+02 -0.45507528434E+01 -0.68290468933E+02  0.84332853976E+02  0.41800000000E+01 0. -1.
        -11    1    1    2    0    0 -0.56203412359E+02 -0.30659087059E+02 -0.19697553033E+03  0.20711871651E+03  0.00000000000E+00 0. -1.
         11    1    1    2    0    0  0.52977573727E+02 -0.33454408667E+02 -0.12146719513E+03  0.13667516332E+03  0.00000000000E+00 0.  1.
</event>
<event>
 7    1  0.2670433E-009  0.1209221E+03  0.7561462E-02  0.1241584E+00
         -1   -1    0    0    0  501 -0.00000000000E+00  0.00000000000E+00  0.89564692241E+02  0.89564692241E+02  0.00000000000E+00 0.  1.
          1   -1    0    0  501    0  0.00000000000E+00 -0.00000000000E+00 -0.29862451163E+03  0.29862451163E+03  0.00000000000E+00 0. -1.
         25    2    1    2    0    0  0.60497850309E+02 -0.36238880442E+02 -0.23270392036E+03  0.27343692788E+03  0.12507354888E+03 0.  0.
          5    1    3    3  502    0 -0.64632575219E+01  0.34189880612E+02 -0.22037703223E+02  0.41398724587E+02  0.41800000000E+01 0. -1.
         -5    1    3    3    0  502  0.66961107830E+02 -0.70428761054E+02 -0.21066621714E+03  0.23203820329E+03  0.41800000000E+01 0. -1.
        -11    1    1    2    0    0 -0.90467437919E+01  0.54262838582E+02 -0.77300425686E+00  0.55017240569E+02  0.00000000000E+00 0. -1.
         11    1    1    2    0    0 -0.51451106517E+02 -0.18023958140E+02  0.24417105229E+02  0.59735035420E+02  0.00000000000E+00 0.  1.
</event>
<event>
 7    1  0.3171556E-009  0.1491650E+03  0.7561462E-02  0.1201503E+00
         -1   -1    0    0    0  501 -0.00000000000E+00  0.00000000000E+00  0.32981089337E+02  0.32981089337E+02  0.00000000000E+00 0.  1.
          1   -1    0    0  501    0  0.00000000000E+00 -0.00000000000E+00 -0.79772805759E+03  0.79772805759E+03  0.00000000000E+00 0. -1.
         25    2    1    2    0    0  0.93289672095E+02  0.47048062819E+02 -0.25618491815E+03  0.30363184754E+03  0.12508038783E+03 0.  0.
          5    1    3    3  502    0  0.35338995776E+01  0.67715619294E+02 -0.81444855161E+02  0.10605956051E+03  0.41800000000E+01 0. -1.
         -5    1    3    3    0  502  0.89755772518E+02 -0.20667556475E+02 -0.17474006299E+03  0.19757228703E+03  0.41800000000E+01 0. -1.
        -11    1    1    2    0    0 -0.14536958491E+02 -0.56991503645E+02 -0.20003440815E+03  0.20850208415E+03  0.00000000000E+00 0.  1.
         11    1    1    2    0    0 -0.78752713604E+02  0.99434408263E+01 -0.30852764196E+03  0.31857521524E+03  0.00000000000E+00 0. -1.
</event>
<event>
 7    1  0.2670433E-009  0.2340122E+03  0.7561462E-02  0.1123847E+00
          2   -1    0    0  501    0  0.00000000000E+00  0.00000000000E+00  0.51356776193E+03  0.51356776193E+03  0.00000000000E+00 0. -1.
         -2   -1    0    0    0  501 -0.00000000000E+00 -0.00000000000E+00 -0.12811629873E+03  0.12811629873E+03  0.00000000000E+00 0.  1.
         25    2    1    2    0    0 -0.38607948442E+02  0.22850676242E+03  0.21654484890E+03  0.34094859043E+03  0.12509338743E+03 0.  0.
          5    1    3    3  502    0 -0.80763767382E+00  0.12751368024E+03  0.19159112385E+03  0.23018475637E+03  0.41800000000E+01 0. -1.
         -5    1    3    3    0  502 -0.37800310768E+02  0.10099308218E+03  0.24953725052E+02  0.11076383406E+03  0.41800000000E+01 0. -1.
        -11    1    1    2    0    0  0.35736953144E+02 -0.15940109865E+03  0.64786139603E+02  0.17573583572E+03  0.00000000000E+00 0. -1.
         11    1    1    2    0    0  0.28709952975E+01 -0.69105663772E+02  0.10412047469E+03  0.12499963451E+03  0.00000000000E+00 0.  1.
</event>
<event>
 7    1  0.2670433E-009  0.1205025E+03  0.7561462E-02  0.1242270E+00
          2   -1    0    0  501    0  0.00000000000E+00  0.00000000000E+00  0.15407245717E+04  0.15407245717E+04  0.00000000000E+00 0. -1.
         -2   -1    0    0    0  501 -0.00000000000E+00 -0.00000000000E+00 -0.10770227223E+02  0.10770227223E+02  0.00000000000E+00 0.  1.
         25    2    1    2    0    0 -0.36517247322E+02 -0.40750209275E+02  0.10138311706E+04  0.10229827187E+04  0.12508361771E+03 0.  0.
          5    1    3    3  502    0  0.37606103086E+02  0.78510071990E+01  0.16213538264E+03  0.16667696903E+03  0.41800000000E+01 0. -1.
         -5    1    3    3    0  502 -0.74123350408E+02 -0.48601216474E+02  0.85169578794E+03  0.85630574967E+03  0.41800000000E+01 0. -1.
        -11    1    1    2    0    0  0.35551083765E+02  0.73087418286E+02  0.38055477265E+03  0.38913697493E+03  0.00000000000E+00 0.  1.
         11    1    1    2    0    0  0.96616355707E+00 -0.32337209010E+02  0.13556840121E+03  0.13937510526E+03  0.00000000000E+00 0. -1.
</event>
<event>
 7    1  0.2670433E-009  0.1182178E+03  0.7561462E-02  0.1246066E+00
          1   -1    0    0  501    0  0.00000000000E+00  0.00000000000E+00  0.54787007922E+02  0.54787007922E+02  0.00000000000E+00 0. -1.
         -1   -1    0    0    0  501 -0.00000000000E+00 -0.00000000000E+00 -0.25963716408E+03  0.25963716408E+03  0.00000000000E+00 0.  1.
         25    2    1    2    0    0 -0.93057234501E+01 -0.47592677646E+02 -0.12556725377E+03  0.18375783771E+03  0.12509255871E+03 0.  0.
          5    1    3    3  502    0 -0.67076516480E+02 -0.29467167352E+02 -0.72047715480E+02  0.10283928588E+03  0.41800000000E+01 0. -1.
         -5    1    3    3    0  502  0.57770793030E+02 -0.18125510294E+02 -0.53519538292E+02  0.80918551827E+02  0.41800000000E+01 0. -1.
        -11    1    1    2    0    0  0.45766061818E+02  0.46104552353E+01 -0.46764543741E+02  0.65595055173E+02  0.00000000000E+00 0. -1.
         11    1    1    2    0    0 -0.36460338368E+02  0.42982222411E+02 -0.32518358640E+02  0.65071279117E+02  0.00000000000E+00 0.  1.
</event>
<event>
 7    1  0.2670433E-009  0.9985996E+02  0.7561462E-02  0.1280591E+00
          2   -1    0    0  501    0  0.00000000000E+00  0.00000000000E+00  0.15361118203E+04  0.15361118203E+04  0.00000000000E+00 0. -1.
         -2   -1    0    0    0  501 -0.00000000000E+00 -0.00000000000E+00 -0.16967884789E+02  0.16967884789E+02  0.00000000000E+00 0.  1.
         25    2    1    2    0    0  0.60968427326E+02 -0.36024136209E+02  0.12796223583E+04  0.12876706853E+04  0.12509007294E+03 0.  0.
          5    1    3    3  502    0  0.20341370385E-01 -0.50816471381E+02  0.20623511975E+03  0.21244460736E+03  0.41800000000E+01 0. -1.
         -5    1    3    3    0  502  0.60948085956E+02  0.14792335172E+02  0.10733872386E+04  0.10752260779E+04  0.41800000000E+01 0. -1.
        -11    1    1    2    0    0 -0.30743550729E+02  0.44861431641E+02  0.51941108066E+02  0.75203674561E+02  0.00000000000E+00 0.  1.
         11    1    1    2    0    0 -0.30224876597E+02 -0.88372954319E+01  0.18758046912E+03  0.19020534523E+03  0.00000000000E+00 0. -1.
</event>
<event>
 7    1  0.2670433E-009  0.1576051E+03  0.7561462E-02  0.1191427E+00
          1   -1    0    0  501    0  0.00000000000E+00  0.00000000000E+00  0.96885501037E+02  0.96885501037E+02  0.00000000000E+00 0. -1.
         -1   -1    0    0    0  501 -0.00000000000E+00 -0.00000000000E+00 -0.31508520981E+03  0.31508520981E+03  0.00000000000E+00 0.  1.
         25    2    1    2    0    0  0.10775511307E+03 -0.82068685690E+02 -0.13012149150E+03  0.22566423401E+03  0.12508521253E+03 0.  0.
          5    1    3    3  502    0  0.75046182379E+02 -0.10120828366E+03 -0.47585644978E+02  0.13474758691E+03  0.41800000000E+01 0. -1.
         -5    1    3    3    0  502  0.32708930694E+02  0.19139597968E+02 -0.82535846523E+02  0.90916647094E+02  0.41800000000E+01 0. -1.
        -11    1    1    2    0    0 -0.13697571939E+02 -0.11839869704E+02  0.10406602518E+02  0.20883088076E+02  0.00000000000E+00 0. -1.
         11    1    1    2    0    0 -0.94057541135E+02  0.93908555394E+02 -0.98484819785E+02  0.16542338876E+03  0.00000000000E+00 0.  1.
</event>
<event>
 7    1  0.2670433E-009  0.1051404E+03  0.7561462E-02  0.1269843E+00
         -1   -1    0    0    0  501 -0.00000000000E+00  0.00000000000E+00  0.23796135671E+02  0.23796135671E+02  0.00000000000E+00 0.  1.
          1   -1    0    0  501    0  0.00000000000E+00 -0.00000000000E+00 -0.69623438192E+03  0.69623438192E+03  0.00000000000E+00 0. -1.
         25    2    1    2    0    0  0.44522187871E+02 -0.31087264906E+02 -0.49406683034E+03  0.51254163706E+03  0.12509297994E+03 0.  0.
          5    1    3    3  502    0 -0.18013073894E+01 -0.68521886889E+02 -0.34858392091E+03  0.35528399346E+03  0.41800000000E+01 0. -1.
         -5    1    3    3    0  502  0.46323495261E+02  0.37434621983E+02 -0.14548290943E+03  0.15725764360E+03  0.41800000000E+01 0. -1.
        -11    1    1    2    0    0 -0.39027727539E+02 -0.10130033768E+02 -0.22515778310E+02  0.46181612941E+02  0.00000000000E+00 0.  1.
         11    1    1    2    0    0 -0.54944603328E+01  0.41217298675E+02 -0.15585563760E+03  0.16130726758E+03  0.00000000000E+00 0. -1.
</event>
<event>
 7    1  0.2670433E-009  0.9726732E+02  0.7561462E-02  0.1286150E+00
         -2   -1    0    0    0  501 -0.00000000000E+00  0.00000000000E+00  0.28693903613E+02  0.28693903613E+02  0.00000000000E+00 0.  1.
          2   -1    0    0  501    0  0.00000000000E+00 -0.00000000000E+00 -0.52827033008E+03  0.52827033008E+03  0.00000000000E+00 0. -1.
         25    2    1    2    0    0 -0.55387705805E+01 -0.46808990034E+02 -0.35554322245E+03  0.37984214464E+03  0.12508921732E+03 0.  0.
          5    1    3    3  502    0  0.42757742769E+02 -0.15845195832E+02 -0.28576783983E+03  0.28941324344E+03  0.41800000000E+01 0. -1.
         -5    1    3    3    0  502 -0.48296513349E+02 -0.30963794202E+02 -0.69775382625E+02  0.90428901208E+02  0.41800000000E+01 0. -1.
        -11    1    1    2    0    0  0.37212066005E+02  0.32342447817E+01 -0.21090812496E+02  0.42895460918E+02  0.00000000000E+00 0.  1.
         11    1    1    2    0    0 -0.31673295424E+02  0.43574745253E+02 -0.12294239152E+03  0.13422662813E+03  0.00000000000E+00 0. -1.
</event>
<event>
 7    1  0.2670433E-009  0.1093951E+03  0.7561462E-02  0.1261694E+00
          3   -1    0    0  501    0  0.00000000000E+00  0.00000000000E+00  0.83686548897E+02  0.83686548897E+02  0.00000000000E+00 0. -1.
         -3   -1    0    0    0  501 -0.00000000000E+00 -0.00000000000E+00 -0.14810937636E+03  0.14810937636E+03  0.00000000000E+00 0.  1.
         25    2    1    2    0    0 -0.12297752655E+02  0.16201166445E+02 -0.21194369864E+02  0.12849290245E+03  0.12509001619E+03 0.  0.
          5    1    3    3  502    0  0.49107081686E+01 -0.53352696811E+02 -0.30488574497E+00  0.53741889314E+02  0.41800000000E+01 0. -1.
         -5    1    3    3    0  502 -0.17208460823E+02  0.69553863256E+02 -0.20889484120E+02  0.74751013134E+02  0.41800000000E+01 0. -1.
        -11    1    1    2    0    0  0.63485597949E+01 -0.54323130648E+02 -0.19816636391E+02  0.58172208250E+02  0.00000000000E+00 0. -1.
         11    1    1    2    0    0  0.59491928597E+01  0.38121964203E+02 -0.23411821207E+02  0.45130814557E+02  0.00000000000E+00 0.  1.
</event>
<event>
 7    1  0.2670433E-009  0.1575839E+03  0.7561462E-02  0.1191452E+00
          2   -1    0    0  501    0  0.00000000000E+00  0.00000000000E+00  0.42730583319E+03  0.42730583319E+03  0.00000000000E+00 0. -1.
         -2   -1    0    0    0  501 -0.00000000000E+00 -0.00000000000E+00 -0.69425199105E+02  0.69425199105E+02  0.00000000000E+00 0.  1.
         25    2    1    2    0    0  0.15898061314E+02  0.12843162326E+03  0.14261643367E+03  0.22963976024E+03  0.12509013600E+03 0.  0.
          5    1    3    3  502    0  0.20510137692E+02  0.14320891797E+03  0.80758458022E+02  0.16573732493E+03  0.41800000000E+01 0.  1.
         -5    1    3    3    0  502 -0.46120763782E+01 -0.14777294705E+02  0.61857975646E+02  0.63902435308E+02  0.41800000000E+01 0.  1.
        -11    1    1    2    0    0 -0.46562039083E+02 -0.42048570374E+02  0.60134442828E+02  0.86903722407E+02  0.00000000000E+00 0.  1.
         11    1    1    2    0    0  0.30663977769E+02 -0.86383052887E+02  0.15512975759E+03  0.18018754965E+03  0.00000000000E+00 0. -1.
</event>
<event>
 7    1  0.2670433E-009  0.1099844E+03  0.7561462E-02  0.1260599E+00
         -1   -1    0    0    0  501 -0.00000000000E+00  0.00000000000E+00  0.24824501633E+02  0.24824501633E+02  0.00000000000E+00 0.  1.
          1   -1    0    0  501    0  0.00000000000E+00 -0.00000000000E+00 -0.57852306522E+03  0.57852306522E+03  0.00000000000E+00 0. -1.
         25    2    1    2    0    0 -0.47527079721E+02 -0.15723388681E+02 -0.36432300715E+03  0.38843836477E+03  0.12508821461E+03 0.  0.
          5    1    3    3  502    0 -0.65535387506E+02  0.39336577064E+02 -0.19955744164E+03  0.21373558016E+03  0.41800000000E+01 0. -1.
         -5    1    3    3    0  502  0.18008307784E+02 -0.55059965745E+02 -0.16476556550E+03  0.17470278462E+03  0.41800000000E+01 0. -1.
        -11    1    1    2    0    0  0.61143518580E+02  0.27774108201E+02 -0.81930785553E+02  0.10593670078E+03  0.00000000000E+00 0.  1.
         11    1    1    2    0    0 -0.13616438859E+02 -0.12050719520E+02 -0.10744477089E+03  0.10897250130E+03  0.00000000000E+00 0. -1.
</event>
<event>
 7    1  0.2670433E-009  0.1249903E+03  0.7561462E-02  0.1235084E+00
         -1   -1    0    0    0  501 -0.00000000000E+00  0.00000000000E+00  0.18838780923E+03  0.18838780923E+03  0.00000000000E+00 0.  1.
          1   -1    0    0  501    0  0.00000000000E+00 -0.00000000000E+00 -0.85777019988E+02  0.85777019988E+02  0.00000000000E+00 0. -1.
         25    2    1    2    0    0 -0.12729341874E+02  0.49619795706E+02  0.54926007769E+02  0.14590285702E+03  0.12508643846E+03 0.  0.
          5    1    3    3  502    0  0.77215422235E+01 -0.40648093307E+02  0.92332303763E+01  0.42598293944E+02  0.41800000000E+01 0. -1.
         -5    1    3    3    0  502 -0.20450884098E+02  0.90267889013E+02  0.45692777393E+02  0.10330456308E+03  0.41800000000E+01 0. -1.
        -11    1    1    2    0    0 -0.27425865658E+02  0.20976228151E+02  0.91341518301E+00  0.34540043165E+02  0.00000000000E+00 0. -1.
         11    1    1    2    0    0  0.40155207532E+02 -0.70596023857E+02  0.46771366291E+02  0.93721929030E+02  0.00000000000E+00 0.  1.
</event>
<event>
 7    1  0.2670433E-009  0.1255831E+03  0.7561462E-02  0.1234161E+00
          1   -1    0    0  501    0  0.00000000000E+00  0.00000000000E+00  0.41858879831E+03  0.41858879831E+03  0.00000000000E+00 0. -1.
         -1   -1    0    0    0  501 -0.00000000000E+00 -0.00000000000E+00 -0.41249711381E+02  0.41249711381E+02  0.00000000000E+00 0.  1.
         25    2    1    2    0    0  0.57500894204E+02 -0.40737625275E+02  0.26031345820E+03  0.29727824411E+03  0.12508137731E+03 0.  0.
          5    1    3    3  502    0 -0.39400316465E+02 -0.15352088530E+02  0.92572202700E+02  0.10185851301E+03  0.41800000000E+01 0.  1.
         -5    1    3    3    0  502  0.96901210669E+02 -0.25385536746E+02  0.16774125550E+03  0.19541973110E+03  0.41800000000E+01 0.  1.
        -11    1    1    2    0    0  0.15770360564E+02  0.30629434830E+02  0.17734646324E+02  0.38747699681E+02  0.00000000000E+00 0.  1.
         11    1    1    2    0    0 -0.73271254768E+02  0.10108190446E+02  0.99290982406E+02  0.12381256591E+03  0.00000000000E+00 0. -1.
</event>
<event>
 7    1  0.2670433E-009  0.1025098E+03  0.7561462E-02  0.1275105E+00
         -1   -1    0    0    0  501 -0.00000000000E+00  0.00000000000E+00  0.99636835542E+03  0.99636835542E+03  0.00000000000E+00 0.  1.
          1   -1    0    0  501    0  0.00000000000E+00 -0.00000000000E+00 -0.13975921809E+02  0.13975921809E+02  0.00000000000E+00 0. -1.
         25    2    1    2    0    0  0.41305865055E+02 -0.88803391078E+01  0.68243491526E+03  0.69508960702E+03  0.12508842197E+03 0.  0.
          5    1    3    3  502    0  0.82658798350E+02 -0.93539432055E+01  0.55039716247E+03  0.55666370643E+03  0.41800000000E+01 0. -1.
         -5    1    3    3    0  502 -0.41352933295E+02  0.47360409779E+00  0.13203775279E+03  0.13842590059E+03  0.41800000000E+01 0. -1.
        -11    1    1    2    0    0  0.76848978151E+01 -0.21284340348E+02  0.22559391982E+02  0.31953199606E+02  0.00000000000E+00 0. -1.
         11    1    1    2    0    0 -0.48990762870E+02  0.30164679456E+02  0.27739812637E+03  0.28330147060E+03  0.00000000000E+00 0.  1.
</event>
<event>
 7    1  0.2670433E-009  0.1914138E+03  0.7561462E-02  0.1157192E+00
         -2   -1    0    0    0  501 -0.00000000000E+00  0.00000000000E+00  0.17346629620E+03  0.17346629620E+03  0.00000000000E+00 0.  1.
          2   -1    0    0  501    0  0.00000000000E+00 -0.00000000000E+00 -0.23289336539E+03  0.23289336539E+03  0.00000000000E+00 0. -1.
         25    2    1    2    0    0  0.68936213555E+02  0.15368325988E+03 -0.79708036791E+01  0.20995753245E+03  0.12509150977E+03 0.  0.
          5    1    3    3  502    0  0.12187305328E+02  0.14602021482E+03  0.16560895333E+02  0.14752006373E+03  0.41800000000E+01 0. -1.
         -5    1    3    3    0  502  0.56748908226E+02  0.76630450560E+01 -0.24531699012E+02  0.62437468725E+02  0.41800000000E+01 0. -1.
        -11    1    1    2    0    0  0.90571692346E+00 -0.69214792942E+02  0.11250129650E+02  0.70128976196E+02  0.00000000000E+00 0.  1.
         11    1    1    2    0    0 -0.69841930478E+02 -0.84468466935E+02 -0.62706395165E+02  0.12627315294E+03  0.00000000000E+00 0. -1.
</event>
<event>
 7    1  0.2670433E-009  0.2200235E+03  0.7561462E-02  0.1133866E+00
          1   -1    0    0  501    0  0.00000000000E+00  0.00000000000E+00  0.71951128596E+03  0.71951128596E+03  0.00000000000E+00 0. -1.
         -1   -1    0    0    0  501 -0.00000000000E+00 -0.00000000000E+00 -0.97880341044E+02  0.97880341044E+02  0.00000000000E+00 0.  1.
         25    2    1    2    0    0 -0.58274852375E+02 -0.20090121465E+03  0.50345809040E+03  0.55935126459E+03  0.12508609811E+03 0.  0.
          5    1    3    3  502    0 -0.28794337532E+02 -0.16239246316E+03  0.23875738949E+03  0.29021197322E+03  0.41800000000E+01 0. -1.
         -5    1    3    3    0  502 -0.29480514843E+02 -0.38508751498E+02  0.26470070091E+03  0.26913929137E+03  0.41800000000E+01 0. -1.
        -11    1    1    2    0    0  0.13802947963E+01  0.15013130688E+03  0.97556701604E+02  0.17904922381E+03  0.00000000000E+00 0. -1.
         11    1    1    2    0    0  0.56894557579E+02  0.50769907773E+02  0.20616152918E+02  0.78991138607E+02  0.00000000000E+00 0.  1.
</event>
<event>
 7    1  0.2670433E-009  0.1108139E+03  0.7561462E-02  0.1259070E+00
         -3   -1    0    0    0  501 -0.00000000000E+00  0.00000000000E+00  0.95724097600E+02  0.95724097600E+02  0.00000000000E+00 0.  1.
          3   -1    0    0  501    0  0.00000000000E+00 -0.00000000000E+00 -0.19587074866E+03  0.19587074866E+03  0.00000000000E+00 0. -1.
         25    2    1    2    0    0 -0.52861834613E+02 -0.45357361488E+02 -0.29747677184E+02  0.14623268792E+03  0.12508961155E+03 0.  0.
          5    1    3    3  502    0 -0.36645462740E+02 -0.71345465062E+02  0.24348781548E+02  0.83924971773E+02  0.41800000000E+01 0. -1.
         -5    1    3    3    0  502 -0.16216371873E+02  0.25988103574E+02 -0.54096458732E+02  0.62307716147E+02  0.41800000000E+01 0. -1.
        -11    1    1    2    0    0  0.45303383346E+02 -0.16398201808E+02  0.40371262195E+01  0.48348691330E+02  0.00000000000E+00 0.  1.
         11    1    1    2    0    0  0.75584512666E+01  0.61755563297E+02 -0.74436100093E+02  0.97013467007E+02  0.00000000000E+00 0. -1.
</event>
<event>
 7    1  0.2670433E-009  0.1224067E+03  0.7561462E-02  0.1239179E+00
          3   -1    0    0  501    0  0.00000000000E+00  0.00000000000E+00  0.30335896934E+02  0.30335896934E+02  0.00000000000E+00 0. -1.
         -3   -1    0    0    0  501 -0.00000000000E+00 -0.00000000000E+00 -0.54794531514E+03  0.54794531514E+03  0.00000000000E+00 0.  1.
         25    2    1    2    0    0 -0.51591143089E+02  0.41431135218E+02 -0.27863555578E+03  0.31251573520E+03  0.12510046679E+03 0.  0.
          5    1    3    3  502    0 -0.79562106518E+02  0.56291276843E+02 -0.25425742992E+03  0.27232912020E+03  0.41800000000E+01 0.  1.
         -5    1    3    3    0  502  0.27970963429E+02 -0.14860141625E+02 -0.24378125867E+02  0.40186614999E+02  0.41800000000E+01 0.  1.
        -11    1    1    2    0    0  0.25722108213E+02  0.29897123439E+02 -0.66066949103E+02  0.76943528673E+02  0.00000000000E+00 0. -1.
         11    1    1    2    0    0  0.25869034876E+02 -0.71328258657E+02 -0.17290691332E+03  0.18882194820E+03  0.00000000000E+00 0.  1.
</event>
<event>
 7    1  0.2670433E-009  0.1067979E+03  0.7561462E-02  0.1266617E+00
         -2   -1    0    0    0  501 -0.00000000000E+00  0.00000000000E+00  0.27565832696E+02  0.27565832696E+02  0.00000000000E+00 0.  1.
          2   -1    0    0  501    0  0.00000000000E+00 -0.00000000000E+00 -0.71222176139E+03  0.71222176139E+03  0.00000000000E+00 0. -1.
         25    2    1    2    0    0  0.49911786452E+02 -0.73761227995E+02 -0.39054508901E+03  0.41964902004E+03  0.12509167954E+03 0.  0.
          5    1    3    3  502    0  0.52545841997E+02 -0.58547330543E+02 -0.93889576194E+02  0.12256255685E+03  0.41800000000E+01 0.  1.
         -5    1    3    3    0  502 -0.26340555452E+01 -0.15213897451E+02 -0.29665551281E+03  0.29708646318E+03  0.41800000000E+01 0.  1.
        -11    1    1    2    0    0 -0.91970146989E+01  0.77398063574E+02 -0.23989679119E+03  0.25224098745E+03  0.00000000000E+00 0.  1.
         11    1    1    2    0    0 -0.40714771753E+02 -0.36368355795E+01 -0.54214048491E+02  0.67897586597E+02  0.00000000000E+00 0. -1.
</event>
<event>
 7    1  0.2670433E-009  0.1090699E+03  0.7561462E-02  0.1262302E+00
         -2   -1    0    0    0  501 -0.00000000000E+00  0.00000000000E+00  0.16136512148E+02  0.16136512148E+02  0.00000000000E+00 0. -1.
          2   -1    0    0  501    0  0.00000000000E+00 -0.00000000000E+00 -0.98453804625E+03  0.98453804625E+03  0.00000000000E+00 0.  1.
         25    2    1    2    0    0 -0.20113151018E+02  0.26714941734E+02 -0.75850545175E+03  0.76947768342E+03  0.12508860056E+03 0.  0.
          5    1    3    3  502    0 -0.61879053534E+02 -0.17303916245E+02 -0.48728905034E+03  0.49152470311E+03  0.41800000000E+01 0.  1.
         -5    1    3    3    0  502  0.41765902516E+02  0.44018857979E+02 -0.27121640141E+03  0.27795298031E+03  0.41800000000E+01 0.  1.
        -11    1    1    2    0    0  0.44644548554E+02 -0.44183606517E+02 -0.16983962770E+03  0.18108237334E+03  0.00000000000E+00 0.  1.
         11    1    1    2    0    0 -0.24531397535E+02  0.17468664782E+02 -0.40056454655E+02  0.50114501632E+02  0.00000000000E+00 0. -1.
</event>
<event>
 7    1  0.2670433E-009  0.6731881E+02  0.7561462E-02  0.1369455E+00
         -3   -1    0    0    0  501 -0.00000000000E+00  0.00000000000E+00  0.39777524741E+03  0.39777524741E+03  0.00000000000E+00 0.  1.
          3   -1    0    0  501    0  0.00000000000E+00 -0.00000000000E+00 -0.32726436743E+02  0.32726436743E+02  0.00000000000E+00 0. -1.
         25    2    1    2    0    0 -0.24618915350E+02  0.22584661923E+02  0.17557341853E+03  0.21815151603E+03  0.12509156928E+03 0.  0.
          5    1    3    3  502    0 -0.19306605448E+02 -0.16978254841E+02  0.17609585729E+03  0.17801188024E+03  0.41800000000E+01 0. -1.
         -5    1    3    3    0  502 -0.53123099024E+01  0.39562916764E+02 -0.52243875960E+00  0.40139635794E+02  0.41800000000E+01 0. -1.
        -11    1    1    2    0    0 -0.11457159024E+02  0.13310432657E+02  0.15212472013E+01  0.17628054443E+02  0.00000000000E+00 0. -1.
         11    1    1    2    0    0  0.36076074374E+02 -0.35895094580E+02  0.18795414493E+03  0.19472211368E+03  0.00000000000E+00 0.  1.
</event>
<event>
 7    1  0.2670433E-009  0.1928133E+03  0.7561462E-02  0.1155948E+00
          1   -1    0    0  501    0  0.00000000000E+00  0.00000000000E+00  0.15922156328E+04  0.15922156328E+04  0.00000000000E+00 0. -1.
         -1   -1    0    0    0  501 -0.00000000000E+00 -0.00000000000E+00 -0.25215617592E+02  0.25215617592E+02  0.00000000000E+00 0.  1.
         25    2    1    2    0    0 -0.14465861029E+03 -0.83625634295E+02  0.87376119235E+03  0.89834537831E+03  0.12508571952E+03 0.  0.
          5    1    3    3  502    0 -0.90384525688E+02  0.55023947469E+01  0.56926658234E+03  0.57643868104E+03  0.41800000000E+01 0. -1.
         -5    1    3    3    0  502 -0.54274084600E+02 -0.89128029042E+02  0.30449461001E+03  0.32190669727E+03  0.41800000000E+01 0. -1.
        -11    1    1    2    0    0  0.76566299514E+02  0.94459019961E+02  0.41639838760E+03  0.43378856817E+03  0.00000000000E+00 0.  1.
         11    1    1    2    0    0  0.68092310773E+02 -0.10833385666E+02  0.27684043529E+03  0.28529730395E+03  0.00000000000E+00 0. -1.
</event>
<event>
 7    1  0.2840683E-009  0.8716514E+02  0.7561462E-02  0.1309866E+00
         -1   -1    0    0    0  501 -0.00000000000E+00  0.00000000000E+00  0.81668590334E+03  0.81668590334E+03  0.00000000000E+00 0.  1.
          1   -1    0    0  501    0  0.00000000000E+00 -0.00000000000E+00 -0.17606431039E+02  0.17606431039E+02  0.00000000000E+00 0. -1.
         25    2    1    2    0    0 -0.23970334994E+02  0.35781336308E+01  0.60702518520E+03  0.62025404815E+03  0.12509248093E+03 0.  0.
          5    1    3    3  502    0 -0.68589786246E+02 -0.22170536547E+02  0.27950653834E+03  0.28868229742E+03  0.41800000000E+01 0. -1.
         -5    1    3    3    0  502  0.44619451252E+02  0.25748670178E+02  0.32751864686E+03  0.33157175074E+03  0.41800000000E+01 0. -1.
        -11    1    1    2    0    0  0.35982945911E+02 -0.92542514141E+01  0.19653569061E+03  0.20001672742E+03  0.00000000000E+00 0.  1.
         11    1    1    2    0    0 -0.12012610917E+02  0.56761177833E+01 -0.44814034992E+01  0.14021558810E+02  0.00000000000E+00 0. -1.
</event>
<event>
 7    1  0.2670433E-009  0.1105513E+03  0.7561462E-02  0.1259552E+00
         -1   -1    0    0    0  501 -0.00000000000E+00  0.00000000000E+00  0.81215442557E+03  0.81215442557E+03  0.00000000000E+00 0.  1.
          1   -1    0    0  501    0  0.00000000000E+00 -0.00000000000E+00 -0.15523124515E+02  0.15523124515E+02  0.00000000000E+00 0. -1.
         25    2    1    2    0    0 -0.32343890868E+01 -0.27530363938E+02  0.43230846916E+03  0.45089568581E+03  0.12509166547E+03 0.  0.
          5    1    3    3  502    0  0.24685415135E+02 -0.69824526146E+02  0.30300934610E+03  0.31195668032E+03  0.41800000000E+01 0.  1.
         -5    1    3    3    0  502 -0.27919804222E+02  0.42294162208E+02  0.12929912305E+03  0.13893900549E+03  0.41800000000E+01 0.  1.
        -11    1    1    2    0    0  0.13856273689E+02 -0.32385091408E+02  0.13025084775E+03  0.13492988477E+03  0.00000000000E+00 0.  1.
         11    1    1    2    0    0 -0.10621884602E+02  0.59915455346E+02  0.23407198415E+03  0.24185197949E+03  0.00000000000E+00 0. -1.
</event>
<event>
 7    1  0.2670433E-009  0.1410113E+03  0.7561462E-02  0.1211975E+00
          1   -1    0    0  501    0  0.00000000000E+00  0.00000000000E+00  0.19053244410E+04  0.19053244410E+04  0.00000000000E+00 0. -1.
         -1   -1    0    0    0  501 -0.00000000000E+00 -0.00000000000E+00 -0.13433849819E+02  0.13433849819E+02  0.00000000000E+00 0.  1.
         25    2    1    2    0    0  0.47359330342E+02 -0.10463214186E+03  0.10041913559E+04  0.10184492351E+04  0.12509106281E+03 0.  0.
          5    1    3    3  502    0  0.27745708486E+02 -0.10795861389E+03  0.44090499831E+03  0.45479619236E+03  0.41800000000E+01 0. -1.
         -5    1    3    3    0  502  0.19613621856E+02  0.33264720230E+01  0.56328635755E+03  0.56365304273E+03  0.41800000000E+01 0. -1.
        -11    1    1    2    0    0  0.14719951495E+01  0.10118576677E+03  0.60189646158E+03  0.61034422798E+03  0.00000000000E+00 0.  1.
         11    1    1    2    0    0 -0.48831325491E+02  0.34463750899E+01  0.28580277370E+03  0.28996482770E+03  0.00000000000E+00 0. -1.
</event>
<event>
 7    1  0.2670433E-009  0.1170163E+03  0.7561462E-02  0.1248102E+00
         -2   -1    0    0    0  501 -0.00000000000E+00  0.00000000000E+00  0.60195244920E+02  0.60195244920E+02  0.00000000000E+00 0.  1.
          2   -1    0    0  501    0  0.00000000000E+00 -0.00000000000E+00 -0.32445097084E+03  0.32445097084E+03  0.00000000000E+00 0. -1.
         25    2    1    2    0    0  0.10837254360E+02  0.56029883707E+02 -0.23387730747E+03  0.27129866103E+03  0.12509026572E+03 0.  0.
          5    1    3    3  502    0  0.30569411497E+02 -0.33528948732E+02 -0.72175221680E+02  0.85354638696E+02  0.41800000000E+01 0. -1.
         -5    1    3    3    0  502 -0.19732157138E+02  0.89558832440E+02 -0.16170208579E+03  0.18594402233E+03  0.41800000000E+01 0. -1.
        -11    1    1    2    0    0 -0.39846236706E+02 -0.54636980333E+02  0.47241948571E+01  0.67788201161E+02  0.00000000000E+00 0.  1.
         11    1    1    2    0    0  0.29008982347E+02 -0.13929033740E+01 -0.35102613310E+02  0.45559353571E+02  0.00000000000E+00 0. -1.
</event>
<event>
 7    1  0.4181066E-009  0.1518862E+03  0.7561462E-02  0.1198174E+00
          2   -1    0    0  501    0  0.00000000000E+00  0.00000000000E+00  0.12853000667E+04  0.12853000667E+04  0.00000000000E+00 0. -1.
         -2   -1    0    0    0  501 -0.00000000000E+00 -0.00000000000E+00 -0.23245907900E+02  0.23245907900E+02  0.00000000000E+00 0.  1.
         25    2    1    2    0    0 -0.18146899338E+02 -0.12522317594E+03  0.84026938498E+03  0.85890046403E+03  0.12508882453E+03 0.  0.
          5    1    3    3  502    0 -0.69904564321E+02 -0.80362106150E+02  0.58138875942E+03  0.59107958703E+03  0.41800000000E+01 0.  1.
         -5    1    3    3    0  502  0.51757664984E+02 -0.44861069791E+02  0.25888062556E+03  0.26782087700E+03  0.41800000000E+01 0.  1.
        -11    1    1    2    0    0 -0.47377941794E+01  0.41282185614E+02  0.38626886073E+02  0.56733604419E+02  0.00000000000E+00 0.  1.
         11    1    1    2    0    0  0.22884693517E+02  0.83940990327E+02  0.38315788774E+03  0.39291190615E+03  0.00000000000E+00 0. -1.
</event>
<event>
 7    1  0.2670433E-009  0.1587208E+03  0.7561462E-02  0.1190149E+00
         -2   -1    0    0    0  501 -0.00000000000E+00  0.00000000000E+00  0.51078732922E+02  0.51078732922E+02  0.00000000000E+00 0.  1.
          2   -1    0    0  501    0  0.00000000000E+00 -0.00000000000E+00 -0.50601773896E+03  0.50601773896E+03  0.00000000000E+00 0. -1.
         25    2    1    2    0    0  0.11206077926E+03 -0.32649652681E+02 -0.21404343373E+03  0.27402329411E+03  0.12510218272E+03 0.  0.
          5    1    3    3  502    0  0.12006246313E+03  0.15805597996E+02 -0.16253884277E+03  0.20273420972E+03  0.41800000000E+01 0.  1.
         -5    1    3    3    0  502 -0.80016838694E+01 -0.48455250677E+02 -0.51504590959E+02  0.71289084387E+02  0.41800000000E+01 0.  1.
        -11    1    1    2    0    0  0.81316589065E+01 -0.15500217181E+02 -0.16799727686E+02  0.24261316114E+02  0.00000000000E+00 0. -1.
         11    1    1    2    0    0 -0.12019243817E+03  0.48149869862E+02 -0.22409584462E+03  0.25881186166E+03  0.00000000000E+00 0.  1.
</event>
<event>
 7    1  0.2670433E-009  0.1849903E+03  0.7561462E-02  0.1163059E+00
         -2   -1    0    0    0  501 -0.00000000000E+00  0.00000000000E+00  0.34586180309E+03  0.34586180309E+03  0.00000000000E+00 0.  1.
          2   -1    0    0  501    0  0.00000000000E+00 -0.00000000000E+00 -0.11537240490E+03  0.11537240490E+03  0.00000000000E+00 0. -1.
         25    2    1    2    0    0  0.30554230290E+02  0.15184730490E+03  0.47574276903E+02  0.20469793172E+03  0.12508703544E+03 0.  0.
          5    1    3    3  502    0  0.51597142841E+02  0.15871378626E+02 -0.10737107269E+02  0.55198946379E+02  0.41800000000E+01 0.  1.
         -5    1    3    3    0  502 -0.21042912551E+02  0.13597592627E+03  0.58311384171E+02  0.14949898534E+03  0.41800000000E+01 0.  1.
        -11    1    1    2    0    0  0.30005544461E+02 -0.71687075684E+02  0.97404819458E+02  0.12460765776E+03  0.00000000000E+00 0.  1.
         11    1    1    2    0    0 -0.60559774751E+02 -0.80160229214E+02  0.85510301829E+02  0.13192861852E+03  0.00000000000E+00 0. -1.
</event>
<event>
 7    1  0.2670433E-009  0.9735845E+02  0.7561462E-02  0.1285951E+00
         -4   -1    0    0    0  501 -0.00000000000E+00  0.00000000000E+00  0.46191944787E+03  0.46191944787E+03  0.00000000000E+00 0.  1.
          4   -1    0    0  501    0  0.00000000000E+00 -0.00000000000E+00 -0.31036088675E+02  0.31036088675E+02  0.00000000000E+00 0. -1.
         25    2    1    2    0    0 -0.15593724229E+02  0.36576633705E+02  0.17787898954E+03  0.22106527327E+03  0.12509158948E+03 0.  0.
          5    1    3    3  502    0 -0.51415114068E+02  0.82860905329E+01  0.18818063408E+02  0.55531659091E+02  0.41800000000E+01 0. -1.
         -5    1    3    3    0  502  0.35821389839E+02  0.28290543173E+02  0.15906092613E+03  0.16553361418E+03  0.41800000000E+01 0. -1.
        -11    1    1    2    0    0 -0.17172937931E+02 -0.55979050111E+02  0.18378892396E+03  0.19289098584E+03  0.00000000000E+00 0.  1.
         11    1    1    2    0    0  0.32766662160E+02  0.19402416405E+02  0.69215445695E+02  0.78999277428E+02  0.00000000000E+00 0. -1.
</event>
<event>
 7    1  0.2670433E-009  0.1058835E+03  0.7561462E-02  0.1268389E+00
          2   -1    0    0  501    0  0.00000000000E+00  0.00000000000E+00  0.93520389791E+02  0.93520389791E+02  0.00000000000E+00 0. -1.
         -2   -1    0    0    0  501 -0.00000000000E+00 -0.00000000000E+00 -0.18129057316E+03  0.18129057316E+03  0.00000000000E+00 0.  1.
         25    2    1    2    0    0 -0.56944550207E+02  0.16858331983E+02 -0.58888733353E+01  0.13859620271E+03  0.12508934176E+03 0.  0.
          5    1    3    3  502    0 -0.67852450441E+02 -0.15715691661E+02  0.40534902728E+02  0.80693796133E+02  0.41800000000E+01 0. -1.
         -5    1    3    3    0  502  0.10907900234E+02  0.32574023644E+02 -0.46423776063E+02  0.57902406581E+02  0.41800000000E+01 0. -1.
        -11    1    1    2    0    0  0.86055642821E+01  0.35264986664E+02 -0.38602022591E+02  0.52988594708E+02  0.00000000000E+00 0.  1.
         11    1    1    2    0    0  0.48338985925E+02 -0.52123318647E+02 -0.43279287444E+02  0.83226165529E+02  0.00000000000E+00 0. -1.
</event>
<event>
 7    1  0.2670433E-009  0.1342178E+03  0.7561462E-02  0.1221328E+00
         -2   -1    0    0    0  501 -0.00000000000E+00  0.00000000000E+00  0.19453927604E+02  0.19453927604E+02  0.00000000000E+00 0.  1.
          2   -1    0    0  501    0  0.00000000000E+00 -0.00000000000E+00 -0.11458403098E+04  0.11458403098E+04  0.00000000000E+00 0. -1.
         25    2    1    2    0    0 -0.68877004920E+01  0.10281577434E+03 -0.61125834468E+03  0.63237927550E+03  0.12509300649E+03 0.  0.
          5    1    3    3  502    0  0.40759617134E+02  0.63509623864E+02 -0.16068199646E+03  0.17756969082E+03  0.41800000000E+01 0.  1.
         -5    1    3    3    0  502 -0.47647317626E+02  0.39306150474E+02 -0.45057634822E+03  0.45480958468E+03  0.41800000000E+01 0.  1.
        -11    1    1    2    0    0  0.42613266801E+02 -0.38769503595E+02 -0.30405182171E+03  0.30946158921E+03  0.00000000000E+00 0.  1.
         11    1    1    2    0    0 -0.35725566309E+02 -0.64046270744E+02 -0.21107621582E+03  0.22345337269E+03  0.00000000000E+00 0. -1.
</event>
<event>
 7    1  0.2670433E-009  0.1111615E+03  0.7561462E-02  0.1258434E+00
          1   -1    0    0  501    0  0.00000000000E+00  0.00000000000E+00  0.32070085824E+02  0.32070085824E+02  0.00000000000E+00 0. -1.
         -1   -1    0    0    0  501 -0.00000000000E+00 -0.00000000000E+00 -0.50938418698E+03  0.50938418698E+03  0.00000000000E+00 0.  1.
         25    2    1    2    0    0  0.52897137055E+02  0.11696097509E+02 -0.35178194487E+03  0.37726990757E+03  0.12508853113E+03 0.  0.
          5    1    3    3  502    0 -0.33365534121E+02  0.33157109559E+02 -0.11511631296E+03  0.12442624599E+03  0.41800000000E+01 0.  1.
         -5    1    3    3    0  502  0.86262671176E+02 -0.21461012050E+02 -0.23666563191E+03  0.25284366158E+03  0.41800000000E+01 0.  1.
        -11    1    1    2    0    0 -0.65843282962E+02 -0.22149331825E+02 -0.12960923437E+03  0.14705265875E+03  0.00000000000E+00 0.  1.
         11    1    1    2    0    0  0.12946145906E+02  0.10453234316E+02  0.40770780760E+01  0.17131706486E+02  0.00000000000E+00 0. -1.
</event>
<event>
 7    1  0.2670433E-009  0.1538316E+03  0.7561462E-02  0.1195842E+00
         -2   -1    0    0    0  501 -0.00000000000E+00  0.00000000000E+00  0.41508522578E+02  0.41508522578E+02  0.00000000000E+00 0.  1.
          2   -1    0    0  501    0  0.00000000000E+00 -0.00000000000E+00 -0.79879491935E+03  0.79879491935E+03  0.00000000000E+00 0. -1.
         25    2    1    2    0    0  0.12738752621E+03  0.37147568115E+02 -0.53472590818E+03  0.56496644901E+03  0.12509103875E+03 0.  0.
          5    1    3    3  502    0  0.11176778321E+03  0.68592836928E+02 -0.49355137759E+03  0.51069310683E+03  0.41800000000E+01 0.  1.
         -5    1    3    3    0  502  0.15619743003E+02 -0.31445268813E+02 -0.41174530593E+02  0.54273342183E+02  0.41800000000E+01 0.  1.
        -11    1    1    2    0    0 -0.79030354239E+02 -0.46716489656E+02 -0.20208139659E+03  0.22195746922E+03  0.00000000000E+00 0. -1.
         11    1    1    2    0    0 -0.48357171975E+02  0.95689215413E+01 -0.20479092007E+02  0.53379523699E+02  0.00000000000E+00 0.  1.
</event>
<event>
 7    1  0.2670433E-009  0.1054989E+03  0.7561462E-02  0.1269140E+00
         -1   -1    0    0    0  501 -0.00000000000E+00  0.00000000000E+00  0.14176049553E+02  0.14176049553E+02  0.00000000000E+00 0.  1.
          1   -1    0    0  501    0  0.00000000000E+00 -0.00000000000E+00 -0.13439317325E+04  0.13439317325E+04  0.00000000000E+00 0. -1.
         25    2    1    2    0    0  0.29799643914E+02  0.23173389236E+02 -0.11083316392E+04  0.11160071782E+04  0.12509186412E+03 0.  0.
          5    1    3    3  502    0 -0.46962677411E+02  0.13807350166E+02 -0.30259360248E+03  0.30655586220E+03  0.41800000000E+01 0. -1.
         -5    1    3    3    0  502  0.76762321324E+02  0.93660390699E+01 -0.80573803676E+03  0.80945131598E+03  0.41800000000E+01 0. -1.
        -11    1    1    2    0    0 -0.36539839109E+02 -0.47074426920E+02 -0.87318045245E+02  0.10571472242E+03  0.00000000000E+00 0.  1.
         11    1    1    2    0    0  0.67401951950E+01  0.23901037685E+02 -0.13410599844E+03  0.13638588142E+03  0.00000000000E+00 0. -1.
</event>
<event>
 7    1  0.2670433E-009  0.6812119E+02  0.7561462E-02  0.1366601E+00
         -2   -1    0    0    0  501 -0.00000000000E+00  0.00000000000E+00  0.60102373270E+02  0.60102373270E+02  0.00000000000E+00 0.  1.
          2   -1    0    0  501    0  0.00000000000E+00 -0.00000000000E+00 -0.20583941643E+03  0.20583941643E+03  0.00000000000E+00 0. -1.
         25    2    1    2    0    0  0.20470179636E+02 -0.43949496867E+01 -0.66620311738E+02  0.14326343302E+03  0.12509117262E+03 0.  0.
          5    1    3    3  502    0 -0.11432606173E+02 -0.66255149841E+01  0.34470488260E+02  0.37152239416E+02  0.41800000000E+01 0. -1.
         -5    1    3    3    0  502  0.31902785809E+02  0.22305652974E+01 -0.10109080000E+03  0.10611119360E+03  0.41800000000E+01 0. -1.
        -11    1    1    2    0    0 -0.54070590654E+02  0.12650756969E+02 -0.31578040922E+02  0.63881476925E+02  0.00000000000E+00 0.  1.
         11    1    1    2    0    0  0.33600411018E+02 -0.82558072824E+01 -0.47538690500E+02  0.58796879755E+02  0.00000000000E+00 0. -1.
</event>
<event>
 7    1  0.2670433E-009  0.7998705E+02  0.7561462E-02  0.1329088E+00
         -1   -1    0    0    0  501 -0.00000000000E+00  0.00000000000E+00  0.68893057923E+02  0.68893057923E+02  0.00000000000E+00 0.  1.
          1   -1    0    0  501    0  0.00000000000E+00 -0.00000000000E+00 -0.22413117655E+03  0.22413117655E+03  0.00000000000E+00 0. -1.
         25    2    1    2    0    0 -0.19849484854E+02 -0.32709961001E+01 -0.19664963551E+02  0.12821984941E+03  0.12509563352E+03 0.  0.
          5    1    3    3  502    0 -0.55810748591E+02 -0.34566620551E+02 -0.39150184654E+02  0.76549985455E+02  0.41800000000E+01 0.  1.
         -5    1    3    3    0  502  0.35961263737E+02  0.31295624451E+02  0.19485221103E+02  0.51669863952E+02  0.41800000000E+01 0.  1.
        -11    1    1    2    0    0 -0.74456334298E+01  0.14909364910E+02  0.77947778960E+01  0.18397966780E+02  0.00000000000E+00 0.  1.
         11    1    1    2    0    0  0.27295118284E+02 -0.11638368810E+02 -0.14336793297E+03  0.14640641829E+03  0.00000000000E+00 0. -1.
</event>
<event>
 7    1  0.2670433E-009  0.1147555E+03  0.7561462E-02  0.1252008E+00
         -1   -1    0    0    0  501 -0.00000000000E+00  0.00000000000E+00  0.46455262985E+02  0.46455262985E+02  0.00000000000E+00 0.  1.
          1   -1    0    0  501    0  0.00000000000E+00 -0.00000000000E+00 -0.37331050747E+03  0.37331050747E+03  0.00000000000E+00 0. -1.
         25    2    1    2    0    0  0.57401969737E+01  0.69035448576E+02 -0.22329188983E+03  0.26515145548E+03  0.12508870156E+03 0.  0.
          5    1    3    3  502    0  0.40944884963E+02 -0.52282529315E+01 -0.14767900347E+03  0.15339614956E+03  0.41800000000E+01 0. -1.
         -5    1    3    3    0  502 -0.35204687989E+02  0.74263701507E+02 -0.75612886357E+02  0.11175530592E+03  0.41800000000E+01 0. -1.
        -11    1    1    2    0    0 -0.30743958284E+02  0.16150430040E+01 -0.56328932241E+01  0.31297425149E+02  0.00000000000E+00 0.  1.
         11    1    1    2    0    0  0.25003761311E+02 -0.70650491580E+02 -0.97930461429E+02  0.12331688982E+03  0.00000000000E+00 0. -1.
</event>
<event>
 7    1  0.2670433E-009  0.2015236E+03  0.7561462E-02  0.1148460E+00
         -1   -1    0    0    0  501 -0.00000000000E+00  0.00000000000E+00  0.78616829424E+02  0.78616829424E+02  0.00000000000E+00 0.  1.
          1   -1    0    0  501    0  0.00000000000E+00 -0.00000000000E+00 -0.65971831521E+03  0.65971831521E+03  0.00000000000E+00 0. -1.
         25    2    1    2    0    0 -0.79609065410E+02 -0.18125586957E+03 -0.34102766704E+03  0.41368917705E+03  0.12509025531E+03 0.  0.
          5    1    3    3  502    0 -0.56457556062E+01 -0.48573834588E+02 -0.20148698431E+03  0.20737832387E+03  0.41800000000E+01 0.  1.
         -5    1    3    3    0  502 -0.73963309804E+02 -0.13268203499E+03 -0.13954068273E+03  0.20631085318E+03  0.41800000000E+01 0.  1.
        -11    1    1    2    0    0  0.56792209430E+02  0.16353448221E+03 -0.23979504842E+03  0.29575420060E+03  0.00000000000E+00 0. -1.
         11    1    1    2    0    0  0.22816855980E+02  0.17721387362E+02 -0.27877032908E+00  0.28891766989E+02  0.00000000000E+00 0.  1.
</event>
<event>
 7    1  0.2670433E-009  0.1096641E+03  0.7561462E-02  0.1261193E+00
         -1   -1    0    0    0  501 -0.00000000000E+00  0.00000000000E+00  0.35153195743E+02  0.35153195743E+02  0.00000000000E+00 0.  1.
          1   -1    0    0  501    0  0.00000000000E+00 -0.00000000000E+00 -0.58584953432E+03  0.58584953432E+03  0.00000000000E+00 0. -1.
         25    2    1    2    0    0 -0.68092706290E+01  0.87271305837E+02 -0.37286049998E+03  0.40290736951E+03  0.12508696562E+03 0.  0.
          5    1    3    3  502    0 -0.15097374974E+02  0.80438115649E+02 -0.97755845138E+02  0.12756135323E+03  0.41800000000E+01 0.  1.
         -5    1    3    3    0  502  0.82881043450E+01  0.68331901877E+01 -0.27510465484E+03  0.27534601627E+03  0.41800000000E+01 0.  1.
        -11    1    1    2    0    0 -0.23087499093E+02  0.92013696441E+01 -0.28531749365E+02  0.37838585327E+02  0.00000000000E+00 0.  1.
         11    1    1    2    0    0  0.29896769722E+02 -0.96472675481E+02 -0.14930408923E+03  0.18025677523E+03  0.00000000000E+00 0. -1.
</event>
<event>
 7    1  0.2670433E-009  0.1666236E+03  0.7561462E-02  0.1181415E+00
          1   -1    0    0  501    0  0.00000000000E+00  0.00000000000E+00  0.18870355020E+04  0.18870355020E+04  0.00000000000E+00 0. -1.
         -1   -1    0    0    0  501 -0.00000000000E+00 -0.00000000000E+00 -0.15029338782E+02  0.15029338782E+02  0.00000000000E+00 0.  1.
         25    2    1    2    0    0  0.24501951419E+02  0.12382845885E+03  0.10519019366E+04  0.10668074420E+04  0.12508637553E+03 0.  0.
          5    1    3    3  502    0  0.74687923958E+02  0.81087134524E+02  0.71918147947E+03  0.72759389922E+03  0.41800000000E+01 0.  1.
         -5    1    3    3    0  502 -0.50185972538E+02  0.42741324328E+02  0.33272045711E+03  0.33921354281E+03  0.41800000000E+01 0.  1.
        -11    1    1    2    0    0 -0.54980417440E+02 -0.40911309941E+02  0.30224148664E+03  0.30991369416E+03  0.00000000000E+00 0.  1.
         11    1    1    2    0    0  0.30478466021E+02 -0.82917148912E+02  0.51786274001E+03  0.52534370461E+03  0.00000000000E+00 0. -1.
</event>
<event>
 7    1  0.2670433E-009  0.1533556E+03  0.7561462E-02  0.1196409E+00
          2   -1    0    0  501    0  0.00000000000E+00  0.00000000000E+00  0.55354330935E+03  0.55354330935E+03  0.00000000000E+00 0.  1.
         -2   -1    0    0    0  501 -0.00000000000E+00 -0.00000000000E+00 -0.48072034323E+02  0.48072034323E+02  0.00000000000E+00 0. -1.
         25    2    1    2    0    0  0.25124252666E+02  0.11170034581E+03  0.34701012076E+03  0.38622482239E+03  0.12508155018E+03 0.  0.
          5    1    3    3  502    0 -0.44753290511E+02  0.52790570047E+02  0.91316751542E+02  0.11465567064E+03  0.41800000000E+01 0.  1.
         -5    1    3    3    0  502  0.69877543176E+02  0.58909775761E+02  0.25569336922E+03  0.27156915175E+03  0.41800000000E+01 0.  1.
        -11    1    1    2    0    0  0.33516783820E+02 -0.54407804401E+02  0.68922237784E+02  0.93988610153E+02  0.00000000000E+00 0. -1.
         11    1    1    2    0    0 -0.58641036486E+02 -0.57292541407E+02  0.89538916483E+02  0.12140191113E+03  0.00000000000E+00 0.  1.
</event>
<event>
 7    1  0.2670433E-009  0.1117367E+03  0.7561462E-02  0.1257387E+00
          2   -1    0    0  501    0  0.00000000000E+00  0.00000000000E+00  0.69399469542E+03  0.69399469542E+03  0.00000000000E+00 0. -1.
         -2   -1    0    0    0  501 -0.00000000000E+00 -0.00000000000E+00 -0.20438863645E+02  0.20438863645E+02  0.00000000000E+00 0.  1.
         25    2    1    2    0    0 -0.55057896253E+00 -0.41963548783E+02  0.46403026109E+03  0.48242335373E+03  0.12508783497E+03 0.  0.
          5    1    3    3  502    0  0.39209231279E+01 -0.82597217991E+02  0.22215264937E+03  0.23708004151E+03  0.41800000000E+01 0.  1.
         -5    1    3    3    0  502 -0.44715020904E+01  0.40633669208E+02  0.24187761172E+03  0.24534331222E+03  0.41800000000E+01 0.  1.
        -11    1    1    2    0    0 -0.39380352200E+02  0.44685610174E+02  0.12899530148E+03  0.14208238349E+03  0.00000000000E+00 0.  1.
         11    1    1    2    0    0  0.39930931163E+02 -0.27220613903E+01  0.80530269213E+02  0.89927821842E+02  0.00000000000E+00 0. -1.
</event>
<event>
 7    1  0.2670433E-009  0.1008735E+03  0.7561462E-02  0.1278470E+00
          1   -1    0    0  501    0  0.00000000000E+00  0.00000000000E+00  0.26317702074E+02  0.26317702074E+02  0.00000000000E+00 0. -1.
         -1   -1    0    0    0  501 -0.00000000000E+00 -0.00000000000E+00 -0.50237208416E+03  0.50237208416E+03  0.00000000000E+00 0.  1.
         25    2    1    2    0    0  0.22920044183E+02 -0.25452938365E+02 -0.33664203463E+03  0.36076074212E+03  0.12508906058E+03 0.  0.
          5    1    3    3  502    0  0.14654441175E+02  0.46726911218E+02 -0.79021204829E+02  0.93059014022E+02  0.41800000000E+01 0.  1.
         -5    1    3    3    0  502  0.82656030077E+01 -0.72179849583E+02 -0.25762082981E+03  0.26770172810E+03  0.41800000000E+01 0.  1.
        -11    1    1    2    0    0  0.17155597234E+02  0.34689660855E+02 -0.24314477104E+02  0.45704276425E+02  0.00000000000E+00 0. -1.
         11    1    1    2    0    0 -0.40075641416E+02 -0.92367224908E+01 -0.11509787034E+03  0.12222476768E+03  0.00000000000E+00 0.  1.
</event>
<event>
 7    1  0.2670433E-009  0.1374474E+03  0.7561462E-02  0.1216805E+00
         -1   -1    0    0    0  501 -0.00000000000E+00  0.00000000000E+00  0.88108652906E+02  0.88108652906E+02  0.00000000000E+00 0.  1.
          1   -1    0    0  501    0  0.00000000000E+00 -0.00000000000E+00 -0.38995238783E+03  0.38995238783E+03  0.00000000000E+00 0. -1.
         25    2    1    2    0    0 -0.10055589737E+03 -0.91124509878E+02 -0.24110564598E+03  0.30363589461E+03  0.12509060385E+03 0.  0.
          5    1    3    3  502    0 -0.78118480737E+02 -0.76278650063E+02 -0.68639956383E+02  0.12903428033E+03  0.41800000000E+01 0.  1.
         -5    1    3    3    0  502 -0.22437416634E+02 -0.14845859815E+02 -0.17246568960E+03  0.17460161428E+03  0.41800000000E+01 0.  1.
        -11    1    1    2    0    0  0.62254894079E+02  0.38079597456E+02  0.14829646951E+02  0.74469094314E+02  0.00000000000E+00 0.  1.
         11    1    1    2    0    0  0.38301003293E+02  0.53044912421E+02 -0.75567735895E+02  0.99956051819E+02  0.00000000000E+00 0. -1.
</event>
<event>
 7    1  0.2670433E-009  0.2249685E+03  0.7561462E-02  0.1130232E+00
          2   -1    0    0  501    0  0.00000000000E+00  0.00000000000E+00  0.61651360403E+02  0.61651360403E+02  0.00000000000E+00 0. -1.
         -2   -1    0    0    0  501 -0.00000000000E+00 -0.00000000000E+00 -0.98041836882E+03  0.98041836882E+03  0.00000000000E+00 0.  1.
         25    2    1    2    0    0 -0.19735503667E+02 -0.21176106051E+03 -0.35004959366E+03  0.42826803311E+03  0.12508618355E+03 0.  0.
          5    1    3    3  502    0  0.13855998806E+02 -0.15648770858E+01  0.40335692377E+01  0.15105615644E+02  0.41800000000E+01 0. -1.
         -5    1    3    3    0  502 -0.33591502473E+02 -0.21019618342E+03 -0.35408316290E+03  0.41316241747E+03  0.41800000000E+01 0. -1.
        -11    1    1    2    0    0 -0.11205132945E+02  0.17067376782E+03 -0.35603942186E+03  0.39499260745E+03  0.00000000000E+00 0.  1.
         11    1    1    2    0    0  0.30940636612E+02  0.41087292691E+02 -0.21267799290E+03  0.21880908866E+03  0.00000000000E+00 0. -1.
</event>
<event>
 7    1  0.2670433E-009  0.2395794E+03  0.7561462E-02  0.1120073E+00
          2   -1    0    0  501    0  0.00000000000E+00  0.00000000000E+00  0.25972668269E+03  0.25972668269E+03  0.00000000000E+00 0. -1.
         -2   -1    0    0    0  501 -0.00000000000E+00 -0.00000000000E+00 -0.22375574590E+03  0.22375574590E+03  0.00000000000E+00 0.  1.
         25    2    1    2    0    0 -0.12446507579E+03 -0.18124813560E+03  0.15292169191E+02  0.25342709551E+03  0.12509596536E+03 0.  0.
          5    1    3    3  502    0 -0.40663836180E+02 -0.15898452806E+03 -0.51778271482E+01  0.16423735881E+03  0.41800000000E+01 0. -1.
         -5    1    3    3    0  502 -0.83801239614E+02 -0.22263607535E+02  0.20469996339E+02  0.89189736693E+02  0.41800000000E+01 0. -1.
        -11    1    1    2    0    0  0.11703814210E+03  0.12416823253E+03  0.24425313616E+02  0.17237248221E+03  0.00000000000E+00 0.  1.
         11    1    1    2    0    0  0.74269336930E+01  0.57079903062E+02 -0.37465460179E+01  0.57682850872E+02  0.00000000000E+00 0. -1.
</event>
<event>
 7    1  0.2670433E-009  0.1263375E+03  0.7561462E-02  0.1232994E+00
          2   -1    0    0  501    0  0.00000000000E+00  0.00000000000E+00  0.28577560940E+03  0.28577560940E+03  0.00000000000E+00 0. -1.
         -2   -1    0    0    0  501 -0.00000000000E+00 -0.00000000000E+00 -0.99827460216E+02  0.99827460216E+02  0.00000000000E+00 0.  1.
         25    2    1    2    0    0 -0.32088971143E+02 -0.95831425831E+02  0.19873281531E+02  0.16204055619E+03  0.12509528482E+03 0.  0.
          5    1    3    3  502    0 -0.52828821180E+02 -0.13229984715E+02 -0.30945479741E+02  0.62777479713E+02  0.41800000000E+01 0.  1.
         -5    1    3    3    0  502  0.20739850037E+02 -0.82601441116E+02  0.50818761271E+02  0.99263076474E+02  0.41800000000E+01 0.  1.
        -11    1    1    2    0    0 -0.64297344389E+01  0.59469600797E+02  0.15930051220E+03  0.17016059500E+03  0.00000000000E+00 0. -1.
         11    1    1    2    0    0  0.38518705581E+02  0.36361825034E+02  0.67743554484E+01  0.53401918423E+02  0.00000000000E+00 0.  1.
</event>
<event>
 7    1  0.2670433E-009  0.1136013E+03  0.7561462E-02  0.1254042E+00
         -2   -1    0    0    0  501 -0.00000000000E+00  0.00000000000E+00  0.85773358174E+02  0.85773358174E+02  0.00000000000E+00 0.  1.
          2   -1    0    0  501    0  0.00000000000E+00 -0.00000000000E+00 -0.17946137864E+03  0.17946137864E+03  0.00000000000E+00 0. -1.
         25    2    1    2    0    0 -0.34166289035E+02  0.80730998917E+01 -0.10425380738E+03  0.16658381621E+03  0.12509516865E+03 0.  0.
          5    1    3    3  502    0  0.40263356508E+02 -0.25055123067E+02 -0.47174517820E+02  0.67020926588E+02  0.41800000000E+01 0.  1.
         -5    1    3    3    0  502 -0.74429645543E+02  0.33128222959E+02 -0.57079289564E+02  0.99562889618E+02  0.41800000000E+01 0.  1.
        -11    1    1    2    0    0  0.64000665232E+02  0.73732092174E+01  0.86293862969E+01  0.64999351322E+02  0.00000000000E+00 0.  1.
         11    1    1    2    0    0 -0.29834376198E+02 -0.15446309109E+02  0.19364006184E+01  0.33651569288E+02  0.00000000000E+00 0. -1.
</event>
<event>
 7    1  0.2670433E-009  0.9312230E+02  0.7561462E-02  0.1295462E+00
          1   -1    0    0  501    0  0.00000000000E+00  0.00000000000E+00  0.75349055746E+02  0.75349055746E+02  0.00000000000E+00 0. -1.
         -1   -1    0    0    0  501 -0.00000000000E+00 -0.00000000000E+00 -0.23213091264E+03  0.23213091264E+03  0.00000000000E+00 0.  1.
         25    2    1    2    0    0 -0.21809947621E+02  0.35932353006E+02 -0.13261339054E+02  0.13262437481E+03  0.12508618577E+03 0.  0.
          5    1    3    3  502    0  0.37141573270E+01 -0.39494735662E+02  0.21869211654E+02  0.45490261903E+02  0.41800000000E+01 0. -1.
         -5    1    3    3    0  502 -0.25524104949E+02  0.75427088668E+02 -0.35130550708E+02  0.87134112903E+02  0.41800000000E+01 0. -1.
        -11    1    1    2    0    0 -0.15105039058E+02 -0.22973007806E+02 -0.14891989031E+01  0.27534324143E+02  0.00000000000E+00 0. -1.
         11    1    1    2    0    0  0.36914986680E+02 -0.12959345200E+02 -0.14203131894E+03  0.14732126944E+03  0.00000000000E+00 0.  1.
</event>
<event>
 7    1  0.2670433E-009  0.1471080E+03  0.7561462E-02  0.1204072E+00
          1   -1    0    0  501    0  0.00000000000E+00  0.00000000000E+00  0.42458417125E+03  0.42458417125E+03  0.00000000000E+00 0. -1.
         -1   -1    0    0    0  501 -0.00000000000E+00 -0.00000000000E+00 -0.95356400734E+02  0.95356400734E+02  0.00000000000E+00 0.  1.
         25    2    1    2    0    0 -0.75325337595E+02  0.94049674894E+02  0.18328488381E+02  0.17464598104E+03  0.12508412120E+03 0.  0.
          5    1    3    3  502    0 -0.10663542644E+03  0.46326121332E+02  0.15233805570E+02  0.11733185809E+03  0.41800000000E+01 0.  1.
         -5    1    3    3    0  502  0.31310088850E+02  0.47723553562E+02  0.30946828105E+01  0.57314122955E+02  0.41800000000E+01 0.  1.
        -11    1    1    2    0    0  0.18411802814E+02 -0.27285479992E+02  0.14114986484E+02  0.35815146861E+02  0.00000000000E+00 0.  1.
         11    1    1    2    0    0  0.56913534781E+02 -0.66764194901E+02  0.29678429565E+03  0.30947944408E+03  0.00000000000E+00 0. -1.
</event>
<event>
 7    1  0.2670433E-009  0.1606239E+03  0.7561462E-02  0.1187994E+00
          2   -1    0    0  501    0  0.00000000000E+00  0.00000000000E+00  0.14177317831E+04  0.14177317831E+04  0.00000000000E+00 0. -1.
         -2   -1    0    0    0  501 -0.00000000000E+00 -0.00000000000E+00 -0.19516100760E+02  0.19516100760E+02  0.00000000000E+00 0.  1.
         25    2    1    2    0    0 -0.93991061273E+02 -0.77161759857E+02  0.91325974213E+03  0.92977353309E+03  0.12508880630E+03 0.  0.
          5    1    3    3  502    0 -0.40641657182E+02  0.31221698567E+02  0.21014135274E+03  0.21634093300E+03  0.41800000000E+01 0.  1.
         -5    1    3    3    0  502 -0.53349404091E+02 -0.10838345842E+03  0.70311838939E+03  0.71343260009E+03  0.41800000000E+01 0.  1.
        -11    1    1    2    0    0  0.66911358565E+02  0.95239190016E+02  0.36014908962E+03  0.37849042257E+03  0.00000000000E+00 0.  1.
         11    1    1    2    0    0  0.27079702708E+02 -0.18077430160E+02  0.12480685058E+03  0.12898392819E+03  0.00000000000E+00 0. -1.
</event>
<event>
 7    1  0.2670433E-009  0.9853765E+02  0.7561462E-02  0.1283401E+00
         -2   -1    0    0    0  501 -0.00000000000E+00  0.00000000000E+00  0.38791678818E+02  0.38791678818E+02  0.00000000000E+00 0.  1.
          2   -1    0    0  501    0  0.00000000000E+00 -0.00000000000E+00 -0.36938675231E+03  0.36938675231E+03  0.00000000000E+00 0. -1.
         25    2    1    2    0    0  0.34232331917E+02 -0.10676680401E+02 -0.24463185443E+03  0.27708879957E+03  0.12509042565E+03 0.  0.
          5    1    3    3  502    0 -0.34934388653E+02 -0.41394949864E+02 -0.10093480570E+03  0.11462661465E+03  0.41800000000E+01 0. -1.
         -5    1    3    3    0  502  0.69166720570E+02  0.30718269463E+02 -0.14369704874E+03  0.16246218492E+03  0.41800000000E+01 0. -1.
        -11    1    1    2    0    0  0.14497946099E+01 -0.19904869024E+02  0.11395956162E+02  0.22982026284E+02  0.00000000000E+00 0.  1.
         11    1    1    2    0    0 -0.35682126527E+02  0.30581549425E+02 -0.97359175222E+02  0.10810760528E+03  0.00000000000E+00 0. -1.
</event>
<event>
 7    1  0.2670433E-009  0.8717494E+02  0.7561462E-02  0.1309841E+00
         -3   -1    0    0    0  501 -0.00000000000E+00  0.00000000000E+00  0.29500064959E+02  0.29500064959E+02  0.00000000000E+00 0.  1.
          3   -1    0    0  501    0  0.00000000000E+00 -0.00000000000E+00 -0.66058227032E+03  0.66058227032E+03  0.00000000000E+00 0. -1.
         25    2    1    2    0    0 -0.40042479010E+02  0.47165637081E+02 -0.48504856153E+03  0.50472874350E+03  0.12510395689E+03 0.  0.
          5    1    3    3  502    0  0.26973448125E+02  0.32849408665E+02 -0.57088755681E+02  0.71296907216E+02  0.41800000000E+01 0. -1.
         -5    1    3    3    0  502 -0.67015927135E+02  0.14316228416E+02 -0.42795980585E+03  0.43343183629E+03  0.41800000000E+01 0. -1.
        -11    1    1    2    0    0  0.19262705171E+02 -0.31652001428E+02 -0.15386603006E+03  0.15826451343E+03  0.00000000000E+00 0. -1.
         11    1    1    2    0    0  0.20779773839E+02 -0.15513635653E+02  0.78323862226E+01  0.27089078351E+02  0.00000000000E+00 0.  1.
</event>
<event>
 7    1  0.2670433E-009  0.1253052E+03  0.7561462E-02  0.1234593E+00
         -2   -1    0    0    0  501 -0.00000000000E+00  0.00000000000E+00  0.26981065566E+02  0.26981065566E+02  0.00000000000E+00 0.  1.
          2   -1    0    0  501    0  0.00000000000E+00 -0.00000000000E+00 -0.97627503386E+03  0.97627503386E+03  0.00000000000E+00 0. -1.
         25    2    1    2    0    0  0.11225532419E+03 -0.19479310378E+02 -0.64994101809E+03  0.67160376976E+03  0.12509034820E+03 0.  0.
          5    1    3    3  502    0  0.54899820528E+02  0.23565564226E+02 -0.96877883797E+02  0.11389522764E+03  0.41800000000E+01 0. -1.
         -5    1    3    3    0  502  0.57355503666E+02 -0.43044874603E+02 -0.55306313429E+03  0.55770854211E+03  0.41800000000E+01 0. -1.
        -11    1    1    2    0    0 -0.92329675953E+02  0.29037197943E+02 -0.29312648167E+03  0.30869250426E+03  0.00000000000E+00 0. -1.
         11    1    1    2    0    0 -0.19925648241E+02 -0.95578875659E+01 -0.62264685275E+01  0.22959825410E+02  0.00000000000E+00 0.  1.
</event>
<event>
 7    1  0.2670433E-009  0.1030067E+03  0.7561462E-02  0.1274097E+00
          1   -1    0    0  501    0  0.00000000000E+00  0.00000000000E+00  0.90089612489E+03  0.90089612489E+03  0.00000000000E+00 0. -1.
         -1   -1    0    0    0  501 -0.00000000000E+00 -0.00000000000E+00 -0.21827049452E+02  0.21827049452E+02  0.00000000000E+00 0.  1.
         25    2    1    2    0    0  0.21974893770E+02 -0.16552657523E+02  0.76482761622E+03  0.77547613611E+03  0.12508024911E+03 0.  0.
          5    1    3    3  502    0 -0.18613015101E+02 -0.58480586971E+02  0.25555503593E+03  0.26285408913E+03  0.41800000000E+01 0. -1.
         -5    1    3    3    0  502  0.40587908871E+02  0.41927929448E+02  0.50927258029E+03  0.51262204698E+03  0.41800000000E+01 0. -1.
        -11    1    1    2    0    0  0.30137026049E+02  0.15461725556E+02  0.74044853442E+02  0.81424478000E+02  0.00000000000E+00 0. -1.
         11    1    1    2    0    0 -0.52111919819E+02  0.10909319676E+01  0.40196605778E+02  0.65822560235E+02  0.00000000000E+00 0.  1.
</event>
<event>
 7    1  0.2670433E-009  0.1142590E+03  0.7561462E-02  0.1252880E+00
         -1   -1    0    0    0  501 -0.00000000000E+00  0.00000000000E+00  0.10553988973E+03  0.10553988973E+03  0.00000000000E+00 0.  1.
          1   -1    0    0  501    0  0.00000000000E+00 -0.00000000000E+00 -0.12746655696E+03  0.12746655696E+03  0.00000000000E+00 0. -1.
         25    2    1    2    0    0  0.96514188135E+01  0.40056175626E+02 -0.58640709485E+01  0.13183189729E+03  0.12509042619E+03 0.  0.
          5    1    3    3  502    0 -0.53085602065E+02  0.43443921787E+02 -0.38930248862E+01  0.68833738309E+02  0.41800000000E+01 0. -1.
         -5    1    3    3    0  502  0.62737020879E+02 -0.33877461605E+01 -0.19710460623E+01  0.62998158984E+02  0.41800000000E+01 0. -1.
        -11    1    1    2    0    0  0.15081359586E+02  0.23897049978E+02  0.64864523568E+01  0.28992938257E+02  0.00000000000E+00 0.  1.
         11    1    1    2    0    0 -0.24732778399E+02 -0.63953225604E+02 -0.22549048631E+02  0.72181611140E+02  0.00000000000E+00 0. -1.
</event>
<event>
 7    1  0.2670433E-009  0.1083780E+03  0.7561462E-02  0.1263603E+00
         -2   -1    0    0    0  501 -0.00000000000E+00  0.00000000000E+00  0.79916878037E+02  0.79916878037E+02  0.00000000000E+00 0.  1.
          2   -1    0    0  501    0  0.00000000000E+00 -0.00000000000E+00 -0.30541307907E+03  0.30541307907E+03  0.00000000000E+00 0. -1.
         25    2    1    2    0    0 -0.55385710192E+02 -0.91657168920E+02 -0.79670745877E+02  0.18293010878E+03  0.12508950172E+03 0.  0.
          5    1    3    3  502    0 -0.32064482287E+02 -0.69613092903E+02 -0.11291622896E+03  0.13653446778E+03  0.41800000000E+01 0.  1.
         -5    1    3    3    0  502 -0.23321227905E+02 -0.22044076017E+02  0.33245483086E+02  0.46395641002E+02  0.41800000000E+01 0.  1.
        -11    1    1    2    0    0  0.34204961223E+02  0.46162760747E+02 -0.14067202243E+03  0.15195261678E+03  0.00000000000E+00 0. -1.
         11    1    1    2    0    0  0.21180748969E+02  0.45494408173E+02 -0.51534327256E+01  0.50447231547E+02  0.00000000000E+00 0.  1.
</event>
<event>
 7    1  0.2670433E-009  0.2825450E+03  0.7561462E-02  0.1094307E+00
          1   -1    0    0  501    0  0.00000000000E+00  0.00000000000E+00  0.19091527944E+04  0.19091527944E+04  0.00000000000E+00 0. -1.
         -1   -1    0    0    0  501 -0.00000000000E+00 -0.00000000000E+00 -0.51717065210E+02  0.51717065210E+02  0.00000000000E+00 0.  1.
         25    2    1    2    0    0  0.82201539212E+02  0.26988382201E+03  0.11870057212E+04  0.12264685129E+04  0.12509220810E+03 0.  0.
          5    1    3    3  502    0  0.41092088030E+02  0.16758666365E+03  0.46340583005E+03  0.49450610234E+03  0.41800000000E+01 0. -1.
         -5    1    3    3    0  502  0.41109451182E+02  0.10229715836E+03  0.72359989114E+03  0.73196241054E+03  0.41800000000E+01 0. -1.
        -11    1    1    2    0    0 -0.25588207392E+02 -0.77005915889E+02  0.95366974558E+02  0.12521791915E+03  0.00000000000E+00 0.  1.
         11    1    1    2    0    0 -0.56613331819E+02 -0.19287790612E+03  0.57506303349E+03  0.60918342762E+03  0.00000000000E+00 0. -1.
</event>
<event>
 7    1  0.2670433E-009  0.1159142E+03  0.7561462E-02  0.1249994E+00
          2   -1    0    0  501    0  0.00000000000E+00  0.00000000000E+00  0.23081049617E+03  0.23081049617E+03  0.00000000000E+00 0. -1.
         -2   -1    0    0    0  501 -0.00000000000E+00 -0.00000000000E+00 -0.77677221582E+02  0.77677221582E+02  0.00000000000E+00 0.  1.
         25    2    1    2    0    0  0.75055079646E+01 -0.63040425070E+02  0.13972512148E+03  0.19799206757E+03  0.12508925375E+03 0.  0.
          5    1    3    3  502    0  0.57789133836E+02 -0.32213745284E+02  0.28773310089E+02  0.72268147536E+02  0.41800000000E+01 0. -1.
         -5    1    3    3    0  502 -0.50283625872E+02 -0.30826679786E+02  0.11095181139E+03  0.12572392003E+03  0.41800000000E+01 0. -1.
        -11    1    1    2    0    0 -0.29264788173E+02 -0.94247247256E+01 -0.81800333033E+01  0.31814559682E+02  0.00000000000E+00 0. -1.
         11    1    1    2    0    0  0.21759280208E+02  0.72465149796E+02  0.21588186413E+02  0.78681090503E+02  0.00000000000E+00 0.  1.
</event>
<event>
 7    1  0.2670433E-009  0.5922246E+02  0.7561462E-02  0.1401124E+00
         -2   -1    0    0    0  501 -0.00000000000E+00  0.00000000000E+00  0.26961347987E+02  0.26961347987E+02  0.00000000000E+00 0.  1.
          2   -1    0    0  501    0  0.00000000000E+00 -0.00000000000E+00 -0.43273056943E+03  0.43273056943E+03  0.00000000000E+00 0. -1.
         25    2    1    2    0    0 -0.55258211142E+01 -0.83930081427E+01 -0.24390052443E+03  0.27429164079E+03  0.12508981216E+03 0.  0.
          5    1    3    3  502    0  0.67938629365E+01 -0.12281747429E+02  0.11444283239E+02  0.18586067695E+02  0.41800000000E+01 0.  1.
         -5    1    3    3    0  502 -0.12319684051E+02  0.38887392861E+01 -0.25534480767E+03  0.25570557310E+03  0.41800000000E+01 0.  1.
        -11    1    1    2    0    0 -0.66431012095E+01  0.48169570658E+02 -0.92980989352E+02  0.10492808352E+03  0.00000000000E+00 0. -1.
         11    1    1    2    0    0  0.12168922324E+02 -0.39776562515E+02 -0.68887707663E+02  0.80472193105E+02  0.00000000000E+00 0.  1.
</event>
<event>
 7    1  0.2670433E-009  0.1110644E+03  0.7561462E-02  0.1258611E+00
         -2   -1    0    0    0  501 -0.00000000000E+00  0.00000000000E+00  0.32766385616E+02  0.32766385616E+02  0.00000000000E+00 0.  1.
          2   -1    0    0  501    0  0.00000000000E+00 -0.00000000000E+00 -0.53365749217E+03  0.53365749217E+03  0.00000000000E+00 0. -1.
         25    2    1    2    0    0  0.63284989019E+02 -0.33692558390E+01 -0.36239438049E+03  0.38857990634E+03  0.12509322475E+03 0.  0.
          5    1    3    3  502    0  0.28792560143E+02 -0.56574799309E+02 -0.99381947533E+02  0.11799984463E+03  0.41800000000E+01 0.  1.
         -5    1    3    3    0  502  0.34492428875E+02  0.53205543470E+02 -0.26301243296E+03  0.27058006171E+03  0.41800000000E+01 0.  1.
        -11    1    1    2    0    0 -0.49775439659E+02  0.34813732763E+02 -0.37926533503E+02  0.71610141221E+02  0.00000000000E+00 0.  1.
         11    1    1    2    0    0 -0.13509549359E+02 -0.31444476924E+02 -0.10057019256E+03  0.10623383023E+03  0.00000000000E+00 0. -1.
</event>
<event>
 7    1  0.2670433E-009  0.1666941E+03  0.7561462E-02  0.1181340E+00
          1   -1    0    0  501    0  0.00000000000E+00  0.00000000000E+00  0.73168847877E+03  0.73168847877E+03  0.00000000000E+00 0. -1.
         -1   -1    0    0    0  501 -0.00000000000E+00 -0.00000000000E+00 -0.58636268419E+02  0.58636268419E+02  0.00000000000E+00 0.  1.
         25    2    1    2    0    0  0.12680206045E+03 -0.84152371806E+02  0.51774642531E+03  0.55395800508E+03  0.12509087198E+03 0.  0.
          5    1    3    3  502    0  0.13440755114E+03 -0.87979600677E+02  0.34110579704E+03  0.37706290869E+03  0.41800000000E+01 0.  1.
         -5    1    3    3    0  502 -0.76054906856E+01  0.38272288709E+01  0.17664062827E+03  0.17689509639E+03  0.41800000000E+01 0.  1.
        -11    1    1    2    0    0 -0.42780335992E+02  0.63699396768E+02  0.26408329520E+02  0.81149061388E+02  0.00000000000E+00 0.  1.
         11    1    1    2    0    0 -0.84021724460E+02  0.20452975038E+02  0.12889745552E+03  0.15521768072E+03  0.00000000000E+00 0. -1.
</event>
<event>
 7    1  0.2670433E-009  0.1335648E+03  0.7561462E-02  0.1222260E+00
         -2   -1    0    0    0  501 -0.00000000000E+00  0.00000000000E+00  0.51121074778E+03  0.51121074778E+03  0.00000000000E+00 0.  1.
          2   -1    0    0  501    0  0.00000000000E+00 -0.00000000000E+00 -0.47766453015E+02  0.47766453015E+02  0.00000000000E+00 0. -1.
         25    2    1    2    0    0 -0.49568238534E+02  0.93102342535E+02  0.30444224710E+03  0.34562461401E+03  0.12508491330E+03 0.  0.
          5    1    3    3  502    0  0.18748367600E+02  0.90964307007E+02  0.14696137244E+03  0.17389975223E+03  0.41800000000E+01 0. -1.
         -5    1    3    3    0  502 -0.68316606133E+02  0.21380355281E+01  0.15748087465E+03  0.17172486177E+03  0.41800000000E+01 0. -1.
        -11    1    1    2    0    0  0.28270311152E+02 -0.59887996919E+02  0.20478247368E+02  0.69319126386E+02  0.00000000000E+00 0.  1.
         11    1    1    2    0    0  0.21297927382E+02 -0.33214345616E+02  0.13852380030E+03  0.14403346040E+03  0.00000000000E+00 0. -1.
</event>
<event>
 7    1  0.2670433E-009  0.1065949E+03  0.7561462E-02  0.1267009E+00
          2   -1    0    0  501    0  0.00000000000E+00  0.00000000000E+00  0.29107296703E+03  0.29107296703E+03  0.00000000000E+00 0.  1.
         -2   -1    0    0    0  501 -0.00000000000E+00 -0.00000000000E+00 -0.62904602197E+02  0.62904602197E+02  0.00000000000E+00 0. -1.
         25    2    1    2    0    0  0.31337120501E+02 -0.44650101673E+02  0.52601581190E+02  0.14625721158E+03  0.12509435996E+03 0.  0.
          5    1    3    3  502    0 -0.28617142518E+02 -0.62556957998E+02  0.46739916886E+02  0.83273081307E+02  0.41800000000E+01 0.  1.
         -5    1    3    3    0  502  0.59954263020E+02  0.17906856325E+02  0.58616643045E+01  0.62984130272E+02  0.41800000000E+01 0.  1.
        -11    1    1    2    0    0 -0.29560878188E+02 -0.65924813949E+01  0.64025505706E+01  0.30956404572E+02  0.00000000000E+00 0. -1.
         11    1    1    2    0    0 -0.17762423130E+01  0.51242583068E+02  0.16916423307E+03  0.17676395307E+03  0.00000000000E+00 0.  1.
</event>
<event>
 7    1  0.2670433E-009  0.1063025E+03  0.7561462E-02  0.1267574E+00
          1   -1    0    0  501    0  0.00000000000E+00  0.00000000000E+00  0.35856073657E+03  0.35856073657E+03  0.00000000000E+00 0. -1.
         -1   -1    0    0    0  501 -0.00000000000E+00 -0.00000000000E+00 -0.37995449321E+02  0.37995449321E+02  0.00000000000E+00 0.  1.
         25    2    1    2    0    0  0.41228106701E+02 -0.48220350356E+01  0.16841615076E+03  0.21384504479E+03  0.12507075814E+03 0.  0.
          5    1    3    3  502    0 -0.34506877924E+02  0.20835787095E+02  0.10219591850E+03  0.10993785883E+03  0.41800000000E+01 0. -1.
         -5    1    3    3    0  502  0.75734984624E+02 -0.25657822131E+02  0.66220232267E+02  0.10390718596E+03  0.41800000000E+01 0. -1.
        -11    1    1    2    0    0 -0.50524243179E+02 -0.28089549701E+02  0.55290830303E+02  0.79992486315E+02  0.00000000000E+00 0.  1.
         11    1    1    2    0    0  0.92961364784E+01  0.32911584737E+02  0.96858306181E+02  0.10271865478E+03  0.00000000000E+00 0. -1.
</event>
<event>
 7    1  0.2670433E-009  0.1044561E+03  0.7561462E-02  0.1271195E+00
          2   -1    0    0  501    0  0.00000000000E+00  0.00000000000E+00  0.20508745650E+03  0.20508745650E+03  0.00000000000E+00 0. -1.
         -2   -1    0    0    0  501 -0.00000000000E+00 -0.00000000000E+00 -0.65902437810E+02  0.65902437810E+02  0.00000000000E+00 0.  1.
         25    2    1    2    0    0  0.16132386784E+00 -0.16881381577E+02  0.12329507033E+03  0.17644535725E+03  0.12508510166E+03 0.  0.
          5    1    3    3  502    0  0.47795368827E+02 -0.47601231370E+02  0.52033571968E+02  0.85295014632E+02  0.41800000000E+01 0. -1.
         -5    1    3    3    0  502 -0.47634044959E+02  0.30719849793E+02  0.71261498366E+02  0.91150342620E+02  0.41800000000E+01 0. -1.
        -11    1    1    2    0    0 -0.39556600249E+02  0.21168581990E+02 -0.11569824334E+02  0.46332432721E+02  0.00000000000E+00 0.  1.
         11    1    1    2    0    0  0.39395276381E+02 -0.42872004128E+01  0.27459772695E+02  0.48212104341E+02  0.00000000000E+00 0. -1.
</event>
<event>
 7    1  0.2670433E-009  0.1073757E+03  0.7561462E-02  0.1265508E+00
          2   -1    0    0  501    0  0.00000000000E+00  0.00000000000E+00  0.33185582190E+02  0.33185582190E+02  0.00000000000E+00 0. -1.
         -2   -1    0    0    0  501 -0.00000000000E+00 -0.00000000000E+00 -0.58154026050E+03  0.58154026050E+03  0.00000000000E+00 0.  1.
         25    2    1    2    0    0  0.50050658282E+02  0.67473430147E+02 -0.31025680083E+03  0.34491231623E+03  0.12508993268E+03 0.  0.
          5    1    3    3  502    0  0.15801331118E+02 -0.99229844390E+01  0.39109547191E+01  0.19517060539E+02  0.41800000000E+01 0.  1.
         -5    1    3    3    0  502  0.34249327164E+02  0.77396414586E+02 -0.31416775555E+03  0.32539525569E+03  0.41800000000E+01 0.  1.
        -11    1    1    2    0    0  0.18554434597E+02 -0.21025014164E+02 -0.13332290301E+03  0.13623991607E+03  0.00000000000E+00 0.  1.
         11    1    1    2    0    0 -0.68605092878E+02 -0.46448415984E+02 -0.10477497447E+03  0.13357361038E+03  0.00000000000E+00 0. -1.
</event>
<event>
 7    1  0.2670433E-009  0.2409894E+03  0.7561462E-02  0.1119135E+00
         -4   -1    0    0    0  501 -0.00000000000E+00  0.00000000000E+00  0.45439417274E+03  0.45439417274E+03  0.00000000000E+00 0. -1.
          4   -1    0    0  501    0  0.00000000000E+00 -0.00000000000E+00 -0.13385311681E+03  0.13385311681E+03  0.00000000000E+00 0.  1.
         25    2    1    2    0    0 -0.12455337241E+02  0.22033862837E+03  0.16310058792E+03  0.30158523626E+03  0.12509039282E+03 0.  0.
          5    1    3    3  502    0  0.34640016639E+02  0.17576964201E+03  0.80389970172E+02  0.19640498341E+03  0.41800000000E+01 0.  1.
         -5    1    3    3    0  502 -0.47095353879E+02  0.44568986358E+02  0.82710617747E+02  0.10518025285E+03  0.41800000000E+01 0.  1.
        -11    1    1    2    0    0 -0.36653442117E+02 -0.61994931151E+02  0.32206061831E+02  0.78892817962E+02  0.00000000000E+00 0.  1.
         11    1    1    2    0    0  0.49108779357E+02 -0.15834369722E+03  0.12523440618E+03  0.20776923533E+03  0.00000000000E+00 0. -1.
</event>
<event>
 7    1  0.3732824E-009  0.1828454E+03  0.7561462E-02  0.1165077E+00
         -1   -1    0    0    0  501 -0.00000000000E+00  0.00000000000E+00  0.97429926212E+02  0.97429926212E+02  0.00000000000E+00 0.  1.
          1   -1    0    0  501    0  0.00000000000E+00 -0.00000000000E+00 -0.42532464078E+03  0.42532464078E+03  0.00000000000E+00 0. -1.
         25    2    1    2    0    0 -0.56379800756E+02 -0.15574084991E+03 -0.11306131033E+03  0.23635607914E+03  0.12508973574E+03 0.  0.
          5    1    3    3  502    0 -0.90398284873E+01  0.14502850768E+02 -0.42575995000E+02  0.46067764540E+02  0.41800000000E+01 0. -1.
         -5    1    3    3    0  502 -0.47339972269E+02 -0.17024370068E+03 -0.70485315329E+02  0.19028831460E+03  0.41800000000E+01 0. -1.
        -11    1    1    2    0    0  0.10857652522E+02  0.94060359107E+02 -0.17740044354E+03  0.20108743656E+03  0.00000000000E+00 0. -1.
         11    1    1    2    0    0  0.45522148234E+02  0.61680490806E+02 -0.37432960695E+02  0.85311051291E+02  0.00000000000E+00 0.  1.
</event>
<event>
 7    1  0.2670433E-009  0.1009108E+03  0.7561462E-02  0.1278392E+00
          1   -1    0    0  501    0  0.00000000000E+00  0.00000000000E+00  0.32289895211E+03  0.32289895211E+03  0.00000000000E+00 0. -1.
         -1   -1    0    0    0  501 -0.00000000000E+00 -0.00000000000E+00 -0.42908520472E+02  0.42908520472E+02  0.00000000000E+00 0.  1.
         25    2    1    2    0    0  0.28853055002E+02 -0.20044211396E+02  0.11040561315E+03  0.17050272074E+03  0.12509000429E+03 0.  0.
          5    1    3    3  502    0  0.78966017561E+01 -0.66312071654E+02  0.96939137307E+02  0.11778928605E+03  0.41800000000E+01 0.  1.
         -5    1    3    3    0  502  0.20956453246E+02  0.46267860258E+02  0.13466475839E+02  0.52713434693E+02  0.41800000000E+01 0.  1.
        -11    1    1    2    0    0  0.26261959140E+02  0.41742590566E+01  0.15242673360E+02  0.30650514314E+02  0.00000000000E+00 0. -1.
         11    1    1    2    0    0 -0.55115014143E+02  0.15869952339E+02  0.15434214513E+03  0.16465423753E+03  0.00000000000E+00 0.  1.
</event>
<event>
 7    1  0.2670433E-009  0.8362494E+02  0.7561462E-02  0.1319068E+00
          2   -1    0    0  501    0  0.00000000000E+00  0.00000000000E+00  0.27772825471E+03  0.27772825471E+03  0.00000000000E+00 0. -1.
         -2   -1    0    0    0  501 -0.00000000000E+00 -0.00000000000E+00 -0.57026689916E+02  0.57026689916E+02  0.00000000000E+00 0.  1.
         25    2    1    2    0    0 -0.55563622733E+02  0.25942025397E+02  0.13355829872E+03  0.19299149054E+03  0.12509033299E+03 0.  0.
          5    1    3    3  502    0 -0.32860471967E+02 -0.26689486668E+02  0.12842970783E+03  0.13529154286E+03  0.41800000000E+01 0. -1.
         -5    1    3    3    0  502 -0.22703150767E+02  0.52631512065E+02  0.51285908908E+01  0.57699947674E+02  0.41800000000E+01 0. -1.
        -11    1    1    2    0    0  0.16667325500E+02 -0.22763176683E+02  0.97406910321E+02  0.10141039459E+03  0.00000000000E+00 0. -1.
         11    1    1    2    0    0  0.38896297234E+02 -0.31788487143E+01 -0.10263644253E+02  0.40353059500E+02  0.00000000000E+00 0.  1.
</event>
<event>
 7    1  0.2670433E-009  0.6623671E+02  0.7561462E-02  0.1373379E+00
          2   -1    0    0  501    0  0.00000000000E+00  0.00000000000E+00  0.91833997321E+03  0.91833997321E+03  0.00000000000E+00 0. -1.
         -2   -1    0    0    0  501 -0.00000000000E+00 -0.00000000000E+00 -0.47503564353E+02  0.47503564353E+02  0.00000000000E+00 0.  1.
         25    2    1    2    0    0 -0.41023872469E+02  0.24799701177E+02  0.84835627229E+03  0.85886781986E+03  0.12509030328E+03 0.  0.
          5    1    3    3  502    0  0.40257982789E+01  0.29063923812E+02  0.42965657990E+02  0.52196157767E+02  0.41800000000E+01 0. -1.
         -5    1    3    3    0  502 -0.45049670748E+02 -0.42642226352E+01  0.80539061430E+03  0.80667166209E+03  0.41800000000E+01 0. -1.
        -11    1    1    2    0    0  0.30026584860E+02 -0.32284366177E+02  0.55789667436E+02  0.71108108472E+02  0.00000000000E+00 0. -1.
         11    1    1    2    0    0  0.10997287609E+02  0.74846649996E+01 -0.33309530869E+02  0.35867609226E+02  0.00000000000E+00 0.  1.
</event>
<event>
 7    1  0.2670433E-009  0.3198384E+03  0.7561462E-02  0.1075724E+00
          3   -1    0    0  501    0  0.00000000000E+00  0.00000000000E+00  0.10174835221E+03  0.10174835221E+03  0.00000000000E+00 0. -1.
         -3   -1    0    0    0  501 -0.00000000000E+00 -0.00000000000E+00 -0.13950253983E+04  0.13950253983E+04  0.00000000000E+00 0.  1.
         25    2    1    2    0    0  0.23395685823E+03 -0.20543995900E+03 -0.29469185961E+03  0.44657866743E+03  0.12509126996E+03 0.  0.
          5    1    3    3  502    0 -0.37452497524E+01 -0.35750298205E+02 -0.75091818007E+01  0.36959043937E+02  0.41800000000E+01 0. -1.
         -5    1    3    3    0  502  0.23770210799E+03 -0.16968966080E+03 -0.28718267780E+03  0.40961962350E+03  0.41800000000E+01 0. -1.
        -11    1    1    2    0    0 -0.11370851027E+03  0.10349669604E+03 -0.64475412841E+03  0.66283412518E+03  0.00000000000E+00 0.  1.
         11    1    1    2    0    0 -0.12024834796E+03  0.10194326296E+03 -0.35383105809E+03  0.38736095792E+03  0.00000000000E+00 0. -1.
</event>
<event>
 7    1  0.2670433E-009  0.1668315E+03  0.7561462E-02  0.1181193E+00
         -1   -1    0    0    0  501 -0.00000000000E+00  0.00000000000E+00  0.18610582650E+03  0.18610582650E+03  0.00000000000E+00 0.  1.
          1   -1    0    0  501    0  0.00000000000E+00 -0.00000000000E+00 -0.22440693515E+03  0.22440693515E+03  0.00000000000E+00 0. -1.
         25    2    1    2    0    0 -0.99089912793E+02  0.11800357656E+03 -0.98691649684E+02  0.22165570697E+03  0.12509019072E+03 0.  0.
          5    1    3    3  502    0 -0.65923924202E+02  0.11964087870E+02 -0.86956308013E+02  0.10985433575E+03  0.41800000000E+01 0. -1.
         -5    1    3    3    0  502 -0.33165988591E+02  0.10603948869E+03 -0.11735341671E+02  0.11180137121E+03  0.41800000000E+01 0. -1.
        -11    1    1    2    0    0  0.49445629724E+02 -0.43717573814E+02 -0.19689074372E+02  0.68874931641E+02  0.00000000000E+00 0. -1.
         11    1    1    2    0    0  0.49644283069E+02 -0.74286002747E+02  0.80079615409E+02  0.11998212304E+03  0.00000000000E+00 0.  1.
</event>
<event>
 7    1  0.2670433E-009  0.7766217E+02  0.7561462E-02  0.1335820E+00
          1   -1    0    0  501    0  0.00000000000E+00  0.00000000000E+00  0.10816418640E+03  0.10816418640E+03  0.00000000000E+00 0. -1.
         -1   -1    0    0    0  501 -0.00000000000E+00 -0.00000000000E+00 -0.13013870380E+03  0.13013870380E+03  0.00000000000E+00 0.  1.
         25    2    1    2    0    0 -0.41014109854E+02  0.42450400108E+01  0.19488813775E+02  0.13314810745E+03  0.12509367324E+03 0.  0.
          5    1    3    3  502    0  0.66788472843E+01  0.84229567593E+01  0.65564345956E+02  0.66571082779E+02  0.41800000000E+01 0. -1.
         -5    1    3    3    0  502 -0.47692957138E+02 -0.41779167485E+01 -0.46075532181E+02  0.66577024676E+02  0.41800000000E+01 0. -1.
        -11    1    1    2    0    0 -0.27283977254E+02  0.27603140529E+00 -0.18467767843E+02  0.32947686675E+02  0.00000000000E+00 0.  1.
         11    1    1    2    0    0  0.68298087108E+02 -0.45210714161E+01 -0.22995563328E+02  0.72207096065E+02  0.00000000000E+00 0. -1.
</event>
<event>
 7    1  0.2670433E-009  0.1714047E+03  0.7561462E-02  0.1176391E+00
          1   -1    0    0  501    0  0.00000000000E+00  0.00000000000E+00  0.11086495374E+04  0.11086495374E+04  0.00000000000E+00 0. -1.
         -1   -1    0    0    0  501 -0.00000000000E+00 -0.00000000000E+00 -0.35696376622E+02  0.35696376622E+02  0.00000000000E+00 0.  1.
         25    2    1    2    0    0  0.30185959956E+02  0.16352899356E+03  0.50309088428E+03  0.54442667585E+03  0.12508814343E+03 0.  0.
          5    1    3    3  502    0  0.37476870887E+02  0.16017987523E+03  0.30866896041E+03  0.34979437931E+03  0.41800000000E+01 0.  1.
         -5    1    3    3    0  502 -0.72909109309E+01  0.33491183260E+01  0.19442192387E+03  0.19463229654E+03  0.41800000000E+01 0.  1.
        -11    1    1    2    0    0 -0.21300806601E+02 -0.15631237196E+03  0.56640155599E+03  0.58796088698E+03  0.00000000000E+00 0. -1.
         11    1    1    2    0    0 -0.88851533552E+01 -0.72166215950E+01  0.34607205539E+01  0.11958351230E+02  0.00000000000E+00 0.  1.
</event>
<event>
 7    1  0.2670433E-009  0.9718517E+02  0.7561462E-02  0.1286329E+00
          2   -1    0    0  501    0  0.00000000000E+00  0.00000000000E+00  0.24822435148E+03  0.24822435148E+03  0.00000000000E+00 0. -1.
         -2   -1    0    0    0  501 -0.00000000000E+00 -0.00000000000E+00 -0.56589325580E+02  0.56589325580E+02  0.00000000000E+00 0.  1.
         25    2    1    2    0    0 -0.19169172818E+02  0.43488236719E+02  0.99893543913E+02  0.16699336716E+03  0.12509748455E+03 0.  0.
          5    1    3    3  502    0 -0.30721134357E+02 -0.34392274616E+02  0.99060823436E+01  0.47352080385E+02  0.41800000000E+01 0. -1.
         -5    1    3    3    0  502  0.11551961539E+02  0.77880511335E+02  0.89987461570E+02  0.11964128677E+03  0.41800000000E+01 0. -1.
        -11    1    1    2    0    0  0.24111745173E+02  0.13149425979E+01  0.89488291772E+02  0.92689048401E+02  0.00000000000E+00 0. -1.
         11    1    1    2    0    0 -0.49425723555E+01 -0.44803179317E+02  0.22531902147E+01  0.45131261499E+02  0.00000000000E+00 0.  1.
</event>
<event>
 7    1  0.2670433E-009  0.1053885E+03  0.7561462E-02  0.1269356E+00
         -1   -1    0    0    0  501 -0.00000000000E+00  0.00000000000E+00  0.14667701414E+03  0.14667701414E+03  0.00000000000E+00 0.  1.
          1   -1    0    0  501    0  0.00000000000E+00 -0.00000000000E+00 -0.10346778763E+03  0.10346778763E+03  0.00000000000E+00 0. -1.
         25    2    1    2    0    0 -0.18941473374E+02  0.47726112263E+02  0.49703066508E+02  0.14406491860E+03  0.12509094589E+03 0.  0.
          5    1    3    3  502    0 -0.25079974205E+02  0.89329069148E+02  0.36470634593E+02  0.99781096850E+02  0.41800000000E+01 0.  1.
         -5    1    3    3    0  502  0.61385008315E+01 -0.41602956885E+02  0.13232431915E+02  0.44283821745E+02  0.41800000000E+01 0.  1.
        -11    1    1    2    0    0  0.38807923571E+02 -0.32122543311E+02 -0.39852898947E+02  0.64235241691E+02  0.00000000000E+00 0. -1.
         11    1    1    2    0    0 -0.19866450197E+02 -0.15603568952E+02  0.33359058941E+02  0.41844641484E+02  0.00000000000E+00 0.  1.
</event>
<event>
 7    1  0.2670433E-009  0.1457933E+03  0.7561462E-02  0.1205740E+00
         -1   -1    0    0    0  501 -0.00000000000E+00  0.00000000000E+00  0.19405708784E+03  0.19405708784E+03  0.00000000000E+00 0.  1.
          1   -1    0    0  501    0  0.00000000000E+00 -0.00000000000E+00 -0.14748368806E+03  0.14748368806E+03  0.00000000000E+00 0. -1.
         25    2    1    2    0    0  0.11527065398E+03  0.38214631564E+02  0.71285789043E+02  0.18834877259E+03  0.12508363074E+03 0.  0.
          5    1    3    3  502    0  0.25911309552E+02  0.43605025503E+02  0.83614005327E+02  0.97885486660E+02  0.41800000000E+01 0. -1.
         -5    1    3    3    0  502  0.89359344431E+02 -0.53903939390E+01 -0.12328216284E+02  0.90463285927E+02  0.41800000000E+01 0. -1.
        -11    1    1    2    0    0 -0.44057342586E+02  0.29325400665E+02 -0.11488989406E+02  0.54157413505E+02  0.00000000000E+00 0. -1.
         11    1    1    2    0    0 -0.71213311397E+02 -0.67540032229E+02 -0.13223399858E+02  0.99034589803E+02  0.00000000000E+00 0.  1.
</event>
<event>
 7    1  0.2670433E-009  0.1564674E+03  0.7561462E-02  0.1192744E+00
         -2   -1    0    0    0  501 -0.00000000000E+00  0.00000000000E+00  0.38941105306E+03  0.38941105306E+03  0.00000000000E+00 0.  1.
          2   -1    0    0  501    0  0.00000000000E+00 -0.00000000000E+00 -0.11061865589E+03  0.11061865589E+03  0.00000000000E+00 0. -1.
         25    2    1    2    0    0  0.84188586029E+02 -0.12518877450E+03  0.35644307514E+02  0.19918961415E+03  0.12508412549E+03 0.  0.
          5    1    3    3  502    0  0.29923159848E+02 -0.93042255518E+02 -0.35457300189E+02  0.10405262776E+03  0.41800000000E+01 0. -1.
         -5    1    3    3    0  502  0.54265426181E+02 -0.32146518980E+02  0.71101607704E+02  0.95136986389E+02  0.41800000000E+01 0. -1.
        -11    1    1    2    0    0 -0.29187875564E+02  0.29307080207E+02  0.15212957407E+03  0.15765228935E+03  0.00000000000E+00 0.  1.
         11    1    1    2    0    0 -0.55000710466E+02  0.95881694291E+02  0.91018515583E+02  0.14318780545E+03  0.00000000000E+00 0. -1.
</event>
<event>
 7    1  0.2670433E-009  0.1409175E+03  0.7561462E-02  0.1212100E+00
          2   -1    0    0  501    0  0.00000000000E+00  0.00000000000E+00  0.84116143678E+02  0.84116143678E+02  0.00000000000E+00 0. -1.
         -2   -1    0    0    0  501 -0.00000000000E+00 -0.00000000000E+00 -0.30467543396E+03  0.30467543396E+03  0.00000000000E+00 0.  1.
         25    2    1    2    0    0 -0.81853514031E+02 -0.70538460098E+02 -0.55801088252E+02  0.17446365201E+03  0.12509249502E+03 0.  0.
          5    1    3    3  502    0 -0.42120388641E+00 -0.76602943641E+02 -0.51863999983E+02  0.92604186090E+02  0.41800000000E+01 0. -1.
         -5    1    3    3    0  502 -0.81432310145E+02  0.60644835434E+01 -0.39370882692E+01  0.81859465917E+02  0.41800000000E+01 0. -1.
        -11    1    1    2    0    0  0.37256172985E+02  0.69367722698E+02 -0.14610705163E+03  0.16597341327E+03  0.00000000000E+00 0.  1.
         11    1    1    2    0    0  0.44597341046E+02  0.11707373993E+01 -0.18651150407E+02  0.48354512364E+02  0.00000000000E+00 0. -1.
</event>
<event>
 7    1  0.2670433E-009  0.2111988E+03  0.7561462E-02  0.1140620E+00
         -2   -1    0    0    0  501 -0.00000000000E+00  0.00000000000E+00  0.27396255076E+03  0.27396255076E+03  0.00000000000E+00 0.  1.
          2   -1    0    0  501    0  0.00000000000E+00 -0.00000000000E+00 -0.24031094305E+03  0.24031094305E+03  0.00000000000E+00 0. -1.
         25    2    1    2    0    0  0.10758671921E+02  0.63428805671E+02  0.75541608660E+02  0.15966561079E+03  0.12509040818E+03 0.  0.
          5    1    3    3  502    0  0.73255467917E+01  0.77336570320E+02 -0.48065353519E+01  0.77943466223E+02  0.41800000000E+01 0. -1.
         -5    1    3    3    0  502  0.34331251293E+01 -0.13907764649E+02  0.80348144012E+02  0.81722144562E+02  0.41800000000E+01 0. -1.
        -11    1    1    2    0    0  0.15322660550E+03  0.16959455221E+01 -0.81806381963E+02  0.17370536259E+03  0.00000000000E+00 0. -1.
         11    1    1    2    0    0 -0.16398527742E+03 -0.65124751193E+02  0.39916381009E+02  0.18090252044E+03  0.00000000000E+00 0.  1.
</event>
<event>
 7    1  0.2670433E-009  0.9587967E+02  0.7561462E-02  0.1289207E+00
         -2   -1    0    0    0  501 -0.00000000000E+00  0.00000000000E+00  0.15211832441E+03  0.15211832441E+03  0.00000000000E+00 0. -1.
          2   -1    0    0  501    0  0.00000000000E+00 -0.00000000000E+00 -0.88740923546E+02  0.88740923546E+02  0.00000000000E+00 0.  1.
         25    2    1    2    0    0 -0.38082492139E+02 -0.13361120414E+02  0.31171547817E+02  0.13508057237E+03  0.12508517055E+03 0.  0.
          5    1    3    3  502    0 -0.57267235294E+02  0.43001928002E+02  0.16078249670E+02  0.73516559785E+02  0.41800000000E+01 0. -1.
         -5    1    3    3    0  502  0.19184743155E+02 -0.56363048416E+02  0.15093298147E+02  0.61564012586E+02  0.41800000000E+01 0. -1.
        -11    1    1    2    0    0 -0.10028103951E+02 -0.11303248933E+01  0.51108250918E+02  0.52095045975E+02  0.00000000000E+00 0. -1.
         11    1    1    2    0    0  0.48110596090E+02  0.14491445308E+02 -0.18902397868E+02  0.53683629613E+02  0.00000000000E+00 0.  1.
</event>
<event>
 7    1  0.2670433E-009  0.8990274E+02  0.7561462E-02  0.1303087E+00
         -1   -1    0    0    0  501 -0.00000000000E+00  0.00000000000E+00  0.13148369786E+03  0.13148369786E+03  0.00000000000E+00 0.  1.
          1   -1    0    0  501    0  0.00000000000E+00 -0.00000000000E+00 -0.14928790060E+03  0.14928790060E+03  0.00000000000E+00 0. -1.
         25    2    1    2    0    0  0.18310867070E+02  0.81446463314E+02  0.22971142282E+02  0.15213231130E+03  0.12509097699E+03 0.  0.
          5    1    3    3  502    0  0.32356587403E+02  0.38344804452E+02 -0.46855312855E+02  0.68776198787E+02  0.41800000000E+01 0.  1.
         -5    1    3    3    0  502 -0.14045720333E+02  0.43101658862E+02  0.69826455137E+02  0.83356112513E+02  0.41800000000E+01 0.  1.
        -11    1    1    2    0    0 -0.12002335351E+02 -0.68373046038E+02  0.14987554526E+02  0.71017999613E+02  0.00000000000E+00 0.  1.
         11    1    1    2    0    0 -0.63085317194E+01 -0.13073417277E+02 -0.55762899555E+02  0.57621287547E+02  0.00000000000E+00 0. -1.
</event>
<event>
 7    1  0.2670433E-009  0.1085637E+03  0.7561462E-02  0.1263253E+00
          1   -1    0    0  501    0  0.00000000000E+00  0.00000000000E+00  0.78506707052E+02  0.78506707052E+02  0.00000000000E+00 0. -1.
         -1   -1    0    0    0  501 -0.00000000000E+00 -0.00000000000E+00 -0.26583008219E+03  0.26583008219E+03  0.00000000000E+00 0.  1.
         25    2    1    2    0    0  0.51391056879E+02  0.18427044945E+02 -0.93925950444E+01  0.13680739574E+03  0.12508975168E+03 0.  0.
          5    1    3    3  502    0  0.86141061585E+02  0.23135655897E+02 -0.32025897006E+02  0.94861327968E+02  0.41800000000E+01 0. -1.
         -5    1    3    3    0  502 -0.34750004706E+02 -0.47086109524E+01  0.22633301962E+02  0.41946067776E+02  0.41800000000E+01 0. -1.
        -11    1    1    2    0    0 -0.70463304672E+02 -0.20370921827E+02 -0.83363200150E+02  0.11103816867E+03  0.00000000000E+00 0. -1.
         11    1    1    2    0    0  0.19072247793E+02  0.19438768822E+01 -0.94567579946E+02  0.96491224835E+02  0.00000000000E+00 0.  1.
</event>
<event>
 7    1  0.2670433E-009  0.2365101E+03  0.7561462E-02  0.1122140E+00
         -3   -1    0    0    0  501 -0.00000000000E+00  0.00000000000E+00  0.41634205057E+02  0.41634205057E+02  0.00000000000E+00 0.  1.
          3   -1    0    0  501    0  0.00000000000E+00 -0.00000000000E+00 -0.15405417976E+04  0.15405417976E+04  0.00000000000E+00 0. -1.
         25    2    1    2    0    0 -0.56799308750E+02 -0.21474306811E+03 -0.95322849853E+03  0.98672813243E+03  0.12508832931E+03 0.  0.
          5    1    3    3  502    0 -0.28066800851E+02  0.44141378988E+01 -0.18890454174E+03  0.19107492827E+03  0.41800000000E+01 0. -1.
         -5    1    3    3    0  502 -0.28732507900E+02 -0.21915720601E+03 -0.76432395679E+03  0.79565320415E+03  0.41800000000E+01 0. -1.
        -11    1    1    2    0    0  0.46689908300E+02  0.13493266277E+03 -0.44029036222E+03  0.46286323475E+03  0.00000000000E+00 0. -1.
         11    1    1    2    0    0  0.10109400450E+02  0.79810405337E+02 -0.10538873180E+03  0.13258463549E+03  0.00000000000E+00 0.  1.
</event>
<event>
 7    1  0.2670433E-009  0.1031538E+03  0.7561462E-02  0.1273800E+00
          2   -1    0    0  501    0  0.00000000000E+00  0.00000000000E+00  0.20458526945E+03  0.20458526945E+03  0.00000000000E+00 0.  1.
         -2   -1    0    0    0  501 -0.00000000000E+00 -0.00000000000E+00 -0.62866779321E+02  0.62866779321E+02  0.00000000000E+00 0. -1.
         25    2    1    2    0    0  0.22620981822E+02  0.19321622745E+01  0.53361702350E+02  0.13788077474E+03  0.12509274437E+03 0.  0.
          5    1    3    3  502    0  0.66980329025E+02 -0.16485336064E+02  0.45225227977E+01  0.69253565930E+02  0.41800000000E+01 0. -1.
         -5    1    3    3    0  502 -0.44359347203E+02  0.18417498339E+02  0.48839179552E+02  0.68627208807E+02  0.41800000000E+01 0. -1.
        -11    1    1    2    0    0 -0.35537554518E+02  0.34990703404E+02  0.26746009263E+02  0.56591661199E+02  0.00000000000E+00 0.  1.
         11    1    1    2    0    0  0.12916572695E+02 -0.36922865678E+02  0.61610778515E+02  0.72979612833E+02  0.00000000000E+00 0. -1.
</event>
<event>
 7    1  0.2670433E-009  0.1812054E+03  0.7561462E-02  0.1166642E+00
         -2   -1    0    0    0  501 -0.00000000000E+00  0.00000000000E+00  0.51063495147E+03  0.51063495147E+03  0.00000000000E+00 0.  1.
          2   -1    0    0  501    0  0.00000000000E+00 -0.00000000000E+00 -0.14800846054E+03  0.14800846054E+03  0.00000000000E+00 0. -1.
         25    2    1    2    0    0  0.89018520452E+02 -0.14793791581E+03 -0.33883806000E+02  0.21588482268E+03  0.12509284726E+03 0.  0.
          5    1    3    3  502    0  0.78332822011E+02 -0.15066744681E+03  0.10277340439E+02  0.17017581103E+03  0.41800000000E+01 0. -1.
         -5    1    3    3    0  502  0.10685698440E+02  0.27295310034E+01 -0.44161146439E+02  0.45709011644E+02  0.41800000000E+01 0. -1.
        -11    1    1    2    0    0 -0.20241206006E+02  0.31856299995E+01  0.71426996184E+01  0.21699604072E+02  0.00000000000E+00 0. -1.
         11    1    1    2    0    0 -0.68777314446E+02  0.14475228581E+03  0.38936759731E+03  0.42105898526E+03  0.00000000000E+00 0.  1.
</event>
<event>
 7    1  0.2670433E-009  0.1174580E+03  0.7561462E-02  0.1247351E+00
         -3   -1    0    0    0  501 -0.00000000000E+00  0.00000000000E+00  0.10760152400E+04  0.10760152400E+04  0.00000000000E+00 0.  1.
          3   -1    0    0  501    0  0.00000000000E+00 -0.00000000000E+00 -0.16443564785E+02  0.16443564785E+02  0.00000000000E+00 0. -1.
         25    2    1    2    0    0  0.11838421411E+02 -0.71399591171E+02  0.63911672873E+03  0.65525227572E+03  0.12508917641E+03 0.  0.
          5    1    3    3  502    0 -0.39426508089E+01 -0.90221688877E+02  0.61113467299E+03  0.61778520423E+03  0.41800000000E+01 0.  1.
         -5    1    3    3    0  502  0.15781072220E+02  0.18822097706E+02  0.27982055741E+02  0.37467071489E+02  0.41800000000E+01 0.  1.
        -11    1    1    2    0    0 -0.52306744132E+02  0.55084647683E+02  0.28085469977E+03  0.29094617419E+03  0.00000000000E+00 0.  1.
         11    1    1    2    0    0  0.40468322721E+02  0.16314943488E+02  0.13960024669E+03  0.14626035485E+03  0.00000000000E+00 0. -1.
</event>
<event>
 7    1  0.2670433E-009  0.2238998E+03  0.7561462E-02  0.1131009E+00
         -2   -1    0    0    0  501 -0.00000000000E+00  0.00000000000E+00  0.36107247200E+02  0.36107247200E+02  0.00000000000E+00 0.  1.
          2   -1    0    0  501    0  0.00000000000E+00 -0.00000000000E+00 -0.16194768743E+04  0.16194768743E+04  0.00000000000E+00 0. -1.
         25    2    1    2    0    0  0.99224811360E+02  0.19138351696E+03 -0.72170902966E+03  0.76353430121E+03  0.12508993517E+03 0.  0.
          5    1    3    3  502    0  0.82741151216E+02  0.18046096058E+03 -0.71527160469E+03  0.74232283898E+03  0.41800000000E+01 0.  1.
         -5    1    3    3    0  502  0.16483660145E+02  0.10922556383E+02 -0.64374249703E+01  0.21211462231E+02  0.41800000000E+01 0.  1.
        -11    1    1    2    0    0 -0.69502676760E+02 -0.52798401058E+02 -0.38456142536E+03  0.39434221573E+03  0.00000000000E+00 0.  1.
         11    1    1    2    0    0 -0.29722134600E+02 -0.13858511590E+03 -0.47709917204E+03  0.49770760452E+03  0.00000000000E+00 0. -1.
</event>
<event>
 7    1  0.2670433E-009  0.1098991E+03  0.7561462E-02  0.1260757E+00
          1   -1    0    0  501    0  0.00000000000E+00  0.00000000000E+00  0.37014607433E+03  0.37014607433E+03  0.00000000000E+00 0. -1.
         -1   -1    0    0    0  501 -0.00000000000E+00 -0.00000000000E+00 -0.59082612780E+02  0.59082612780E+02  0.00000000000E+00 0.  1.
         25    2    1    2    0    0 -0.44379915197E+02  0.90725228439E+02  0.18083093780E+03  0.24197693438E+03  0.12510941116E+03 0.  0.
          5    1    3    3  502    0 -0.23351269098E+02  0.70193930586E+02  0.19535126250E+03  0.20893074886E+03  0.41800000000E+01 0.  1.
         -5    1    3    3    0  502 -0.21028646100E+02  0.20531297853E+02 -0.14520324699E+02  0.33046185524E+02  0.41800000000E+01 0.  1.
        -11    1    1    2    0    0  0.57576763779E+02 -0.63206308692E+02  0.13133396237E+03  0.15671225497E+03  0.00000000000E+00 0. -1.
         11    1    1    2    0    0 -0.13196848582E+02 -0.27518919747E+02 -0.11014386151E+01  0.30539497762E+02  0.00000000000E+00 0.  1.
</event>
<event>
 7    1  0.2670433E-009  0.1364020E+03  0.7561462E-02  0.1218254E+00
         -2   -1    0    0    0  501 -0.00000000000E+00  0.00000000000E+00  0.11547513480E+03  0.11547513480E+03  0.00000000000E+00 0. -1.
          2   -1    0    0  501    0  0.00000000000E+00 -0.00000000000E+00 -0.38380996387E+03  0.38380996387E+03  0.00000000000E+00 0.  1.
         25    2    1    2    0    0  0.75493756912E+02 -0.81382153906E+02 -0.30738981952E+03  0.34993374039E+03  0.12507101666E+03 0.  0.
          5    1    3    3  502    0  0.25304909607E+01 -0.87549210414E+02 -0.21341390491E+03  0.23072545338E+03  0.41800000000E+01 0. -1.
         -5    1    3    3    0  502  0.72963265951E+02  0.61670565077E+01 -0.93975914611E+02  0.11920828701E+03  0.41800000000E+01 0. -1.
        -11    1    1    2    0    0 -0.80971031748E+01  0.15711213196E+02 -0.28483631600E+02  0.33521971438E+02  0.00000000000E+00 0.  1.
         11    1    1    2    0    0 -0.67396653737E+02  0.65670940709E+02  0.67538622053E+02  0.11582938685E+03  0.00000000000E+00 0. -1.
</event>
<event>
 7    1  0.2670433E-009  0.8591989E+02  0.7561462E-02  0.1313044E+00
          2   -1    0    0  501    0  0.00000000000E+00  0.00000000000E+00  0.61475385320E+03  0.61475385320E+03  0.00000000000E+00 0. -1.
         -2   -1    0    0    0  501 -0.00000000000E+00 -0.00000000000E+00 -0.27682648322E+02  0.27682648322E+02  0.00000000000E+00 0.  1.
         25    2    1    2    0    0 -0.48432082046E+02  0.51810007479E+02  0.33452541727E+03  0.36412163191E+03  0.12508942635E+03 0.  0.
          5    1    3    3  502    0  0.15056675243E+02  0.10270281739E+02  0.24906318031E+03  0.24976413342E+03  0.41800000000E+01 0. -1.
         -5    1    3    3    0  502 -0.63488757289E+02  0.41539725740E+02  0.85462236959E+02  0.11435749850E+03  0.41800000000E+01 0. -1.
        -11    1    1    2    0    0  0.29297575182E+02 -0.96332563580E+01  0.11587059822E+02  0.32945523139E+02  0.00000000000E+00 0.  1.
         11    1    1    2    0    0  0.19134506864E+02 -0.42176751121E+02  0.24095872779E+03  0.24536934647E+03  0.00000000000E+00 0. -1.
</event>
<event>
 7    1  0.2670433E-009  0.1275338E+03  0.7561462E-02  0.1231162E+00
          2   -1    0    0  501    0  0.00000000000E+00  0.00000000000E+00  0.31851993444E+03  0.31851993444E+03  0.00000000000E+00 0. -1.
         -2   -1    0    0    0  501 -0.00000000000E+00 -0.00000000000E+00 -0.62191874315E+02  0.62191874315E+02  0.00000000000E+00 0.  1.
         25    2    1    2    0    0 -0.63916778542E+02  0.33281650303E+02  0.20829770596E+03  0.25343373857E+03  0.12509077789E+03 0.  0.
          5    1    3    3  502    0  0.29630992607E+02 -0.18196615961E+02  0.32919677107E+02  0.48065477176E+02  0.41800000000E+01 0.  1.
         -5    1    3    3    0  502 -0.93547771150E+02  0.51478266263E+02  0.17537802886E+03  0.20536826140E+03  0.41800000000E+01 0.  1.
        -11    1    1    2    0    0 -0.14943349548E+02 -0.30862017228E+02 -0.11482110197E+01  0.34308689739E+02  0.00000000000E+00 0.  1.
         11    1    1    2    0    0  0.78860128091E+02 -0.24196330749E+01  0.49178565185E+02  0.92969380445E+02  0.00000000000E+00 0. -1.
</event>
<event>
 7    1  0.2670433E-009  0.6612851E+02  0.7561462E-02  0.1373776E+00
         -1   -1    0    0    0  501 -0.00000000000E+00  0.00000000000E+00  0.14974151918E+03  0.14974151918E+03  0.00000000000E+00 0.  1.
          1   -1    0    0  501    0  0.00000000000E+00 -0.00000000000E+00 -0.10393674764E+03  0.10393674764E+03  0.00000000000E+00 0. -1.
         25    2    1    2    0    0 -0.10659203051E+02 -0.49387194831E+02  0.63116297486E+02  0.14894045464E+03  0.12508748298E+03 0.  0.
          5    1    3    3  502    0 -0.16345630018E+02 -0.94240524463E+01  0.95241576734E+02  0.97182419829E+02  0.41800000000E+01 0.  1.
         -5    1    3    3    0  502  0.56864269678E+01 -0.39963142385E+02 -0.32125279247E+02  0.51758034812E+02  0.41800000000E+01 0.  1.
        -11    1    1    2    0    0  0.25128763313E+01 -0.11067489620E+02  0.27035072052E+02  0.29320624052E+02  0.00000000000E+00 0.  1.
         11    1    1    2    0    0  0.81463267192E+01  0.60454684451E+02 -0.44346597993E+02  0.75417188124E+02  0.00000000000E+00 0. -1.
</event>
<event>
 7    1  0.2670433E-009  0.3265328E+03  0.7561462E-02  0.1072681E+00
          2   -1    0    0  501    0  0.00000000000E+00  0.00000000000E+00  0.95339334812E+03  0.95339334812E+03  0.00000000000E+00 0. -1.
         -2   -1    0    0    0  501 -0.00000000000E+00 -0.00000000000E+00 -0.16688487556E+03  0.16688487556E+03  0.00000000000E+00 0.  1.
         25    2    1    2    0    0 -0.20958299719E+03 -0.23777234190E+03  0.70104686920E+03  0.77947110498E+03  0.12509105247E+03 0.  0.
          5    1    3    3  502    0 -0.51467788465E+02 -0.29635292491E+01  0.63563014670E+02  0.81947818696E+02  0.41800000000E+01 0. -1.
         -5    1    3    3    0  502 -0.15811520872E+03 -0.23480881265E+03  0.63748385453E+03  0.69752328629E+03  0.41800000000E+01 0. -1.
        -11    1    1    2    0    0  0.11653543431E+03  0.15324349436E+03  0.95100663451E+02  0.21472822871E+03  0.00000000000E+00 0. -1.
         11    1    1    2    0    0  0.93047562873E+02  0.84528847533E+02 -0.96390600826E+01  0.12607888999E+03  0.00000000000E+00 0.  1.
</event>
<event>
 7    1  0.2670433E-009  0.9810518E+02  0.7561462E-02  0.1284332E+00
          2   -1    0    0  501    0  0.00000000000E+00  0.00000000000E+00  0.15373478005E+03  0.15373478005E+03  0.00000000000E+00 0. -1.
         -2   -1    0    0    0  501 -0.00000000000E+00 -0.00000000000E+00 -0.13147908417E+03  0.13147908417E+03  0.00000000000E+00 0.  1.
         25    2    1    2    0    0 -0.34748386152E+02 -0.13425589302E+02 -0.66849880724E+02  0.14664376811E+03  0.12509113231E+03 0.  0.
          5    1    3    3  502    0 -0.78743265092E+02 -0.28008181101E+02 -0.47699644994E+02  0.96320758606E+02  0.41800000000E+01 0. -1.
         -5    1    3    3    0  502  0.43994878940E+02  0.14582591799E+02 -0.19150235730E+02  0.50323009499E+02  0.41800000000E+01 0. -1.
        -11    1    1    2    0    0  0.59951442081E+01  0.31477119403E+02 -0.10195425527E+02  0.33625845739E+02  0.00000000000E+00 0.  1.
         11    1    1    2    0    0  0.28753241944E+02 -0.18051530101E+02  0.99301002137E+02  0.10494425038E+03  0.00000000000E+00 0. -1.
</event>
<event>
 7    1  0.2670433E-009  0.1392629E+03  0.7561462E-02  0.1214324E+00
          1   -1    0    0  501    0  0.00000000000E+00  0.00000000000E+00  0.25370828157E+03  0.25370828157E+03  0.00000000000E+00 0. -1.
         -1   -1    0    0    0  501 -0.00000000000E+00 -0.00000000000E+00 -0.99912490740E+02  0.99912490740E+02  0.00000000000E+00 0.  1.
         25    2    1    2    0    0  0.18696040391E+02 -0.11091686871E+03  0.58214764851E+02  0.17801321570E+03  0.12509057689E+03 0.  0.
          5    1    3    3  502    0 -0.18233100385E+01 -0.11071846801E+03  0.88068632213E+02  0.14154667074E+03  0.41800000000E+01 0.  1.
         -5    1    3    3    0  502  0.20519350429E+02 -0.19840069814E+00 -0.29853867362E+02  0.36466544960E+02  0.41800000000E+01 0.  1.
        -11    1    1    2    0    0  0.28558072315E+02  0.91204272320E+02  0.69327468578E+02  0.11806811883E+03  0.00000000000E+00 0. -1.
         11    1    1    2    0    0 -0.47254112706E+02  0.19712596392E+02  0.26253557406E+02  0.57539437785E+02  0.00000000000E+00 0.  1.
</event>
<event>
 7    1  0.2670433E-009  0.3516672E+03  0.7561462E-02  0.1061933E+00
         -2   -1    0    0    0  501 -0.00000000000E+00  0.00000000000E+00  0.22069961185E+03  0.22069961185E+03  0.00000000000E+00 0. -1.
          2   -1    0    0  501    0  0.00000000000E+00 -0.00000000000E+00 -0.10332927820E+04  0.10332927820E+04  0.00000000000E+00 0.  1.
         25    2    1    2    0    0  0.34524336956E+03  0.49173449696E+02 -0.61089072708E+01  0.37053459664E+03  0.12509019217E+03 0.  0.
          5    1    3    3  502    0  0.15806943287E+03  0.44672969373E+02  0.55424524454E+02  0.17340983280E+03  0.41800000000E+01 0. -1.
         -5    1    3    3    0  502  0.18717393669E+03  0.45004803227E+01 -0.61533431725E+02  0.19712476384E+03  0.41800000000E+01 0. -1.
        -11    1    1    2    0    0 -0.16913832645E+03 -0.88641050857E+00 -0.48613356015E+03  0.51471778433E+03  0.00000000000E+00 0.  1.
         11    1    1    2    0    0 -0.17610504311E+03 -0.48287039188E+02 -0.32035070271E+03  0.36874001287E+03  0.00000000000E+00 0. -1.
</event>
<event>
 7    1  0.2670433E-009  0.9911033E+02  0.7561462E-02  0.1282178E+00
          2   -1    0    0  501    0  0.00000000000E+00  0.00000000000E+00  0.54299102240E+03  0.54299102240E+03  0.00000000000E+00 0. -1.
         -2   -1    0    0    0  501 -0.00000000000E+00 -0.00000000000E+00 -0.35979633465E+02  0.35979633465E+02  0.00000000000E+00 0.  1.
         25    2    1    2    0    0  0.66280025431E+02  0.32779501987E+02  0.17944849717E+03  0.23090058791E+03  0.12508309574E+03 0.  0.
          5    1    3    3  502    0  0.27113420828E+02 -0.20336349926E+02 -0.54058262842E+01  0.34574558206E+02  0.41800000000E+01 0.  1.
         -5    1    3    3    0  502  0.39166604603E+02  0.53115851913E+02  0.18485432345E+03  0.19632602971E+03  0.41800000000E+01 0.  1.
        -11    1    1    2    0    0 -0.52993223296E+02 -0.52218715244E+02  0.30971111941E+03  0.31852166869E+03  0.00000000000E+00 0. -1.
         11    1    1    2    0    0 -0.13286802134E+02  0.19439213257E+02  0.17851772358E+02  0.29548399268E+02  0.00000000000E+00 0.  1.
</event>
<event>
 7    1  0.2670433E-009  0.1648307E+03  0.7561462E-02  0.1183348E+00
         -1   -1    0    0    0  501 -0.00000000000E+00  0.00000000000E+00  0.24058289869E+03  0.24058289869E+03  0.00000000000E+00 0.  1.
          1   -1    0    0  501    0  0.00000000000E+00 -0.00000000000E+00 -0.15105283060E+03  0.15105283060E+03  0.00000000000E+00 0. -1.
         25    2    1    2    0    0 -0.15003266338E+03 -0.23686692447E+02  0.79368146576E+01  0.19693159028E+03  0.12509276055E+03 0.  0.
          5    1    3    3  502    0  0.57086219897E+01 -0.85845161280E+01  0.36201783245E+02  0.37872467470E+02  0.41800000000E+01 0.  1.
         -5    1    3    3    0  502 -0.15574128537E+03 -0.15102176319E+02 -0.28264968587E+02  0.15905912281E+03  0.41800000000E+01 0.  1.
        -11    1    1    2    0    0  0.43906610600E+02 -0.18711415880E+02  0.62814685574E+02  0.78889747511E+02  0.00000000000E+00 0.  1.
         11    1    1    2    0    0  0.10612605278E+03  0.42398108327E+02  0.18778567859E+02  0.11581439150E+03  0.00000000000E+00 0. -1.
</event>
<event>
 7    1  0.2670433E-009  0.1208351E+03  0.7561462E-02  0.1241726E+00
         -3   -1    0    0    0  501 -0.00000000000E+00  0.00000000000E+00  0.15182214520E+03  0.15182214520E+03  0.00000000000E+00 0.  1.
          3   -1    0    0  501    0  0.00000000000E+00 -0.00000000000E+00 -0.14515144628E+03  0.14515144628E+03  0.00000000000E+00 0. -1.
         25    2    1    2    0    0  0.32522868520E+02 -0.52109733948E+02 -0.78151313697E+02  0.15977653412E+03  0.12509097359E+03 0.  0.
          5    1    3    3  502    0  0.80071944171E+02 -0.37672544697E+02 -0.58574498910E+02  0.10620348954E+03  0.41800000000E+01 0.  1.
         -5    1    3    3    0  502 -0.47549075651E+02 -0.14437189252E+02 -0.19576814787E+02  0.53573044583E+02  0.41800000000E+01 0.  1.
        -11    1    1    2    0    0 -0.55459256467E+02  0.57249127047E+02  0.46610376292E+02  0.92334819292E+02  0.00000000000E+00 0. -1.
         11    1    1    2    0    0  0.22936387947E+02 -0.51393930991E+01  0.38211636333E+02  0.44862238071E+02  0.00000000000E+00 0.  1.
</event>
<event>
 7    1  0.2670433E-009  0.1204084E+03  0.7561462E-02  0.1242425E+00
         -1   -1    0    0    0  501 -0.00000000000E+00  0.00000000000E+00  0.30576066334E+03  0.30576066334E+03  0.00000000000E+00 0.  1.
          1   -1    0    0  501    0  0.00000000000E+00 -0.00000000000E+00 -0.50267189523E+02  0.50267189523E+02  0.00000000000E+00 0. -1.
         25    2    1    2    0    0 -0.53996170789E+02  0.25838406513E+02  0.13599106984E+03  0.19422758803E+03  0.12509026806E+03 0.  0.
          5    1    3    3  502    0  0.39906861046E+02  0.20715907751E+01  0.27289346107E+02  0.48569845149E+02  0.41800000000E+01 0. -1.
         -5    1    3    3    0  502 -0.93903031835E+02  0.23766815738E+02  0.10870172374E+03  0.14565774288E+03  0.41800000000E+01 0. -1.
        -11    1    1    2    0    0 -0.55288814566E+01 -0.41713547714E+02  0.24859427337E+02  0.48873098128E+02  0.00000000000E+00 0. -1.
         11    1    1    2    0    0  0.59525052246E+02  0.15875141201E+02  0.94642976632E+02  0.11292716670E+03  0.00000000000E+00 0.  1.
</event>
<event>
 7    1  0.2670433E-009  0.8170836E+02  0.7561462E-02  0.1324272E+00
          1   -1    0    0  501    0  0.00000000000E+00  0.00000000000E+00  0.20747668816E+03  0.20747668816E+03  0.00000000000E+00 0. -1.
         -1   -1    0    0    0  501 -0.00000000000E+00 -0.00000000000E+00 -0.74001072825E+02  0.74001072825E+02  0.00000000000E+00 0.  1.
         25    2    1    2    0    0  0.47488610770E+02 -0.21769363757E+01  0.11746924908E+03  0.17806485362E+03  0.12509260734E+03 0.  0.
          5    1    3    3  502    0  0.31171086213E+02 -0.23176707770E+02  0.13849916173E+03  0.14390374074E+03  0.41800000000E+01 0.  1.
         -5    1    3    3    0  502  0.16317524558E+02  0.20999771394E+02 -0.21029912659E+02  0.34161112874E+02  0.41800000000E+01 0.  1.
        -11    1    1    2    0    0  0.20091152828E+02  0.19143833329E+02 -0.93216481147E+01  0.29275141333E+02  0.00000000000E+00 0.  1.
         11    1    1    2    0    0 -0.67579763599E+02 -0.16966896953E+02  0.25328014373E+02  0.74137766033E+02  0.00000000000E+00 0. -1.
</event>
<event>
 7    1  0.2670433E-009  0.6984881E+02  0.7561462E-02  0.1360608E+00
          3   -1    0    0  501    0  0.00000000000E+00  0.00000000000E+00  0.16370028159E+03  0.16370028159E+03  0.00000000000E+00 0. -1.
         -3   -1    0    0    0  501 -0.00000000000E+00 -0.00000000000E+00 -0.74893777556E+02  0.74893777556E+02  0.00000000000E+00 0.  1.
         25    2    1    2    0    0 -0.22717151557E+02 -0.16525213420E+01  0.63278764495E+02  0.14202084178E+03  0.12508763993E+03 0.  0.
          5    1    3    3  502    0 -0.32152979219E+02  0.13152672887E+02  0.97359831403E+02  0.10345634851E+03  0.41800000000E+01 0. -1.
         -5    1    3    3    0  502  0.94358276618E+01 -0.14805194229E+02 -0.34081066907E+02  0.38564493273E+02  0.41800000000E+01 0. -1.
        -11    1    1    2    0    0 -0.23823534425E+02 -0.23749325764E+02  0.27597754892E+02  0.43511232364E+02  0.00000000000E+00 0. -1.
         11    1    1    2    0    0  0.46540685982E+02  0.25401847106E+02 -0.20700153546E+01  0.53061984995E+02  0.00000000000E+00 0.  1.
</event>
<event>
 7    1  0.2670433E-009  0.8422905E+02  0.7561462E-02  0.1317461E+00
         -1   -1    0    0    0  501 -0.00000000000E+00  0.00000000000E+00  0.18057548642E+02  0.18057548642E+02  0.00000000000E+00 0.  1.
          1   -1    0    0  501    0  0.00000000000E+00 -0.00000000000E+00 -0.61557598042E+03  0.61557598042E+03  0.00000000000E+00 0. -1.
         25    2    1    2    0    0 -0.75396386011E+01 -0.41077493704E+01 -0.38005833931E+03  0.40020827506E+03  0.12509437395E+03 0.  0.
          5    1    3    3  502    0  0.31815485433E+02 -0.29588999333E+02 -0.32436293563E+03  0.32728660285E+03  0.41800000000E+01 0. -1.
         -5    1    3    3    0  502 -0.39355124034E+02  0.25481249963E+02 -0.55695403684E+02  0.72921672217E+02  0.41800000000E+01 0. -1.
        -11    1    1    2    0    0  0.19711997140E+02 -0.33136562200E+02 -0.61243733528E+02  0.72369810571E+02  0.00000000000E+00 0. -1.
         11    1    1    2    0    0 -0.12172358539E+02  0.37244311571E+02 -0.15621635894E+03  0.16105544343E+03  0.00000000000E+00 0.  1.
</event>
<event>
 7    1  0.2670433E-009  0.1532205E+03  0.7561462E-02  0.1196571E+00
          1   -1    0    0  501    0  0.00000000000E+00  0.00000000000E+00  0.26309169272E+03  0.26309169272E+03  0.00000000000E+00 0. -1.
         -1   -1    0    0    0  501 -0.00000000000E+00 -0.00000000000E+00 -0.10957167954E+03  0.10957167954E+03  0.00000000000E+00 0.  1.
         25    2    1    2    0    0 -0.13317830975E+02  0.13005284698E+03  0.76654677235E+02  0.19650054639E+03  0.12508164359E+03 0.  0.
          5    1    3    3  502    0  0.28268269671E+02  0.48093886385E+02 -0.23344677698E+02  0.60618176768E+02  0.41800000000E+01 0. -1.
         -5    1    3    3    0  502 -0.41586100646E+02  0.81958960593E+02  0.99999354932E+02  0.13588236963E+03  0.41800000000E+01 0. -1.
        -11    1    1    2    0    0 -0.37044062011E+02 -0.76423618128E+02  0.40134789722E+02  0.93934196564E+02  0.00000000000E+00 0.  1.
         11    1    1    2    0    0  0.50361892986E+02 -0.53629228850E+02  0.36730546219E+02  0.82228629308E+02  0.00000000000E+00 0. -1.
</event>
<event>
 7    1  0.2670433E-009  0.1010821E+03  0.7561462E-02  0.1278037E+00
         -3   -1    0    0    0  501 -0.00000000000E+00  0.00000000000E+00  0.96046424231E+02  0.96046424231E+02  0.00000000000E+00 0.  1.
          3   -1    0    0  501    0  0.00000000000E+00 -0.00000000000E+00 -0.19525417514E+03  0.19525417514E+03  0.00000000000E+00 0. -1.
         25    2    1    2    0    0 -0.57016408502E+02 -0.10359588471E+02  0.69565740984E+01  0.13803674360E+03  0.12509019446E+03 0.  0.
          5    1    3    3  502    0  0.23593406340E+02  0.29687309127E+02  0.25702725277E+02  0.46000952519E+02  0.41800000000E+01 0.  1.
         -5    1    3    3    0  502 -0.80609814842E+02 -0.40046897598E+02 -0.18746151179E+02  0.92035791082E+02  0.41800000000E+01 0.  1.
        -11    1    1    2    0    0  0.37175599024E+02 -0.16368857078E+02  0.14229100766E+01  0.40644671458E+02  0.00000000000E+00 0.  1.
         11    1    1    2    0    0  0.19840809477E+02  0.26728445549E+02 -0.10758723509E+03  0.11261918432E+03  0.00000000000E+00 0. -1.
</event>
<event>
 7    1  0.2670433E-009  0.8568795E+02  0.7561462E-02  0.1313643E+00
         -2   -1    0    0    0  501 -0.00000000000E+00  0.00000000000E+00  0.31349978481E+02  0.31349978481E+02  0.00000000000E+00 0.  1.
          2   -1    0    0  501    0  0.00000000000E+00 -0.00000000000E+00 -0.48031974058E+03  0.48031974058E+03  0.00000000000E+00 0. -1.
         25    2    1    2    0    0  0.31605574311E+01  0.39550142525E+02 -0.33871070166E+03  0.36324735162E+03  0.12509794620E+03 0.  0.
          5    1    3    3  502    0  0.33649759960E+02 -0.96919892334E+01 -0.27417233632E+03  0.27643115491E+03  0.41800000000E+01 0.  1.
         -5    1    3    3    0  502 -0.30489202529E+02  0.49242131758E+02 -0.64538365338E+02  0.86816196712E+02  0.41800000000E+01 0.  1.
        -11    1    1    2    0    0 -0.20206332941E+02 -0.52746862649E+02 -0.11335051774E+03  0.12664464964E+03  0.00000000000E+00 0. -1.
         11    1    1    2    0    0  0.17045775510E+02  0.13196720124E+02  0.30914572919E+01  0.21777717809E+02  0.00000000000E+00 0.  1.
</event>
<event>
 7    1  0.2670433E-009  0.1843360E+03  0.7561462E-02  0.1163671E+00
          1   -1    0    0  501    0  0.00000000000E+00  0.00000000000E+00  0.26318722390E+03  0.26318722390E+03  0.00000000000E+00 0. -1.
         -1   -1    0    0    0  501 -0.00000000000E+00 -0.00000000000E+00 -0.17324244663E+03  0.17324244663E+03  0.00000000000E+00 0.  1.
         25    2    1    2    0    0  0.11866209016E+03  0.11590298683E+03  0.12720638737E+03  0.24360520935E+03  0.12509132280E+03 0.  0.
          5    1    3    3  502    0  0.97718579182E+01  0.89415056916E+02  0.29170821530E+02  0.94651734475E+02  0.41800000000E+01 0. -1.
         -5    1    3    3    0  502  0.10889023224E+03  0.26487929913E+02  0.98035565838E+02  0.14895347487E+03  0.41800000000E+01 0. -1.
        -11    1    1    2    0    0 -0.29786569564E+02 -0.20883379552E+02  0.29272618905E+02  0.46693056073E+02  0.00000000000E+00 0.  1.
         11    1    1    2    0    0 -0.88875520593E+02 -0.95019607277E+02 -0.66534229007E+02  0.14613140510E+03  0.00000000000E+00 0. -1.
</event>
<event>
 7    1  0.2670433E-009  0.8266084E+02  0.7561462E-02  0.1321666E+00
          2   -1    0    0  501    0  0.00000000000E+00  0.00000000000E+00  0.42627181583E+02  0.42627181583E+02  0.00000000000E+00 0. -1.
         -2   -1    0    0    0  501 -0.00000000000E+00 -0.00000000000E+00 -0.38513571021E+03  0.38513571021E+03  0.00000000000E+00 0.  1.
         25    2    1    2    0    0  0.28546912229E+02  0.54020373830E+02 -0.24588908590E+03  0.28256329819E+03  0.12508975949E+03 0.  0.
          5    1    3    3  502    0 -0.20817436953E+01  0.80415732617E+00  0.14367711264E+02  0.15128907852E+02  0.41800000000E+01 0.  1.
         -5    1    3    3    0  502  0.30628655925E+02  0.53216216504E+02 -0.26025679716E+03  0.26743439033E+03  0.41800000000E+01 0.  1.
        -11    1    1    2    0    0  0.15900321261E+02  0.11671681005E+02 -0.48673903420E+02  0.52518541753E+02  0.00000000000E+00 0.  1.
         11    1    1    2    0    0 -0.44447233491E+02 -0.65692054835E+02 -0.47945539306E+02  0.92681051854E+02  0.00000000000E+00 0. -1.
</event>
<event>
 7    1  0.2670433E-009  0.6818135E+02  0.7561462E-02  0.1366389E+00
         -1   -1    0    0    0  501 -0.00000000000E+00  0.00000000000E+00  0.13773317678E+02  0.13773317678E+02  0.00000000000E+00 0.  1.
          1   -1    0    0  501    0  0.00000000000E+00 -0.00000000000E+00 -0.90393669793E+03  0.90393669793E+03  0.00000000000E+00 0. -1.
         25    2    1    2    0    0  0.42953098048E+01 -0.10388369226E+02 -0.41296474795E+03  0.43163912852E+03  0.12508431684E+03 0.  0.
          5    1    3    3  502    0  0.43007432837E+01 -0.27044714347E+02 -0.11805326875E+02  0.30112308273E+02  0.41800000000E+01 0. -1.
         -5    1    3    3    0  502 -0.54334789430E-02  0.16656345121E+02 -0.40115942107E+03  0.40152682025E+03  0.41800000000E+01 0. -1.
        -11    1    1    2    0    0 -0.47164803579E+02  0.11715686211E+02 -0.28801778205E+03  0.29208905967E+03  0.00000000000E+00 0.  1.
         11    1    1    2    0    0  0.42869493774E+02 -0.13273169849E+01 -0.18918085025E+03  0.19398182741E+03  0.00000000000E+00 0. -1.
</event>
<event>
 7    1  0.2670433E-009  0.1049987E+03  0.7561462E-02  0.1270122E+00
          1   -1    0    0  501    0  0.00000000000E+00  0.00000000000E+00  0.86598334848E+02  0.86598334848E+02  0.00000000000E+00 0. -1.
         -1   -1    0    0    0  501 -0.00000000000E+00 -0.00000000000E+00 -0.17764857363E+03  0.17764857363E+03  0.00000000000E+00 0.  1.
         25    2    1    2    0    0  0.28518700345E+02  0.40261562877E+02 -0.93856135260E+02  0.16399885508E+03  0.12510931471E+03 0.  0.
          5    1    3    3  502    0 -0.40229189560E+00 -0.42259650905E+02 -0.11956239122E+02  0.44118748705E+02  0.41800000000E+01 0.  1.
         -5    1    3    3    0  502  0.28920992240E+02  0.82521213782E+02 -0.81899896138E+02  0.11988010637E+03  0.41800000000E+01 0.  1.
        -11    1    1    2    0    0 -0.45828571001E+02 -0.12898896058E+02 -0.28269859916E+02  0.55369887296E+02  0.00000000000E+00 0.  1.
         11    1    1    2    0    0  0.17309870656E+02 -0.27362666819E+02  0.31075756394E+02  0.44878166106E+02  0.00000000000E+00 0. -1.
</event>
<event>
 7    1  0.2670433E-009  0.1159514E+03  0.7561462E-02  0.1249929E+00
          2   -1    0    0  501    0  0.00000000000E+00  0.00000000000E+00  0.10901462542E+04  0.10901462542E+04  0.00000000000E+00 0. -1.
         -2   -1    0    0    0  501 -0.00000000000E+00 -0.00000000000E+00 -0.17146442029E+02  0.17146442029E+02  0.00000000000E+00 0.  1.
         25    2    1    2    0    0  0.78381817398E+02 -0.89220949000E+01  0.68807795481E+03  0.70379100597E+03  0.12508874892E+03 0.  0.
          5    1    3    3  502    0  0.10475063811E+03  0.63704081794E+01  0.62318792470E+03  0.63197621805E+03  0.41800000000E+01 0. -1.
         -5    1    3    3    0  502 -0.26368820712E+02 -0.15292503079E+02  0.64890030112E+02  0.71814787921E+02  0.41800000000E+01 0. -1.
        -11    1    1    2    0    0 -0.77369417015E+02  0.23992023830E+02  0.37853122515E+03  0.38710144963E+03  0.00000000000E+00 0. -1.
         11    1    1    2    0    0 -0.10124003837E+01 -0.15069928930E+02  0.63906322079E+01  0.16400240624E+02  0.00000000000E+00 0.  1.
</event>
<event>
 7    1  0.2670433E-009  0.8318264E+02  0.7561462E-02  0.1320255E+00
         -1   -1    0    0    0  501 -0.00000000000E+00  0.00000000000E+00  0.12981830368E+03  0.12981830368E+03  0.00000000000E+00 0.  1.
          1   -1    0    0  501    0  0.00000000000E+00 -0.00000000000E+00 -0.11578395544E+03  0.11578395544E+03  0.00000000000E+00 0. -1.
         25    2    1    2    0    0  0.15514589172E+02 -0.10504196881E+02  0.63224083893E+02  0.14140257611E+03  0.12508542329E+03 0.  0.
          5    1    3    3  502    0  0.67324576731E+02 -0.17318911784E+02  0.54111353120E+02  0.88193277940E+02  0.41800000000E+01 0.  1.
         -5    1    3    3    0  502 -0.51809987559E+02  0.68147149031E+01  0.91127307733E+01  0.53209298174E+02  0.41800000000E+01 0.  1.
        -11    1    1    2    0    0 -0.11879801794E+02  0.25892802603E+02 -0.71435786349E+02  0.76906686891E+02  0.00000000000E+00 0. -1.
         11    1    1    2    0    0 -0.36347873780E+01 -0.15388605722E+02  0.22246050700E+02  0.27292996118E+02  0.00000000000E+00 0.  1.
</event>
<event>
 7    1  0.2670433E-009  0.1456080E+03  0.7561462E-02  0.1205976E+00
         -2   -1    0    0    0  501 -0.00000000000E+00  0.00000000000E+00  0.17479742118E+03  0.17479742118E+03  0.00000000000E+00 0.  1.
          2   -1    0    0  501    0  0.00000000000E+00 -0.00000000000E+00 -0.20742769866E+03  0.20742769866E+03  0.00000000000E+00 0. -1.
         25    2    1    2    0    0  0.37354971780E+02  0.11752018259E+03 -0.11661285817E+03  0.21083747664E+03  0.12508995018E+03 0.  0.
          5    1    3    3  502    0  0.45157796955E+02  0.15487244601E+01 -0.74320097620E+02  0.87077979327E+02  0.41800000000E+01 0.  1.
         -5    1    3    3    0  502 -0.78028251748E+01  0.11597145813E+03 -0.42292760546E+02  0.12375949732E+03  0.41800000000E+01 0.  1.
        -11    1    1    2    0    0 -0.16372517286E+02 -0.10231655314E+03  0.24454878762E+02  0.10646491189E+03  0.00000000000E+00 0. -1.
         11    1    1    2    0    0 -0.20982454494E+02 -0.15203629454E+02  0.59527701920E+02  0.64922731312E+02  0.00000000000E+00 0.  1.
</event>
<event>
 7    1  0.2670433E-009  0.1095939E+03  0.7561462E-02  0.1261324E+00
         -2   -1    0    0    0  501 -0.00000000000E+00  0.00000000000E+00  0.86551282217E+02  0.86551282217E+02  0.00000000000E+00 0.  1.
          2   -1    0    0  501    0  0.00000000000E+00 -0.00000000000E+00 -0.24509370417E+03  0.24509370417E+03  0.00000000000E+00 0. -1.
         25    2    1    2    0    0 -0.56348405986E+02 -0.65784778575E+02 -0.35712942165E+02  0.15628629639E+03  0.12508881745E+03 0.  0.
          5    1    3    3  502    0 -0.75080170471E+02 -0.43686080839E+02 -0.69687773646E+02  0.11144219960E+03  0.41800000000E+01 0.  1.
         -5    1    3    3    0  502  0.18731764485E+02 -0.22098697736E+02  0.33974831481E+02  0.44844096785E+02  0.41800000000E+01 0.  1.
        -11    1    1    2    0    0  0.27470754796E+02  0.68641389225E+02 -0.33011579393E+02  0.80969420511E+02  0.00000000000E+00 0.  1.
         11    1    1    2    0    0  0.28877651189E+02 -0.28566106498E+01 -0.89817900393E+02  0.94389269483E+02  0.00000000000E+00 0. -1.
</event>
<event>
 7    1  0.2670433E-009  0.2023416E+03  0.7561462E-02  0.1147778E+00
         -1   -1    0    0    0  501 -0.00000000000E+00  0.00000000000E+00  0.79868836850E+02  0.79868836850E+02  0.00000000000E+00 0.  1.
          1   -1    0    0  501    0  0.00000000000E+00 -0.00000000000E+00 -0.67012924319E+03  0.67012924319E+03  0.00000000000E+00 0. -1.
         25    2    1    2    0    0 -0.17095120189E+03  0.66295507358E+02 -0.14565643102E+03  0.26548785211E+03  0.12509434838E+03 0.  0.
          5    1    3    3  502    0  0.10068224912E+02  0.32911320866E+02 -0.79539673924E+01  0.35570524192E+02  0.41800000000E+01 0. -1.
         -5    1    3    3    0  502 -0.18101942681E+03  0.33384186493E+02 -0.13770246363E+03  0.22991732792E+03  0.41800000000E+01 0. -1.
        -11    1    1    2    0    0  0.11332333564E+03 -0.59129779488E+02 -0.35892054164E+03  0.38100192182E+03  0.00000000000E+00 0. -1.
         11    1    1    2    0    0  0.57627866257E+02 -0.71657278706E+01 -0.85683433684E+02  0.10350830611E+03  0.00000000000E+00 0.  1.
</event>
<event>
 7    1  0.2670433E-009  0.1194943E+03  0.7561462E-02  0.1243934E+00
         -2   -1    0    0    0  501 -0.00000000000E+00  0.00000000000E+00  0.60707354128E+02  0.60707354128E+02  0.00000000000E+00 0.  1.
          2   -1    0    0  501    0  0.00000000000E+00 -0.00000000000E+00 -0.38294994188E+03  0.38294994188E+03  0.00000000000E+00 0. -1.
         25    2    1    2    0    0 -0.99993477656E+02 -0.15510426140E+02 -0.21939620160E+03  0.27206980222E+03  0.12509202657E+03 0.  0.
          5    1    3    3  502    0 -0.63541991513E+02  0.30770597492E+02 -0.35921510549E+02  0.79323651426E+02  0.41800000000E+01 0. -1.
         -5    1    3    3    0  502 -0.36451486143E+02 -0.46281023632E+02 -0.18347469105E+03  0.19274615080E+03  0.41800000000E+01 0. -1.
        -11    1    1    2    0    0  0.19330162316E+02 -0.13395565391E+02  0.13481503852E+02  0.27108066944E+02  0.00000000000E+00 0.  1.
         11    1    1    2    0    0  0.80663315340E+02  0.28905991531E+02 -0.11632789000E+03  0.14447942684E+03  0.00000000000E+00 0. -1.
</event>
<event>
 7    1  0.2670433E-009  0.6726200E+02  0.7561462E-02  0.1369659E+00
         -1   -1    0    0    0  501 -0.00000000000E+00  0.00000000000E+00  0.38749159014E+02  0.38749159014E+02  0.00000000000E+00 0.  1.
          1   -1    0    0  501    0  0.00000000000E+00 -0.00000000000E+00 -0.30542944539E+03  0.30542944539E+03  0.00000000000E+00 0. -1.
         25    2    1    2    0    0 -0.89188091675E+00  0.47762588725E+01 -0.16441545609E+03  0.20664804705E+03  0.12508942819E+03 0.  0.
          5    1    3    3  502    0 -0.27156186453E+02  0.20398724597E+02  0.48792470970E+01  0.34566542785E+02  0.41800000000E+01 0.  1.
         -5    1    3    3    0  502  0.26264305536E+02 -0.15622465725E+02 -0.16929470319E+03  0.17208150426E+03  0.41800000000E+01 0.  1.
        -11    1    1    2    0    0 -0.33015097842E+02  0.66519178113E+01 -0.51960572299E+01  0.34077026086E+02  0.00000000000E+00 0.  1.
         11    1    1    2    0    0  0.33906978759E+02 -0.11428176684E+02 -0.97068773055E+02  0.10345353128E+03  0.00000000000E+00 0. -1.
</event>
<event>
 7    1  0.2670433E-009  0.1348101E+03  0.7561462E-02  0.1220488E+00
          1   -1    0    0  501    0  0.00000000000E+00  0.00000000000E+00  0.61603909564E+03  0.61603909564E+03  0.00000000000E+00 0. -1.
         -1   -1    0    0    0  501 -0.00000000000E+00 -0.00000000000E+00 -0.38111525213E+02  0.38111525213E+02  0.00000000000E+00 0.  1.
         25    2    1    2    0    0  0.75279090280E+02 -0.57322949631E+02  0.20164540304E+03  0.25546250789E+03  0.12508941755E+03 0.  0.
          5    1    3    3  502    0  0.36745920961E+02  0.38087926412E+02  0.56902457101E+02  0.77822328864E+02  0.41800000000E+01 0.  1.
         -5    1    3    3    0  502  0.38533169319E+02 -0.95410876043E+02  0.14474294593E+03  0.17764017902E+03  0.41800000000E+01 0.  1.
        -11    1    1    2    0    0 -0.82884300322E+02  0.35010277543E+02  0.35720545122E+03  0.36836294759E+03  0.00000000000E+00 0. -1.
         11    1    1    2    0    0  0.76052100420E+01  0.22312672088E+02  0.19076716171E+02  0.30325165381E+02  0.00000000000E+00 0.  1.
</event>
<event>
 7    1  0.2670433E-009  0.7787293E+02  0.7561462E-02  0.1335198E+00
         -1   -1    0    0    0  501 -0.00000000000E+00  0.00000000000E+00  0.30788546417E+02  0.30788546417E+02  0.00000000000E+00 0.  1.
          1   -1    0    0  501    0  0.00000000000E+00 -0.00000000000E+00 -0.64526177088E+03  0.64526177088E+03  0.00000000000E+00 0. -1.
         25    2    1    2    0    0  0.27635263926E+02 -0.10640167255E+02 -0.53794405929E+03  0.55308938670E+03  0.12508851977E+03 0.  0.
          5    1    3    3  502    0  0.42747189475E+02 -0.16080363086E+02 -0.63368123783E+02  0.78223345600E+02  0.41800000000E+01 0.  1.
         -5    1    3    3    0  502 -0.15111925549E+02  0.54401958311E+01 -0.47457593551E+03  0.47486604110E+03  0.41800000000E+01 0.  1.
        -11    1    1    2    0    0 -0.50571612509E+01 -0.38698561253E+02 -0.17465400161E+02  0.42757382120E+02  0.00000000000E+00 0.  1.
         11    1    1    2    0    0 -0.22578102675E+02  0.49338728508E+02 -0.59063765003E+02  0.80203548472E+02  0.00000000000E+00 0. -1.
</event>
<event>
 7    1  0.2739558E-009  0.1687258E+03  0.7561462E-02  0.1179183E+00
          1   -1    0    0  501    0  0.00000000000E+00  0.00000000000E+00  0.42115256109E+03  0.42115256109E+03  0.00000000000E+00 0. -1.
         -1   -1    0    0    0  501 -0.00000000000E+00 -0.00000000000E+00 -0.81610151314E+02  0.81610151314E+02  0.00000000000E+00 0.  1.
         25    2    1    2    0    0 -0.10091537512E+03 -0.10602989109E+03  0.13552546362E+03  0.23546055340E+03  0.12509304609E+03 0.  0.
          5    1    3    3  502    0 -0.12882805967E+03 -0.85291742403E+02  0.93052363834E+02  0.18040943738E+03  0.41800000000E+01 0. -1.
         -5    1    3    3    0  502  0.27912684553E+02 -0.20738148684E+02  0.42473099783E+02  0.55051116019E+02  0.41800000000E+01 0. -1.
        -11    1    1    2    0    0  0.32033454019E+02  0.20425873532E+02  0.12844531915E+03  0.13394610296E+03  0.00000000000E+00 0. -1.
         11    1    1    2    0    0  0.68881921096E+02  0.85604017555E+02  0.75571627002E+02  0.13335605604E+03  0.00000000000E+00 0.  1.
</event>
<event>
 7    1  0.2670433E-009  0.1304797E+03  0.7561462E-02  0.1226746E+00
         -2   -1    0    0    0  501 -0.00000000000E+00  0.00000000000E+00  0.95904830699E+02  0.95904830699E+02  0.00000000000E+00 0.  1.
          2   -1    0    0  501    0  0.00000000000E+00 -0.00000000000E+00 -0.41174220142E+03  0.41174220142E+03  0.00000000000E+00 0. -1.
         25    2    1    2    0    0 -0.97020761611E+02  0.79127504492E+02 -0.30209937466E+03  0.35012563473E+03  0.12509891195E+03 0.  0.
          5    1    3    3  502    0 -0.64852209533E+02  0.21786545256E+02 -0.38909495156E+02  0.78815505129E+02  0.41800000000E+01 0.  1.
         -5    1    3    3    0  502 -0.32168552079E+02  0.57340959235E+02 -0.26318987951E+03  0.27131012960E+03  0.41800000000E+01 0.  1.
        -11    1    1    2    0    0  0.15949738211E+02 -0.22775309617E+02  0.37184482846E+02  0.46430535660E+02  0.00000000000E+00 0.  1.
         11    1    1    2    0    0  0.81071023400E+02 -0.56352194874E+02 -0.50922478909E+02  0.11109086173E+03  0.00000000000E+00 0. -1.
</event>
<event>
 7    1  0.2670433E-009  0.8859713E+02  0.7561462E-02  0.1306285E+00
         -1   -1    0    0    0  501 -0.00000000000E+00  0.00000000000E+00  0.39686135988E+02  0.39686135988E+02  0.00000000000E+00 0.  1.
          1   -1    0    0  501    0  0.00000000000E+00 -0.00000000000E+00 -0.30418203234E+03  0.30418203234E+03  0.00000000000E+00 0. -1.
         25    2    1    2    0    0  0.79903208702E+01  0.90062446785E+01 -0.13200575458E+03  0.18226128040E+03  0.12509475376E+03 0.  0.
          5    1    3    3  502    0  0.49317023906E+02  0.22305283376E+02 -0.13438049387E+02  0.55926273654E+02  0.41800000000E+01 0.  1.
         -5    1    3    3    0  502 -0.41326703036E+02 -0.13299038697E+02 -0.11856770519E+03  0.12633500674E+03  0.41800000000E+01 0.  1.
        -11    1    1    2    0    0 -0.79328310914E+01 -0.43792669704E+02 -0.30779451223E+02  0.54111942734E+02  0.00000000000E+00 0. -1.
         11    1    1    2    0    0 -0.57489778785E-01  0.34786425025E+02 -0.10171069055E+03  0.10749494520E+03  0.00000000000E+00 0.  1.
</event>
<event>
 7    1  0.2670433E-009  0.7483905E+02  0.7561462E-02  0.1344370E+00
         -4   -1    0    0    0  501 -0.00000000000E+00  0.00000000000E+00  0.15964308962E+04  0.15964308962E+04  0.00000000000E+00 0. -1.
          4   -1    0    0  501    0  0.00000000000E+00 -0.00000000000E+00 -0.11875078982E+02  0.11875078982E+02  0.00000000000E+00 0.  1.
         25    2    1    2    0    0 -0.46199569369E+02  0.10731440597E+02  0.12808553054E+04  0.12878237063E+04  0.12510004499E+03 0.  0.
          5    1    3    3  502    0 -0.55907176265E+02  0.21904456792E+02  0.26092392020E+03  0.26777636587E+03  0.41800000000E+01 0.  1.
         -5    1    3    3    0  502  0.97076068967E+01 -0.11173016195E+02  0.10199313852E+04  0.10200473404E+04  0.41800000000E+01 0.  1.
        -11    1    1    2    0    0  0.42553834408E+02 -0.31548948394E+02  0.29109161515E+03  0.29587242754E+03  0.00000000000E+00 0. -1.
         11    1    1    2    0    0  0.36457349610E+01  0.20817507797E+02  0.12608896728E+02  0.24609841344E+02  0.00000000000E+00 0.  1.
</event>
<event>
 7    1  0.2670433E-009  0.1213908E+03  0.7561462E-02  0.1240820E+00
         -2   -1    0    0    0  501 -0.00000000000E+00  0.00000000000E+00  0.14213264583E+03  0.14213264583E+03  0.00000000000E+00 0. -1.
          2   -1    0    0  501    0  0.00000000000E+00 -0.00000000000E+00 -0.23592928097E+03  0.23592928097E+03  0.00000000000E+00 0.  1.
         25    2    1    2    0    0 -0.41025210060E+02 -0.54426860469E+02  0.85412597173E+02  0.16609496640E+03  0.12508746982E+03 0.  0.
          5    1    3    3  502    0  0.32106074910E+01  0.38094670237E+02  0.33851778463E+02  0.51234043429E+02  0.41800000000E+01 0.  1.
         -5    1    3    3    0  502 -0.44235817551E+02 -0.92521530707E+02  0.51560818710E+02  0.11486092297E+03  0.41800000000E+01 0.  1.
        -11    1    1    2    0    0 -0.63468479836E+01  0.53939599746E+02 -0.14101807787E+03  0.15111539031E+03  0.00000000000E+00 0.  1.
         11    1    1    2    0    0  0.47372058044E+02  0.48726072341E+00 -0.38191154434E+02  0.60851570098E+02  0.00000000000E+00 0. -1.
</event>
<event>
 7    1  0.2670433E-009  0.1543389E+03  0.7561462E-02  0.1195241E+00
         -1   -1    0    0    0  501 -0.00000000000E+00  0.00000000000E+00  0.96265324204E+02  0.96265324204E+02  0.00000000000E+00 0.  1.
          1   -1    0    0  501    0  0.00000000000E+00 -0.00000000000E+00 -0.31762921937E+03  0.31762921937E+03  0.00000000000E+00 0. -1.
         25    2    1    2    0    0 -0.54942832223E+02 -0.10828179362E+03 -0.20896734485E+03  0.27213825082E+03  0.12509282436E+03 0.  0.
          5    1    3    3  502    0  0.68835214070E+01 -0.10724447373E+03 -0.10040289147E+03  0.14712910327E+03  0.41800000000E+01 0. -1.
         -5    1    3    3    0  502 -0.61826353630E+02 -0.10373198874E+01 -0.10856445338E+03  0.12500914756E+03  0.41800000000E+01 0. -1.
        -11    1    1    2    0    0 -0.14645212511E+02  0.69015686438E+01  0.63103375305E+01  0.17376255609E+02  0.00000000000E+00 0.  1.
         11    1    1    2    0    0  0.69588044734E+02  0.10138022498E+03 -0.18706887850E+02  0.12438003714E+03  0.00000000000E+00 0. -1.
</event>
<event>
 7    1  0.2670433E-009  0.1459897E+03  0.7561462E-02  0.1205489E+00
          2   -1    0    0  501    0  0.00000000000E+00  0.00000000000E+00  0.26762770898E+03  0.26762770898E+03  0.00000000000E+00 0. -1.
         -2   -1    0    0    0  501 -0.00000000000E+00 -0.00000000000E+00 -0.94463220982E+02  0.94463220982E+02  0.00000000000E+00 0.  1.
         25    2    1    2    0    0  0.67875102444E+02 -0.94205993288E+02  0.10017496223E+03  0.19790019327E+03  0.12509062609E+03 0.  0.
          5    1    3    3  502    0  0.10416990738E+03 -0.74368332478E+02  0.84717151128E+02  0.15354636620E+03  0.41800000000E+01 0.  1.
         -5    1    3    3    0  502 -0.36294804935E+02 -0.19837660809E+02  0.15457811105E+02  0.44353827070E+02  0.41800000000E+01 0.  1.
        -11    1    1    2    0    0 -0.16502172187E+02  0.17745152065E+01  0.54329908553E+02  0.56808534170E+02  0.00000000000E+00 0. -1.
         11    1    1    2    0    0 -0.51372930257E+02  0.92431478081E+02  0.18659617214E+02  0.10738220252E+03  0.00000000000E+00 0.  1.
</event>
<event>
 7    1  0.2670433E-009  0.1031696E+03  0.7561462E-02  0.1273768E+00
          2   -1    0    0  501    0  0.00000000000E+00  0.00000000000E+00  0.23066323428E+03  0.23066323428E+03  0.00000000000E+00 0. -1.
         -2   -1    0    0    0  501 -0.00000000000E+00 -0.00000000000E+00 -0.82111837271E+02  0.82111837271E+02  0.00000000000E+00 0.  1.
         25    2    1    2    0    0  0.10177693394E+02 -0.82145863773E+02  0.93236103174E+02  0.17661149733E+03  0.12508845540E+03 0.  0.
          5    1    3    3  502    0 -0.39815359770E+02 -0.40709886521E+02  0.95766231788E+02  0.11149529714E+03  0.41800000000E+01 0.  1.
         -5    1    3    3    0  502  0.49993053164E+02 -0.41435977252E+02 -0.25301286148E+01  0.65116200183E+02  0.41800000000E+01 0.  1.
        -11    1    1    2    0    0 -0.13309999430E+02  0.45795910835E+02 -0.20589468255E+02  0.51945622886E+02  0.00000000000E+00 0.  1.
         11    1    1    2    0    0  0.31323060358E+01  0.36349952938E+02  0.75904762092E+02  0.84217951341E+02  0.00000000000E+00 0. -1.
</event>
<event>
 7    1  0.2670433E-009  0.2288934E+03  0.7561462E-02  0.1127421E+00
         -1   -1    0    0    0  501 -0.00000000000E+00  0.00000000000E+00  0.12086244794E+03  0.12086244794E+03  0.00000000000E+00 0.  1.
          1   -1    0    0  501    0  0.00000000000E+00 -0.00000000000E+00 -0.53086129407E+03  0.53086129407E+03  0.00000000000E+00 0. -1.
         25    2    1    2    0    0 -0.17119689912E+03  0.12528712770E+03 -0.10027266653E+03  0.26590790782E+03  0.12508862919E+03 0.  0.
          5    1    3    3  502    0 -0.64180209609E+02 -0.16122787223E+02 -0.44897148684E+02  0.80076650362E+02  0.41800000000E+01 0. -1.
         -5    1    3    3    0  502 -0.10701668951E+03  0.14140991492E+03 -0.55375517849E+02  0.18583125746E+03  0.41800000000E+01 0. -1.
        -11    1    1    2    0    0  0.10372281502E+03 -0.92914880368E+02 -0.26299221488E+03  0.29758444589E+03  0.00000000000E+00 0. -1.
         11    1    1    2    0    0  0.67474084099E+02 -0.32372247331E+02 -0.46733964713E+02  0.88231388292E+02  0.00000000000E+00 0.  1.
</event>
<event>
 7    1  0.2670433E-009  0.3718850E+03  0.7561462E-02  0.1053975E+00
          1   -1    0    0  501    0  0.00000000000E+00  0.00000000000E+00  0.16404817479E+03  0.16404817479E+03  0.00000000000E+00 0. -1.
         -1   -1    0    0    0  501 -0.00000000000E+00 -0.00000000000E+00 -0.85747950210E+03  0.85747950210E+03  0.00000000000E+00 0.  1.
         25    2    1    2    0    0  0.28235544862E+02  0.35474657412E+03 -0.28888778871E+03  0.47512440217E+03  0.12507863617E+03 0.  0.
          5    1    3    3  502    0  0.38039975409E+02  0.21713001036E+02 -0.34550439289E+02  0.55943716342E+02  0.41800000000E+01 0.  1.
         -5    1    3    3    0  502 -0.98044305476E+01  0.33303357309E+03 -0.25433734942E+03  0.41918068583E+03  0.41800000000E+01 0.  1.
        -11    1    1    2    0    0  0.13513125258E+01 -0.32361585626E+03 -0.34549053231E+03  0.47338436433E+03  0.00000000000E+00 0.  1.
         11    1    1    2    0    0 -0.29586857387E+02 -0.31130717860E+02 -0.59053006280E+02  0.73018910395E+02  0.00000000000E+00 0. -1.
</event>
<event>
 7    1  0.2670433E-009  0.7072195E+02  0.7561462E-02  0.1357655E+00
          1   -1    0    0  501    0  0.00000000000E+00  0.00000000000E+00  0.84085376236E+03  0.84085376236E+03  0.00000000000E+00 0. -1.
         -1   -1    0    0    0  501 -0.00000000000E+00 -0.00000000000E+00 -0.14891292166E+02  0.14891292166E+02  0.00000000000E+00 0.  1.
         25    2    1    2    0    0  0.27756545655E+02  0.89111168343E+01  0.48053181104E+03  0.49740104518E+03  0.12508854661E+03 0.  0.
          5    1    3    3  502    0  0.34176654960E+02 -0.34191118490E+01  0.27662701157E+02  0.44299339785E+02  0.41800000000E+01 0.  1.
         -5    1    3    3    0  502 -0.64201093057E+01  0.12330228683E+02  0.45286910988E+03  0.45310170539E+03  0.41800000000E+01 0.  1.
        -11    1    1    2    0    0 -0.37668264465E+02  0.32497062058E+02  0.14079586962E+03  0.14932660209E+03  0.00000000000E+00 0. -1.
         11    1    1    2    0    0  0.99117188105E+01 -0.41408178892E+02  0.20463478954E+03  0.20901740726E+03  0.00000000000E+00 0.  1.
</event>
<event>
 7    1  0.2670433E-009  0.1170504E+03  0.7561462E-02  0.1248044E+00
          2   -1    0    0  501    0  0.00000000000E+00  0.00000000000E+00  0.13709196813E+03  0.13709196813E+03  0.00000000000E+00 0. -1.
         -2   -1    0    0    0  501 -0.00000000000E+00 -0.00000000000E+00 -0.19162123639E+03  0.19162123639E+03  0.00000000000E+00 0.  1.
         25    2    1    2    0    0  0.26201219927E+02  0.74328965130E+02  0.62183532620E+02  0.16039306492E+03  0.12509134487E+03 0.  0.
          5    1    3    3  502    0  0.67933888329E+02  0.21935230403E+02  0.40858744043E+01  0.71626351897E+02  0.41800000000E+01 0.  1.
         -5    1    3    3    0  502 -0.41732668402E+02  0.52393734727E+02  0.58097658216E+02  0.88766713022E+02  0.41800000000E+01 0.  1.
        -11    1    1    2    0    0 -0.16645532585E+02  0.35458338335E+01  0.96622411472E+01  0.19570528777E+02  0.00000000000E+00 0. -1.
         11    1    1    2    0    0 -0.95556873418E+01 -0.77874798963E+02 -0.12637504203E+03  0.14874961083E+03  0.00000000000E+00 0.  1.
</event>
<event>
 7    1  0.2670433E-009  0.1443903E+03  0.7561462E-02  0.1207541E+00
         -1   -1    0    0    0  501 -0.00000000000E+00  0.00000000000E+00  0.56307482040E+02  0.56307482040E+02  0.00000000000E+00 0.  1.
          1   -1    0    0  501    0  0.00000000000E+00 -0.00000000000E+00 -0.45171964848E+03  0.45171964848E+03  0.00000000000E+00 0. -1.
         25    2    1    2    0    0 -0.11392682220E+03 -0.18111011923E+01 -0.24775049553E+03  0.30001669313E+03  0.12508839760E+03 0.  0.
          5    1    3    3  502    0  0.13090334404E+02 -0.30383966020E+02 -0.23904693091E+02  0.41029854956E+02  0.41800000000E+01 0. -1.
         -5    1    3    3    0  502 -0.12701715661E+03  0.28572864828E+02 -0.22384580244E+03  0.25898683817E+03  0.41800000000E+01 0. -1.
        -11    1    1    2    0    0  0.83741258143E+02  0.24683078807E+02 -0.14598846878E+03  0.17010139833E+03  0.00000000000E+00 0. -1.
         11    1    1    2    0    0  0.30185564060E+02 -0.22871977614E+02 -0.16732021274E+01  0.37909039067E+02  0.00000000000E+00 0.  1.
</event>
<event>
 7    1  0.2670433E-009  0.8033309E+02  0.7561462E-02  0.1328109E+00
         -2   -1    0    0    0  501 -0.00000000000E+00  0.00000000000E+00  0.16598764989E+02  0.16598764989E+02  0.00000000000E+00 0.  1.
          2   -1    0    0  501    0  0.00000000000E+00 -0.00000000000E+00 -0.73863360279E+03  0.73863360279E+03  0.00000000000E+00 0. -1.
         25    2    1    2    0    0 -0.44010531329E+01  0.25606250281E+02 -0.45254393813E+03  0.47023191252E+03  0.12508791423E+03 0.  0.
          5    1    3    3  502    0  0.29926624539E+02  0.11323736175E+02 -0.24398449292E+02  0.40454747374E+02  0.41800000000E+01 0. -1.
         -5    1    3    3    0  502 -0.34327677672E+02  0.14282514107E+02 -0.42814548884E+03  0.42977716514E+03  0.41800000000E+01 0. -1.
        -11    1    1    2    0    0  0.32515246775E+02  0.19439478913E+02 -0.14025971764E+03  0.14528566002E+03  0.00000000000E+00 0. -1.
         11    1    1    2    0    0 -0.28114193642E+02 -0.45045729194E+02 -0.12923118202E+03  0.13971479524E+03  0.00000000000E+00 0.  1.
</event>
<event>
 7    1  0.2670433E-009  0.1555423E+03  0.7561462E-02  0.1193823E+00
          1   -1    0    0  501    0  0.00000000000E+00  0.00000000000E+00  0.49559190261E+03  0.49559190261E+03  0.00000000000E+00 0. -1.
         -1   -1    0    0    0  501 -0.00000000000E+00 -0.00000000000E+00 -0.12334302786E+03  0.12334302786E+03  0.00000000000E+00 0.  1.
         25    2    1    2    0    0  0.15061484790E+02 -0.12326601587E+03 -0.38537767401E+02  0.18042562286E+03  0.12508751687E+03 0.  0.
          5    1    3    3  502    0 -0.48721431526E+02 -0.81016491694E+02  0.63434609925E-01  0.94630472050E+02  0.41800000000E+01 0. -1.
         -5    1    3    3    0  502  0.63782916316E+02 -0.42249524175E+02 -0.38601202011E+02  0.85795150815E+02  0.41800000000E+01 0. -1.
        -11    1    1    2    0    0  0.25321605969E+02  0.40981088429E+02  0.65772573525E+02  0.81527079954E+02  0.00000000000E+00 0.  1.
         11    1    1    2    0    0 -0.40383090759E+02  0.82284927441E+02  0.34501406863E+03  0.35698222765E+03  0.00000000000E+00 0. -1.
</event>
<event>
 7    1  0.2670433E-009  0.1516201E+03  0.7561462E-02  0.1198496E+00
          2   -1    0    0  501    0  0.00000000000E+00  0.00000000000E+00  0.92787522491E+03  0.92787522491E+03  0.00000000000E+00 0. -1.
         -2   -1    0    0    0  501 -0.00000000000E+00 -0.00000000000E+00 -0.34971732828E+02  0.34971732828E+02  0.00000000000E+00 0.  1.
         25    2    1    2    0    0  0.52293217654E+02  0.12741361162E+03  0.57879434645E+03  0.60796203595E+03  0.12508450200E+03 0.  0.
          5    1    3    3  502    0 -0.26153369408E+02  0.37564540354E+02  0.59806918217E+02  0.75428332144E+02  0.41800000000E+01 0.  1.
         -5    1    3    3    0  502  0.78446587062E+02  0.89849071267E+02  0.51898742823E+03  0.53253370381E+03  0.41800000000E+01 0.  1.
        -11    1    1    2    0    0 -0.37518300156E+01 -0.15378727768E+02 -0.20556855855E+01  0.15962685847E+02  0.00000000000E+00 0.  1.
         11    1    1    2    0    0 -0.48541387639E+02 -0.11203488385E+03  0.31616483121E+03  0.33892223593E+03  0.00000000000E+00 0. -1.
</event>
<event>
 7    1  0.2670433E-009  0.7013601E+02  0.7561462E-02  0.1359631E+00
          2   -1    0    0  501    0  0.00000000000E+00  0.00000000000E+00  0.13380997426E+03  0.13380997426E+03  0.00000000000E+00 0. -1.
         -2   -1    0    0    0  501 -0.00000000000E+00 -0.00000000000E+00 -0.11431986211E+03  0.11431986211E+03  0.00000000000E+00 0.  1.
         25    2    1    2    0    0 -0.11327003668E+02  0.49108778540E+02  0.42685811147E+02  0.14145526387E+03  0.12509012775E+03 0.  0.
          5    1    3    3  502    0 -0.53668047885E+01  0.12250564368E+02  0.84261685715E+02  0.85418867942E+02  0.41800000000E+01 0. -1.
         -5    1    3    3    0  502 -0.59601988797E+01  0.36858214172E+02 -0.41575874567E+02  0.56036395928E+02  0.41800000000E+01 0. -1.
        -11    1    1    2    0    0  0.22666136910E+02 -0.65186741046E+02  0.83275524150E+01  0.69515560128E+02  0.00000000000E+00 0. -1.
         11    1    1    2    0    0 -0.11339133242E+02  0.16077962507E+02 -0.31523251408E+02  0.37159012370E+02  0.00000000000E+00 0.  1.
</event>
<event>
 7    1  0.2670433E-009  0.1491859E+03  0.7561462E-02  0.1201477E+00
          2   -1    0    0  501    0  0.00000000000E+00  0.00000000000E+00  0.22252428962E+04  0.22252428962E+04  0.00000000000E+00 0. -1.
         -2   -1    0    0    0  501 -0.00000000000E+00 -0.00000000000E+00 -0.19375433291E+02  0.19375433291E+02  0.00000000000E+00 0.  1.
         25    2    1    2    0    0 -0.28875145279E+02 -0.13467347125E+03  0.17526120060E+04  0.17624607085E+04  0.12509271710E+03 0.  0.
          5    1    3    3  502    0 -0.11577562717E+02 -0.88956474471E+02  0.44723378347E+03  0.45616096259E+03  0.41800000000E+01 0.  1.
         -5    1    3    3    0  502 -0.17297582561E+02 -0.45716996780E+02  0.13053782225E+04  0.13062997460E+04  0.41800000000E+01 0.  1.
        -11    1    1    2    0    0  0.57099954412E+02  0.85563630165E+02  0.23228872590E+03  0.25404643627E+03  0.00000000000E+00 0.  1.
         11    1    1    2    0    0 -0.28224809133E+02  0.49109841087E+02  0.22096673105E+03  0.22811118467E+03  0.00000000000E+00 0. -1.
</event>
<event>
 7    1  0.2670433E-009  0.1171097E+03  0.7561462E-02  0.1247943E+00
          2   -1    0    0  501    0  0.00000000000E+00  0.00000000000E+00  0.28892987431E+03  0.28892987431E+03  0.00000000000E+00 0. -1.
         -2   -1    0    0    0  501 -0.00000000000E+00 -0.00000000000E+00 -0.50120541406E+02  0.50120541406E+02  0.00000000000E+00 0.  1.
         25    2    1    2    0    0  0.30248755082E+02 -0.43226158831E+02  0.12374387445E+03  0.18369129373E+03  0.12508579831E+03 0.  0.
          5    1    3    3  502    0  0.50983438500E+02  0.27092112911E+02  0.31873798291E+02  0.66081048726E+02  0.41800000000E+01 0.  1.
         -5    1    3    3    0  502 -0.20734683418E+02 -0.70318271743E+02  0.91870076160E+02  0.11761024501E+03  0.41800000000E+01 0.  1.
        -11    1    1    2    0    0  0.35526028855E+01 -0.25800831023E+02  0.41320545501E+02  0.48843539483E+02  0.00000000000E+00 0.  1.
         11    1    1    2    0    0 -0.33801357967E+02  0.69026989855E+02  0.73744912954E+02  0.10651558250E+03  0.00000000000E+00 0. -1.
</event>
<event>
 7    1  0.2911860E-009  0.1555630E+03  0.7561462E-02  0.1193799E+00
         -1   -1    0    0    0  501 -0.00000000000E+00  0.00000000000E+00  0.29007371713E+02  0.29007371713E+02  0.00000000000E+00 0.  1.
          1   -1    0    0  501    0  0.00000000000E+00 -0.00000000000E+00 -0.92837916084E+03  0.92837916084E+03  0.00000000000E+00 0. -1.
         25    2    1    2    0    0  0.11557218691E+03  0.30392819809E+02 -0.56803268746E+03  0.59379247040E+03  0.12509080705E+03 0.  0.
          5    1    3    3  502    0  0.24126851975E+02  0.62911286903E+02 -0.32745692216E+03  0.33434330153E+03  0.41800000000E+01 0. -1.
         -5    1    3    3    0  502  0.91445334934E+02 -0.32518467094E+02 -0.24057576530E+03  0.25944916888E+03  0.41800000000E+01 0. -1.
        -11    1    1    2    0    0 -0.87947004131E+02  0.18910548445E+02 -0.16518367718E+03  0.18809022193E+03  0.00000000000E+00 0. -1.
         11    1    1    2    0    0 -0.27625182778E+02 -0.49303368254E+02 -0.16615542449E+03  0.17550384022E+03  0.00000000000E+00 0.  1.
</event>
<event>
 7    1  0.2670433E-009  0.1811695E+03  0.7561462E-02  0.1166676E+00
          1   -1    0    0  501    0  0.00000000000E+00  0.00000000000E+00  0.42370270020E+03  0.42370270020E+03  0.00000000000E+00 0. -1.
         -1   -1    0    0    0  501 -0.00000000000E+00 -0.00000000000E+00 -0.10277970219E+03  0.10277970219E+03  0.00000000000E+00 0.  1.
         25    2    1    2    0    0 -0.25830805021E+02 -0.17635594459E+03  0.15991509717E+03  0.27016464771E+03  0.12508976332E+03 0.  0.
          5    1    3    3  502    0 -0.18423037714E+02 -0.11867389119E+03  0.17277679821E+03  0.21045711004E+03  0.41800000000E+01 0.  1.
         -5    1    3    3    0  502 -0.74077673074E+01 -0.57682053395E+02 -0.12861701035E+02  0.59707537664E+02  0.41800000000E+01 0.  1.
        -11    1    1    2    0    0 -0.94287379439E+01  0.91368433907E+02  0.30798792195E+02  0.96879602675E+02  0.00000000000E+00 0.  1.
         11    1    1    2    0    0  0.35259542965E+02  0.84987510681E+02  0.13020910864E+03  0.15943815201E+03  0.00000000000E+00 0. -1.
</event>
<event>
 7    1  0.2670433E-009  0.1384072E+03  0.7561462E-02  0.1215488E+00
          2   -1    0    0  501    0  0.00000000000E+00  0.00000000000E+00  0.53954060989E+03  0.53954060989E+03  0.00000000000E+00 0.  1.
         -2   -1    0    0    0  501 -0.00000000000E+00 -0.00000000000E+00 -0.45373369861E+02  0.45373369861E+02  0.00000000000E+00 0. -1.
         25    2    1    2    0    0  0.48001046819E+01 -0.87233001985E+02  0.13319835514E+03  0.20253846779E+03  0.12508953387E+03 0.  0.
          5    1    3    3  502    0  0.22280224533E+01  0.31932909528E+02  0.38532072268E+02  0.50267959857E+02  0.41800000000E+01 0. -1.
         -5    1    3    3    0  502  0.25720822286E+01 -0.11916591151E+03  0.94666282867E+02  0.15227050793E+03  0.41800000000E+01 0. -1.
        -11    1    1    2    0    0  0.37920655040E+02  0.13884645729E+02  0.96170325556E+02  0.10430479847E+03  0.00000000000E+00 0. -1.
         11    1    1    2    0    0 -0.42720759722E+02  0.73348356257E+02  0.26479855934E+03  0.27807071350E+03  0.00000000000E+00 0.  1.
</event>
<event>
 7    1  0.2670433E-009  0.8853926E+02  0.7561462E-02  0.1306428E+00
         -1   -1    0    0    0  501 -0.00000000000E+00  0.00000000000E+00  0.15463991631E+03  0.15463991631E+03  0.00000000000E+00 0.  1.
          1   -1    0    0  501    0  0.00000000000E+00 -0.00000000000E+00 -0.85667340850E+02  0.85667340850E+02  0.00000000000E+00 0. -1.
         25    2    1    2    0    0 -0.11570873717E+02 -0.37513603257E+02  0.43839966631E+02  0.13824621153E+03  0.12509563054E+03 0.  0.
          5    1    3    3  502    0  0.18100859247E+01  0.25112412114E+02  0.65673144648E+02  0.70458100891E+02  0.41800000000E+01 0. -1.
         -5    1    3    3    0  502 -0.13380959642E+02 -0.62626015371E+02 -0.21833178018E+02  0.67788110643E+02  0.41800000000E+01 0. -1.
        -11    1    1    2    0    0 -0.33033950783E+02  0.23801736218E+02 -0.11975672335E+02  0.42440326097E+02  0.00000000000E+00 0. -1.
         11    1    1    2    0    0  0.44604824500E+02  0.13711867039E+02  0.37108281169E+02  0.59620719534E+02  0.00000000000E+00 0.  1.
</event>
<event>
 7    1  0.2670433E-009  0.9370711E+02  0.7561462E-02  0.1294115E+00
          2   -1    0    0  501    0  0.00000000000E+00  0.00000000000E+00  0.49209589686E+02  0.49209589686E+02  0.00000000000E+00 0. -1.
         -2   -1    0    0    0  501 -0.00000000000E+00 -0.00000000000E+00 -0.29684100411E+03  0.29684100411E+03  0.00000000000E+00 0.  1.
         25    2    1    2    0    0  0.50955311093E+02 -0.17533001724E+01 -0.15809021990E+03  0.20793572625E+03  0.12508089716E+03 0.  0.
          5    1    3    3  502    0 -0.18754523993E+02 -0.43111536960E+02 -0.28834304084E+02  0.55310272837E+02  0.41800000000E+01 0.  1.
         -5    1    3    3    0  502  0.69709835086E+02  0.41358236788E+02 -0.12925591581E+03  0.15262545342E+03  0.41800000000E+01 0.  1.
        -11    1    1    2    0    0 -0.32101726635E+02  0.15568860599E+02  0.90361296284E+01  0.36804373544E+02  0.00000000000E+00 0. -1.
         11    1    1    2    0    0 -0.18853584458E+02 -0.13815560427E+02 -0.98577324157E+02  0.10131049400E+03  0.00000000000E+00 0.  1.
</event>
<event>
 7    1  0.2670433E-009  0.1253539E+03  0.7561462E-02  0.1234517E+00
         -1   -1    0    0    0  501 -0.00000000000E+00  0.00000000000E+00  0.47950102113E+03  0.47950102113E+03  0.00000000000E+00 0.  1.
          1   -1    0    0  501    0  0.00000000000E+00 -0.00000000000E+00 -0.50071949380E+02  0.50071949380E+02  0.00000000000E+00 0. -1.
         25    2    1    2    0    0 -0.92821861083E+02 -0.52176203192E+02  0.17772866646E+03  0.24201684970E+03  0.12508566098E+03 0.  0.
          5    1    3    3  502    0  0.10729404209E+02 -0.24812742936E+02 -0.71856151947E+01  0.28282464398E+02  0.41800000000E+01 0.  1.
         -5    1    3    3    0  502 -0.10355126529E+03 -0.27363460256E+02  0.18491428165E+03  0.21373438530E+03  0.41800000000E+01 0.  1.
        -11    1    1    2    0    0  0.27104948431E+02  0.41529848962E+02  0.19144229889E+03  0.19776137233E+03  0.00000000000E+00 0.  1.
         11    1    1    2    0    0  0.65716912652E+02  0.10646354230E+02  0.60258106410E+02  0.89794748483E+02  0.00000000000E+00 0. -1.
</event>
<event>
 7    1  0.2670433E-009  0.1715815E+03  0.7561462E-02  0.1176209E+00
          1   -1    0    0  501    0  0.00000000000E+00  0.00000000000E+00  0.10057579422E+03  0.10057579422E+03  0.00000000000E+00 0. -1.
         -1   -1    0    0    0  501 -0.00000000000E+00 -0.00000000000E+00 -0.34959812920E+03  0.34959812920E+03  0.00000000000E+00 0.  1.
         25    2    1    2    0    0  0.14336232280E+03  0.51653822532E+02 -0.11780701168E+03  0.22966655021E+03  0.12508940524E+03 0.  0.
          5    1    3    3  502    0  0.23111113940E+02 -0.23796898546E+02 -0.73736424866E+02  0.80962637803E+02  0.41800000000E+01 0. -1.
         -5    1    3    3    0  502  0.12025120886E+03  0.75450721077E+02 -0.44070586813E+02  0.14870391240E+03  0.41800000000E+01 0. -1.
        -11    1    1    2    0    0 -0.13792951036E+03 -0.65602272226E+02 -0.13628879637E+03  0.20470184163E+03  0.00000000000E+00 0.  1.
         11    1    1    2    0    0 -0.54328124319E+01  0.13948449695E+02  0.50734730725E+01  0.15805531589E+02  0.00000000000E+00 0. -1.
</event>
<event>
 7    1  0.2670433E-009  0.1012751E+03  0.7561462E-02  0.1277637E+00
          2   -1    0    0  501    0  0.00000000000E+00  0.00000000000E+00  0.41927730183E+03  0.41927730183E+03  0.00000000000E+00 0. -1.
         -2   -1    0    0    0  501 -0.00000000000E+00 -0.00000000000E+00 -0.49294815183E+02  0.49294815183E+02  0.00000000000E+00 0.  1.
         25    2    1    2    0    0  0.71230709909E+02 -0.43344451896E+02  0.26570354747E+03  0.30528476075E+03  0.12509138445E+03 0.  0.
          5    1    3    3  502    0  0.18729929609E+01 -0.19665404777E+02 -0.81415902931E+01  0.21771406481E+02  0.41800000000E+01 0. -1.
         -5    1    3    3    0  502  0.69357716948E+02 -0.23679047119E+02  0.27384513776E+03  0.28351335427E+03  0.41800000000E+01 0. -1.
        -11    1    1    2    0    0 -0.68216904700E+02  0.60713782749E+02  0.45710364079E+02  0.10212319466E+03  0.00000000000E+00 0.  1.
         11    1    1    2    0    0 -0.30138052094E+01 -0.17369330853E+02  0.58568575097E+02  0.61164161606E+02  0.00000000000E+00 0. -1.
</event>
<event>
 7    1  0.2670433E-009  0.1082313E+03  0.7561462E-02  0.1263881E+00
          2   -1    0    0  501    0  0.00000000000E+00  0.00000000000E+00  0.93975164177E+03  0.93975164177E+03  0.00000000000E+00 0. -1.
         -2   -1    0    0    0  501 -0.00000000000E+00 -0.00000000000E+00 -0.17077846325E+02  0.17077846325E+02  0.00000000000E+00 0.  1.
         25    2    1    2    0    0  0.24408768970E+02 -0.24538197444E+02  0.72107743669E+03  0.73266525659E+03  0.12509115626E+03 0.  0.
          5    1    3    3  502    0  0.43686713856E+02  0.41412640281E+02  0.37252068518E+03  0.37737603134E+03  0.41800000000E+01 0.  1.
         -5    1    3    3    0  502 -0.19277944886E+02 -0.65950837724E+02  0.34855675151E+03  0.35528922525E+03  0.41800000000E+01 0.  1.
        -11    1    1    2    0    0 -0.82094736466E+01  0.53485817812E+02  0.16980205854E+03  0.17821578844E+03  0.00000000000E+00 0. -1.
         11    1    1    2    0    0 -0.16199295324E+02 -0.28947620368E+02  0.31794300213E+02  0.45948443064E+02  0.00000000000E+00 0.  1.
</event>
<event>
 7    1  0.2670433E-009  0.1008447E+03  0.7561462E-02  0.1278530E+00
          1   -1    0    0  501    0  0.00000000000E+00  0.00000000000E+00  0.23319726758E+03  0.23319726758E+03  0.00000000000E+00 0. -1.
         -1   -1    0    0    0  501 -0.00000000000E+00 -0.00000000000E+00 -0.70053956627E+02  0.70053956627E+02  0.00000000000E+00 0.  1.
         25    2    1    2    0    0 -0.27279347032E+02  0.58422819881E+02  0.10528096960E+03  0.17575304088E+03  0.12509060781E+03 0.  0.
          5    1    3    3  502    0 -0.39120869472E+00 -0.37175559411E+02  0.48599411809E+02  0.61331480415E+02  0.41800000000E+01 0. -1.
         -5    1    3    3    0  502 -0.26888138338E+02  0.95598379293E+02  0.56681557787E+02  0.11442156047E+03  0.41800000000E+01 0. -1.
        -11    1    1    2    0    0  0.11842058416E+02 -0.17371123533E+02  0.76873724348E+02  0.79696673553E+02  0.00000000000E+00 0. -1.
         11    1    1    2    0    0  0.15437288617E+02 -0.41051696348E+02 -0.19011382993E+02  0.47801509769E+02  0.00000000000E+00 0.  1.
</event>
<event>
 7    1  0.2670433E-009  0.9865105E+02  0.7561462E-02  0.1283158E+00
         -1   -1    0    0    0  501 -0.00000000000E+00  0.00000000000E+00  0.42377228395E+02  0.42377228395E+02  0.00000000000E+00 0.  1.
          1   -1    0    0  501    0  0.00000000000E+00 -0.00000000000E+00 -0.31393117602E+03  0.31393117602E+03  0.00000000000E+00 0. -1.
         25    2    1    2    0    0 -0.20147588181E+02  0.33969444709E+02 -0.14094412563E+03  0.19254176830E+03  0.12508891839E+03 0.  0.
          5    1    3    3  502    0 -0.58941239099E+02  0.20464274224E+02 -0.21440254225E+02  0.66106074511E+02  0.41800000000E+01 0.  1.
         -5    1    3    3    0  502  0.38793650918E+02  0.13505170485E+02 -0.11950387141E+03  0.12643569378E+03  0.41800000000E+01 0.  1.
        -11    1    1    2    0    0 -0.32860437369E+02 -0.55221848759E+01 -0.23018963718E+02  0.40499080984E+02  0.00000000000E+00 0. -1.
         11    1    1    2    0    0  0.53008025551E+02 -0.28447259833E+02 -0.10759085828E+03  0.12326755514E+03  0.00000000000E+00 0.  1.
</event>
<event>
 7    1  0.2670433E-009  0.1091813E+03  0.7561462E-02  0.1262094E+00
          3   -1    0    0  501    0  0.00000000000E+00  0.00000000000E+00  0.67689454054E+02  0.67689454054E+02  0.00000000000E+00 0. -1.
         -3   -1    0    0    0  501 -0.00000000000E+00 -0.00000000000E+00 -0.27912230136E+03  0.27912230136E+03  0.00000000000E+00 0.  1.
         25    2    1    2    0    0  0.11214900415E+02 -0.35008818860E+02 -0.21515169236E+02  0.13214918918E+03  0.12509642003E+03 0.  0.
          5    1    3    3  502    0  0.53314972339E+02 -0.50468457844E+02  0.13919818085E+02  0.74838394211E+02  0.41800000000E+01 0. -1.
         -5    1    3    3    0  502 -0.42100071924E+02  0.15459638984E+02 -0.35434987321E+02  0.57310794969E+02  0.41800000000E+01 0. -1.
        -11    1    1    2    0    0  0.40285021518E+02  0.61482186162E+01 -0.85394208253E+02  0.94619524169E+02  0.00000000000E+00 0.  1.
         11    1    1    2    0    0 -0.51499921932E+02  0.28860600244E+02 -0.10452346982E+03  0.12004304206E+03  0.00000000000E+00 0. -1.
</event>
<event>
 7    1  0.2670433E-009  0.7130997E+02  0.7561462E-02  0.1355694E+00
          3   -1    0    0  501    0  0.00000000000E+00  0.00000000000E+00  0.18862059128E+03  0.18862059128E+03  0.00000000000E+00 0. -1.
         -3   -1    0    0    0  501 -0.00000000000E+00 -0.00000000000E+00 -0.63413910983E+02  0.63413910983E+02  0.00000000000E+00 0.  1.
         25    2    1    2    0    0  0.57343389950E+01 -0.30834205284E+01  0.91736891070E+02  0.15526028009E+03  0.12509079608E+03 0.  0.
          5    1    3    3  502    0 -0.32632117301E+02 -0.69510576361E+01  0.10806595030E+03  0.11317638577E+03  0.41800000000E+01 0. -1.
         -5    1    3    3    0  502  0.38366456296E+02  0.38676371077E+01 -0.16329059231E+02  0.42083894317E+02  0.41800000000E+01 0. -1.
        -11    1    1    2    0    0  0.17972910946E+02  0.29606057938E+02 -0.14082654673E+02  0.37388037621E+02  0.00000000000E+00 0.  1.
         11    1    1    2    0    0 -0.23707249941E+02 -0.26522637410E+02  0.47552443899E+02  0.59386184553E+02  0.00000000000E+00 0. -1.
</event>
<event>
 7    1  0.2670433E-009  0.1030423E+03  0.7561462E-02  0.1274026E+00
          1   -1    0    0  501    0  0.00000000000E+00  0.00000000000E+00  0.40195996869E+03  0.40195996869E+03  0.00000000000E+00 0. -1.
         -1   -1    0    0    0  501 -0.00000000000E+00 -0.00000000000E+00 -0.48309543505E+02  0.48309543505E+02  0.00000000000E+00 0.  1.
         25    2    1    2    0    0 -0.73319922274E+02  0.35302104229E+02  0.26435246019E+03  0.30356374981E+03  0.12508667964E+03 0.  0.
          5    1    3    3  502    0 -0.42750080382E+02  0.65758009116E+02  0.72553357423E+02  0.10692589588E+03  0.41800000000E+01 0. -1.
         -5    1    3    3    0  502 -0.30569841892E+02 -0.30455904887E+02  0.19179910277E+03  0.19663785393E+03  0.41800000000E+01 0. -1.
        -11    1    1    2    0    0  0.54333082177E+02 -0.14948169165E+02  0.10167204909E+03  0.11624429942E+03  0.00000000000E+00 0. -1.
         11    1    1    2    0    0  0.18986840097E+02 -0.20353935064E+02 -0.12374084094E+02  0.30461462976E+02  0.00000000000E+00 0.  1.
</event>
<event>
 7    1  0.2670433E-009  0.7630408E+02  0.7561462E-02  0.1339880E+00
         -1   -1    0    0    0  501 -0.00000000000E+00  0.00000000000E+00  0.57539248424E+02  0.57539248424E+02  0.00000000000E+00 0.  1.
          1   -1    0    0  501    0  0.00000000000E+00 -0.00000000000E+00 -0.22730040493E+03  0.22730040493E+03  0.00000000000E+00 0. -1.
         25    2    1    2    0    0  0.24389963771E+02  0.10207314801E+02 -0.61545905189E+02  0.14189807748E+03  0.12509239121E+03 0.  0.
          5    1    3    3  502    0 -0.71003245240E+01 -0.17568266291E+02 -0.89305165430E+02  0.91388968488E+02  0.41800000000E+01 0.  1.
         -5    1    3    3    0  502  0.31490288295E+02  0.27775581092E+02  0.27759260242E+02  0.50509108991E+02  0.41800000000E+01 0.  1.
        -11    1    1    2    0    0  0.27340410799E+02 -0.25163351546E+02 -0.60470134634E+02  0.70974146747E+02  0.00000000000E+00 0. -1.
         11    1    1    2    0    0 -0.51730374570E+02  0.14956036745E+02 -0.47745116686E+02  0.71967429130E+02  0.00000000000E+00 0.  1.
</event>
<event>
 7    1  0.2670433E-009  0.1297828E+03  0.7561462E-02  0.1227778E+00
          1   -1    0    0  501    0  0.00000000000E+00  0.00000000000E+00  0.19023651712E+03  0.19023651712E+03  0.00000000000E+00 0. -1.
         -1   -1    0    0    0  501 -0.00000000000E+00 -0.00000000000E+00 -0.10990832113E+03  0.10990832113E+03  0.00000000000E+00 0.  1.
         25    2    1    2    0    0  0.64524471661E+02 -0.25412904941E+02 -0.13613418706E+02  0.14367012677E+03  0.12508619819E+03 0.  0.
          5    1    3    3  502    0  0.89521117551E+02 -0.51074504023E+02  0.46239518476E+01  0.10325448552E+03  0.41800000000E+01 0. -1.
         -5    1    3    3    0  502 -0.24996645890E+02  0.25661599082E+02 -0.18237370553E+02  0.40415641253E+02  0.41800000000E+01 0. -1.
        -11    1    1    2    0    0  0.24845653223E+02  0.17980295594E+02  0.67645485736E+01  0.31406315147E+02  0.00000000000E+00 0.  1.
         11    1    1    2    0    0 -0.89370124883E+02  0.74326093467E+01  0.87177066119E+02  0.12506839633E+03  0.00000000000E+00 0. -1.
</event>
<event>
 7    1  0.2670433E-009  0.9394946E+02  0.7561462E-02  0.1293560E+00
          1   -1    0    0  501    0  0.00000000000E+00  0.00000000000E+00  0.24839500428E+03  0.24839500428E+03  0.00000000000E+00 0. -1.
         -1   -1    0    0    0  501 -0.00000000000E+00 -0.00000000000E+00 -0.56973212562E+02  0.56973212562E+02  0.00000000000E+00 0.  1.
         25    2    1    2    0    0  0.39429193671E+02  0.96897909443E+01  0.73723429266E+02  0.15076999895E+03  0.12509154727E+03 0.  0.
          5    1    3    3  502    0  0.88984508753E+01 -0.51573930287E+02  0.35045799054E+01  0.52619456416E+02  0.41800000000E+01 0. -1.
         -5    1    3    3    0  502  0.30530742796E+02  0.61263721231E+02  0.70218849360E+02  0.98150542537E+02  0.41800000000E+01 0. -1.
        -11    1    1    2    0    0 -0.11792794721E+02 -0.30188554193E+02  0.45861895335E+00  0.32413409924E+02  0.00000000000E+00 0.  1.
         11    1    1    2    0    0 -0.27636398951E+02  0.20498763248E+02  0.11723974350E+03  0.12218480796E+03  0.00000000000E+00 0. -1.
</event>
<event>
 7    1  0.2670433E-009  0.1113836E+03  0.7561462E-02  0.1258029E+00
         -2   -1    0    0    0  501 -0.00000000000E+00  0.00000000000E+00  0.43335744448E+02  0.43335744448E+02  0.00000000000E+00 0.  1.
          2   -1    0    0  501    0  0.00000000000E+00 -0.00000000000E+00 -0.30045906946E+03  0.30045906946E+03  0.00000000000E+00 0. -1.
         25    2    1    2    0    0 -0.13356827475E+02  0.28374435089E+02 -0.17148368196E+03  0.21456433410E+03  0.12509071461E+03 0.  0.
          5    1    3    3  502    0 -0.48900418254E+02  0.60535479975E+02 -0.12718258345E+03  0.14915990471E+03  0.41800000000E+01 0. -1.
         -5    1    3    3    0  502  0.35543590779E+02 -0.32161044886E+02 -0.44301098514E+02  0.65404429385E+02  0.41800000000E+01 0. -1.
        -11    1    1    2    0    0  0.29541586272E+02 -0.56792503811E+02 -0.54514091330E+02  0.84082578232E+02  0.00000000000E+00 0.  1.
         11    1    1    2    0    0 -0.16184758797E+02  0.28418068722E+02 -0.31125551719E+02  0.45147901579E+02  0.00000000000E+00 0. -1.
</event>
<event>
 7    1  0.2670433E-009  0.1106019E+03  0.7561462E-02  0.1259459E+00
         -1   -1    0    0    0  501 -0.00000000000E+00  0.00000000000E+00  0.10980918618E+03  0.10980918618E+03  0.00000000000E+00 0.  1.
          1   -1    0    0  501    0  0.00000000000E+00 -0.00000000000E+00 -0.18587859312E+03  0.18587859312E+03  0.00000000000E+00 0. -1.
         25    2    1    2    0    0 -0.66365174579E+02  0.11065051217E+02  0.25794534345E+02  0.14435963751E+03  0.12509026815E+03 0.  0.
          5    1    3    3  502    0 -0.99187249116E+02 -0.11418928621E+02  0.29477468803E+02  0.10418683163E+03  0.41800000000E+01 0.  1.
         -5    1    3    3    0  502  0.32822074537E+02  0.22483979838E+02 -0.36829344580E+01  0.40172805883E+02  0.41800000000E+01 0.  1.
        -11    1    1    2    0    0  0.38473573434E+02 -0.28939577251E+02 -0.43477327931E+01  0.48338574293E+02  0.00000000000E+00 0.  1.
         11    1    1    2    0    0  0.27891601145E+02  0.17874526034E+02 -0.97516208488E+02  0.10298956750E+03  0.00000000000E+00 0. -1.
</event>
<event>
 7    1  0.2670433E-009  0.8314437E+02  0.7561462E-02  0.1320358E+00
          1   -1    0    0  501    0  0.00000000000E+00  0.00000000000E+00  0.42334582368E+03  0.42334582368E+03  0.00000000000E+00 0. -1.
         -1   -1    0    0    0  501 -0.00000000000E+00 -0.00000000000E+00 -0.28807699749E+02  0.28807699749E+02  0.00000000000E+00 0.  1.
         25    2    1    2    0    0  0.25065925570E+02 -0.33429206010E+02  0.24702320431E+03  0.28002545534E+03  0.12509188516E+03 0.  0.
          5    1    3    3  502    0 -0.39523580809E+02 -0.37472078749E+01  0.17207501798E+03  0.17664495243E+03  0.41800000000E+01 0.  1.
         -5    1    3    3    0  502  0.64589506379E+02 -0.29681998135E+02  0.74948186324E+02  0.10338050290E+03  0.41800000000E+01 0.  1.
        -11    1    1    2    0    0 -0.34459553787E+02  0.27036475313E+02  0.15325984375E+03  0.15939577018E+03  0.00000000000E+00 0. -1.
         11    1    1    2    0    0  0.93936282172E+01  0.63927306970E+01 -0.57449241271E+01  0.12732297910E+02  0.00000000000E+00 0.  1.
</event>
<event>
 7    1  0.2670433E-009  0.8934237E+02  0.7561462E-02  0.1304452E+00
          1   -1    0    0  501    0  0.00000000000E+00  0.00000000000E+00  0.41172422276E+03  0.41172422276E+03  0.00000000000E+00 0. -1.
         -1   -1    0    0    0  501 -0.00000000000E+00 -0.00000000000E+00 -0.43264763598E+02  0.43264763598E+02  0.00000000000E+00 0.  1.
         25    2    1    2    0    0 -0.38686983547E+02  0.14365217277E+02  0.90486279875E+02  0.15980694663E+03  0.12508977249E+03 0.  0.
          5    1    3    3  502    0 -0.35540026563E+02 -0.22794467141E+02 -0.17190467354E+02  0.45778442396E+02  0.41800000000E+01 0. -1.
         -5    1    3    3    0  502 -0.31469569842E+01  0.37159684418E+02  0.10767674723E+03  0.11402850424E+03  0.41800000000E+01 0. -1.
        -11    1    1    2    0    0  0.24348106913E+02  0.37615588644E+02  0.14222260654E+03  0.14911415973E+03  0.00000000000E+00 0.  1.
         11    1    1    2    0    0  0.14338876634E+02 -0.51980805921E+02  0.13575057274E+03  0.14606788000E+03  0.00000000000E+00 0. -1.
</event>
<event>
 7    1  0.2670433E-009  0.8682665E+02  0.7561462E-02  0.1310724E+00
          2   -1    0    0  501    0  0.00000000000E+00  0.00000000000E+00  0.49356865566E+03  0.49356865566E+03  0.00000000000E+00 0.  1.
         -2   -1    0    0    0  501 -0.00000000000E+00 -0.00000000000E+00 -0.39197516008E+02  0.39197516008E+02  0.00000000000E+00 0. -1.
         25    2    1    2    0    0 -0.76076551280E+02 -0.28855460192E+02  0.18679068470E+03  0.23907869130E+03  0.12509029341E+03 0.  0.
          5    1    3    3  502    0 -0.23953221912E+02 -0.29668194030E+02  0.18263165438E+03  0.18661659133E+03  0.41800000000E+01 0. -1.
         -5    1    3    3    0  502 -0.52123329369E+02  0.81273383838E+00  0.41590303226E+01  0.52462099977E+02  0.41800000000E+01 0. -1.
        -11    1    1    2    0    0  0.34091386213E+02  0.21685766882E+02  0.23900698053E+03  0.24239808547E+03  0.00000000000E+00 0.  1.
         11    1    1    2    0    0  0.41985165067E+02  0.71696933102E+01  0.28573474420E+02  0.51289394892E+02  0.00000000000E+00 0. -1.
</event>
<event>
 7    1  0.2670433E-009  0.1840365E+03  0.7561462E-02  0.1163953E+00
         -1   -1    0    0    0  501 -0.00000000000E+00  0.00000000000E+00  0.20972402111E+03  0.20972402111E+03  0.00000000000E+00 0.  1.
          1   -1    0    0  501    0  0.00000000000E+00 -0.00000000000E+00 -0.38523902510E+03  0.38523902510E+03  0.00000000000E+00 0. -1.
         25    2    1    2    0    0 -0.22272217800E+02 -0.17951324589E+03 -0.28871674790E+03  0.36293940262E+03  0.12508633946E+03 0.  0.
          5    1    3    3  502    0 -0.73119572273E+01 -0.10620770624E+02 -0.12983371038E+03  0.13053938194E+03  0.41800000000E+01 0. -1.
         -5    1    3    3    0  502 -0.14960260573E+02 -0.16889247527E+03 -0.15888303752E+03  0.23240002067E+03  0.41800000000E+01 0. -1.
        -11    1    1    2    0    0  0.25864053795E+02  0.59897644209E+02 -0.28749695555E+01  0.65306527319E+02  0.00000000000E+00 0. -1.
         11    1    1    2    0    0 -0.35918359953E+01  0.11961560168E+03  0.11607671346E+03  0.16671711627E+03  0.00000000000E+00 0.  1.
</event>
<event>
 7    1  0.2670433E-009  0.1154551E+03  0.7561462E-02  0.1250789E+00
         -1   -1    0    0    0  501 -0.00000000000E+00  0.00000000000E+00  0.12727606830E+03  0.12727606830E+03  0.00000000000E+00 0.  1.
          1   -1    0    0  501    0  0.00000000000E+00 -0.00000000000E+00 -0.11966667939E+03  0.11966667939E+03  0.00000000000E+00 0. -1.
         25    2    1    2    0    0 -0.37802041131E+01 -0.56008726276E+02  0.45155926195E+02  0.14435045994E+03  0.12508689081E+03 0.  0.
          5    1    3    3  502    0 -0.60297659298E+02 -0.52779453055E+02  0.29142970485E+02  0.85371327214E+02  0.41800000000E+01 0. -1.
         -5    1    3    3    0  502  0.56517455185E+02 -0.32292732214E+01  0.16012955711E+02  0.58979132723E+02  0.41800000000E+01 0. -1.
        -11    1    1    2    0    0  0.24956445119E+02 -0.82187375755E+01 -0.19129779632E+02  0.32501081045E+02  0.00000000000E+00 0. -1.
         11    1    1    2    0    0 -0.21176241006E+02  0.64227463852E+02 -0.18416757654E+02  0.70091206713E+02  0.00000000000E+00 0.  1.
</event>
<event>
 7    1  0.2670433E-009  0.2021741E+03  0.7561462E-02  0.1147918E+00
          2   -1    0    0  501    0  0.00000000000E+00  0.00000000000E+00  0.13020724231E+03  0.13020724231E+03  0.00000000000E+00 0. -1.
         -2   -1    0    0    0  501 -0.00000000000E+00 -0.00000000000E+00 -0.34952277239E+03  0.34952277239E+03  0.00000000000E+00 0.  1.
         25    2    1    2    0    0 -0.11282590443E+03 -0.14447841992E+03 -0.11600564695E+03  0.25041305610E+03  0.12508273266E+03 0.  0.
          5    1    3    3  502    0 -0.10774939835E+02 -0.92220685751E+02 -0.96605474951E+02  0.13405537811E+03  0.41800000000E+01 0.  1.
         -5    1    3    3    0  502 -0.10205096459E+03 -0.52257734167E+02 -0.19400171995E+02  0.11635767799E+03  0.41800000000E+01 0.  1.
        -11    1    1    2    0    0  0.16393068522E+02  0.77625042584E+02 -0.11159975327E+02  0.80118193820E+02  0.00000000000E+00 0. -1.
         11    1    1    2    0    0  0.96432835907E+02  0.66853377333E+02 -0.92149907804E+02  0.14919876477E+03  0.00000000000E+00 0.  1.
</event>
<event>
 7    1  0.2670433E-009  0.7521563E+02  0.7561462E-02  0.1343205E+00
         -2   -1    0    0    0  501 -0.00000000000E+00  0.00000000000E+00  0.96964303184E+02  0.96964303184E+02  0.00000000000E+00 0.  1.
          2   -1    0    0  501    0  0.00000000000E+00 -0.00000000000E+00 -0.14428387336E+03  0.14428387336E+03  0.00000000000E+00 0. -1.
         25    2    1    2    0    0  0.49671045406E+02 -0.20160726049E+00 -0.13277569864E+02  0.13524524442E+03  0.12509088247E+03 0.  0.
          5    1    3    3  502    0  0.47331705521E+02 -0.10870112509E+02 -0.65546555398E+02  0.81683982629E+02  0.41800000000E+01 0.  1.
         -5    1    3    3    0  502  0.23393398853E+01  0.10668505249E+02  0.52268985535E+02  0.53561261787E+02  0.41800000000E+01 0.  1.
        -11    1    1    2    0    0 -0.69371298638E+02 -0.52000497599E+01 -0.40090215561E+01  0.69681345036E+02  0.00000000000E+00 0. -1.
         11    1    1    2    0    0  0.19700253231E+02  0.54016570203E+01 -0.30032978751E+02  0.36321587089E+02  0.00000000000E+00 0.  1.
</event>
<event>
 7    1  0.2670433E-009  0.1147173E+03  0.7561462E-02  0.1252075E+00
          1   -1    0    0  501    0  0.00000000000E+00  0.00000000000E+00  0.11274981381E+03  0.11274981381E+03  0.00000000000E+00 0. -1.
         -1   -1    0    0    0  501 -0.00000000000E+00 -0.00000000000E+00 -0.14473721126E+03  0.14473721126E+03  0.00000000000E+00 0.  1.
         25    2    1    2    0    0 -0.63444142877E+02  0.62636117310E+01 -0.45469693830E+02  0.14758449738E+03  0.12509715709E+03 0.  0.
          5    1    3    3  502    0 -0.99401876158E+02 -0.10997682076E+02 -0.28829992399E+02  0.10416488303E+03  0.41800000000E+01 0. -1.
         -5    1    3    3    0  502  0.35957733281E+02  0.17261293807E+02 -0.16639701431E+02  0.43419614350E+02  0.41800000000E+01 0. -1.
        -11    1    1    2    0    0  0.13794502166E+02  0.26411820257E+02  0.35652941922E+02  0.46465092349E+02  0.00000000000E+00 0. -1.
         11    1    1    2    0    0  0.49649640711E+02 -0.32675431988E+02 -0.22170645549E+02  0.63437435339E+02  0.00000000000E+00 0.  1.
</event>
<event>
 7    1  0.2670433E-009  0.5760858E+02  0.7561462E-02  0.1408151E+00
          2   -1    0    0  501    0  0.00000000000E+00  0.00000000000E+00  0.10752330727E+04  0.10752330727E+04  0.00000000000E+00 0.  1.
         -2   -1    0    0    0  501 -0.00000000000E+00 -0.00000000000E+00 -0.20075694763E+02  0.20075694763E+02  0.00000000000E+00 0. -1.
         25    2    1    2    0    0 -0.19653398015E+02  0.26434463721E+02  0.91964746374E+03  0.92870002732E+03  0.12508895339E+03 0.  0.
          5    1    3    3  502    0 -0.90167282932E+01  0.42024578861E+02  0.10125276676E+03  0.11007707207E+03  0.41800000000E+01 0.  1.
         -5    1    3    3    0  502 -0.10636669722E+02 -0.15590115140E+02  0.81839469697E+03  0.81862295525E+03  0.41800000000E+01 0.  1.
        -11    1    1    2    0    0  0.29350569341E+02 -0.58205645434E+01  0.14019371019E+03  0.14335135601E+03  0.00000000000E+00 0.  1.
         11    1    1    2    0    0 -0.96971713259E+01 -0.20613899178E+02 -0.46837960079E+01  0.23257384119E+02  0.00000000000E+00 0. -1.
</event>
<event>
 7    1  0.4003080E-009  0.1188275E+03  0.7561462E-02  0.1245044E+00
         -2   -1    0    0    0  501 -0.00000000000E+00  0.00000000000E+00  0.17956069246E+03  0.17956069246E+03  0.00000000000E+00 0.  1.
          2   -1    0    0  501    0  0.00000000000E+00 -0.00000000000E+00 -0.13954869972E+03  0.13954869972E+03  0.00000000000E+00 0. -1.
         25    2    1    2    0    0  0.90516899880E+02  0.53990941229E+02  0.67088894495E+02  0.17680548691E+03  0.12510367516E+03 0.  0.
          5    1    3    3  502    0  0.18783925081E+02  0.35609718139E+02  0.90409793788E+02  0.99057009243E+02  0.41800000000E+01 0. -1.
         -5    1    3    3    0  502  0.71732974799E+02  0.18381223090E+02 -0.23320899293E+02  0.77748477668E+02  0.41800000000E+01 0. -1.
        -11    1    1    2    0    0 -0.58694873954E+02  0.18656840197E+01  0.20638272613E+02  0.62245540416E+02  0.00000000000E+00 0.  1.
         11    1    1    2    0    0 -0.31822025926E+02 -0.55856625249E+02 -0.47715174367E+02  0.80058364854E+02  0.00000000000E+00 0. -1.
</event>
<event>
 7    1  0.2670433E-009  0.1265690E+03  0.7561462E-02  0.1232637E+00
          2   -1    0    0  501    0  0.00000000000E+00  0.00000000000E+00  0.82524449668E+03  0.82524449668E+03  0.00000000000E+00 0.  1.
         -2   -1    0    0    0  501 -0.00000000000E+00 -0.00000000000E+00 -0.21829553709E+02  0.21829553709E+02  0.00000000000E+00 0. -1.
         25    2    1    2    0    0  0.42090007942E+02  0.45997795639E+02  0.54222015413E+03  0.55993990553E+03  0.12507052527E+03 0.  0.
          5    1    3    3  502    0  0.21156586926E+02  0.88131846823E+02  0.31203312298E+03  0.32495686765E+03  0.41800000000E+01 0. -1.
         -5    1    3    3    0  502  0.20933421016E+02 -0.42134051183E+02  0.23018703114E+03  0.23498303788E+03  0.41800000000E+01 0. -1.
        -11    1    1    2    0    0 -0.31495696429E+02 -0.76582059720E+02  0.15016474535E+03  0.17148248164E+03  0.00000000000E+00 0. -1.
         11    1    1    2    0    0 -0.10594311513E+02  0.30584264081E+02  0.11103004349E+03  0.11565166321E+03  0.00000000000E+00 0.  1.
</event>
<event>
 7    1  0.2670433E-009  0.1098753E+03  0.7561462E-02  0.1260801E+00
          2   -1    0    0  501    0  0.00000000000E+00  0.00000000000E+00  0.23758477820E+03  0.23758477820E+03  0.00000000000E+00 0. -1.
         -2   -1    0    0    0  501 -0.00000000000E+00 -0.00000000000E+00 -0.10891799390E+03  0.10891799390E+03  0.00000000000E+00 0.  1.
         25    2    1    2    0    0 -0.51055445562E+02  0.61211826437E+02 -0.24982129554E+02  0.15041528222E+03  0.12508838520E+03 0.  0.
          5    1    3    3  502    0 -0.33319290686E+02 -0.27401708340E+02  0.21857330353E+02  0.48541158226E+02  0.41800000000E+01 0.  1.
         -5    1    3    3    0  502 -0.17736154876E+02  0.88613534777E+02 -0.46839459907E+02  0.10187412400E+03  0.41800000000E+01 0.  1.
        -11    1    1    2    0    0  0.52690686691E+02 -0.43984188430E+02  0.16268085568E+03  0.17656720562E+03  0.00000000000E+00 0. -1.
         11    1    1    2    0    0 -0.16352411290E+01 -0.17227638007E+02 -0.90319418182E+01  0.19520284267E+02  0.00000000000E+00 0.  1.
</event>
<event>
 7    1  0.2670433E-009  0.1030252E+03  0.7561462E-02  0.1274060E+00
         -3   -1    0    0    0  501 -0.00000000000E+00  0.00000000000E+00  0.72013941327E+02  0.72013941327E+02  0.00000000000E+00 0.  1.
          3   -1    0    0  501    0  0.00000000000E+00 -0.00000000000E+00 -0.17901029821E+03  0.17901029821E+03  0.00000000000E+00 0. -1.
         25    2    1    2    0    0  0.10546119928E+02 -0.13450529839E+02 -0.30098548328E+02  0.12978846398E+03  0.12508791057E+03 0.  0.
          5    1    3    3  502    0  0.59899609780E+02 -0.22393705114E+02 -0.43803132739E+02  0.77624919442E+02  0.41800000000E+01 0. -1.
         -5    1    3    3    0  502 -0.49353489852E+02  0.89431752753E+01  0.13704584412E+02  0.52163544535E+02  0.41800000000E+01 0. -1.
        -11    1    1    2    0    0  0.33932519208E+02 -0.16779883965E+02 -0.44616711893E+02  0.58511805184E+02  0.00000000000E+00 0.  1.
         11    1    1    2    0    0 -0.44478639136E+02  0.30230413804E+02 -0.32281096664E+02  0.62723970378E+02  0.00000000000E+00 0. -1.
</event>
<event>
 7    1  0.2670433E-009  0.7702804E+02  0.7561462E-02  0.1337703E+00
          2   -1    0    0  501    0  0.00000000000E+00  0.00000000000E+00  0.47298270390E+03  0.47298270390E+03  0.00000000000E+00 0. -1.
         -2   -1    0    0    0  501 -0.00000000000E+00 -0.00000000000E+00 -0.29792106184E+02  0.29792106184E+02  0.00000000000E+00 0.  1.
         25    2    1    2    0    0 -0.44466643831E+01 -0.27423414060E+01  0.35395187297E+03  0.37544296121E+03  0.12509274752E+03 0.  0.
          5    1    3    3  502    0  0.27276914381E+02  0.40620536220E+02  0.27806303806E+03  0.28236604533E+03  0.41800000000E+01 0.  1.
         -5    1    3    3    0  502 -0.31723578764E+02 -0.43362877626E+02  0.75888834914E+02  0.93076915882E+02  0.41800000000E+01 0.  1.
        -11    1    1    2    0    0  0.24811879672E+02  0.13264821429E+02  0.98626454789E+02  0.10256101815E+03  0.00000000000E+00 0. -1.
         11    1    1    2    0    0 -0.20365215289E+02 -0.10522480023E+02 -0.93877300378E+01  0.24770830726E+02  0.00000000000E+00 0.  1.
</event>
<event>
 7    1  0.2670433E-009  0.5479202E+02  0.7561462E-02  0.1421085E+00
         -3   -1    0    0    0  501 -0.00000000000E+00  0.00000000000E+00  0.98547294187E+02  0.98547294187E+02  0.00000000000E+00 0.  1.
          3   -1    0    0  501    0  0.00000000000E+00 -0.00000000000E+00 -0.12718980586E+03  0.12718980586E+03  0.00000000000E+00 0. -1.
         25    2    1    2    0    0  0.38887400586E+02 -0.96277365946E+01 -0.45702037823E+02  0.13907324773E+03  0.12509104179E+03 0.  0.
          5    1    3    3  502    0 -0.14086507904E+02 -0.40082304241E+01  0.37338888808E+02  0.40325682059E+02  0.41800000000E+01 0.  1.
         -5    1    3    3    0  502  0.52973908491E+02 -0.56195061705E+01 -0.83040926632E+02  0.98747565672E+02  0.41800000000E+01 0.  1.
        -11    1    1    2    0    0 -0.13912076837E+02  0.76213582317E+01 -0.29668023480E+02  0.33642571252E+02  0.00000000000E+00 0. -1.
         11    1    1    2    0    0 -0.24975323749E+02  0.20063783629E+01  0.46727549634E+02  0.53021281061E+02  0.00000000000E+00 0.  1.
</event>
<event>
 7    1  0.2670433E-009  0.1204969E+03  0.7561462E-02  0.1242280E+00
         -2   -1    0    0    0  501 -0.00000000000E+00  0.00000000000E+00  0.31376628083E+02  0.31376628083E+02  0.00000000000E+00 0.  1.
          2   -1    0    0  501    0  0.00000000000E+00 -0.00000000000E+00 -0.58052819655E+03  0.58052819655E+03  0.00000000000E+00 0. -1.
         25    2    1    2    0    0  0.51003177875E+02  0.20385617514E+02 -0.44035932460E+03  0.46106497798E+03  0.12509069351E+03 0.  0.
          5    1    3    3  502    0  0.52289387743E+02 -0.46173969921E+02 -0.22032623282E+03  0.23114354163E+03  0.41800000000E+01 0.  1.
         -5    1    3    3    0  502 -0.12862098685E+01  0.66559587435E+02 -0.22003309177E+03  0.22992143635E+03  0.41800000000E+01 0.  1.
        -11    1    1    2    0    0 -0.72664095316E+02 -0.32486539668E+02 -0.85355887871E+02  0.11670935525E+03  0.00000000000E+00 0. -1.
         11    1    1    2    0    0  0.21660917441E+02  0.12100922154E+02 -0.23436356002E+02  0.34130491412E+02  0.00000000000E+00 0.  1.
</event>
<event>
 7    1  0.2670433E-009  0.1125146E+03  0.7561462E-02  0.1255983E+00
         -1   -1    0    0    0  501 -0.00000000000E+00  0.00000000000E+00  0.15769865919E+03  0.15769865919E+03  0.00000000000E+00 0.  1.
          1   -1    0    0  501    0  0.00000000000E+00 -0.00000000000E+00 -0.11482381550E+03  0.11482381550E+03  0.00000000000E+00 0. -1.
         25    2    1    2    0    0 -0.77641355810E+02 -0.15881277765E+02  0.45539015570E+02  0.15492514811E+03  0.12509038517E+03 0.  0.
          5    1    3    3  502    0 -0.90661582847E+02 -0.43595205519E+02  0.63638658392E+02  0.11911093900E+03  0.41800000000E+01 0. -1.
         -5    1    3    3    0  502  0.13020227037E+02  0.27713927755E+02 -0.18099642822E+02  0.35814209107E+02  0.41800000000E+01 0. -1.
        -11    1    1    2    0    0  0.21010317631E+02 -0.17811264138E+02  0.32746052441E+02  0.42789934887E+02  0.00000000000E+00 0.  1.
         11    1    1    2    0    0  0.56631038179E+02  0.33692541903E+02 -0.35410224321E+02  0.74807391691E+02  0.00000000000E+00 0. -1.
</event>
<event>
 7    1  0.2670433E-009  0.2306232E+03  0.7561462E-02  0.1126202E+00
          3   -1    0    0  501    0  0.00000000000E+00  0.00000000000E+00  0.40872126476E+02  0.40872126476E+02  0.00000000000E+00 0. -1.
         -3   -1    0    0    0  501 -0.00000000000E+00 -0.00000000000E+00 -0.16996276000E+04  0.16996276000E+04  0.00000000000E+00 0.  1.
         25    2    1    2    0    0 -0.39454978472E+02  0.20458396278E+03 -0.12435816799E+04  0.12671046192E+04  0.12508968133E+03 0.  0.
          5    1    3    3  502    0  0.19377777818E+02  0.16501800795E+03 -0.73299815216E+03  0.75160508559E+03  0.41800000000E+01 0. -1.
         -5    1    3    3    0  502 -0.58832756290E+02  0.39565954830E+02 -0.51058352769E+03  0.51549953361E+03  0.41800000000E+01 0. -1.
        -11    1    1    2    0    0  0.20104192572E+02 -0.20365624479E+03 -0.39788792276E+03  0.44743138432E+03  0.00000000000E+00 0.  1.
         11    1    1    2    0    0  0.19350785900E+02 -0.92771799520E+00 -0.17285870871E+02  0.25963722911E+02  0.00000000000E+00 0. -1.
</event>
<event>
 7    1  0.2670433E-009  0.1917402E+03  0.7561462E-02  0.1156901E+00
         -4   -1    0    0    0  501 -0.00000000000E+00  0.00000000000E+00  0.79131263440E+02  0.79131263440E+02  0.00000000000E+00 0.  1.
          4   -1    0    0  501    0  0.00000000000E+00 -0.00000000000E+00 -0.62711302796E+03  0.62711302796E+03  0.00000000000E+00 0. -1.
         25    2    1    2    0    0 -0.16240951646E+03 -0.52154201546E+02 -0.42971704582E+03  0.47895866877E+03  0.12509098747E+03 0.  0.
          5    1    3    3  502    0 -0.12604921304E+03  0.12933051244E+02 -0.33605083033E+03  0.35917029511E+03  0.41800000000E+01 0.  1.
         -5    1    3    3    0  502 -0.36360303418E+02 -0.65087252790E+02 -0.93666215486E+02  0.11978837366E+03  0.41800000000E+01 0.  1.
        -11    1    1    2    0    0  0.13744177958E+03  0.67082037569E+02 -0.64150241063E+02  0.16584780965E+03  0.00000000000E+00 0.  1.
         11    1    1    2    0    0  0.24967736887E+02 -0.14927836023E+02 -0.54114477639E+02  0.61437812979E+02  0.00000000000E+00 0. -1.
</event>
<event>
 7    1  0.2688788E-009  0.1706161E+03  0.7561462E-02  0.1177207E+00
          2   -1    0    0  501    0  0.00000000000E+00  0.00000000000E+00  0.28113492173E+03  0.28113492173E+03  0.00000000000E+00 0. -1.
         -2   -1    0    0    0  501 -0.00000000000E+00 -0.00000000000E+00 -0.14674894489E+03  0.14674894489E+03  0.00000000000E+00 0.  1.
         25    2    1    2    0    0 -0.16228983547E+03 -0.35202244555E+01  0.12902745337E+02  0.20534154861E+03  0.12509311761E+03 0.  0.
          5    1    3    3  502    0 -0.14703442792E+03  0.10268861192E+02 -0.36297052531E+02  0.15185361677E+03  0.41800000000E+01 0. -1.
         -5    1    3    3    0  502 -0.15255407546E+02 -0.13789085647E+02  0.49199797868E+02  0.53487931841E+02  0.41800000000E+01 0. -1.
        -11    1    1    2    0    0  0.13856114837E+03 -0.19271076741E+02  0.12728316641E+03  0.18913373757E+03  0.00000000000E+00 0. -1.
         11    1    1    2    0    0  0.23728687099E+02  0.22791301197E+02 -0.57999349046E+01  0.33408580433E+02  0.00000000000E+00 0.  1.
</event>
<event>
 7    1  0.2670433E-009  0.1064818E+03  0.7561462E-02  0.1267227E+00
          2   -1    0    0  501    0  0.00000000000E+00  0.00000000000E+00  0.72175364921E+02  0.72175364921E+02  0.00000000000E+00 0. -1.
         -2   -1    0    0    0  501 -0.00000000000E+00 -0.00000000000E+00 -0.17310669286E+03  0.17310669286E+03  0.00000000000E+00 0.  1.
         25    2    1    2    0    0  0.12384204665E+02  0.20886311591E+02 -0.43255178827E+02  0.13455899338E+03  0.12508199577E+03 0.  0.
          5    1    3    3  502    0  0.51134195713E+02 -0.25981884098E+02 -0.45847798168E+02  0.73547653052E+02  0.41800000000E+01 0. -1.
         -5    1    3    3    0  502 -0.38749991048E+02  0.46868195689E+02  0.25926193416E+01  0.61011340327E+02  0.41800000000E+01 0. -1.
        -11    1    1    2    0    0 -0.49791580920E+02  0.33860356479E+01 -0.29437763887E+02  0.57941769999E+02  0.00000000000E+00 0.  1.
         11    1    1    2    0    0  0.37407376256E+02 -0.24272347239E+02 -0.28238385224E+02  0.52781294403E+02  0.00000000000E+00 0. -1.
</event>
<event>
 7    1  0.2670433E-009  0.9859168E+02  0.7561462E-02  0.1283286E+00
         -2   -1    0    0    0  501 -0.00000000000E+00  0.00000000000E+00  0.68122143757E+02  0.68122143757E+02  0.00000000000E+00 0. -1.
          2   -1    0    0  501    0  0.00000000000E+00 -0.00000000000E+00 -0.27569696809E+03  0.27569696809E+03  0.00000000000E+00 0.  1.
         25    2    1    2    0    0 -0.74790553892E+02  0.32762479234E+02 -0.95813483909E+02  0.17746078100E+03  0.12508036656E+03 0.  0.
          5    1    3    3  502    0 -0.67553357398E+02 -0.70534852931E+01  0.55128246794E+01  0.68272039566E+02  0.41800000000E+01 0. -1.
         -5    1    3    3    0  502 -0.72371964939E+01  0.39815964527E+02 -0.10132630859E+03  0.10918874144E+03  0.41800000000E+01 0. -1.
        -11    1    1    2    0    0  0.57865710815E+02 -0.39683157612E+02 -0.20237314912E+02  0.73025628385E+02  0.00000000000E+00 0. -1.
         11    1    1    2    0    0  0.16924843077E+02  0.69206783783E+01 -0.91524025508E+02  0.93332702455E+02  0.00000000000E+00 0.  1.
</event>
<event>
 7    1  0.2670433E-009  0.7438500E+02  0.7561462E-02  0.1345786E+00
          1   -1    0    0  501    0  0.00000000000E+00  0.00000000000E+00  0.47733657567E+03  0.47733657567E+03  0.00000000000E+00 0. -1.
         -1   -1    0    0    0  501 -0.00000000000E+00 -0.00000000000E+00 -0.38938828503E+02  0.38938828503E+02  0.00000000000E+00 0.  1.
         25    2    1    2    0    0  0.20516891564E+01 -0.75122346261E+01  0.39637155391E+03  0.41571422714E+03  0.12508903549E+03 0.  0.
          5    1    3    3  502    0  0.18916470606E+02 -0.27871526548E+02  0.38522979949E+03  0.38672228494E+03  0.41800000000E+01 0. -1.
         -5    1    3    3    0  502 -0.16864781449E+02  0.20359291921E+02  0.11141754415E+02  0.28991942197E+02  0.41800000000E+01 0. -1.
        -11    1    1    2    0    0 -0.37361915879E+02  0.28494305252E+02  0.35681806784E+02  0.59000250214E+02  0.00000000000E+00 0.  1.
         11    1    1    2    0    0  0.35310226723E+02 -0.20982070626E+02  0.63443864810E+01  0.41560926828E+02  0.00000000000E+00 0. -1.
</event>
<event>
 7    1  0.2670433E-009  0.1195459E+03  0.7561462E-02  0.1243848E+00
         -1   -1    0    0    0  501 -0.00000000000E+00  0.00000000000E+00  0.66064549611E+02  0.66064549611E+02  0.00000000000E+00 0.  1.
          1   -1    0    0  501    0  0.00000000000E+00 -0.00000000000E+00 -0.33546608093E+03  0.33546608093E+03  0.00000000000E+00 0. -1.
         25    2    1    2    0    0  0.19820646646E+02  0.65269862995E+02 -0.23384641496E+03  0.27383174023E+03  0.12508662246E+03 0.  0.
          5    1    3    3  502    0  0.49857233194E+02  0.78765736067E+02 -0.10362665677E+03  0.13944798770E+03  0.41800000000E+01 0. -1.
         -5    1    3    3    0  502 -0.30036586547E+02 -0.13495873072E+02 -0.13021975819E+03  0.13438375253E+03  0.41800000000E+01 0. -1.
        -11    1    1    2    0    0  0.24619499577E+02  0.88518695341E+01 -0.31820782134E+02  0.41195115357E+02  0.00000000000E+00 0. -1.
         11    1    1    2    0    0 -0.44440146223E+02 -0.74121732530E+02 -0.37343342268E+01  0.86503774956E+02  0.00000000000E+00 0.  1.
</event>
<event>
 7    1  0.2670433E-009  0.1088551E+03  0.7561462E-02  0.1262705E+00
         -2   -1    0    0    0  501 -0.00000000000E+00  0.00000000000E+00  0.22543354783E+02  0.22543354783E+02  0.00000000000E+00 0.  1.
          2   -1    0    0  501    0  0.00000000000E+00 -0.00000000000E+00 -0.65668451884E+03  0.65668451884E+03  0.00000000000E+00 0. -1.
         25    2    1    2    0    0 -0.13589546997E+02  0.39183061276E+02 -0.46933627345E+03  0.48748711909E+03  0.12508863106E+03 0.  0.
          5    1    3    3  502    0 -0.47410051139E+02  0.69291426749E+02 -0.25933918442E+03  0.27262299929E+03  0.41800000000E+01 0.  1.
         -5    1    3    3    0  502  0.33820504142E+02 -0.30108365472E+02 -0.20999708904E+03  0.21486411980E+03  0.41800000000E+01 0.  1.
        -11    1    1    2    0    0  0.45759684741E+02 -0.30008653285E+02 -0.13933535485E+03  0.14969572181E+03  0.00000000000E+00 0.  1.
         11    1    1    2    0    0 -0.32170137744E+02 -0.91744079912E+01 -0.25469535753E+02  0.42045032714E+02  0.00000000000E+00 0. -1.
</event>
<event>
 7    1  0.2670433E-009  0.2109950E+03  0.7561462E-02  0.1140780E+00
          1   -1    0    0  501    0  0.00000000000E+00  0.00000000000E+00  0.51382924812E+03  0.51382924812E+03  0.00000000000E+00 0. -1.
         -1   -1    0    0    0  501 -0.00000000000E+00 -0.00000000000E+00 -0.11605267516E+03  0.11605267516E+03  0.00000000000E+00 0.  1.
         25    2    1    2    0    0 -0.13654540655E+03 -0.12944902756E+03  0.34686577572E+03  0.41396210531E+03  0.12508820679E+03 0.  0.
          5    1    3    3  502    0 -0.14166439797E+02  0.17959942494E+02  0.78679279602E+01  0.24548406085E+02  0.41800000000E+01 0.  1.
         -5    1    3    3    0  502 -0.12237896675E+03 -0.14740897005E+03  0.33899784776E+03  0.38941369922E+03  0.41800000000E+01 0.  1.
        -11    1    1    2    0    0  0.50508176972E+02  0.10678985487E+03  0.46133791995E+02  0.12682064425E+03  0.00000000000E+00 0. -1.
         11    1    1    2    0    0  0.86037229574E+02  0.22659172691E+02  0.47770052516E+01  0.89099173728E+02  0.00000000000E+00 0.  1.
</event>
<event>
 7    1  0.2670433E-009  0.2206906E+03  0.7561462E-02  0.1133369E+00
          2   -1    0    0  501    0  0.00000000000E+00  0.00000000000E+00  0.24185706483E+03  0.24185706483E+03  0.00000000000E+00 0. -1.
         -2   -1    0    0    0  501 -0.00000000000E+00 -0.00000000000E+00 -0.21810902180E+03  0.21810902180E+03  0.00000000000E+00 0.  1.
         25    2    1    2    0    0  0.18330419107E+03 -0.88223433286E+02  0.14091118214E+02  0.23922686425E+03  0.12508849795E+03 0.  0.
          5    1    3    3  502    0 -0.83284081556E+00 -0.29321215187E+02  0.33686441600E+02  0.44862858040E+02  0.41800000000E+01 0. -1.
         -5    1    3    3    0  502  0.18413703189E+03 -0.58902218099E+02 -0.19595323386E+02  0.19436400621E+03  0.41800000000E+01 0. -1.
        -11    1    1    2    0    0 -0.37444506664E+02 -0.14309996587E+02 -0.10147932474E+02  0.41350303688E+02  0.00000000000E+00 0.  1.
         11    1    1    2    0    0 -0.14585968441E+03  0.10253342987E+03  0.19804857286E+02  0.17938891869E+03  0.00000000000E+00 0. -1.
</event>
<event>
 7    1  0.2670433E-009  0.9651946E+02  0.7561462E-02  0.1287790E+00
          1   -1    0    0  501    0  0.00000000000E+00  0.00000000000E+00  0.27703641743E+02  0.27703641743E+02  0.00000000000E+00 0. -1.
         -1   -1    0    0    0  501 -0.00000000000E+00 -0.00000000000E+00 -0.42289165294E+03  0.42289165294E+03  0.00000000000E+00 0.  1.
         25    2    1    2    0    0 -0.16688687724E+02  0.93524630330E+01 -0.26758604930E+03  0.29600298111E+03  0.12509792236E+03 0.  0.
          5    1    3    3  502    0  0.40861005288E+02 -0.14389859989E+02 -0.36999613435E+02  0.57123844566E+02  0.41800000000E+01 0. -1.
         -5    1    3    3    0  502 -0.57549693012E+02  0.23742323022E+02 -0.23058643587E+03  0.23887913654E+03  0.41800000000E+01 0. -1.
        -11    1    1    2    0    0  0.25866149573E+02  0.34049597653E+02 -0.67172893317E+02  0.79628075392E+02  0.00000000000E+00 0.  1.
         11    1    1    2    0    0 -0.91774618485E+01 -0.43402060686E+02 -0.60429068581E+02  0.74964238189E+02  0.00000000000E+00 0. -1.
</event>
<event>
 7    1  0.2670433E-009  0.2334455E+03  0.7561462E-02  0.1124238E+00
          2   -1    0    0  501    0  0.00000000000E+00  0.00000000000E+00  0.43761188788E+03  0.43761188788E+03  0.00000000000E+00 0. -1.
         -2   -1    0    0    0  501 -0.00000000000E+00 -0.00000000000E+00 -0.15491112745E+03  0.15491112745E+03  0.00000000000E+00 0.  1.
         25    2    1    2    0    0  0.10660868207E+03 -0.18004821186E+03  0.19754809720E+02  0.24458243817E+03  0.12509015497E+03 0.  0.
          5    1    3    3  502    0  0.49265214652E+02 -0.17442958417E+03 -0.58433132458E+01  0.18139558406E+03  0.41800000000E+01 0.  1.
         -5    1    3    3    0  502  0.57343467421E+02 -0.56186276887E+01  0.25598122966E+02  0.63186854110E+02  0.41800000000E+01 0.  1.
        -11    1    1    2    0    0 -0.80253336155E+02  0.18440097895E+03  0.23427767624E+03  0.30875613125E+03  0.00000000000E+00 0.  1.
         11    1    1    2    0    0 -0.26355345918E+02 -0.43527670933E+01  0.28668274471E+02  0.39184445907E+02  0.00000000000E+00 0. -1.
</event>
<event>
 7    1  0.2670433E-009  0.1215983E+03  0.7561462E-02  0.1240483E+00
          1   -1    0    0  501    0  0.00000000000E+00  0.00000000000E+00  0.15723398150E+03  0.15723398150E+03  0.00000000000E+00 0. -1.
         -1   -1    0    0    0  501 -0.00000000000E+00 -0.00000000000E+00 -0.14680021297E+03  0.14680021297E+03  0.00000000000E+00 0.  1.
         25    2    1    2    0    0 -0.93594168208E+02 -0.40889420374E+02 -0.26026128033E+02  0.16357539018E+03  0.12509091058E+03 0.  0.
          5    1    3    3  502    0 -0.94532986079E+02  0.96073577644E+00 -0.57772950182E+02  0.11087197411E+03  0.41800000000E+01 0.  1.
         -5    1    3    3    0  502  0.93881787086E+00 -0.41850156151E+02  0.31746822150E+02  0.52703416070E+02  0.41800000000E+01 0.  1.
        -11    1    1    2    0    0  0.43054181253E+02  0.26766017275E+01 -0.26913618726E+02  0.50844563064E+02  0.00000000000E+00 0.  1.
         11    1    1    2    0    0  0.50539986955E+02  0.38212818647E+02  0.63373515295E+02  0.89614241230E+02  0.00000000000E+00 0. -1.
</event>
<event>
 7    1  0.2670433E-009  0.1085644E+03  0.7561462E-02  0.1263252E+00
          2   -1    0    0  501    0  0.00000000000E+00  0.00000000000E+00  0.63825393589E+03  0.63825393589E+03  0.00000000000E+00 0. -1.
         -2   -1    0    0    0  501 -0.00000000000E+00 -0.00000000000E+00 -0.59848647421E+02  0.59848647421E+02  0.00000000000E+00 0.  1.
         25    2    1    2    0    0 -0.32282453311E+02 -0.42160551510E+02  0.57551730241E+03  0.59134370924E+03  0.12509016025E+03 0.  0.
          5    1    3    3  502    0 -0.19342849156E+02  0.34887930003E+02  0.35692158941E+03  0.35916821527E+03  0.41800000000E+01 0.  1.
         -5    1    3    3    0  502 -0.12939604156E+02 -0.77048481513E+02  0.21859571300E+03  0.23217549397E+03  0.41800000000E+01 0.  1.
        -11    1    1    2    0    0  0.42730801878E+02 -0.11387412758E+02  0.21423802219E+02  0.49138313971E+02  0.00000000000E+00 0. -1.
         11    1    1    2    0    0 -0.10448348567E+02  0.53547964268E+02 -0.18535816161E+02  0.57620560096E+02  0.00000000000E+00 0.  1.
</event>
<event>
 7    1  0.2670433E-009  0.1226725E+03  0.7561462E-02  0.1238752E+00
         -1   -1    0    0    0  501 -0.00000000000E+00  0.00000000000E+00  0.12522197704E+02  0.12522197704E+02  0.00000000000E+00 0.  1.
          1   -1    0    0  501    0  0.00000000000E+00 -0.00000000000E+00 -0.23845068189E+04  0.23845068189E+04  0.00000000000E+00 0. -1.
         25    2    1    2    0    0 -0.10332145918E+03 -0.14863694920E+02 -0.18364958639E+04  0.18437085525E+04  0.12509162774E+03 0.  0.
          5    1    3    3  502    0 -0.13121081102E+02  0.26704809074E+01 -0.12470386540E+04  0.12471175451E+04  0.41800000000E+01 0.  1.
         -5    1    3    3    0  502 -0.90200378081E+02 -0.17534175828E+02 -0.58945720982E+03  0.59659100742E+03  0.41800000000E+01 0.  1.
        -11    1    1    2    0    0  0.10761362682E+02 -0.33297758153E+02 -0.13245199211E+03  0.13699663441E+03  0.00000000000E+00 0.  1.
         11    1    1    2    0    0  0.92560096502E+02  0.48161453073E+02 -0.40303676519E+03  0.41632382963E+03  0.00000000000E+00 0. -1.
</event>
<event>
 7    1  0.2670433E-009  0.8587901E+02  0.7561462E-02  0.1313150E+00
          2   -1    0    0  501    0  0.00000000000E+00  0.00000000000E+00  0.63577580141E+02  0.63577580141E+02  0.00000000000E+00 0. -1.
         -2   -1    0    0    0  501 -0.00000000000E+00 -0.00000000000E+00 -0.22533784052E+03  0.22533784052E+03  0.00000000000E+00 0.  1.
         25    2    1    2    0    0 -0.17149376855E+02 -0.30589977776E+02 -0.45181180919E+02  0.13755104582E+03  0.12509637576E+03 0.  0.
          5    1    3    3  502    0 -0.54645689069E+02  0.23559495569E+02 -0.38985309868E+02  0.71263791302E+02  0.41800000000E+01 0.  1.
         -5    1    3    3    0  502  0.37496312214E+02 -0.54149473344E+02 -0.61958710512E+01  0.66287254516E+02  0.41800000000E+01 0.  1.
        -11    1    1    2    0    0  0.20056907264E+02  0.54300219570E+01  0.94418467606E+01  0.22823521589E+02  0.00000000000E+00 0. -1.
         11    1    1    2    0    0 -0.29075304095E+01  0.25159955819E+02 -0.12602092622E+03  0.12854085326E+03  0.00000000000E+00 0.  1.
</event>
<event>
 7    1  0.2670433E-009  0.1229547E+03  0.7561462E-02  0.1238301E+00
          2   -1    0    0  501    0  0.00000000000E+00  0.00000000000E+00  0.52667341992E+03  0.52667341992E+03  0.00000000000E+00 0. -1.
         -2   -1    0    0    0  501 -0.00000000000E+00 -0.00000000000E+00 -0.46565937473E+02  0.46565937473E+02  0.00000000000E+00 0.  1.
         25    2    1    2    0    0 -0.43064189307E+02 -0.56559415064E+02  0.41743430111E+03  0.44153346010E+03  0.12508760453E+03 0.  0.
          5    1    3    3  502    0 -0.14154695620E+02  0.37429357899E+02  0.73478370691E+02  0.83772642314E+02  0.41800000000E+01 0. -1.
         -5    1    3    3    0  502 -0.28909493687E+02 -0.93988772964E+02  0.34395593042E+03  0.35776081778E+03  0.41800000000E+01 0. -1.
        -11    1    1    2    0    0  0.63525485567E+02  0.58934938917E+02  0.27442089222E+02  0.90894898661E+02  0.00000000000E+00 0.  1.
         11    1    1    2    0    0 -0.20461296260E+02 -0.23755238528E+01  0.35231092107E+02  0.40810998631E+02  0.00000000000E+00 0. -1.
</event>
<event>
 7    1  0.2670433E-009  0.1212825E+03  0.7561462E-02  0.1240996E+00
          3   -1    0    0  501    0  0.00000000000E+00  0.00000000000E+00  0.43098992442E+02  0.43098992442E+02  0.00000000000E+00 0. -1.
         -3   -1    0    0    0  501 -0.00000000000E+00 -0.00000000000E+00 -0.37430713808E+03  0.37430713808E+03  0.00000000000E+00 0.  1.
         25    2    1    2    0    0 -0.50821740228E+02 -0.37418550923E+02 -0.21854077265E+03  0.25959566898E+03  0.12508734872E+03 0.  0.
          5    1    3    3  502    0 -0.59649752426E+02  0.31759803794E+02 -0.13219422550E+03  0.14852462340E+03  0.41800000000E+01 0.  1.
         -5    1    3    3    0  502  0.88280121975E+01 -0.69178354717E+02 -0.86346547159E+02  0.11107104558E+03  0.41800000000E+01 0.  1.
        -11    1    1    2    0    0  0.70090069404E+02  0.46066526176E+02 -0.10697784681E+03  0.13593749436E+03  0.00000000000E+00 0.  1.
         11    1    1    2    0    0 -0.19268329176E+02 -0.86479752533E+01 -0.56895261648E+01  0.21872967179E+02  0.00000000000E+00 0. -1.
</event>
<event>
 7    1  0.2670433E-009  0.8395154E+02  0.7561462E-02  0.1318197E+00
         -1   -1    0    0    0  501 -0.00000000000E+00  0.00000000000E+00  0.21497977442E+03  0.21497977442E+03  0.00000000000E+00 0.  1.
          1   -1    0    0  501    0  0.00000000000E+00 -0.00000000000E+00 -0.81641515796E+02  0.81641515796E+02  0.00000000000E+00 0. -1.
         25    2    1    2    0    0 -0.52224647344E+02 -0.17616261083E+02  0.13385062763E+03  0.19131608689E+03  0.12509239842E+03 0.  0.
          5    1    3    3  502    0  0.50105120956E+01  0.34586462176E+02  0.10120105611E+03  0.10714688402E+03  0.41800000000E+01 0. -1.
         -5    1    3    3    0  502 -0.57235159440E+02 -0.52202723259E+02  0.32649571520E+02  0.84169202872E+02  0.41800000000E+01 0. -1.
        -11    1    1    2    0    0  0.34618661068E+02  0.11102752334E+02  0.43952639142E+02  0.57039962229E+02  0.00000000000E+00 0.  1.
         11    1    1    2    0    0  0.17605986276E+02  0.65135087487E+01 -0.44465008144E+02  0.48265241098E+02  0.00000000000E+00 0. -1.
</event>
<event>
 7    1  0.2670433E-009  0.1022305E+03  0.7561462E-02  0.1275674E+00
          1   -1    0    0  501    0  0.00000000000E+00  0.00000000000E+00  0.94513764632E+02  0.94513764632E+02  0.00000000000E+00 0. -1.
         -1   -1    0    0    0  501 -0.00000000000E+00 -0.00000000000E+00 -0.19768300388E+03  0.19768300388E+03  0.00000000000E+00 0.  1.
         25    2    1    2    0    0  0.29854505768E+02  0.50270563323E+02 -0.12007123622E+03  0.18298185507E+03  0.12508731538E+03 0.  0.
          5    1    3    3  502    0  0.57051619171E+02  0.27370069268E+02 -0.63188133716E+01  0.63729174984E+02  0.41800000000E+01 0.  1.
         -5    1    3    3    0  502 -0.27197113402E+02  0.22900494055E+02 -0.11375242285E+03  0.11925268009E+03  0.41800000000E+01 0.  1.
        -11    1    1    2    0    0 -0.30356823274E+02  0.19105556783E+02 -0.55478264530E+01  0.36295142894E+02  0.00000000000E+00 0.  1.
         11    1    1    2    0    0  0.50231750592E+00 -0.69376120107E+02  0.22449823425E+02  0.72919770541E+02  0.00000000000E+00 0. -1.
</event>
<event>
 7    1  0.2670433E-009  0.7385958E+02  0.7561462E-02  0.1347439E+00
         -1   -1    0    0    0  501 -0.00000000000E+00  0.00000000000E+00  0.58727882152E+02  0.58727882152E+02  0.00000000000E+00 0.  1.
          1   -1    0    0  501    0  0.00000000000E+00 -0.00000000000E+00 -0.21086438081E+03  0.21086438081E+03  0.00000000000E+00 0. -1.
         25    2    1    2    0    0 -0.11358183557E+02  0.12250209494E+02 -0.58712914135E+02  0.13919081011E+03  0.12509116423E+03 0.  0.
          5    1    3    3  502    0  0.33569555357E+02 -0.37327048729E+01 -0.79897093426E+02  0.86843917867E+02  0.41800000000E+01 0.  1.
         -5    1    3    3    0  502 -0.44927738913E+02  0.15982914367E+02  0.21184179291E+02  0.52346892246E+02  0.41800000000E+01 0.  1.
        -11    1    1    2    0    0  0.32312786010E+02 -0.25379561412E+02 -0.85095286630E+01  0.41960104328E+02  0.00000000000E+00 0. -1.
         11    1    1    2    0    0 -0.20954602453E+02  0.13129351918E+02 -0.84914055861E+02  0.88441348523E+02  0.00000000000E+00 0.  1.
</event>
<event>
 7    1  0.2670433E-009  0.1190993E+03  0.7561462E-02  0.1244590E+00
          1   -1    0    0  501    0  0.00000000000E+00  0.00000000000E+00  0.80493256215E+02  0.80493256215E+02  0.00000000000E+00 0. -1.
         -1   -1    0    0    0  501 -0.00000000000E+00 -0.00000000000E+00 -0.21964620886E+03  0.21964620886E+03  0.00000000000E+00 0.  1.
         25    2    1    2    0    0  0.27075414583E+02  0.70336124780E+02 -0.10334276520E+03  0.17890714169E+03  0.12509112561E+03 0.  0.
          5    1    3    3  502    0  0.59971909002E+02  0.22144823752E+02 -0.47196842795E+01  0.64239947915E+02  0.41800000000E+01 0.  1.
         -5    1    3    3    0  502 -0.32896494419E+02  0.48191301028E+02 -0.98623080917E+02  0.11466719378E+03  0.41800000000E+01 0.  1.
        -11    1    1    2    0    0 -0.39680552239E+02 -0.86481721704E+02 -0.32073514470E+02  0.10041087962E+03  0.00000000000E+00 0. -1.
         11    1    1    2    0    0  0.12605137656E+02  0.16145596924E+02 -0.37366729756E+01  0.20821443761E+02  0.00000000000E+00 0.  1.
</event>
<event>
 7    1  0.2670433E-009  0.7614820E+02  0.7561462E-02  0.1340352E+00
         -2   -1    0    0    0  501 -0.00000000000E+00  0.00000000000E+00  0.14723701137E+02  0.14723701137E+02  0.00000000000E+00 0.  1.
          2   -1    0    0  501    0  0.00000000000E+00 -0.00000000000E+00 -0.95065507454E+03  0.95065507454E+03  0.00000000000E+00 0. -1.
         25    2    1    2    0    0 -0.18165893703E+02 -0.26345917611E+02 -0.69937579938E+03  0.71119468971E+03  0.12508905167E+03 0.  0.
          5    1    3    3  502    0 -0.89402198959E+01  0.15170890030E+02 -0.62614736590E+03  0.62640887578E+03  0.41800000000E+01 0. -1.
         -5    1    3    3    0  502 -0.92256738074E+01 -0.41516807641E+02 -0.73228433481E+02  0.84785813931E+02  0.41800000000E+01 0. -1.
        -11    1    1    2    0    0  0.95133599428E+01  0.57934968888E+02 -0.12857016532E+03  0.14134090720E+03  0.00000000000E+00 0.  1.
         11    1    1    2    0    0  0.86525337605E+01 -0.31589051278E+02 -0.10798540870E+03  0.11284317876E+03  0.00000000000E+00 0. -1.
</event>
<event>
 7    1  0.2670433E-009  0.1444365E+03  0.7561462E-02  0.1207481E+00
          1   -1    0    0  501    0  0.00000000000E+00  0.00000000000E+00  0.23094826710E+03  0.23094826710E+03  0.00000000000E+00 0. -1.
         -1   -1    0    0    0  501 -0.00000000000E+00 -0.00000000000E+00 -0.93255397002E+02  0.93255397002E+02  0.00000000000E+00 0.  1.
         25    2    1    2    0    0  0.98545829177E+02  0.12078623829E+02  0.60820313671E+02  0.17088897742E+03  0.12508700351E+03 0.  0.
          5    1    3    3  502    0  0.61013535604E+02  0.67465027833E+02  0.46885235615E+02  0.10242011143E+03  0.41800000000E+01 0. -1.
         -5    1    3    3    0  502  0.37532293572E+02 -0.55386404003E+02  0.13935078055E+02  0.68468865987E+02  0.41800000000E+01 0. -1.
        -11    1    1    2    0    0 -0.80481471169E+02 -0.45743898720E+02  0.42264154275E+02  0.10176458229E+03  0.00000000000E+00 0.  1.
         11    1    1    2    0    0 -0.18064358007E+02  0.33665274890E+02  0.34608402157E+02  0.51550104398E+02  0.00000000000E+00 0. -1.
</event>
<event>
 7    1  0.2670433E-009  0.3091009E+03  0.7561462E-02  0.1080778E+00
          2   -1    0    0  501    0  0.00000000000E+00  0.00000000000E+00  0.27450796754E+03  0.27450796754E+03  0.00000000000E+00 0. -1.
         -2   -1    0    0    0  501 -0.00000000000E+00 -0.00000000000E+00 -0.43035960408E+03  0.43035960408E+03  0.00000000000E+00 0.  1.
         25    2    1    2    0    0 -0.20242123333E+03 -0.21026577160E+03 -0.22859156031E+03  0.39126358816E+03  0.12508814318E+03 0.  0.
          5    1    3    3  502    0 -0.40660930270E+02  0.10179992329E+02 -0.46404753184E+02  0.62672298604E+02  0.41800000000E+01 0. -1.
         -5    1    3    3    0  502 -0.16176030306E+03 -0.22044576393E+03 -0.18218680713E+03  0.32859128955E+03  0.41800000000E+01 0. -1.
        -11    1    1    2    0    0  0.12719351901E+03  0.74505224108E+02  0.55205531514E+02  0.15740670382E+03  0.00000000000E+00 0.  1.
         11    1    1    2    0    0  0.75227714318E+02  0.13576054749E+03  0.17534392263E+02  0.15619727965E+03  0.00000000000E+00 0. -1.
</event>
<event>
 7    1  0.2670433E-009  0.1025814E+03  0.7561462E-02  0.1274959E+00
          1   -1    0    0  501    0  0.00000000000E+00  0.00000000000E+00  0.35964927287E+03  0.35964927287E+03  0.00000000000E+00 0.  1.
         -1   -1    0    0    0  501 -0.00000000000E+00 -0.00000000000E+00 -0.43552340001E+02  0.43552340001E+02  0.00000000000E+00 0. -1.
         25    2    1    2    0    0  0.32823800931E+02  0.66152312163E+01  0.10364198501E+03  0.16586077102E+03  0.12508785359E+03 0.  0.
          5    1    3    3  502    0 -0.35054976300E+02  0.70347860219E+01 -0.63388290195E+01  0.36551234331E+02  0.41800000000E+01 0.  1.
         -5    1    3    3    0  502  0.67878777231E+02 -0.41955480557E+00  0.10998081403E+03  0.12930953669E+03  0.41800000000E+01 0.  1.
        -11    1    1    2    0    0  0.11378817958E+02  0.37210148248E+02  0.49914066681E+02  0.63288914380E+02  0.00000000000E+00 0. -1.
         11    1    1    2    0    0 -0.44202618889E+02 -0.43825379464E+02  0.16254088119E+03  0.17405192748E+03  0.00000000000E+00 0.  1.
</event>
<event>
 7    1  0.2670433E-009  0.1147317E+03  0.7561462E-02  0.1252050E+00
          2   -1    0    0  501    0  0.00000000000E+00  0.00000000000E+00  0.11393925407E+04  0.11393925407E+04  0.00000000000E+00 0. -1.
         -2   -1    0    0    0  501 -0.00000000000E+00 -0.00000000000E+00 -0.17794388972E+02  0.17794388972E+02  0.00000000000E+00 0.  1.
         25    2    1    2    0    0  0.40789658999E+02 -0.82673435023E+02  0.58056874752E+03  0.60100381810E+03  0.12508727206E+03 0.  0.
          5    1    3    3  502    0  0.28608373682E+02 -0.82741527320E+02  0.58152185199E+03  0.58808990480E+03  0.41800000000E+01 0. -1.
         -5    1    3    3    0  502  0.12181285317E+02  0.68092296534E-01 -0.95310446684E+00  0.12913913298E+02  0.41800000000E+01 0. -1.
        -11    1    1    2    0    0 -0.28149985277E+02 -0.14001282015E+02  0.13457555559E+03  0.13819926820E+03  0.00000000000E+00 0. -1.
         11    1    1    2    0    0 -0.12639673722E+02  0.96674717038E+02  0.40645384866E+03  0.41798384341E+03  0.00000000000E+00 0.  1.
</event>
<event>
 7    1  0.2670433E-009  0.1390265E+03  0.7561462E-02  0.1214645E+00
          2   -1    0    0  501    0  0.00000000000E+00  0.00000000000E+00  0.34462797403E+03  0.34462797403E+03  0.00000000000E+00 0.  1.
         -2   -1    0    0    0  501 -0.00000000000E+00 -0.00000000000E+00 -0.72761100667E+02  0.72761100667E+02  0.00000000000E+00 0. -1.
         25    2    1    2    0    0 -0.73274411586E+02 -0.63361572001E+02  0.64957562493E+02  0.17102876437E+03  0.12509006802E+03 0.  0.
          5    1    3    3  502    0 -0.60296901508E+02  0.25870880258E+02  0.13477460465E+02  0.67112838692E+02  0.41800000000E+01 0. -1.
         -5    1    3    3    0  502 -0.12977510078E+02 -0.89232452259E+02  0.51480102028E+02  0.10391592567E+03  0.41800000000E+01 0. -1.
        -11    1    1    2    0    0 -0.15510983946E+02  0.89751153449E+01  0.81092204667E+02  0.83048714476E+02  0.00000000000E+00 0.  1.
         11    1    1    2    0    0  0.88785395532E+02  0.54386456656E+02  0.12581710620E+03  0.16331159585E+03  0.00000000000E+00 0. -1.
</event>
<event>
 7    1  0.2670433E-009  0.1341323E+03  0.7561462E-02  0.1221450E+00
         -1   -1    0    0    0  501 -0.00000000000E+00  0.00000000000E+00  0.89178301803E+02  0.89178301803E+02  0.00000000000E+00 0.  1.
          1   -1    0    0  501    0  0.00000000000E+00 -0.00000000000E+00 -0.23812297675E+03  0.23812297675E+03  0.00000000000E+00 0. -1.
         25    2    1    2    0    0 -0.53053178975E+02 -0.67802522422E+02 -0.13122648311E+03  0.20070089712E+03  0.12509451782E+03 0.  0.
          5    1    3    3  502    0 -0.92166484982E+02 -0.49673461333E+02 -0.71221034209E+02  0.12669657386E+03  0.41800000000E+01 0. -1.
         -5    1    3    3    0  502  0.39113306007E+02 -0.18129061090E+02 -0.60005448903E+02  0.74004323257E+02  0.41800000000E+01 0. -1.
        -11    1    1    2    0    0  0.25396761201E+02  0.84247408453E+02 -0.28774567434E+02  0.92577519094E+02  0.00000000000E+00 0. -1.
         11    1    1    2    0    0  0.27656417774E+02 -0.16444886031E+02  0.11056375595E+02  0.34022862342E+02  0.00000000000E+00 0.  1.
</event>
<event>
 7    1  0.2670433E-009  0.9411116E+02  0.7561462E-02  0.1293191E+00
         -2   -1    0    0    0  501 -0.00000000000E+00  0.00000000000E+00  0.85428890965E+02  0.85428890965E+02  0.00000000000E+00 0.  1.
          2   -1    0    0  501    0  0.00000000000E+00 -0.00000000000E+00 -0.34479550804E+03  0.34479550804E+03  0.00000000000E+00 0. -1.
         25    2    1    2    0    0  0.45481592167E+02  0.16472561711E+02 -0.25242350237E+03  0.28584680662E+03  0.12510336443E+03 0.  0.
          5    1    3    3  502    0  0.36285399359E+02  0.19218412725E+02 -0.90565682909E+01  0.42254839054E+02  0.41800000000E+01 0.  1.
         -5    1    3    3    0  502  0.91961928080E+01 -0.27458510134E+01 -0.24336693408E+03  0.24359196756E+03  0.41800000000E+01 0.  1.
        -11    1    1    2    0    0 -0.17206905936E+02 -0.72076185716E+02 -0.26977585140E+02  0.78859649120E+02  0.00000000000E+00 0. -1.
         11    1    1    2    0    0 -0.28274686231E+02  0.55603624005E+02  0.20034470435E+02  0.65517943264E+02  0.00000000000E+00 0.  1.
</event>
<event>
 7    1  0.2670433E-009  0.7058227E+02  0.7561462E-02  0.1358124E+00
         -2   -1    0    0    0  501 -0.00000000000E+00  0.00000000000E+00  0.17215351595E+02  0.17215351595E+02  0.00000000000E+00 0.  1.
          2   -1    0    0  501    0  0.00000000000E+00 -0.00000000000E+00 -0.80315207050E+03  0.80315207050E+03  0.00000000000E+00 0. -1.
         25    2    1    2    0    0 -0.39768632488E+02 -0.16613042565E+02 -0.48115202986E+03  0.49901180225E+03  0.12509182879E+03 0.  0.
          5    1    3    3  502    0 -0.39705887964E+02  0.54182578054E+01 -0.47365759113E+03  0.47536817425E+03  0.41800000000E+01 0. -1.
         -5    1    3    3    0  502 -0.62744523882E-01 -0.22031300371E+02 -0.74944387297E+01  0.23643627995E+02  0.41800000000E+01 0. -1.
        -11    1    1    2    0    0 -0.21411746407E+01 -0.21616348207E+02 -0.15811859132E+02  0.26867564606E+02  0.00000000000E+00 0.  1.
         11    1    1    2    0    0  0.41909807129E+02  0.38229390772E+02 -0.28897282992E+03  0.29448805524E+03  0.00000000000E+00 0. -1.
</event>
<event>
 7    1  0.2670433E-009  0.6256657E+02  0.7561462E-02  0.1387366E+00
         -1   -1    0    0    0  501 -0.00000000000E+00  0.00000000000E+00  0.45893603062E+02  0.45893603062E+02  0.00000000000E+00 0.  1.
          1   -1    0    0  501    0  0.00000000000E+00 -0.00000000000E+00 -0.36663662824E+03  0.36663662824E+03  0.00000000000E+00 0. -1.
         25    2    1    2    0    0  0.27177076991E+02 -0.80697282100E+01 -0.27890183821E+03  0.30697680656E+03  0.12507921642E+03 0.  0.
          5    1    3    3  502    0 -0.10957361434E+02  0.21243138815E+02 -0.34587781344E+00  0.24267812999E+02  0.41800000000E+01 0.  1.
         -5    1    3    3    0  502  0.38134438425E+02 -0.29312867025E+02 -0.27855596039E+03  0.28270899356E+03  0.41800000000E+01 0.  1.
        -11    1    1    2    0    0 -0.24250185342E+02 -0.15536902152E+02 -0.65778237476E+02  0.71806986729E+02  0.00000000000E+00 0. -1.
         11    1    1    2    0    0 -0.29268916486E+01  0.23606630362E+02  0.23937050507E+02  0.33746438016E+02  0.00000000000E+00 0.  1.
</event>
<event>
 7    1  0.2670433E-009  0.1424775E+03  0.7561462E-02  0.1210034E+00
          1   -1    0    0  501    0  0.00000000000E+00  0.00000000000E+00  0.10886018630E+03  0.10886018630E+03  0.00000000000E+00 0. -1.
         -1   -1    0    0    0  501 -0.00000000000E+00 -0.00000000000E+00 -0.22135476925E+03  0.22135476925E+03  0.00000000000E+00 0.  1.
         25    2    1    2    0    0  0.72206619461E+02  0.68804039432E+02 -0.11035089628E+02  0.16036355900E+03  0.12508759377E+03 0.  0.
          5    1    3    3  502    0  0.82940472706E+02  0.93084946737E+02  0.11522796291E+02  0.12527640064E+03  0.41800000000E+01 0. -1.
         -5    1    3    3    0  502 -0.10733853245E+02 -0.24280907305E+02 -0.22557885918E+02  0.35087158365E+02  0.41800000000E+01 0. -1.
        -11    1    1    2    0    0 -0.38405761928E+02  0.16332255715E+02 -0.48726881797E+02  0.64156481634E+02  0.00000000000E+00 0.  1.
         11    1    1    2    0    0 -0.33800857533E+02 -0.85136295147E+02 -0.52732611520E+02  0.10569491492E+03  0.00000000000E+00 0. -1.
</event>
<event>
 7    1  0.2670433E-009  0.1270395E+03  0.7561462E-02  0.1231916E+00
         -1   -1    0    0    0  501 -0.00000000000E+00  0.00000000000E+00  0.15342507039E+02  0.15342507039E+02  0.00000000000E+00 0.  1.
          1   -1    0    0  501    0  0.00000000000E+00 -0.00000000000E+00 -0.14155302475E+04  0.14155302475E+04  0.00000000000E+00 0. -1.
         25    2    1    2    0    0 -0.32839854336E+02 -0.85598727322E+02 -0.98464808835E+03  0.99678762438E+03  0.12509241411E+03 0.  0.
          5    1    3    3  502    0 -0.23172058750E+02 -0.10811493658E+03 -0.93223413958E+03  0.93877779438E+03  0.41800000000E+01 0.  1.
         -5    1    3    3    0  502 -0.96677955854E+01  0.22516209257E+02 -0.52413948768E+02  0.58009829997E+02  0.41800000000E+01 0.  1.
        -11    1    1    2    0    0  0.32997429487E+02  0.24472392332E-01 -0.19025271637E+03  0.19309305280E+03  0.00000000000E+00 0. -1.
         11    1    1    2    0    0 -0.15757515090E+00  0.85574254930E+02 -0.22528693570E+03  0.24099207732E+03  0.00000000000E+00 0.  1.
</event>
<event>
 7    1  0.2670433E-009  0.6514492E+02  0.7561462E-02  0.1377427E+00
          2   -1    0    0  501    0  0.00000000000E+00  0.00000000000E+00  0.27716246245E+03  0.27716246245E+03  0.00000000000E+00 0. -1.
         -2   -1    0    0    0  501 -0.00000000000E+00 -0.00000000000E+00 -0.46325854253E+02  0.46325854253E+02  0.00000000000E+00 0.  1.
         25    2    1    2    0    0  0.12702868922E+02  0.25680040239E+02  0.93337221757E+02  0.15868253478E+03  0.12508989780E+03 0.  0.
          5    1    3    3  502    0 -0.13168955325E+02  0.30734070646E+02 -0.22035936764E+02  0.40262381846E+02  0.41800000000E+01 0. -1.
         -5    1    3    3    0  502  0.25871824247E+02 -0.50540304077E+01  0.11537315852E+03  0.11842015293E+03  0.41800000000E+01 0. -1.
        -11    1    1    2    0    0 -0.16622533865E+02  0.18889106782E+02  0.59492311115E+01  0.25855373483E+02  0.00000000000E+00 0.  1.
         11    1    1    2    0    0  0.39196649432E+01 -0.44569147020E+02  0.13155015533E+03  0.13895040844E+03  0.00000000000E+00 0. -1.
</event>
<event>
 7    1  0.2670433E-009  0.1771018E+03  0.7561462E-02  0.1170638E+00
         -2   -1    0    0    0  501 -0.00000000000E+00  0.00000000000E+00  0.88923753435E+02  0.88923753435E+02  0.00000000000E+00 0.  1.
          2   -1    0    0  501    0  0.00000000000E+00 -0.00000000000E+00 -0.42106652882E+03  0.42106652882E+03  0.00000000000E+00 0. -1.
         25    2    1    2    0    0 -0.16476818998E+01  0.15469255035E+03 -0.11982656004E+03  0.23224677840E+03  0.12509061355E+03 0.  0.
          5    1    3    3  502    0  0.45389232845E+02  0.13382077485E+02 -0.14098589673E+02  0.49553053254E+02  0.41800000000E+01 0.  1.
         -5    1    3    3    0  502 -0.47036914745E+02  0.14131047287E+03 -0.10572797037E+03  0.18269372515E+03  0.41800000000E+01 0.  1.
        -11    1    1    2    0    0 -0.11636193309E+02 -0.28030561221E+02 -0.11078899858E+03  0.11487086473E+03  0.00000000000E+00 0. -1.
         11    1    1    2    0    0  0.13283875209E+02 -0.12666198913E+03 -0.10152721676E+03  0.16287263912E+03  0.00000000000E+00 0.  1.
</event>
<event>
 7    1  0.2670433E-009  0.1224897E+03  0.7561462E-02  0.1239046E+00
         -1   -1    0    0    0  501 -0.00000000000E+00  0.00000000000E+00  0.16681332426E+02  0.16681332426E+02  0.00000000000E+00 0.  1.
          1   -1    0    0  501    0  0.00000000000E+00 -0.00000000000E+00 -0.12040611758E+04  0.12040611758E+04  0.00000000000E+00 0. -1.
         25    2    1    2    0    0 -0.52081056898E+02  0.28470988348E+02 -0.94008653592E+03  0.95022785448E+03  0.12508895535E+03 0.  0.
          5    1    3    3  502    0 -0.20093895608E+02  0.77041199043E+02 -0.57914275399E+03  0.58460492035E+03  0.41800000000E+01 0. -1.
         -5    1    3    3    0  502 -0.31987161290E+02 -0.48570210695E+02 -0.36094378193E+03  0.36562293414E+03  0.41800000000E+01 0. -1.
        -11    1    1    2    0    0  0.62901827007E+02  0.12874629958E+02 -0.17656606441E+03  0.18787754267E+03  0.00000000000E+00 0.  1.
         11    1    1    2    0    0 -0.10820770110E+02 -0.41345618306E+02 -0.70727243058E+02  0.82637111091E+02  0.00000000000E+00 0. -1.
</event>
<event>
 7    1  0.2670433E-009  0.2282764E+03  0.7561462E-02  0.1127859E+00
          1   -1    0    0  501    0  0.00000000000E+00  0.00000000000E+00  0.11304791917E+03  0.11304791917E+03  0.00000000000E+00 0. -1.
         -1   -1    0    0    0  501 -0.00000000000E+00 -0.00000000000E+00 -0.54431375570E+03  0.54431375570E+03  0.00000000000E+00 0.  1.
         25    2    1    2    0    0  0.19916005396E+03 -0.45454470213E+02 -0.10362043590E+03  0.26099041491E+03  0.12509183021E+03 0.  0.
          5    1    3    3  502    0  0.21429232857E+03 -0.49971109261E+02 -0.10634662643E+03  0.24442870371E+03  0.41800000000E+01 0.  1.
         -5    1    3    3    0  502 -0.15132274607E+02  0.45166390482E+01  0.27261905378E+01  0.16561711202E+02  0.41800000000E+01 0.  1.
        -11    1    1    2    0    0 -0.14095646868E+03 -0.79000524580E+01 -0.17816701453E+03  0.22732052692E+03  0.00000000000E+00 0.  1.
         11    1    1    2    0    0 -0.58203585279E+02  0.53354522671E+02 -0.14947838611E+03  0.16905073304E+03  0.00000000000E+00 0. -1.
</event>
<event>
 7    1  0.2670433E-009  0.9898696E+02  0.7561462E-02  0.1282441E+00
         -1   -1    0    0    0  501 -0.00000000000E+00  0.00000000000E+00  0.13830363110E+03  0.13830363110E+03  0.00000000000E+00 0.  1.
          1   -1    0    0  501    0  0.00000000000E+00 -0.00000000000E+00 -0.16707459443E+03  0.16707459443E+03  0.00000000000E+00 0. -1.
         25    2    1    2    0    0 -0.64811923681E+02  0.50266046910E+02 -0.84761493885E+02  0.17192865590E+03  0.12509073088E+03 0.  0.
          5    1    3    3  502    0 -0.42487277301E+02  0.14397225804E+01 -0.10581268118E+03  0.11410976046E+03  0.41800000000E+01 0. -1.
         -5    1    3    3    0  502 -0.22324646380E+02  0.48826324330E+02  0.21051187296E+02  0.57818895442E+02  0.41800000000E+01 0. -1.
        -11    1    1    2    0    0 -0.95195826244E+01 -0.18024638021E+02 -0.15332466541E+02  0.25506755171E+02  0.00000000000E+00 0. -1.
         11    1    1    2    0    0  0.74331506305E+02 -0.32241408890E+02  0.71322997096E+02  0.10794281445E+03  0.00000000000E+00 0.  1.
</event>
<event>
 7    1  0.2670433E-009  0.9512681E+02  0.7561462E-02  0.1290891E+00
          2   -1    0    0  501    0  0.00000000000E+00  0.00000000000E+00  0.56465061325E+03  0.56465061325E+03  0.00000000000E+00 0. -1.
         -2   -1    0    0    0  501 -0.00000000000E+00 -0.00000000000E+00 -0.25614634287E+02  0.25614634287E+02  0.00000000000E+00 0.  1.
         25    2    1    2    0    0 -0.10056479469E+02 -0.49096713681E+02  0.34556013593E+03  0.37090544889E+03  0.12508966543E+03 0.  0.
          5    1    3    3  502    0  0.36597622706E+02 -0.46990934086E+02  0.29872267733E+03  0.30463132509E+03  0.41800000000E+01 0. -1.
         -5    1    3    3    0  502 -0.46654102176E+02 -0.21057795951E+01  0.46837458601E+02  0.66274123802E+02  0.41800000000E+01 0. -1.
        -11    1    1    2    0    0  0.31625726061E+02  0.18024147313E+01  0.18188374902E+02  0.36527417502E+02  0.00000000000E+00 0.  1.
         11    1    1    2    0    0 -0.21569246592E+02  0.47294298949E+02  0.17528746812E+03  0.18283238114E+03  0.00000000000E+00 0. -1.
</event>
<event>
 7    1  0.2670433E-009  0.9527217E+02  0.7561462E-02  0.1290564E+00
         -1   -1    0    0    0  501 -0.00000000000E+00  0.00000000000E+00  0.16518108120E+03  0.16518108120E+03  0.00000000000E+00 0.  1.
          1   -1    0    0  501    0  0.00000000000E+00 -0.00000000000E+00 -0.11919473195E+03  0.11919473195E+03  0.00000000000E+00 0. -1.
         25    2    1    2    0    0  0.55227705119E+02  0.53368971120E+02  0.64123610004E+02  0.16017976224E+03  0.12508945751E+03 0.  0.
          5    1    3    3  502    0  0.18573827927E+02 -0.35962261442E+01  0.86558271461E+02  0.88700206791E+02  0.41800000000E+01 0.  1.
         -5    1    3    3    0  502  0.36653877192E+02  0.56965197264E+02 -0.22434661458E+02  0.71479555450E+02  0.41800000000E+01 0.  1.
        -11    1    1    2    0    0 -0.53600017917E+02 -0.38307470800E+01  0.24271822573E+02  0.58964039167E+02  0.00000000000E+00 0.  1.
         11    1    1    2    0    0 -0.16276872026E+01 -0.49538224040E+02 -0.42409083324E+02  0.65232011735E+02  0.00000000000E+00 0. -1.
</event>
<event>
 7    1  0.2670433E-009  0.9320073E+02  0.7561462E-02  0.1295281E+00
         -2   -1    0    0    0  501 -0.00000000000E+00  0.00000000000E+00  0.25401444429E+02  0.25401444429E+02  0.00000000000E+00 0.  1.
          2   -1    0    0  501    0  0.00000000000E+00 -0.00000000000E+00 -0.82549802965E+03  0.82549802965E+03  0.00000000000E+00 0. -1.
         25    2    1    2    0    0  0.61074003522E+02  0.68402468358E+02 -0.49677992697E+03  0.52042704559E+03  0.12508030364E+03 0.  0.
          5    1    3    3  502    0  0.29848362475E+02  0.44897871354E+02 -0.55817326064E+02  0.77716085101E+02  0.41800000000E+01 0.  1.
         -5    1    3    3    0  502  0.31225641047E+02  0.23504597004E+02 -0.44096260091E+03  0.44271096049E+03  0.41800000000E+01 0.  1.
        -11    1    1    2    0    0 -0.24781111206E+02 -0.39472834084E+02 -0.35298293674E+02  0.58465183139E+02  0.00000000000E+00 0.  1.
         11    1    1    2    0    0 -0.36292892316E+02 -0.28929634274E+02 -0.26801836458E+03  0.27200724535E+03  0.00000000000E+00 0. -1.
</event>
<event>
 7    1  0.2670433E-009  0.7065654E+02  0.7561462E-02  0.1357875E+00
         -1   -1    0    0    0  501 -0.00000000000E+00  0.00000000000E+00  0.43340149197E+03  0.43340149197E+03  0.00000000000E+00 0.  1.
          1   -1    0    0  501    0  0.00000000000E+00 -0.00000000000E+00 -0.33272436408E+02  0.33272436408E+02  0.00000000000E+00 0. -1.
         25    2    1    2    0    0 -0.34050553489E+02 -0.11751359289E+02  0.29276847018E+03  0.32039828295E+03  0.12507656833E+03 0.  0.
          5    1    3    3  502    0 -0.34505769536E+02 -0.65860076603E+01  0.30469297218E+03  0.30673979742E+03  0.41800000000E+01 0. -1.
         -5    1    3    3    0  502  0.45521604714E+00 -0.51653516283E+01 -0.11924501995E+02  0.13658485528E+02  0.41800000000E+01 0. -1.
        -11    1    1    2    0    0 -0.31906406320E+02  0.94608039006E+01  0.38662402071E+02  0.51012811221E+02  0.00000000000E+00 0.  1.
         11    1    1    2    0    0  0.65956959809E+02  0.22905553880E+01  0.68698183307E+02  0.95262834205E+02  0.00000000000E+00 0. -1.
</event>
<event>
 7    1  0.2670433E-009  0.2789348E+03  0.7561462E-02  0.1096272E+00
         -1   -1    0    0    0  501 -0.00000000000E+00  0.00000000000E+00  0.99927690880E+02  0.99927690880E+02  0.00000000000E+00 0.  1.
          1   -1    0    0  501    0  0.00000000000E+00 -0.00000000000E+00 -0.10026106362E+04  0.10026106362E+04  0.00000000000E+00 0. -1.
         25    2    1    2    0    0  0.24264085292E+03 -0.12514783824E+03 -0.66533086340E+03  0.72996555748E+03  0.12509193579E+03 0.  0.
          5    1    3    3  502    0  0.23152674684E+02 -0.25353790638E+02 -0.17612668108E+02  0.38814166520E+02  0.41800000000E+01 0.  1.
         -5    1    3    3    0  502  0.21948817823E+03 -0.99794047601E+02 -0.64771819529E+03  0.69115139096E+03  0.41800000000E+01 0.  1.
        -11    1    1    2    0    0 -0.32520467407E+02  0.48659738091E+02 -0.23201149443E+02  0.62957479674E+02  0.00000000000E+00 0.  1.
         11    1    1    2    0    0 -0.21012038551E+03  0.76488100148E+02 -0.21415093248E+03  0.30961528992E+03  0.00000000000E+00 0. -1.
</event>
<event>
 7    1  0.2670433E-009  0.8148778E+02  0.7561462E-02  0.1324882E+00
          3   -1    0    0  501    0  0.00000000000E+00  0.00000000000E+00  0.28591572844E+03  0.28591572844E+03  0.00000000000E+00 0. -1.
         -3   -1    0    0    0  501 -0.00000000000E+00 -0.00000000000E+00 -0.57016868499E+02  0.57016868499E+02  0.00000000000E+00 0.  1.
         25    2    1    2    0    0  0.17058703705E+02  0.36042664874E+02  0.19841121648E+03  0.23791569134E+03  0.12508713882E+03 0.  0.
          5    1    3    3  502    0  0.36373589511E+02 -0.16833260892E+02  0.10406112718E+02  0.41619181492E+02  0.41800000000E+01 0. -1.
         -5    1    3    3    0  502 -0.19314885806E+02  0.52875925766E+02  0.18800510376E+03  0.19629650985E+03  0.41800000000E+01 0. -1.
        -11    1    1    2    0    0  0.10166227497E+02  0.90140199016E+01 -0.25047917716E+02  0.28495664902E+02  0.00000000000E+00 0.  1.
         11    1    1    2    0    0 -0.27224931202E+02 -0.45056684775E+02  0.55535561180E+02  0.76521240695E+02  0.00000000000E+00 0. -1.
</event>
<event>
 7    1  0.2670433E-009  0.1029296E+03  0.7561462E-02  0.1274253E+00
         -2   -1    0    0    0  501 -0.00000000000E+00  0.00000000000E+00  0.17164637636E+02  0.17164637636E+02  0.00000000000E+00 0.  1.
          2   -1    0    0  501    0  0.00000000000E+00 -0.00000000000E+00 -0.77967342214E+03  0.77967342214E+03  0.00000000000E+00 0. -1.
         25    2    1    2    0    0 -0.29773132281E+02 -0.24605154941E+02 -0.51788522467E+03  0.53417724546E+03  0.12509344740E+03 0.  0.
          5    1    3    3  502    0  0.17817309901E+02  0.31752196149E+02 -0.33400475199E+03  0.33600938268E+03  0.41800000000E+01 0. -1.
         -5    1    3    3    0  502 -0.47590442182E+02 -0.56357351090E+02 -0.18388047268E+03  0.19816786279E+03  0.41800000000E+01 0. -1.
        -11    1    1    2    0    0 -0.20508711096E+02  0.38098693390E+02 -0.10030578241E+03  0.10923995448E+03  0.00000000000E+00 0.  1.
         11    1    1    2    0    0  0.50281843377E+02 -0.13493538449E+02 -0.14431777741E+03  0.15342085983E+03  0.00000000000E+00 0. -1.
</event>
<event>
 7    1  0.2670433E-009  0.1751048E+03  0.7561462E-02  0.1172627E+00
          2   -1    0    0  501    0  0.00000000000E+00  0.00000000000E+00  0.17245377100E+04  0.17245377100E+04  0.00000000000E+00 0. -1.
         -2   -1    0    0    0  501 -0.00000000000E+00 -0.00000000000E+00 -0.23346128711E+02  0.23346128711E+02  0.00000000000E+00 0.  1.
         25    2    1    2    0    0  0.94273028425E+02 -0.11996659656E+03  0.11805543397E+04  0.11969273028E+04  0.12508809270E+03 0.  0.
          5    1    3    3  502    0  0.69572221402E+02 -0.27976574548E+02  0.83781853007E+03  0.84117795053E+03  0.41800000000E+01 0.  1.
         -5    1    3    3    0  502  0.24700807023E+02 -0.91990022014E+02  0.34273580965E+03  0.35574935226E+03  0.41800000000E+01 0.  1.
        -11    1    1    2    0    0 -0.52868062065E+02  0.12718625830E+03  0.38108356958E+03  0.40521113421E+03  0.00000000000E+00 0.  1.
         11    1    1    2    0    0 -0.41404966360E+02 -0.72196617410E+01  0.13955367198E+03  0.14574540171E+03  0.00000000000E+00 0. -1.
</event>
<event>
 7    1  0.2670433E-009  0.1291547E+03  0.7561462E-02  0.1228715E+00
          1   -1    0    0  501    0  0.00000000000E+00  0.00000000000E+00  0.41301868962E+03  0.41301868962E+03  0.00000000000E+00 0. -1.
         -1   -1    0    0    0  501 -0.00000000000E+00 -0.00000000000E+00 -0.65986072304E+02  0.65986072304E+02  0.00000000000E+00 0.  1.
         25    2    1    2    0    0 -0.62954284552E+02  0.44909882680E+02  0.44950819911E+02  0.15377875540E+03  0.12508872810E+03 0.  0.
          5    1    3    3  502    0 -0.94775409142E+02  0.19284658903E+02  0.55213582680E+02  0.11144634745E+03  0.41800000000E+01 0.  1.
         -5    1    3    3    0  502  0.31821124591E+02  0.25625223777E+02 -0.10262762768E+02  0.42332407957E+02  0.41800000000E+01 0.  1.
        -11    1    1    2    0    0  0.11907746564E+02 -0.64623347874E+02  0.15966673122E+03  0.17265988699E+03  0.00000000000E+00 0.  1.
         11    1    1    2    0    0  0.51046537988E+02  0.19713465194E+02  0.14241506619E+03  0.15256611953E+03  0.00000000000E+00 0. -1.
</event>
<event>
 7    1  0.2670433E-009  0.1181998E+03  0.7561462E-02  0.1246097E+00
          2   -1    0    0  501    0  0.00000000000E+00  0.00000000000E+00  0.11632470482E+03  0.11632470482E+03  0.00000000000E+00 0.  1.
         -2   -1    0    0    0  501 -0.00000000000E+00 -0.00000000000E+00 -0.13702763290E+03  0.13702763290E+03  0.00000000000E+00 0. -1.
         25    2    1    2    0    0 -0.22216414541E+02  0.60295288053E+02 -0.15120515261E+02  0.14144314888E+03  0.12509373904E+03 0.  0.
          5    1    3    3  502    0 -0.56947026516E+02  0.75156564193E+02  0.11435708764E+02  0.95077446354E+02  0.41800000000E+01 0.  1.
         -5    1    3    3    0  502  0.34730611974E+02 -0.14861276140E+02 -0.26556224026E+02  0.46365702530E+02  0.41800000000E+01 0.  1.
        -11    1    1    2    0    0 -0.27527564205E+02 -0.23363664114E+01  0.16781106421E+02  0.32323844632E+02  0.00000000000E+00 0.  1.
         11    1    1    2    0    0  0.49743978746E+02 -0.57958921642E+02 -0.22363519243E+02  0.79585344206E+02  0.00000000000E+00 0. -1.
</event>
<event>
 7    1  0.2670433E-009  0.1189414E+03  0.7561462E-02  0.1244854E+00
          1   -1    0    0  501    0  0.00000000000E+00  0.00000000000E+00  0.20730998403E+04  0.20730998403E+04  0.00000000000E+00 0. -1.
         -1   -1    0    0    0  501 -0.00000000000E+00 -0.00000000000E+00 -0.14731807468E+02  0.14731807468E+02  0.00000000000E+00 0.  1.
         25    2    1    2    0    0 -0.83099487741E+02 -0.28043202861E+02  0.17153616847E+04  0.17221513781E+04  0.12509082142E+03 0.  0.
          5    1    3    3  502    0  0.19927608366E+01 -0.26776191128E+02  0.11576339891E+04  0.11579528750E+04  0.41800000000E+01 0.  1.
         -5    1    3    3    0  502 -0.85092248578E+02 -0.12670117327E+01  0.55772769559E+03  0.56419850312E+03  0.41800000000E+01 0.  1.
        -11    1    1    2    0    0 -0.19208576397E+02 -0.74669605814E+00  0.73559760977E+02  0.76030029575E+02  0.00000000000E+00 0. -1.
         11    1    1    2    0    0  0.10230806414E+03  0.28789898919E+02  0.26944658718E+03  0.28965024013E+03  0.00000000000E+00 0.  1.
</event>
<event>
 7    1  0.2670433E-009  0.2024748E+03  0.7561462E-02  0.1147668E+00
          2   -1    0    0  501    0  0.00000000000E+00  0.00000000000E+00  0.67297569812E+03  0.67297569812E+03  0.00000000000E+00 0. -1.
         -2   -1    0    0    0  501 -0.00000000000E+00 -0.00000000000E+00 -0.74161858230E+02  0.74161858230E+02  0.00000000000E+00 0.  1.
         25    2    1    2    0    0 -0.17884844627E+03  0.51420440401E+02  0.21004867164E+03  0.30724375209E+03  0.12508976904E+03 0.  0.
          5    1    3    3  502    0 -0.19549609628E+03  0.46712121043E+02  0.16950059672E+03  0.26296134812E+03  0.41800000000E+01 0.  1.
         -5    1    3    3    0  502  0.16647650017E+02  0.47083193584E+01  0.40548074919E+02  0.44282403976E+02  0.41800000000E+01 0.  1.
        -11    1    1    2    0    0  0.13591781001E+03 -0.40116439755E+02  0.19468614435E+03  0.24080214829E+03  0.00000000000E+00 0.  1.
         11    1    1    2    0    0  0.42930636252E+02 -0.11304000646E+02  0.19407902389E+03  0.19909165596E+03  0.00000000000E+00 0. -1.
</event>
<event>
 7    1  0.2670433E-009  0.9476567E+02  0.7561462E-02  0.1291705E+00
          2   -1    0    0  501    0  0.00000000000E+00  0.00000000000E+00  0.22436746627E+03  0.22436746627E+03  0.00000000000E+00 0. -1.
         -2   -1    0    0    0  501 -0.00000000000E+00 -0.00000000000E+00 -0.13815408153E+03  0.13815408153E+03  0.00000000000E+00 0.  1.
         25    2    1    2    0    0 -0.72231847474E+02 -0.54617656326E+02 -0.63282350775E+02  0.16689057704E+03  0.12508909070E+03 0.  0.
          5    1    3    3  502    0 -0.20271893316E+02 -0.81992388626E+01  0.37907867774E+02  0.43961983755E+02  0.41800000000E+01 0. -1.
         -5    1    3    3    0  502 -0.51959954158E+02 -0.46418417463E+02 -0.10119021855E+03  0.12292859328E+03  0.41800000000E+01 0. -1.
        -11    1    1    2    0    0  0.11553853526E+02  0.29709733356E+02 -0.54272885246E+00  0.31881881093E+02  0.00000000000E+00 0.  1.
         11    1    1    2    0    0  0.60677993948E+02  0.24907922970E+02  0.15003846437E+03  0.16374908967E+03  0.00000000000E+00 0. -1.
</event>
<event>
 7    1  0.2670433E-009  0.1568715E+03  0.7561462E-02  0.1192275E+00
          2   -1    0    0  501    0  0.00000000000E+00  0.00000000000E+00  0.57709271024E+03  0.57709271024E+03  0.00000000000E+00 0. -1.
         -2   -1    0    0    0  501 -0.00000000000E+00 -0.00000000000E+00 -0.51441623264E+02  0.51441623264E+02  0.00000000000E+00 0.  1.
         25    2    1    2    0    0 -0.10272173937E+03  0.85309827144E+02  0.27889781367E+03  0.33355765077E+03  0.12508874279E+03 0.  0.
          5    1    3    3  502    0  0.51884161835E+01 -0.92303694641E+01 -0.72048541338E+01  0.13472256902E+02  0.41800000000E+01 0.  1.
         -5    1    3    3    0  502 -0.10791015556E+03  0.94540196608E+02  0.28610266780E+03  0.32008539387E+03  0.41800000000E+01 0.  1.
        -11    1    1    2    0    0  0.35002131388E+02  0.14772643927E+02  0.37772664051E+02  0.53573821590E+02  0.00000000000E+00 0.  1.
         11    1    1    2    0    0  0.67719607985E+02 -0.10008247107E+03  0.20898060926E+03  0.24140286114E+03  0.00000000000E+00 0. -1.
</event>
<event>
 7    1  0.2670433E-009  0.7776033E+02  0.7561462E-02  0.1335530E+00
         -1   -1    0    0    0  501 -0.00000000000E+00  0.00000000000E+00  0.64894115792E+02  0.64894115792E+02  0.00000000000E+00 0.  1.
          1   -1    0    0  501    0  0.00000000000E+00 -0.00000000000E+00 -0.26928373981E+03  0.26928373981E+03  0.00000000000E+00 0. -1.
         25    2    1    2    0    0  0.57664140321E+02 -0.30803965455E+01 -0.17173611696E+03  0.22017226104E+03  0.12509152147E+03 0.  0.
          5    1    3    3  502    0  0.51422603343E+02 -0.19445282339E+02 -0.18799386697E+03  0.19591214755E+03  0.41800000000E+01 0.  1.
         -5    1    3    3    0  502  0.62415369783E+01  0.16364885793E+02  0.16257750017E+02  0.24260113489E+02  0.41800000000E+01 0.  1.
        -11    1    1    2    0    0  0.10493201204E+02  0.91896601318E+01  0.22257895256E+02  0.26267299558E+02  0.00000000000E+00 0.  1.
         11    1    1    2    0    0 -0.68157341525E+02 -0.61092635863E+01 -0.54911402320E+02  0.87738295003E+02  0.00000000000E+00 0. -1.
</event>
<event>
 7    1  0.2670433E-009  0.1183003E+03  0.7561462E-02  0.1245928E+00
         -2   -1    0    0    0  501 -0.00000000000E+00  0.00000000000E+00  0.53242474823E+02  0.53242474823E+02  0.00000000000E+00 0.  1.
          2   -1    0    0  501    0  0.00000000000E+00 -0.00000000000E+00 -0.33206995917E+03  0.33206995917E+03  0.00000000000E+00 0. -1.
         25    2    1    2    0    0 -0.23730908388E+02 -0.66772966058E+02 -0.11115769326E+03  0.18173536557E+03  0.12509966155E+03 0.  0.
          5    1    3    3  502    0  0.35952641970E+02 -0.72207207517E+01 -0.86102576205E+02  0.93679545803E+02  0.41800000000E+01 0.  1.
         -5    1    3    3    0  502 -0.59683550358E+02 -0.59552245307E+02 -0.25055117060E+02  0.88055819770E+02  0.41800000000E+01 0.  1.
        -11    1    1    2    0    0 -0.31165061980E+02  0.48056994271E+02 -0.77612275975E+02  0.96459323906E+02  0.00000000000E+00 0. -1.
         11    1    1    2    0    0  0.54895970368E+02  0.18715971788E+02 -0.90057515112E+02  0.10711774452E+03  0.00000000000E+00 0.  1.
</event>
<event>
 7    1  0.2670433E-009  0.1274650E+03  0.7561462E-02  0.1231266E+00
         -1   -1    0    0    0  501 -0.00000000000E+00  0.00000000000E+00  0.41942725937E+02  0.41942725937E+02  0.00000000000E+00 0.  1.
          1   -1    0    0  501    0  0.00000000000E+00 -0.00000000000E+00 -0.52808909030E+03  0.52808909030E+03  0.00000000000E+00 0. -1.
         25    2    1    2    0    0  0.32957903175E+02  0.85050057910E+02 -0.16891553321E+03  0.22913853120E+03  0.12510904599E+03 0.  0.
          5    1    3    3  502    0  0.51790797694E+02  0.96130808001E+02 -0.17478272543E+03  0.20613076549E+03  0.41800000000E+01 0. -1.
         -5    1    3    3    0  502 -0.18832894519E+02 -0.11080750091E+02  0.58671922177E+01  0.23007765712E+02  0.41800000000E+01 0. -1.
        -11    1    1    2    0    0 -0.45135935101E+01 -0.93598606641E+02 -0.26078973852E+03  0.27711434356E+03  0.00000000000E+00 0.  1.
         11    1    1    2    0    0 -0.28444309665E+02  0.85485487313E+01 -0.56441092630E+02  0.63778941470E+02  0.00000000000E+00 0. -1.
</event>
<event>
 7    1  0.2670433E-009  0.1626503E+03  0.7561462E-02  0.1185737E+00
         -2   -1    0    0    0  501 -0.00000000000E+00  0.00000000000E+00  0.70379502200E+02  0.70379502200E+02  0.00000000000E+00 0. -1.
          2   -1    0    0  501    0  0.00000000000E+00 -0.00000000000E+00 -0.41444232332E+03  0.41444232332E+03  0.00000000000E+00 0.  1.
         25    2    1    2    0    0  0.72419996374E+02 -0.11010495326E+03 -0.17631642730E+03  0.25318522070E+03  0.12509003492E+03 0.  0.
          5    1    3    3  502    0  0.91608584105E+02 -0.28318555792E+02 -0.77069124917E+02  0.12309019335E+03  0.41800000000E+01 0.  1.
         -5    1    3    3    0  502 -0.19188587732E+02 -0.81786397470E+02 -0.99247302382E+02  0.13009502735E+03  0.41800000000E+01 0.  1.
        -11    1    1    2    0    0 -0.34301407011E+02  0.10008403764E+03 -0.71666864511E+02  0.12778709082E+03  0.00000000000E+00 0. -1.
         11    1    1    2    0    0 -0.38118589363E+02  0.10020915626E+02 -0.96079529307E+02  0.10384951399E+03  0.00000000000E+00 0.  1.
</event>
<event>
 7    1  0.2670433E-009  0.1258674E+03  0.7561462E-02  0.1233720E+00
          2   -1    0    0  501    0  0.00000000000E+00  0.00000000000E+00  0.39592006899E+03  0.39592006899E+03  0.00000000000E+00 0. -1.
         -2   -1    0    0    0  501 -0.00000000000E+00 -0.00000000000E+00 -0.10124010995E+03  0.10124010995E+03  0.00000000000E+00 0.  1.
         25    2    1    2    0    0  0.74178389252E+02 -0.32410797386E+02 -0.28508657127E+02  0.15170130555E+03  0.12509056461E+03 0.  0.
          5    1    3    3  502    0  0.13393815373E+02 -0.64218400811E+02 -0.46664174332E+02  0.80612746257E+02  0.41800000000E+01 0.  1.
         -5    1    3    3    0  502  0.60784573879E+02  0.31807603426E+02  0.18155517205E+02  0.71088559293E+02  0.41800000000E+01 0.  1.
        -11    1    1    2    0    0 -0.69955850245E+02 -0.13431944980E+02  0.24039320049E+03  0.25072520610E+03  0.00000000000E+00 0.  1.
         11    1    1    2    0    0 -0.42225390075E+01  0.45842742366E+02  0.82795415672E+02  0.94733667298E+02  0.00000000000E+00 0. -1.
</event>
<event>
 7    1  0.2670433E-009  0.1670442E+03  0.7561462E-02  0.1180966E+00
         -2   -1    0    0    0  501 -0.00000000000E+00  0.00000000000E+00  0.24091750695E+03  0.24091750695E+03  0.00000000000E+00 0. -1.
          2   -1    0    0  501    0  0.00000000000E+00 -0.00000000000E+00 -0.14370055224E+03  0.14370055224E+03  0.00000000000E+00 0.  1.
         25    2    1    2    0    0 -0.83220626801E+02 -0.10774085857E+03  0.11888874011E+03  0.21980873677E+03  0.12509029901E+03 0.  0.
          5    1    3    3  502    0 -0.11028857729E+03 -0.10007203639E+03  0.12006811745E+03  0.19134212284E+03  0.41800000000E+01 0. -1.
         -5    1    3    3    0  502  0.27067950489E+02 -0.76688221799E+01 -0.11793773399E+01  0.28466613923E+02  0.41800000000E+01 0. -1.
        -11    1    1    2    0    0  0.62479886653E+02  0.18668126474E+02 -0.32242462772E+02  0.72744838908E+02  0.00000000000E+00 0.  1.
         11    1    1    2    0    0  0.20740740148E+02  0.89072732093E+02  0.10570677381E+02  0.92064483514E+02  0.00000000000E+00 0. -1.
</event>
<event>
 7    1  0.2670433E-009  0.8008569E+02  0.7561462E-02  0.1328808E+00
         -2   -1    0    0    0  501 -0.00000000000E+00  0.00000000000E+00  0.70200513334E+02  0.70200513334E+02  0.00000000000E+00 0.  1.
          2   -1    0    0  501    0  0.00000000000E+00 -0.00000000000E+00 -0.29210496158E+03  0.29210496158E+03  0.00000000000E+00 0. -1.
         25    2    1    2    0    0  0.21594424596E+02  0.24155856705E+00 -0.70607397456E+01  0.12713649817E+03  0.12508979813E+03 0.  0.
          5    1    3    3  502    0 -0.15651494353E+02 -0.32958737911E+02  0.42853440442E+02  0.56437021873E+02  0.41800000000E+01 0.  1.
         -5    1    3    3    0  502  0.37245918949E+02  0.33200296478E+02 -0.49914180188E+02  0.70699476295E+02  0.41800000000E+01 0.  1.
        -11    1    1    2    0    0  0.25730367194E+02  0.31909867747E+01 -0.15394499640E+02  0.30153354899E+02  0.00000000000E+00 0.  1.
         11    1    1    2    0    0 -0.47324791790E+02 -0.34325453417E+01 -0.19944920886E+03  0.20501562185E+03  0.00000000000E+00 0. -1.
</event>
<event>
 7    1  0.2670433E-009  0.9053775E+02  0.7561462E-02  0.1301555E+00
         -1   -1    0    0    0  501 -0.00000000000E+00  0.00000000000E+00  0.20314574014E+02  0.20314574014E+02  0.00000000000E+00 0.  1.
          1   -1    0    0  501    0  0.00000000000E+00 -0.00000000000E+00 -0.68247962995E+03  0.68247962995E+03  0.00000000000E+00 0. -1.
         25    2    1    2    0    0  0.23538738115E+02 -0.36543737836E+02 -0.41441970597E+03  0.43506394958E+03  0.12508969007E+03 0.  0.
          5    1    3    3  502    0 -0.32049803178E+02 -0.14847461341E+02 -0.32822063058E+03  0.33014222955E+03  0.41800000000E+01 0. -1.
         -5    1    3    3    0  502  0.55588541293E+02 -0.21696276495E+02 -0.86199075391E+02  0.10492172004E+03  0.41800000000E+01 0. -1.
        -11    1    1    2    0    0  0.26982642035E+02  0.12502626696E+02 -0.16617872584E+03  0.16881868252E+03  0.00000000000E+00 0. -1.
         11    1    1    2    0    0 -0.50521380151E+02  0.24041111139E+02 -0.81566624123E+02  0.98911571861E+02  0.00000000000E+00 0.  1.
</event>
<event>
 7    1  0.2670433E-009  0.1353169E+03  0.7561462E-02  0.1219773E+00
          2   -1    0    0  501    0  0.00000000000E+00  0.00000000000E+00  0.63573188198E+02  0.63573188198E+02  0.00000000000E+00 0. -1.
         -2   -1    0    0    0  501 -0.00000000000E+00 -0.00000000000E+00 -0.33566245171E+03  0.33566245171E+03  0.00000000000E+00 0.  1.
         25    2    1    2    0    0  0.23205249985E+02  0.74068854332E+02 -0.21186159105E+03  0.25798842718E+03  0.12509203008E+03 0.  0.
          5    1    3    3  502    0  0.10539045571E+02  0.10777562239E+03 -0.13588379700E+03  0.17380602679E+03  0.41800000000E+01 0.  1.
         -5    1    3    3    0  502  0.12666204415E+02 -0.33706768056E+02 -0.75977794047E+02  0.84182400389E+02  0.41800000000E+01 0.  1.
        -11    1    1    2    0    0  0.36321220380E+02 -0.82055086894E+01 -0.74748508444E+01  0.37979399915E+02  0.00000000000E+00 0. -1.
         11    1    1    2    0    0 -0.59526470366E+02 -0.65863345642E+02 -0.52752821617E+02  0.10326781281E+03  0.00000000000E+00 0.  1.
</event>
<event>
 7    1  0.2670433E-009  0.9871097E+02  0.7561462E-02  0.1283030E+00
          2   -1    0    0  501    0  0.00000000000E+00  0.00000000000E+00  0.11222581049E+03  0.11222581049E+03  0.00000000000E+00 0. -1.
         -2   -1    0    0    0  501 -0.00000000000E+00 -0.00000000000E+00 -0.12865089834E+03  0.12865089834E+03  0.00000000000E+00 0.  1.
         25    2    1    2    0    0 -0.37126947240E+02 -0.64934407459E+01 -0.38223759709E+02  0.13612024039E+03  0.12508832501E+03 0.  0.
          5    1    3    3  502    0 -0.16823727433E+02  0.43476083527E+02  0.24875859377E+02  0.53004607567E+02  0.41800000000E+01 0. -1.
         -5    1    3    3    0  502 -0.20303219806E+02 -0.49969524272E+02 -0.63099619087E+02  0.83115632822E+02  0.41800000000E+01 0. -1.
        -11    1    1    2    0    0 -0.13784833448E+02 -0.30577081027E+02  0.24789742921E+02  0.41707443837E+02  0.00000000000E+00 0. -1.
         11    1    1    2    0    0  0.50911780688E+02  0.37070521773E+02 -0.29910710570E+01  0.63049024603E+02  0.00000000000E+00 0.  1.
</event>
<event>
 7    1  0.2670433E-009  0.1118639E+03  0.7561462E-02  0.1257157E+00
         -2   -1    0    0    0  501 -0.00000000000E+00  0.00000000000E+00  0.89462310748E+01  0.89462310748E+01  0.00000000000E+00 0.  1.
          2   -1    0    0  501    0  0.00000000000E+00 -0.00000000000E+00 -0.17384512931E+04  0.17384512931E+04  0.00000000000E+00 0. -1.
         25    2    1    2    0    0  0.85638473138E+01 -0.28904356603E+02 -0.13364508782E+04  0.13426306383E+04  0.12508908680E+03 0.  0.
          5    1    3    3  502    0 -0.31065188469E+02  0.37956497318E+02 -0.41832005069E+03  0.42120645630E+03  0.41800000000E+01 0.  1.
         -5    1    3    3    0  502  0.39629035783E+02 -0.66860853921E+02 -0.91813082752E+03  0.92142418196E+03  0.41800000000E+01 0.  1.
        -11    1    1    2    0    0 -0.46963410668E+02 -0.25443702634E+01 -0.19226476572E+03  0.19793376644E+03  0.00000000000E+00 0.  1.
         11    1    1    2    0    0  0.38399563354E+02  0.31448726867E+02 -0.20078941808E+03  0.20683311945E+03  0.00000000000E+00 0. -1.
</event>
<event>
 7    1  0.2670433E-009  0.1851220E+03  0.7561462E-02  0.1162936E+00
          1   -1    0    0  501    0  0.00000000000E+00  0.00000000000E+00  0.61104626357E+03  0.61104626357E+03  0.00000000000E+00 0. -1.
         -1   -1    0    0    0  501 -0.00000000000E+00 -0.00000000000E+00 -0.65812500013E+02  0.65812500013E+02  0.00000000000E+00 0.  1.
         25    2    1    2    0    0  0.14244339397E+03 -0.88821135205E+02  0.29241005733E+03  0.35962571518E+03  0.12509076245E+03 0.  0.
          5    1    3    3  502    0  0.42992499317E+02 -0.70468896022E+02  0.22045215823E+03  0.23543756449E+03  0.41800000000E+01 0.  1.
         -5    1    3    3    0  502  0.99450894654E+02 -0.18352239183E+02  0.71957899092E+02  0.12418815069E+03  0.41800000000E+01 0.  1.
        -11    1    1    2    0    0 -0.15113247752E+03  0.71925777676E+02  0.19830056449E+03  0.25949461870E+03  0.00000000000E+00 0.  1.
         11    1    1    2    0    0  0.86890835498E+01  0.16895357529E+02  0.54523141742E+02  0.57738429702E+02  0.00000000000E+00 0. -1.
</event>
<event>
 7    1  0.2670433E-009  0.1062428E+03  0.7561462E-02  0.1267690E+00
         -1   -1    0    0    0  501 -0.00000000000E+00  0.00000000000E+00  0.68466343597E+02  0.68466343597E+02  0.00000000000E+00 0.  1.
          1   -1    0    0  501    0  0.00000000000E+00 -0.00000000000E+00 -0.32573803771E+03  0.32573803771E+03  0.00000000000E+00 0. -1.
         25    2    1    2    0    0  0.64026277448E+02  0.49506473935E+02 -0.56206224025E+02  0.15924348566E+03  0.12509633463E+03 0.  0.
          5    1    3    3  502    0  0.56388074393E+02  0.19335421063E+01  0.27242417231E+02  0.62793114395E+02  0.41800000000E+01 0.  1.
         -5    1    3    3    0  502  0.76382030551E+01  0.47572931829E+02 -0.83448641256E+02  0.96450371260E+02  0.41800000000E+01 0.  1.
        -11    1    1    2    0    0 -0.61800485853E+01  0.17773822135E+02 -0.45752185302E+01  0.19365804357E+02  0.00000000000E+00 0.  1.
         11    1    1    2    0    0 -0.57846228863E+02 -0.67280296070E+02 -0.19649025155E+03  0.21559509129E+03  0.00000000000E+00 0. -1.
</event>
<event>
 7    1  0.2670433E-009  0.1327896E+03  0.7561462E-02  0.1223374E+00
          1   -1    0    0  501    0  0.00000000000E+00  0.00000000000E+00  0.38341035699E+03  0.38341035699E+03  0.00000000000E+00 0. -1.
         -1   -1    0    0    0  501 -0.00000000000E+00 -0.00000000000E+00 -0.50754303692E+02  0.50754303692E+02  0.00000000000E+00 0.  1.
         25    2    1    2    0    0  0.13102673849E+02  0.83063546150E+02  0.22486054239E+03  0.27070262196E+03  0.12508562368E+03 0.  0.
          5    1    3    3  502    0  0.22005008122E+02 -0.25491679311E+02  0.96574664813E+02  0.10236300299E+03  0.41800000000E+01 0. -1.
         -5    1    3    3    0  502 -0.89023342730E+01  0.10855522546E+03  0.12828587758E+03  0.16833961898E+03  0.41800000000E+01 0. -1.
        -11    1    1    2    0    0  0.35349093145E+02 -0.58431041128E+02  0.54963534109E+02  0.87662620513E+02  0.00000000000E+00 0.  1.
         11    1    1    2    0    0 -0.48451766995E+02 -0.24632505022E+02  0.52831976800E+02  0.75799418211E+02  0.00000000000E+00 0. -1.
</event>
<event>
 7    1  0.2670433E-009  0.1540843E+03  0.7561462E-02  0.1195542E+00
          1   -1    0    0  501    0  0.00000000000E+00  0.00000000000E+00  0.81746891111E+03  0.81746891111E+03  0.00000000000E+00 0. -1.
         -1   -1    0    0    0  501 -0.00000000000E+00 -0.00000000000E+00 -0.34510233173E+02  0.34510233173E+02  0.00000000000E+00 0.  1.
         25    2    1    2    0    0  0.13843062484E+02  0.11768989914E+03  0.28927755325E+03  0.33670705885E+03  0.12509035905E+03 0.  0.
          5    1    3    3  502    0 -0.43054217312E+02  0.17698976609E+02  0.37723233312E+02  0.60061919157E+02  0.41800000000E+01 0. -1.
         -5    1    3    3    0  502  0.56897279796E+02  0.99990922534E+02  0.25155431993E+03  0.27664513969E+03  0.41800000000E+01 0. -1.
        -11    1    1    2    0    0  0.30492530482E+02 -0.87527236920E+02  0.34431877231E+03  0.35657569825E+03  0.00000000000E+00 0. -1.
         11    1    1    2    0    0 -0.44335592965E+02 -0.30162662223E+02  0.14936235238E+03  0.15869638718E+03  0.00000000000E+00 0.  1.
</event>
<event>
 7    1  0.2670433E-009  0.1019259E+03  0.7561462E-02  0.1276297E+00
          2   -1    0    0  501    0  0.00000000000E+00  0.00000000000E+00  0.20649367778E+04  0.20649367778E+04  0.00000000000E+00 0.  1.
         -2   -1    0    0    0  501 -0.00000000000E+00 -0.00000000000E+00 -0.10533056917E+02  0.10533056917E+02  0.00000000000E+00 0. -1.
         25    2    1    2    0    0 -0.16131161125E+01  0.21262014849E+02  0.18261755421E+04  0.18305785678E+04  0.12508439858E+03 0.  0.
          5    1    3    3  502    0  0.47282362470E+02 -0.25219859838E+02  0.10838588690E+04  0.10851908512E+04  0.41800000000E+01 0. -1.
         -5    1    3    3    0  502 -0.48895478583E+02  0.46481874687E+02  0.74231667311E+03  0.74538771661E+03  0.41800000000E+01 0. -1.
        -11    1    1    2    0    0  0.37992367753E+02 -0.25686541906E+02  0.17011037986E+03  0.17618388058E+03  0.00000000000E+00 0.  1.
         11    1    1    2    0    0 -0.36379251640E+02  0.44245270566E+01  0.58117798914E+02  0.68707386358E+02  0.00000000000E+00 0. -1.
</event>
<event>
 7    1  0.2670433E-009  0.1660364E+03  0.7561462E-02  0.1182045E+00
          2   -1    0    0  501    0  0.00000000000E+00  0.00000000000E+00  0.50993107535E+03  0.50993107535E+03  0.00000000000E+00 0.  1.
         -2   -1    0    0    0  501 -0.00000000000E+00 -0.00000000000E+00 -0.80563522850E+02  0.80563522850E+02  0.00000000000E+00 0. -1.
         25    2    1    2    0    0  0.13603687001E+02 -0.15973646460E+03  0.22397683928E+03  0.30251176736E+03  0.12508775493E+03 0.  0.
          5    1    3    3  502    0 -0.13469915450E+02 -0.80677405724E+02  0.19899679276E+03  0.21519172462E+03  0.41800000000E+01 0.  1.
         -5    1    3    3    0  502  0.27073602451E+02 -0.79059058872E+02  0.24980046521E+02  0.87320042736E+02  0.41800000000E+01 0.  1.
        -11    1    1    2    0    0  0.13493382756E+02  0.19769636779E+02  0.11878602162E+03  0.12117354847E+03  0.00000000000E+00 0.  1.
         11    1    1    2    0    0 -0.27097069757E+02  0.13996682782E+03  0.86604691598E+02  0.16680928237E+03  0.00000000000E+00 0. -1.
</event>
<event>
 7    1  0.2670433E-009  0.1444939E+03  0.7561462E-02  0.1207407E+00
         -1   -1    0    0    0  501 -0.00000000000E+00  0.00000000000E+00  0.37053387547E+03  0.37053387547E+03  0.00000000000E+00 0.  1.
          1   -1    0    0  501    0  0.00000000000E+00 -0.00000000000E+00 -0.10006865602E+03  0.10006865602E+03  0.00000000000E+00 0. -1.
         25    2    1    2    0    0 -0.64947977241E+02 -0.95689039840E+02  0.27397397704E+03  0.32262019495E+03  0.12508963986E+03 0.  0.
          5    1    3    3  502    0 -0.25444969229E+02 -0.10550025764E+03  0.25569794190E+03  0.27780687665E+03  0.41800000000E+01 0. -1.
         -5    1    3    3    0  502 -0.39503008011E+02  0.98112178003E+01  0.18276035141E+02  0.44813318301E+02  0.41800000000E+01 0. -1.
        -11    1    1    2    0    0  0.83097152196E+02  0.74937495962E+02 -0.22979384283E+02  0.11423141909E+03  0.00000000000E+00 0.  1.
         11    1    1    2    0    0 -0.18149174955E+02  0.20751543877E+02  0.19470626700E+02  0.33750917453E+02  0.00000000000E+00 0. -1.
</event>
<event>
 7    1  0.2670433E-009  0.1349214E+03  0.7561462E-02  0.1220331E+00
         -1   -1    0    0    0  501 -0.00000000000E+00  0.00000000000E+00  0.69606249764E+02  0.69606249764E+02  0.00000000000E+00 0.  1.
          1   -1    0    0  501    0  0.00000000000E+00 -0.00000000000E+00 -0.31885639164E+03  0.31885639164E+03  0.00000000000E+00 0. -1.
         25    2    1    2    0    0 -0.89674471461E+01 -0.86899884128E+02 -0.68088805459E+02  0.16707498527E+03  0.12508381312E+03 0.  0.
          5    1    3    3  502    0 -0.63129852753E+02 -0.64856413946E+02 -0.24023819945E+02  0.93735527220E+02  0.41800000000E+01 0. -1.
         -5    1    3    3    0  502  0.54162405607E+02 -0.22043470183E+02 -0.44064985514E+02  0.73339458051E+02  0.41800000000E+01 0. -1.
        -11    1    1    2    0    0  0.16200720162E+02 -0.12802170664E+02 -0.94728725338E+01  0.22717707224E+02  0.00000000000E+00 0.  1.
         11    1    1    2    0    0 -0.72332730159E+01  0.99702054793E+02 -0.17168846388E+03  0.19866994891E+03  0.00000000000E+00 0. -1.
</event>
<event>
 7    1  0.2670433E-009  0.1683920E+03  0.7561462E-02  0.1179535E+00
         -3   -1    0    0    0  501 -0.00000000000E+00  0.00000000000E+00  0.10727897060E+03  0.10727897060E+03  0.00000000000E+00 0. -1.
          3   -1    0    0  501    0  0.00000000000E+00 -0.00000000000E+00 -0.28447588636E+03  0.28447588636E+03  0.00000000000E+00 0.  1.
         25    2    1    2    0    0  0.25000080293E+02  0.13735641816E+03 -0.78485422784E+02  0.20322143820E+03  0.12508877539E+03 0.  0.
          5    1    3    3  502    0  0.60674931394E+02  0.13765104521E+03 -0.54610868952E+02  0.16009083970E+03  0.41800000000E+01 0.  1.
         -5    1    3    3    0  502 -0.35674851101E+02 -0.29462705458E+00 -0.23874553832E+02  0.43130598499E+02  0.41800000000E+01 0.  1.
        -11    1    1    2    0    0 -0.42763047050E+02 -0.86227370403E+02 -0.93449395936E+02  0.13415150838E+03  0.00000000000E+00 0.  1.
         11    1    1    2    0    0  0.17762966758E+02 -0.51129047754E+02 -0.52620970398E+01  0.54381910389E+02  0.00000000000E+00 0. -1.
</event>
<event>
 7    1  0.2670433E-009  0.9672369E+02  0.7561462E-02  0.1287340E+00
          2   -1    0    0  501    0  0.00000000000E+00  0.00000000000E+00  0.15659572549E+03  0.15659572549E+03  0.00000000000E+00 0. -1.
         -2   -1    0    0    0  501 -0.00000000000E+00 -0.00000000000E+00 -0.79391140544E+02  0.79391140544E+02  0.00000000000E+00 0.  1.
         25    2    1    2    0    0  0.50808867340E+01 -0.20308525217E+02  0.19895465579E+02  0.12838048550E+03  0.12508983931E+03 0.  0.
          5    1    3    3  502    0  0.58888821732E+02  0.10903903743E+02 -0.70754980965E+01  0.60451000944E+02  0.41800000000E+01 0. -1.
         -5    1    3    3    0  502 -0.53807934998E+02 -0.31212428960E+02  0.26970963676E+02  0.67929484555E+02  0.41800000000E+01 0. -1.
        -11    1    1    2    0    0  0.30623895502E+02  0.13815040573E+01 -0.71959142832E+01  0.31488294834E+02  0.00000000000E+00 0.  1.
         11    1    1    2    0    0 -0.35704782236E+02  0.18927021160E+02  0.64505033649E+02  0.76118085700E+02  0.00000000000E+00 0. -1.
</event>
<event>
 7    1  0.2670433E-009  0.1208538E+03  0.7561462E-02  0.1241695E+00
          1   -1    0    0  501    0  0.00000000000E+00  0.00000000000E+00  0.24425086116E+03  0.24425086116E+03  0.00000000000E+00 0. -1.
         -1   -1    0    0    0  501 -0.00000000000E+00 -0.00000000000E+00 -0.63664563014E+02  0.63664563014E+02  0.00000000000E+00 0.  1.
         25    2    1    2    0    0 -0.38373110280E+02 -0.44616057200E+02  0.11925581650E+03  0.18256831995E+03  0.12508458550E+03 0.  0.
          5    1    3    3  502    0  0.33158478183E+02  0.18940303713E+02  0.55545130364E+02  0.67534833141E+02  0.41800000000E+01 0.  1.
         -5    1    3    3    0  502 -0.71531588463E+02 -0.63556360913E+02  0.63710686135E+02  0.11503348681E+03  0.41800000000E+01 0.  1.
        -11    1    1    2    0    0  0.67246208254E+02  0.40085511463E+02  0.54334651243E+02  0.95295094730E+02  0.00000000000E+00 0. -1.
         11    1    1    2    0    0 -0.28873097974E+02  0.45305457370E+01  0.69958304024E+01  0.30052009489E+02  0.00000000000E+00 0.  1.
</event>
<event>
 7    1  0.2670433E-009  0.1027071E+03  0.7561462E-02  0.1274704E+00
          1   -1    0    0  501    0  0.00000000000E+00  0.00000000000E+00  0.32373702438E+03  0.32373702438E+03  0.00000000000E+00 0. -1.
         -1   -1    0    0    0  501 -0.00000000000E+00 -0.00000000000E+00 -0.43467216907E+02  0.43467216907E+02  0.00000000000E+00 0.  1.
         25    2    1    2    0    0  0.15779148336E+01 -0.10303754670E+02  0.22838068925E+03  0.26060239231E+03  0.12508881036E+03 0.  0.
          5    1    3    3  502    0  0.79023929549E+01 -0.66641401088E+02  0.10393325248E+03  0.12378658055E+03  0.41800000000E+01 0. -1.
         -5    1    3    3    0  502 -0.63244781213E+01  0.56337646418E+02  0.12444743677E+03  0.13681581175E+03  0.41800000000E+01 0. -1.
        -11    1    1    2    0    0 -0.34368901358E+02 -0.17291167254E+02  0.50808000294E+02  0.63731144187E+02  0.00000000000E+00 0. -1.
         11    1    1    2    0    0  0.32790986525E+02  0.27594921924E+02  0.10811179256E+01  0.42870704790E+02  0.00000000000E+00 0.  1.
</event>
<event>
 7    1  0.2670433E-009  0.6674811E+02  0.7561462E-02  0.1371514E+00
         -2   -1    0    0    0  501 -0.00000000000E+00  0.00000000000E+00  0.11476012930E+03  0.11476012930E+03  0.00000000000E+00 0. -1.
          2   -1    0    0  501    0  0.00000000000E+00 -0.00000000000E+00 -0.19749426966E+03  0.19749426966E+03  0.00000000000E+00 0.  1.
         25    2    1    2    0    0 -0.38920847288E+02 -0.15577157096E+02 -0.14549709026E+03  0.19640524104E+03  0.12509250680E+03 0.  0.
          5    1    3    3  502    0 -0.24484972801E+01  0.94800126680E+01  0.21286718908E+02  0.23800474385E+02  0.41800000000E+01 0.  1.
         -5    1    3    3    0  502 -0.36472350008E+02 -0.25057169764E+02 -0.16678380916E+03  0.17260476665E+03  0.41800000000E+01 0.  1.
        -11    1    1    2    0    0  0.56156831558E+02  0.21566829228E+02  0.11248388040E+02  0.61198399384E+02  0.00000000000E+00 0.  1.
         11    1    1    2    0    0 -0.17235984271E+02 -0.59896721311E+01  0.51514561855E+02  0.54650758541E+02  0.00000000000E+00 0. -1.
</event>
<event>
 7    1  0.2670433E-009  0.1423566E+03  0.7561462E-02  0.1210193E+00
         -3   -1    0    0    0  501 -0.00000000000E+00  0.00000000000E+00  0.21575634665E+02  0.21575634665E+02  0.00000000000E+00 0.  1.
          3   -1    0    0  501    0  0.00000000000E+00 -0.00000000000E+00 -0.13481864861E+04  0.13481864861E+04  0.00000000000E+00 0. -1.
         25    2    1    2    0    0  0.93509408165E+02  0.15482878033E+02 -0.10612166109E+04  0.10727584094E+04  0.12508469401E+03 0.  0.
          5    1    3    3  502    0  0.16679585871E+02  0.62607089689E+02 -0.52567678062E+03  0.52967103598E+03  0.41800000000E+01 0. -1.
         -5    1    3    3    0  502  0.76829822294E+02 -0.47124211656E+02 -0.53553983028E+03  0.54308737339E+03  0.41800000000E+01 0. -1.
        -11    1    1    2    0    0 -0.87300317077E+02  0.23241675059E+02 -0.21452344836E+03  0.23276990939E+03  0.00000000000E+00 0. -1.
         11    1    1    2    0    0 -0.62090910883E+01 -0.38724553092E+02 -0.50870792162E+02  0.64233802001E+02  0.00000000000E+00 0.  1.
</event>
<event>
 7    1  0.2670433E-009  0.1788217E+03  0.7561462E-02  0.1168948E+00
          2   -1    0    0  501    0  0.00000000000E+00  0.00000000000E+00  0.75614005757E+03  0.75614005757E+03  0.00000000000E+00 0.  1.
         -2   -1    0    0    0  501 -0.00000000000E+00 -0.00000000000E+00 -0.47873201326E+02  0.47873201326E+02  0.00000000000E+00 0. -1.
         25    2    1    2    0    0  0.66151406272E+02 -0.14072480444E+03  0.36663831581E+03  0.41743364597E+03  0.12509082711E+03 0.  0.
          5    1    3    3  502    0  0.91630792499E+02 -0.61404162054E+02  0.15801008683E+03  0.19274681111E+03  0.41800000000E+01 0.  1.
         -5    1    3    3    0  502 -0.25479386227E+02 -0.79320642384E+02  0.20862822898E+03  0.22468683486E+03  0.41800000000E+01 0.  1.
        -11    1    1    2    0    0 -0.53677084266E+02  0.53689819243E+02  0.24235303043E+03  0.25396617378E+03  0.00000000000E+00 0.  1.
         11    1    1    2    0    0 -0.12474322006E+02  0.87034985194E+02  0.99275509997E+02  0.13261343915E+03  0.00000000000E+00 0. -1.
</event>
<event>
 7    1  0.3046235E-009  0.1558104E+03  0.7561462E-02  0.1193510E+00
          2   -1    0    0  501    0  0.00000000000E+00  0.00000000000E+00  0.47275578380E+03  0.47275578380E+03  0.00000000000E+00 0.  1.
         -2   -1    0    0    0  501 -0.00000000000E+00 -0.00000000000E+00 -0.60926383807E+02  0.60926383807E+02  0.00000000000E+00 0. -1.
         25    2    1    2    0    0 -0.12374733103E+03 -0.27894877868E+02  0.26449822531E+03  0.31890214959E+03  0.12509094162E+03 0.  0.
          5    1    3    3  502    0 -0.12214807438E+03  0.15988122214E+02  0.13850299763E+03  0.18540853507E+03  0.41800000000E+01 0.  1.
         -5    1    3    3    0  502 -0.15992566469E+01 -0.43883000082E+02  0.12599522768E+03  0.13349361452E+03  0.41800000000E+01 0.  1.
        -11    1    1    2    0    0  0.66784253043E+02  0.49707742313E+02  0.42448047074E+02  0.93449627077E+02  0.00000000000E+00 0. -1.
         11    1    1    2    0    0  0.56963077982E+02 -0.21812864445E+02  0.10488312761E+03  0.12133039094E+03  0.00000000000E+00 0.  1.
</event>
<event>
 7    1  0.2670433E-009  0.1380206E+03  0.7561462E-02  0.1216018E+00
          4   -1    0    0  501    0  0.00000000000E+00  0.00000000000E+00  0.73009011654E+03  0.73009011654E+03  0.00000000000E+00 0. -1.
         -4   -1    0    0    0  501 -0.00000000000E+00 -0.00000000000E+00 -0.29206993734E+02  0.29206993734E+02  0.00000000000E+00 0.  1.
         25    2    1    2    0    0  0.22089921772E+02  0.94105123798E+02  0.35040980328E+03  0.38442004872E+03  0.12509198477E+03 0.  0.
          5    1    3    3  502    0 -0.39389036439E+02  0.65265264784E+02  0.10543586455E+03  0.13017390258E+03  0.41800000000E+01 0. -1.
         -5    1    3    3    0  502  0.61478958211E+02  0.28839859014E+02  0.24497393873E+03  0.25424614614E+03  0.41800000000E+01 0. -1.
        -11    1    1    2    0    0  0.31168336247E+02 -0.62212094023E+02  0.15808198355E+03  0.17271862479E+03  0.00000000000E+00 0.  1.
         11    1    1    2    0    0 -0.53258258019E+02 -0.31893029775E+02  0.19239133598E+03  0.20215843676E+03  0.00000000000E+00 0. -1.
</event>
<event>
 7    1  0.2670433E-009  0.1101473E+03  0.7561462E-02  0.1260297E+00
          1   -1    0    0  501    0  0.00000000000E+00  0.00000000000E+00  0.17420571057E+03  0.17420571057E+03  0.00000000000E+00 0. -1.
         -1   -1    0    0    0  501 -0.00000000000E+00 -0.00000000000E+00 -0.95009402486E+02  0.95009402486E+02  0.00000000000E+00 0.  1.
         25    2    1    2    0    0 -0.40625496657E+02  0.32936739560E+02  0.92271960066E+02  0.16400345758E+03  0.12509100564E+03 0.  0.
          5    1    3    3  502    0 -0.82070424936E+02  0.11427828838E+02  0.35148511308E+02  0.90105716624E+02  0.41800000000E+01 0.  1.
         -5    1    3    3    0  502  0.41444928279E+02  0.21508910722E+02  0.57123448758E+02  0.73897740957E+02  0.41800000000E+01 0.  1.
        -11    1    1    2    0    0  0.45624839258E+02  0.10422386650E+02 -0.32967586127E+02  0.57246081402E+02  0.00000000000E+00 0.  1.
         11    1    1    2    0    0 -0.49993426012E+01 -0.43359126210E+02  0.19891934144E+02  0.47965574073E+02  0.00000000000E+00 0. -1.
</event>
<event>
 7    1  0.2670433E-009  0.1030667E+03  0.7561462E-02  0.1273976E+00
         -2   -1    0    0    0  501 -0.00000000000E+00  0.00000000000E+00  0.21024975344E+03  0.21024975344E+03  0.00000000000E+00 0.  1.
          2   -1    0    0  501    0  0.00000000000E+00 -0.00000000000E+00 -0.75517712073E+02  0.75517712073E+02  0.00000000000E+00 0. -1.
         25    2    1    2    0    0  0.37129348865E+02 -0.53619481775E+01  0.17579904669E+02  0.13177092170E+03  0.12508870342E+03 0.  0.
          5    1    3    3  502    0 -0.43917389943E+02 -0.13685881932E+01 -0.11261853697E+02  0.45551201101E+02  0.41800000000E+01 0.  1.
         -5    1    3    3    0  502  0.81046738808E+02 -0.39933599844E+01  0.28841758366E+02  0.86219720603E+02  0.41800000000E+01 0.  1.
        -11    1    1    2    0    0 -0.51378036284E+02  0.24470141715E+02  0.11706095907E+03  0.13016051086E+03  0.00000000000E+00 0.  1.
         11    1    1    2    0    0  0.14248687420E+02 -0.19108193537E+02  0.91177626052E-01  0.23836032950E+02  0.00000000000E+00 0. -1.
</event>
<event>
 7    1  0.2670433E-009  0.1465616E+03  0.7561462E-02  0.1204763E+00
         -2   -1    0    0    0  501 -0.00000000000E+00  0.00000000000E+00  0.56711877664E+02  0.56711877664E+02  0.00000000000E+00 0.  1.
          2   -1    0    0  501    0  0.00000000000E+00 -0.00000000000E+00 -0.64994423806E+03  0.64994423806E+03  0.00000000000E+00 0. -1.
         25    2    1    2    0    0 -0.99225295166E+02 -0.35491352036E+01 -0.53616084472E+03  0.55944086275E+03  0.12508945579E+03 0.  0.
          5    1    3    3  502    0  0.10748541910E+02 -0.40709451572E+02 -0.11428857381E+03  0.12186936081E+03  0.41800000000E+01 0. -1.
         -5    1    3    3    0  502 -0.10997383708E+03  0.37160316369E+02 -0.42187227090E+03  0.43757150194E+03  0.41800000000E+01 0. -1.
        -11    1    1    2    0    0  0.61531109572E+01  0.35668557336E+02 -0.74294565613E+01  0.36950014637E+02  0.00000000000E+00 0.  1.
         11    1    1    2    0    0  0.93072184209E+02 -0.32119422133E+02 -0.49642059121E+02  0.11026523834E+03  0.00000000000E+00 0. -1.
</event>
<event>
 7    1  0.3647725E-009  0.1778516E+03  0.7561462E-02  0.1169899E+00
          2   -1    0    0  501    0  0.00000000000E+00  0.00000000000E+00  0.10312298334E+04  0.10312298334E+04  0.00000000000E+00 0. -1.
         -2   -1    0    0    0  501 -0.00000000000E+00 -0.00000000000E+00 -0.40537086522E+02  0.40537086522E+02  0.00000000000E+00 0.  1.
         25    2    1    2    0    0  0.16343152843E+03  0.44145527965E+02  0.61140027103E+03  0.64661889329E+03  0.12508800754E+03 0.  0.
          5    1    3    3  502    0  0.51520527103E+02 -0.53717135129E+01  0.50338866854E+02  0.72351184753E+02  0.41800000000E+01 0. -1.
         -5    1    3    3    0  502  0.11191100132E+03  0.49517241478E+02  0.56106140417E+03  0.57426770854E+03  0.41800000000E+01 0. -1.
        -11    1    1    2    0    0 -0.65968982138E+02  0.14495688615E+02  0.21472582125E+03  0.22509822280E+03  0.00000000000E+00 0. -1.
         11    1    1    2    0    0 -0.97462546287E+02 -0.58641216580E+02  0.16456665464E+03  0.20004980387E+03  0.00000000000E+00 0.  1.
</event>
<event>
 7    1  0.2670433E-009  0.1265087E+03  0.7561462E-02  0.1232730E+00
         -1   -1    0    0    0  501 -0.00000000000E+00  0.00000000000E+00  0.18039491809E+02  0.18039491809E+02  0.00000000000E+00 0.  1.
          1   -1    0    0  501    0  0.00000000000E+00 -0.00000000000E+00 -0.10137258610E+04  0.10137258610E+04  0.00000000000E+00 0. -1.
         25    2    1    2    0    0 -0.48064824695E+02 -0.62194898721E+02 -0.60679774298E+03  0.62452350605E+03  0.12509067083E+03 0.  0.
          5    1    3    3  502    0 -0.36615215614E+02  0.24798355473E+02 -0.35654414695E+03  0.35930047811E+03  0.41800000000E+01 0.  1.
         -5    1    3    3    0  502 -0.11449609081E+02 -0.86993254194E+02 -0.25025359603E+03  0.26522302794E+03  0.41800000000E+01 0.  1.
        -11    1    1    2    0    0  0.71669760356E+02  0.23492406799E+02 -0.23388196608E+03  0.24574218560E+03  0.00000000000E+00 0. -1.
         11    1    1    2    0    0 -0.23604935661E+02  0.38702491922E+02 -0.15500666017E+03  0.16149966119E+03  0.00000000000E+00 0.  1.
</event>
<event>
 7    1  0.2670433E-009  0.8893948E+02  0.7561462E-02  0.1305440E+00
         -1   -1    0    0    0  501 -0.00000000000E+00  0.00000000000E+00  0.26800009120E+02  0.26800009120E+02  0.00000000000E+00 0.  1.
          1   -1    0    0  501    0  0.00000000000E+00 -0.00000000000E+00 -0.57784692555E+03  0.57784692555E+03  0.00000000000E+00 0. -1.
         25    2    1    2    0    0 -0.51595973768E+02 -0.25094631090E+02 -0.34682395079E+03  0.37313041737E+03  0.12509024945E+03 0.  0.
          5    1    3    3  502    0 -0.61218589145E+02  0.21971684990E+02 -0.29592004549E+03  0.30301256792E+03  0.41800000000E+01 0. -1.
         -5    1    3    3    0  502  0.96226153771E+01 -0.47066316079E+02 -0.50903905300E+02  0.70117849445E+02  0.41800000000E+01 0. -1.
        -11    1    1    2    0    0  0.46970030264E+02  0.91159560815E+01 -0.20884159906E+03  0.21425241631E+03  0.00000000000E+00 0. -1.
         11    1    1    2    0    0  0.46259435039E+01  0.15978675008E+02  0.46186334162E+01  0.17264100989E+02  0.00000000000E+00 0.  1.
</event>
<event>
 7    1  0.2670433E-009  0.1841695E+03  0.7561462E-02  0.1163828E+00
          2   -1    0    0  501    0  0.00000000000E+00  0.00000000000E+00  0.31958343324E+03  0.31958343324E+03  0.00000000000E+00 0. -1.
         -2   -1    0    0    0  501 -0.00000000000E+00 -0.00000000000E+00 -0.13386811429E+03  0.13386811429E+03  0.00000000000E+00 0.  1.
         25    2    1    2    0    0  0.15787275047E+03 -0.75755884863E+01  0.15956823194E+02  0.20219663153E+03  0.12509061801E+03 0.  0.
          5    1    3    3  502    0  0.55430223109E+02  0.42560370917E+02  0.46506706579E+02  0.84049039039E+02  0.41800000000E+01 0.  1.
         -5    1    3    3    0  502  0.10244252736E+03 -0.50135959403E+02 -0.30549883385E+02  0.11814759249E+03  0.41800000000E+01 0.  1.
        -11    1    1    2    0    0 -0.84274537057E+01 -0.29120125665E+02  0.18702314593E+02  0.35619941969E+02  0.00000000000E+00 0.  1.
         11    1    1    2    0    0 -0.14944529676E+03  0.36695714152E+02  0.15105618116E+03  0.21563497404E+03  0.00000000000E+00 0. -1.
</event>
<event>
 7    1  0.2670433E-009  0.1037658E+03  0.7561462E-02  0.1272571E+00
          1   -1    0    0  501    0  0.00000000000E+00  0.00000000000E+00  0.22399242278E+03  0.22399242278E+03  0.00000000000E+00 0. -1.
         -1   -1    0    0    0  501 -0.00000000000E+00 -0.00000000000E+00 -0.64142633521E+02  0.64142633521E+02  0.00000000000E+00 0.  1.
         25    2    1    2    0    0  0.31382549049E+02  0.15857439499E+02  0.47033907571E+02  0.13818970640E+03  0.12509150140E+03 0.  0.
          5    1    3    3  502    0 -0.48156311541E+02  0.12547453826E+02  0.22571802840E+02  0.54803536585E+02  0.41800000000E+01 0.  1.
         -5    1    3    3    0  502  0.79538860589E+02  0.33099856727E+01  0.24462104731E+02  0.83386169818E+02  0.41800000000E+01 0.  1.
        -11    1    1    2    0    0 -0.49352701271E+00 -0.39171748924E+02  0.10273979276E+03  0.10995514767E+03  0.00000000000E+00 0. -1.
         11    1    1    2    0    0 -0.30889022036E+02  0.23314309426E+02  0.10076088929E+02  0.39990202231E+02  0.00000000000E+00 0.  1.
</event>
<event>
 7    1  0.2670433E-009  0.1788194E+03  0.7561462E-02  0.1168951E+00
          1   -1    0    0  501    0  0.00000000000E+00  0.00000000000E+00  0.79269680721E+03  0.79269680721E+03  0.00000000000E+00 0. -1.
         -1   -1    0    0    0  501 -0.00000000000E+00 -0.00000000000E+00 -0.42009036465E+02  0.42009036465E+02  0.00000000000E+00 0.  1.
         25    2    1    2    0    0  0.11181692963E+03  0.88634201481E+02  0.32072347595E+03  0.37265314153E+03  0.12509104062E+03 0.  0.
          5    1    3    3  502    0 -0.21317705405E+02  0.43963714398E+02  0.75209691895E+02  0.89784313231E+02  0.41800000000E+01 0.  1.
         -5    1    3    3    0  502  0.13313463504E+03  0.44670487083E+02  0.24551378406E+03  0.28286882830E+03  0.41800000000E+01 0.  1.
        -11    1    1    2    0    0 -0.61660031835E+02  0.50264749125E+01  0.18403524133E+03  0.19415507984E+03  0.00000000000E+00 0. -1.
         11    1    1    2    0    0 -0.50156897796E+02 -0.93660676394E+02  0.24592905346E+03  0.26789762230E+03  0.00000000000E+00 0.  1.
</event>
<event>
 7    1  0.2670433E-009  0.2565125E+03  0.7561462E-02  0.1109257E+00
          2   -1    0    0  501    0  0.00000000000E+00  0.00000000000E+00  0.53529843613E+03  0.53529843613E+03  0.00000000000E+00 0. -1.
         -2   -1    0    0    0  501 -0.00000000000E+00 -0.00000000000E+00 -0.13703889473E+03  0.13703889473E+03  0.00000000000E+00 0.  1.
         25    2    1    2    0    0  0.11540624996E+02  0.24313060640E+03  0.26031321019E+03  0.37769881135E+03  0.12509095451E+03 0.  0.
          5    1    3    3  502    0  0.46089094203E+02  0.11965085170E+03  0.64469488145E+02  0.14357687216E+03  0.41800000000E+01 0. -1.
         -5    1    3    3    0  502 -0.34548469207E+02  0.12347975470E+03  0.19584372204E+03  0.23412193918E+03  0.41800000000E+01 0. -1.
        -11    1    1    2    0    0 -0.35595103028E+02 -0.22071432835E+03  0.10142629748E+03  0.24549769840E+03  0.00000000000E+00 0.  1.
         11    1    1    2    0    0  0.24054478032E+02 -0.22416278049E+02  0.36520033741E+02  0.49140821110E+02  0.00000000000E+00 0. -1.
</event>
<event>
 7    1  0.2670433E-009  0.1183596E+03  0.7561462E-02  0.1245828E+00
         -2   -1    0    0    0  501 -0.00000000000E+00  0.00000000000E+00  0.19401539977E+02  0.19401539977E+02  0.00000000000E+00 0.  1.
          2   -1    0    0  501    0  0.00000000000E+00 -0.00000000000E+00 -0.89766008527E+03  0.89766008527E+03  0.00000000000E+00 0. -1.
         25    2    1    2    0    0  0.32449107968E+02  0.51835455237E+02 -0.64045537514E+03  0.65541603934E+03  0.12508892060E+03 0.  0.
          5    1    3    3  502    0  0.66984442578E+02 -0.67226817791E+01 -0.39354213360E+03  0.39928059471E+03  0.41800000000E+01 0.  1.
         -5    1    3    3    0  502 -0.34535334610E+02  0.58558137016E+02 -0.24691324155E+03  0.25613544463E+03  0.41800000000E+01 0.  1.
        -11    1    1    2    0    0  0.99813088057E+01 -0.57491074911E+02 -0.18317298075E+03  0.19224253196E+03  0.00000000000E+00 0. -1.
         11    1    1    2    0    0 -0.42430416774E+02  0.56556196747E+01 -0.54630189406E+02  0.69403053939E+02  0.00000000000E+00 0.  1.
</event>
<event>
 7    1  0.2670433E-009  0.8823834E+02  0.7561462E-02  0.1307175E+00
         -2   -1    0    0    0  501 -0.00000000000E+00  0.00000000000E+00  0.10398006722E+03  0.10398006722E+03  0.00000000000E+00 0.  1.
          2   -1    0    0  501    0  0.00000000000E+00 -0.00000000000E+00 -0.19613534776E+03  0.19613534776E+03  0.00000000000E+00 0. -1.
         25    2    1    2    0    0  0.45017225863E+02 -0.80956504340E+01 -0.13388202014E+03  0.18884924591E+03  0.12509017621E+03 0.  0.
          5    1    3    3  502    0  0.62264746948E+02 -0.50897869444E+02 -0.55520665922E+02  0.97813642049E+02  0.41800000000E+01 0.  1.
         -5    1    3    3    0  502 -0.17247521085E+02  0.42802219010E+02 -0.78361354214E+02  0.91035603859E+02  0.41800000000E+01 0.  1.
        -11    1    1    2    0    0 -0.26575699129E+02  0.14269565341E+02  0.70417048852E+02  0.76605802967E+02  0.00000000000E+00 0.  1.
         11    1    1    2    0    0 -0.18441526734E+02 -0.61739149070E+01 -0.28690309254E+02  0.34660366107E+02  0.00000000000E+00 0. -1.
</event>
<event>
 7    1  0.2670433E-009  0.1387830E+03  0.7561462E-02  0.1214976E+00
          1   -1    0    0  501    0  0.00000000000E+00  0.00000000000E+00  0.34737881155E+03  0.34737881155E+03  0.00000000000E+00 0. -1.
         -1   -1    0    0    0  501 -0.00000000000E+00 -0.00000000000E+00 -0.77470509807E+02  0.77470509807E+02  0.00000000000E+00 0.  1.
         25    2    1    2    0    0  0.10740502757E+03 -0.11455508076E+02  0.21910731579E+03  0.27444952022E+03  0.12508978657E+03 0.  0.
          5    1    3    3  502    0  0.89007307871E+02 -0.43248511348E+02  0.71174726987E+02  0.12196740856E+03  0.41800000000E+01 0.  1.
         -5    1    3    3    0  502  0.18397719697E+02  0.31793003272E+02  0.14793258880E+03  0.15248211166E+03  0.41800000000E+01 0.  1.
        -11    1    1    2    0    0 -0.20663807180E+02  0.44233638386E+02  0.16654747408E+02  0.51584768132E+02  0.00000000000E+00 0.  1.
         11    1    1    2    0    0 -0.86741220388E+02 -0.32778130310E+02  0.34146238542E+02  0.98815033004E+02  0.00000000000E+00 0. -1.
</event>
<event>
 7    1  0.2670433E-009  0.1132409E+03  0.7561462E-02  0.1254683E+00
          1   -1    0    0  501    0  0.00000000000E+00  0.00000000000E+00  0.68103496096E+02  0.68103496096E+02  0.00000000000E+00 0. -1.
         -1   -1    0    0    0  501 -0.00000000000E+00 -0.00000000000E+00 -0.26101125826E+03  0.26101125826E+03  0.00000000000E+00 0.  1.
         25    2    1    2    0    0 -0.46762157436E+00  0.38218331308E+02 -0.18788807639E+03  0.22893416847E+03  0.12509222487E+03 0.  0.
          5    1    3    3  502    0  0.16047687743E+02  0.80548459452E+02 -0.14279060032E+03  0.16477927825E+03  0.41800000000E+01 0. -1.
         -5    1    3    3    0  502 -0.16515309318E+02 -0.42330128144E+02 -0.45097476079E+02  0.64154890221E+02  0.41800000000E+01 0. -1.
        -11    1    1    2    0    0  0.41826073705E+02 -0.39086683455E+02 -0.11264030059E+02  0.58344388233E+02  0.00000000000E+00 0.  1.
         11    1    1    2    0    0 -0.41358452131E+02  0.86835214792E+00  0.62443442922E+01  0.41836197649E+02  0.00000000000E+00 0. -1.
</event>
<event>
 7    1  0.2670433E-009  0.2032651E+03  0.7561462E-02  0.1147013E+00
          1   -1    0    0  501    0  0.00000000000E+00  0.00000000000E+00  0.15737200155E+04  0.15737200155E+04  0.00000000000E+00 0. -1.
         -1   -1    0    0    0  501 -0.00000000000E+00 -0.00000000000E+00 -0.28864366437E+02  0.28864366437E+02  0.00000000000E+00 0.  1.
         25    2    1    2    0    0 -0.17117147822E+03 -0.44602238412E+02  0.98979721184E+03  0.10132300042E+04  0.12508991232E+03 0.  0.
          5    1    3    3  502    0 -0.17180477739E+03 -0.73290280758E+02  0.82392251170E+03  0.84483970342E+03  0.41800000000E+01 0.  1.
         -5    1    3    3    0  502  0.63329917168E+00  0.28688042346E+02  0.16587470014E+03  0.16839030075E+03  0.41800000000E+01 0.  1.
        -11    1    1    2    0    0  0.48295728471E+02 -0.19531341149E+02  0.89041997589E+02  0.10316214427E+03  0.00000000000E+00 0.  1.
         11    1    1    2    0    0  0.12287574975E+03  0.64133579561E+02  0.46601643968E+03  0.48619223354E+03  0.00000000000E+00 0. -1.
</event>
<event>
 7    1  0.2670433E-009  0.1050821E+03  0.7561462E-02  0.1269958E+00
         -1   -1    0    0    0  501 -0.00000000000E+00  0.00000000000E+00  0.25566001243E+02  0.25566001243E+02  0.00000000000E+00 0. -1.
          1   -1    0    0  501    0  0.00000000000E+00 -0.00000000000E+00 -0.52821611617E+03  0.52821611617E+03  0.00000000000E+00 0.  1.
         25    2    1    2    0    0  0.12751153033E+02  0.27213128318E+02 -0.21557503135E+03  0.25104645971E+03  0.12509430258E+03 0.  0.
          5    1    3    3  502    0  0.60632613965E+02  0.26336448136E+02 -0.64288140113E+02  0.92305794704E+02  0.41800000000E+01 0.  1.
         -5    1    3    3    0  502 -0.47881460932E+02  0.87668018188E+00 -0.15128689123E+03  0.15874066501E+03  0.41800000000E+01 0.  1.
        -11    1    1    2    0    0  0.28806842995E+02  0.18374570443E+02 -0.11305997214E+03  0.11811018730E+03  0.00000000000E+00 0. -1.
         11    1    1    2    0    0 -0.41557996028E+02 -0.45587698761E+02 -0.17401511144E+03  0.18462547040E+03  0.00000000000E+00 0.  1.
</event>
<event>
 7    1  0.2670433E-009  0.1494357E+03  0.7561462E-02  0.1201168E+00
          2   -1    0    0  501    0  0.00000000000E+00  0.00000000000E+00  0.34143926687E+03  0.34143926687E+03  0.00000000000E+00 0. -1.
         -2   -1    0    0    0  501 -0.00000000000E+00 -0.00000000000E+00 -0.72335732528E+02  0.72335732528E+02  0.00000000000E+00 0.  1.
         25    2    1    2    0    0  0.35134831301E+02  0.10293359392E+03  0.10533387178E+03  0.19639533307E+03  0.12508445619E+03 0.  0.
          5    1    3    3  502    0 -0.84087544086E+01 -0.26923097649E+02  0.14425955115E+02  0.31955295628E+02  0.41800000000E+01 0.  1.
         -5    1    3    3    0  502  0.43543585709E+02  0.12985669157E+03  0.90907916667E+02  0.16444003744E+03  0.41800000000E+01 0.  1.
        -11    1    1    2    0    0 -0.44824262331E+02 -0.18743717663E+02  0.24650605857E+02  0.54481132647E+02  0.00000000000E+00 0.  1.
         11    1    1    2    0    0  0.96894310304E+01 -0.84189876256E+02  0.13911905670E+03  0.16289853368E+03  0.00000000000E+00 0. -1.
</event>
<event>
 7    1  0.2670433E-009  0.8611201E+02  0.7561462E-02  0.1312550E+00
         -2   -1    0    0    0  501 -0.00000000000E+00  0.00000000000E+00  0.75261855629E+02  0.75261855629E+02  0.00000000000E+00 0.  1.
          2   -1    0    0  501    0  0.00000000000E+00 -0.00000000000E+00 -0.16740518844E+03  0.16740518844E+03  0.00000000000E+00 0. -1.
         25    2    1    2    0    0  0.23584716094E+02 -0.84671772005E+01 -0.58854671413E+02  0.14050117095E+03  0.12509506293E+03 0.  0.
          5    1    3    3  502    0  0.36974479134E+02 -0.34294414133E+02 -0.86459536434E+02  0.10017955275E+03  0.41800000000E+01 0.  1.
         -5    1    3    3    0  502 -0.13389763041E+02  0.25827236933E+02  0.27604865021E+02  0.40321618205E+02  0.41800000000E+01 0.  1.
        -11    1    1    2    0    0 -0.25112435420E+02 -0.38103461846E+02 -0.31660332413E+02  0.55541739853E+02  0.00000000000E+00 0.  1.
         11    1    1    2    0    0  0.15277193268E+01  0.46570639047E+02 -0.16283289859E+01  0.46624133266E+02  0.00000000000E+00 0. -1.
</event>
<event>
 7    1  0.2670433E-009  0.1485577E+03  0.7561462E-02  0.1202257E+00
         -2   -1    0    0    0  501 -0.00000000000E+00  0.00000000000E+00  0.32112485257E+02  0.32112485257E+02  0.00000000000E+00 0.  1.
          2   -1    0    0  501    0  0.00000000000E+00 -0.00000000000E+00 -0.87908818055E+03  0.87908818055E+03  0.00000000000E+00 0. -1.
         25    2    1    2    0    0  0.10165585885E+03 -0.49310288044E+02 -0.61478108523E+03  0.63747039471E+03  0.12508918112E+03 0.  0.
          5    1    3    3  502    0  0.59840712326E+02 -0.89932653682E+02 -0.34996705787E+03  0.36628296035E+03  0.41800000000E+01 0. -1.
         -5    1    3    3    0  502  0.41815146522E+02  0.40622365638E+02 -0.26481402736E+03  0.27118743436E+03  0.41800000000E+01 0. -1.
        -11    1    1    2    0    0 -0.53691558873E+02 -0.96571037258E+01 -0.15942852975E+03  0.16850370692E+03  0.00000000000E+00 0. -1.
         11    1    1    2    0    0 -0.47964299975E+02  0.58967391769E+02 -0.72766080312E+02  0.10522656418E+03  0.00000000000E+00 0.  1.
</event>
<event>
 7    1  0.2670433E-009  0.1097568E+03  0.7561462E-02  0.1261021E+00
          1   -1    0    0  501    0  0.00000000000E+00  0.00000000000E+00  0.23671970052E+03  0.23671970052E+03  0.00000000000E+00 0. -1.
         -1   -1    0    0    0  501 -0.00000000000E+00 -0.00000000000E+00 -0.61294762708E+02  0.61294762708E+02  0.00000000000E+00 0.  1.
         25    2    1    2    0    0 -0.17168663196E+02 -0.24494714213E+02  0.14899396690E+03  0.19682876170E+03  0.12509038827E+03 0.  0.
          5    1    3    3  502    0  0.40146721284E+02  0.23745748153E+02  0.89730427527E+02  0.10121581798E+03  0.41800000000E+01 0.  1.
         -5    1    3    3    0  502 -0.57315384480E+02 -0.48240462365E+02  0.59263539369E+02  0.95612943715E+02  0.41800000000E+01 0.  1.
        -11    1    1    2    0    0 -0.37184081135E+02 -0.18933942680E+01  0.90693301292E+01  0.38320928756E+02  0.00000000000E+00 0.  1.
         11    1    1    2    0    0  0.54352744332E+02  0.26388108481E+02  0.17361640788E+02  0.62864772778E+02  0.00000000000E+00 0. -1.
</event>
<event>
 7    1  0.2670433E-009  0.6010335E+02  0.7561462E-02  0.1397399E+00
          1   -1    0    0  501    0  0.00000000000E+00  0.00000000000E+00  0.94000718058E+03  0.94000718058E+03  0.00000000000E+00 0. -1.
         -1   -1    0    0    0  501 -0.00000000000E+00 -0.00000000000E+00 -0.24450845318E+02  0.24450845318E+02  0.00000000000E+00 0.  1.
         25    2    1    2    0    0 -0.14243078594E+00 -0.33975146169E+02  0.80629717944E+03  0.81665124571E+03  0.12509909957E+03 0.  0.
          5    1    3    3  502    0 -0.15220947114E+02 -0.68391699386E+00  0.74497248539E+03  0.74514000118E+03  0.41800000000E+01 0. -1.
         -5    1    3    3    0  502  0.15078516328E+02 -0.33291229175E+02  0.61324694052E+02  0.71511244537E+02  0.41800000000E+01 0. -1.
        -11    1    1    2    0    0 -0.28291873201E+02  0.25138170502E+02  0.35828773052E+01  0.38015716687E+02  0.00000000000E+00 0.  1.
         11    1    1    2    0    0  0.28434303987E+02  0.88369756675E+01  0.10567627852E+03  0.10979106350E+03  0.00000000000E+00 0. -1.
</event>
<event>
 7    1  0.2670433E-009  0.3041057E+02  0.7561462E-02  0.1593594E+00
          1   -1    0    0  501    0  0.00000000000E+00  0.00000000000E+00  0.19058096416E+03  0.19058096416E+03  0.00000000000E+00 0.  1.
         -1   -1    0    0    0  501 -0.00000000000E+00 -0.00000000000E+00 -0.64686988582E+02  0.64686988582E+02  0.00000000000E+00 0. -1.
         25    2    1    2    0    0  0.23249638396E+02  0.99007625098E+01  0.79829889864E+02  0.15052817603E+03  0.12508936677E+03 0.  0.
          5    1    3    3  502    0  0.48314845784E+01  0.86943487711E+01  0.11236900005E+03  0.11288578084E+03  0.41800000000E+01 0. -1.
         -5    1    3    3    0  502  0.18418153818E+02  0.12064137387E+01 -0.32539110182E+02  0.37642395189E+02  0.41800000000E+01 0. -1.
        -11    1    1    2    0    0 -0.10303074802E+02  0.49286403889E+01 -0.26869526971E+02  0.29196169717E+02  0.00000000000E+00 0. -1.
         11    1    1    2    0    0 -0.12946563593E+02 -0.14829402899E+02  0.72933612681E+02  0.75543606996E+02  0.00000000000E+00 0.  1.
</event>
<event>
 7    1  0.2670433E-009  0.2036171E+03  0.7561462E-02  0.1146723E+00
         -1   -1    0    0    0  501 -0.00000000000E+00  0.00000000000E+00  0.39544313822E+02  0.39544313822E+02  0.00000000000E+00 0.  1.
          1   -1    0    0  501    0  0.00000000000E+00 -0.00000000000E+00 -0.12707707274E+04  0.12707707274E+04  0.00000000000E+00 0. -1.
         25    2    1    2    0    0 -0.70858478281E+01  0.19582434437E+03 -0.59564552238E+03  0.63940454944E+03  0.12508879417E+03 0.  0.
          5    1    3    3  502    0 -0.44140906246E+01  0.17169403240E+03 -0.58948623634E+03  0.61401125413E+03  0.41800000000E+01 0. -1.
         -5    1    3    3    0  502 -0.26717572034E+01  0.24130311970E+02 -0.61592860365E+01  0.25393295312E+02  0.41800000000E+01 0. -1.
        -11    1    1    2    0    0  0.36867529687E+02 -0.50926279087E+02 -0.25384989468E+03  0.26151953976E+03  0.00000000000E+00 0. -1.
         11    1    1    2    0    0 -0.29781681859E+02 -0.14489806528E+03 -0.38173099653E+03  0.40939095204E+03  0.00000000000E+00 0.  1.
</event>
<event>
 7    1  0.2670433E-009  0.1017100E+03  0.7561462E-02  0.1276741E+00
         -1   -1    0    0    0  501 -0.00000000000E+00  0.00000000000E+00  0.33359275787E+02  0.33359275787E+02  0.00000000000E+00 0.  1.
          1   -1    0    0  501    0  0.00000000000E+00 -0.00000000000E+00 -0.53369289402E+03  0.53369289402E+03  0.00000000000E+00 0. -1.
         25    2    1    2    0    0  0.48049609748E+02 -0.60820430046E+02 -0.26984712221E+03  0.30736468554E+03  0.12509073047E+03 0.  0.
          5    1    3    3  502    0 -0.22456589887E+02 -0.94021971644E+01 -0.10471759249E+01  0.24723849180E+02  0.41800000000E+01 0.  1.
         -5    1    3    3    0  502  0.70506199635E+02 -0.51418232882E+02 -0.26879994628E+03  0.28264083637E+03  0.41800000000E+01 0.  1.
        -11    1    1    2    0    0 -0.36880501579E+02  0.84895035562E+01 -0.20601960092E+02  0.43089254194E+02  0.00000000000E+00 0.  1.
         11    1    1    2    0    0 -0.11169108170E+02  0.52330926490E+02 -0.20988453593E+03  0.21659823007E+03  0.00000000000E+00 0. -1.
</event>
<event>
 7    1  0.2670433E-009  0.1059749E+03  0.7561462E-02  0.1268211E+00
          2   -1    0    0  501    0  0.00000000000E+00  0.00000000000E+00  0.14719887344E+03  0.14719887344E+03  0.00000000000E+00 0. -1.
         -2   -1    0    0    0  501 -0.00000000000E+00 -0.00000000000E+00 -0.10279275921E+03  0.10279275921E+03  0.00000000000E+00 0.  1.
         25    2    1    2    0    0  0.34175957164E+02  0.31346635088E+02  0.59276628315E+02  0.14599099045E+03  0.12509613523E+03 0.  0.
          5    1    3    3  502    0  0.74223184391E+02  0.37249671292E+00  0.96354456856E+01  0.74963551600E+02  0.41800000000E+01 0.  1.
         -5    1    3    3    0  502 -0.40047227227E+02  0.30974138375E+02  0.49641182630E+02  0.71027438849E+02  0.41800000000E+01 0.  1.
        -11    1    1    2    0    0 -0.47068014617E+02  0.58597191992E+01 -0.35783189396E+02  0.59415241752E+02  0.00000000000E+00 0.  1.
         11    1    1    2    0    0  0.12892057452E+02 -0.37206354287E+02  0.20912675303E+02  0.44585400447E+02  0.00000000000E+00 0. -1.
</event>
<event>
 7    1  0.2670433E-009  0.1622762E+03  0.7561462E-02  0.1186151E+00
         -2   -1    0    0    0  501 -0.00000000000E+00  0.00000000000E+00  0.52765776834E+03  0.52765776834E+03  0.00000000000E+00 0.  1.
          2   -1    0    0  501    0  0.00000000000E+00 -0.00000000000E+00 -0.60719026560E+02  0.60719026560E+02  0.00000000000E+00 0. -1.
         25    2    1    2    0    0  0.10117550966E+03  0.93098550383E+02  0.17982222358E+03  0.25862632663E+03  0.12509085057E+03 0.  0.
          5    1    3    3  502    0  0.27269433032E+02 -0.30581384717E+02  0.31952558199E+02  0.52127549765E+02  0.41800000000E+01 0.  1.
         -5    1    3    3    0  502  0.73906076626E+02  0.12367993510E+03  0.14786966538E+03  0.20649877687E+03  0.41800000000E+01 0.  1.
        -11    1    1    2    0    0 -0.58760701685E+02 -0.68282641186E+02  0.25648224012E+03  0.27184274618E+03  0.00000000000E+00 0.  1.
         11    1    1    2    0    0 -0.42414807973E+02 -0.24815909197E+02  0.30634278085E+02  0.57907722097E+02  0.00000000000E+00 0. -1.
</event>
<event>
 7    1  0.2670433E-009  0.1213537E+03  0.7561462E-02  0.1240880E+00
          4   -1    0    0  501    0  0.00000000000E+00  0.00000000000E+00  0.52515827323E+02  0.52515827323E+02  0.00000000000E+00 0. -1.
         -4   -1    0    0    0  501 -0.00000000000E+00 -0.00000000000E+00 -0.51971496532E+03  0.51971496532E+03  0.00000000000E+00 0.  1.
         25    2    1    2    0    0  0.87598270130E+02  0.65224038651E+01 -0.40103802909E+03  0.42918437817E+03  0.12510687833E+03 0.  0.
          5    1    3    3  502    0  0.15271180670E+01 -0.31490669057E+02 -0.24402932900E+03  0.24609303148E+03  0.41800000000E+01 0.  1.
         -5    1    3    3    0  502  0.86071152063E+02  0.38013072922E+02 -0.15700870009E+03  0.18309134669E+03  0.41800000000E+01 0.  1.
        -11    1    1    2    0    0 -0.10090966434E+03 -0.13299197519E+02 -0.33536582702E+02  0.10716497278E+03  0.00000000000E+00 0. -1.
         11    1    1    2    0    0  0.13311394209E+02  0.67767936535E+01 -0.32624526201E+02  0.35881441691E+02  0.00000000000E+00 0.  1.
</event>
<event>
 7    1  0.2771981E-009  0.1519318E+03  0.7561462E-02  0.1198119E+00
         -2   -1    0    0    0  501 -0.00000000000E+00  0.00000000000E+00  0.45535143302E+02  0.45535143302E+02  0.00000000000E+00 0.  1.
          2   -1    0    0  501    0  0.00000000000E+00 -0.00000000000E+00 -0.61091952378E+03  0.61091952378E+03  0.00000000000E+00 0. -1.
         25    2    1    2    0    0 -0.98367121685E+02  0.79481314966E+02 -0.29417182499E+03  0.34377012975E+03  0.12508984543E+03 0.  0.
          5    1    3    3  502    0 -0.10649593345E+03  0.10492902670E+03 -0.26257400501E+03  0.30218217187E+03  0.41800000000E+01 0.  1.
         -5    1    3    3    0  502  0.81288117653E+01 -0.25447711734E+02 -0.31597819981E+02  0.41587957882E+02  0.41800000000E+01 0.  1.
        -11    1    1    2    0    0  0.64385402103E+02 -0.60438625913E+02 -0.85451323177E+02  0.12288301811E+03  0.00000000000E+00 0.  1.
         11    1    1    2    0    0  0.33981719582E+02 -0.19042689052E+02 -0.18576123231E+03  0.18980151923E+03  0.00000000000E+00 0. -1.
</event>
<event>
 7    1  0.2670433E-009  0.1008635E+03  0.7561462E-02  0.1278491E+00
         -1   -1    0    0    0  501 -0.00000000000E+00  0.00000000000E+00  0.29985791618E+03  0.29985791618E+03  0.00000000000E+00 0.  1.
          1   -1    0    0  501    0  0.00000000000E+00 -0.00000000000E+00 -0.55203078509E+02  0.55203078509E+02  0.00000000000E+00 0. -1.
         25    2    1    2    0    0 -0.56893365221E+02 -0.39918493859E+02  0.14678386473E+03  0.20499358860E+03  0.12508607941E+03 0.  0.
          5    1    3    3  502    0  0.21015467175E+02 -0.49050054516E+02  0.10037612691E+03  0.11375586561E+03  0.41800000000E+01 0.  1.
         -5    1    3    3    0  502 -0.77908832395E+02  0.91315606573E+01  0.46407737821E+02  0.91237722982E+02  0.41800000000E+01 0.  1.
        -11    1    1    2    0    0  0.47873691638E+02  0.31484060334E+02  0.11527338975E+03  0.12872874889E+03  0.00000000000E+00 0.  1.
         11    1    1    2    0    0  0.90196735826E+01  0.84344335250E+01 -0.17402416809E+02  0.21338657203E+02  0.00000000000E+00 0. -1.
</event>
<event>
 7    1  0.2670433E-009  0.7058706E+02  0.7561462E-02  0.1358108E+00
         -3   -1    0    0    0  501 -0.00000000000E+00  0.00000000000E+00  0.54924713766E+02  0.54924713766E+02  0.00000000000E+00 0.  1.
          3   -1    0    0  501    0  0.00000000000E+00 -0.00000000000E+00 -0.34223087013E+03  0.34223087013E+03  0.00000000000E+00 0. -1.
         25    2    1    2    0    0  0.67747010647E+01 -0.32891722731E+02 -0.26438379018E+03  0.29440490250E+03  0.12509075148E+03 0.  0.
          5    1    3    3  502    0  0.21430578023E+02 -0.32384390338E+01  0.52733736182E+01  0.22694449346E+02  0.41800000000E+01 0.  1.
         -5    1    3    3    0  502 -0.14655876958E+02 -0.29653283697E+02 -0.26965716380E+03  0.27171045315E+03  0.41800000000E+01 0.  1.
        -11    1    1    2    0    0 -0.25333998035E+02 -0.18336693466E+02 -0.35005053008E+02  0.46940382612E+02  0.00000000000E+00 0. -1.
         11    1    1    2    0    0  0.18559296971E+02  0.51228416196E+02  0.12082686822E+02  0.55810298789E+02  0.00000000000E+00 0.  1.
</event>
<event>
 7    1  0.2670433E-009  0.1094127E+03  0.7561462E-02  0.1261661E+00
         -2   -1    0    0    0  501 -0.00000000000E+00  0.00000000000E+00  0.24354507715E+02  0.24354507715E+02  0.00000000000E+00 0.  1.
          2   -1    0    0  501    0  0.00000000000E+00 -0.00000000000E+00 -0.58012197029E+03  0.58012197029E+03  0.00000000000E+00 0. -1.
         25    2    1    2    0    0 -0.61496863395E+01 -0.66625181978E+01 -0.21303823434E+03  0.24721658054E+03  0.12509412702E+03 0.  0.
          5    1    3    3  502    0  0.46791854067E+02 -0.34368167390E+02 -0.14676124074E+03  0.15788281325E+03  0.41800000000E+01 0.  1.
         -5    1    3    3    0  502 -0.52941540407E+02  0.27705649192E+02 -0.66276993600E+02  0.89333767292E+02  0.41800000000E+01 0.  1.
        -11    1    1    2    0    0 -0.36978214143E+02  0.33521964022E+02 -0.16063915338E+03  0.16821429187E+03  0.00000000000E+00 0. -1.
         11    1    1    2    0    0  0.43127900483E+02 -0.26859445824E+02 -0.18209007487E+03  0.18904560560E+03  0.00000000000E+00 0.  1.
</event>
<event>
 7    1  0.2670433E-009  0.7865040E+02  0.7561462E-02  0.1332926E+00
         -3   -1    0    0    0  501 -0.00000000000E+00  0.00000000000E+00  0.34472074652E+02  0.34472074652E+02  0.00000000000E+00 0.  1.
          3   -1    0    0  501    0  0.00000000000E+00 -0.00000000000E+00 -0.45755537214E+03  0.45755537214E+03  0.00000000000E+00 0. -1.
         25    2    1    2    0    0 -0.25153469495E+02  0.26610253062E+02 -0.34067522365E+03  0.36475681265E+03  0.12508845580E+03 0.  0.
          5    1    3    3  502    0 -0.45451605657E+02  0.78545093560E+01 -0.33239348608E+03  0.33560459437E+03  0.41800000000E+01 0.  1.
         -5    1    3    3    0  502  0.20298136162E+02  0.18755743706E+02 -0.82817375667E+01  0.29152218282E+02  0.41800000000E+01 0.  1.
        -11    1    1    2    0    0  0.50980315354E+02 -0.25938885028E+02 -0.21495307026E+02  0.61105372384E+02  0.00000000000E+00 0.  1.
         11    1    1    2    0    0 -0.25826845859E+02 -0.67136803389E+00 -0.60912766817E+02  0.66165261757E+02  0.00000000000E+00 0. -1.
</event>
<event>
 7    1  0.2670433E-009  0.9882969E+02  0.7561462E-02  0.1282776E+00
         -2   -1    0    0    0  501 -0.00000000000E+00  0.00000000000E+00  0.33597991123E+02  0.33597991123E+02  0.00000000000E+00 0.  1.
          2   -1    0    0  501    0  0.00000000000E+00 -0.00000000000E+00 -0.50468672770E+03  0.50468672770E+03  0.00000000000E+00 0. -1.
         25    2    1    2    0    0 -0.13081584533E+02 -0.11078088293E+02 -0.11239054630E+03  0.16903583942E+03  0.12509048012E+03 0.  0.
          5    1    3    3  502    0 -0.60401067259E+02 -0.23334312811E+02 -0.98671232864E+02  0.11809429993E+03  0.41800000000E+01 0. -1.
         -5    1    3    3    0  502  0.47319482727E+02  0.12256224518E+02 -0.13719313435E+02  0.50941539495E+02  0.41800000000E+01 0. -1.
        -11    1    1    2    0    0  0.47874567562E+02  0.28408009932E+01 -0.14911140307E+03  0.15663414346E+03  0.00000000000E+00 0.  1.
         11    1    1    2    0    0 -0.34792983030E+02  0.82372873001E+01 -0.20958678721E+03  0.21261473595E+03  0.00000000000E+00 0. -1.
</event>
<event>
 7    1  0.2670433E-009  0.1101418E+03  0.7561462E-02  0.1260307E+00
         -1   -1    0    0    0  501 -0.00000000000E+00  0.00000000000E+00  0.28959284755E+02  0.28959284755E+02  0.00000000000E+00 0.  1.
          1   -1    0    0  501    0  0.00000000000E+00 -0.00000000000E+00 -0.69384915269E+03  0.69384915269E+03  0.00000000000E+00 0. -1.
         25    2    1    2    0    0  0.45897275676E+02 -0.63370929331E+02 -0.48046900636E+03  0.50261762025E+03  0.12510624088E+03 0.  0.
          5    1    3    3  502    0  0.55791967316E+02 -0.90603558594E+02 -0.27196929972E+03  0.29207280058E+03  0.41800000000E+01 0.  1.
         -5    1    3    3    0  502 -0.98946916399E+01  0.27232629264E+02 -0.20849970664E+03  0.21054481967E+03  0.41800000000E+01 0.  1.
        -11    1    1    2    0    0 -0.29184197495E+01  0.29917604202E+02 -0.23532856982E+01  0.30151586502E+02  0.00000000000E+00 0.  1.
         11    1    1    2    0    0 -0.42978855927E+02  0.33453325129E+02 -0.18206757587E+03  0.19003923069E+03  0.00000000000E+00 0. -1.
</event>
<event>
 7    1  0.2670433E-009  0.9840478E+02  0.7561462E-02  0.1283687E+00
         -2   -1    0    0    0  501 -0.00000000000E+00  0.00000000000E+00  0.58703451823E+02  0.58703451823E+02  0.00000000000E+00 0.  1.
          2   -1    0    0  501    0  0.00000000000E+00 -0.00000000000E+00 -0.32569505323E+03  0.32569505323E+03  0.00000000000E+00 0. -1.
         25    2    1    2    0    0  0.91758216181E+02 -0.19145738120E+01 -0.11524604826E+03  0.19327730343E+03  0.12510487022E+03 0.  0.
          5    1    3    3  502    0  0.73701378349E+02  0.19725036591E+02 -0.19299133042E+01  0.76434070966E+02  0.41800000000E+01 0. -1.
         -5    1    3    3    0  502  0.18056837832E+02 -0.21639610403E+02 -0.11331613496E+03  0.11684323246E+03  0.41800000000E+01 0. -1.
        -11    1    1    2    0    0 -0.29280513231E+02  0.28877685878E+01 -0.11484396488E+03  0.11855304269E+03  0.00000000000E+00 0. -1.
         11    1    1    2    0    0 -0.62477702951E+02 -0.97319477579E+00 -0.36901588265E+02  0.72568158930E+02  0.00000000000E+00 0.  1.
</event>
<event>
 7    1  0.2670433E-009  0.8365789E+02  0.7561462E-02  0.1318980E+00
          2   -1    0    0  501    0  0.00000000000E+00  0.00000000000E+00  0.58001922023E+03  0.58001922023E+03  0.00000000000E+00 0. -1.
         -2   -1    0    0    0  501 -0.00000000000E+00 -0.00000000000E+00 -0.28404110166E+02  0.28404110166E+02  0.00000000000E+00 0.  1.
         25    2    1    2    0    0 -0.32619542725E+02  0.42753396300E+02  0.39738238933E+03  0.42006193339E+03  0.12508947626E+03 0.  0.
          5    1    3    3  502    0 -0.96357728277E+01 -0.25154305774E+01  0.35100697257E+03  0.35117309507E+03  0.41800000000E+01 0.  1.
         -5    1    3    3    0  502 -0.22983769897E+02  0.45268826877E+02  0.46375416769E+02  0.68888838327E+02  0.41800000000E+01 0.  1.
        -11    1    1    2    0    0  0.61521268294E+02 -0.45534314915E+02  0.12848264843E+03  0.14955277074E+03  0.00000000000E+00 0.  1.
         11    1    1    2    0    0 -0.28901725569E+02  0.27809186150E+01  0.25750072296E+02  0.38808626263E+02  0.00000000000E+00 0. -1.
</event>
<event>
 7    1  0.2670433E-009  0.1130606E+03  0.7561462E-02  0.1255005E+00
         -3   -1    0    0    0  501 -0.00000000000E+00  0.00000000000E+00  0.18293617213E+03  0.18293617213E+03  0.00000000000E+00 0.  1.
          3   -1    0    0  501    0  0.00000000000E+00 -0.00000000000E+00 -0.10133092005E+03  0.10133092005E+03  0.00000000000E+00 0. -1.
         25    2    1    2    0    0  0.53746490561E+02  0.31715270035E+02 -0.11587658537E+02  0.14028463813E+03  0.12510380596E+03 0.  0.
          5    1    3    3  502    0  0.95767078191E+01 -0.46967933587E+02 -0.13362728599E+02  0.49937311038E+02  0.41800000000E+01 0. -1.
         -5    1    3    3    0  502  0.44169782742E+02  0.78683203622E+02  0.17750700619E+01  0.90347327096E+02  0.41800000000E+01 0. -1.
        -11    1    1    2    0    0 -0.54147213883E+02  0.17809243997E+01  0.96140558296E+02  0.11035442634E+03  0.00000000000E+00 0.  1.
         11    1    1    2    0    0  0.40072332187E+00 -0.33496194434E+02 -0.29476476847E+01  0.33628027710E+02  0.00000000000E+00 0. -1.
</event>
<event>
 7    1  0.2670433E-009  0.1075480E+03  0.7561462E-02  0.1265179E+00
         -2   -1    0    0    0  501 -0.00000000000E+00  0.00000000000E+00  0.34704291447E+02  0.34704291447E+02  0.00000000000E+00 0.  1.
          2   -1    0    0  501    0  0.00000000000E+00 -0.00000000000E+00 -0.63485661788E+03  0.63485661788E+03  0.00000000000E+00 0. -1.
         25    2    1    2    0    0 -0.81017820264E+02  0.55356296314E+02 -0.31439046216E+03  0.35230193132E+03  0.12508829431E+03 0.  0.
          5    1    3    3  502    0 -0.42076287189E+02  0.52764582906E+02 -0.30437277879E+03  0.31179284152E+03  0.41800000000E+01 0.  1.
         -5    1    3    3    0  502 -0.38941533075E+02  0.25917134077E+01 -0.10017683367E+02  0.40509089803E+02  0.41800000000E+01 0.  1.
        -11    1    1    2    0    0  0.42671653236E+02 -0.22576344578E+01 -0.27486720979E+02  0.50808333307E+02  0.00000000000E+00 0.  1.
         11    1    1    2    0    0  0.38346167029E+02 -0.53098661856E+02 -0.25827514330E+03  0.26645064470E+03  0.00000000000E+00 0. -1.
</event>
<event>
 7    1  0.2670433E-009  0.1041234E+03  0.7561462E-02  0.1271856E+00
          2   -1    0    0  501    0  0.00000000000E+00  0.00000000000E+00  0.32621731225E+02  0.32621731225E+02  0.00000000000E+00 0. -1.
         -2   -1    0    0    0  501 -0.00000000000E+00 -0.00000000000E+00 -0.45388096232E+03  0.45388096232E+03  0.00000000000E+00 0.  1.
         25    2    1    2    0    0 -0.26130732873E+02  0.48777506299E+02 -0.23939597913E+03  0.27572059379E+03  0.12509736487E+03 0.  0.
          5    1    3    3  502    0  0.65947609587E+01 -0.25754664895E+02 -0.15890601969E+03  0.16116882183E+03  0.41800000000E+01 0.  1.
         -5    1    3    3    0  502 -0.32725493832E+02  0.74532171194E+02 -0.80489959439E+02  0.11455177196E+03  0.41800000000E+01 0.  1.
        -11    1    1    2    0    0  0.31415548538E+02  0.15709110462E+02 -0.10270302590E+03  0.10854319126E+03  0.00000000000E+00 0.  1.
         11    1    1    2    0    0 -0.52848156644E+01 -0.64486616761E+02 -0.79160226069E+02  0.10223890849E+03  0.00000000000E+00 0. -1.
</event>
<event>
 7    1  0.2670433E-009  0.1376469E+03  0.7561462E-02  0.1216531E+00
          2   -1    0    0  501    0  0.00000000000E+00  0.00000000000E+00  0.46983030590E+03  0.46983030590E+03  0.00000000000E+00 0. -1.
         -2   -1    0    0    0  501 -0.00000000000E+00 -0.00000000000E+00 -0.45810540753E+02  0.45810540753E+02  0.00000000000E+00 0.  1.
         25    2    1    2    0    0 -0.56896975523E+02  0.81275383687E+02  0.24186327655E+03  0.28980751797E+03  0.12509036377E+03 0.  0.
          5    1    3    3  502    0 -0.31557480582E+02 -0.30473018137E+02  0.81768144265E+02  0.92886927130E+02  0.41800000000E+01 0. -1.
         -5    1    3    3    0  502 -0.25339494941E+02  0.11174840182E+03  0.16009513229E+03  0.19692059084E+03  0.41800000000E+01 0. -1.
        -11    1    1    2    0    0  0.64480849710E+02 -0.42901950911E+02  0.61204017237E+02  0.98713165774E+02  0.00000000000E+00 0.  1.
         11    1    1    2    0    0 -0.75838741865E+01 -0.38373432776E+02  0.12095247136E+03  0.12712016291E+03  0.00000000000E+00 0. -1.
</event>
<event>
 7    1  0.2670433E-009  0.1270883E+03  0.7561462E-02  0.1231841E+00
         -1   -1    0    0    0  501 -0.00000000000E+00  0.00000000000E+00  0.68573225364E+03  0.68573225364E+03  0.00000000000E+00 0.  1.
          1   -1    0    0  501    0  0.00000000000E+00 -0.00000000000E+00 -0.27646342483E+02  0.27646342483E+02  0.00000000000E+00 0. -1.
         25    2    1    2    0    0  0.63039796816E+02 -0.25482999989E+02  0.49428486502E+03  0.51438148363E+03  0.12508950253E+03 0.  0.
          5    1    3    3  502    0  0.14229205002E+02 -0.72123190791E+02  0.28938169472E+03  0.29860251600E+03  0.41800000000E+01 0. -1.
         -5    1    3    3    0  502  0.48810591814E+02  0.46640190803E+02  0.20490317030E+03  0.21577896763E+03  0.41800000000E+01 0. -1.
        -11    1    1    2    0    0 -0.83369720411E+02  0.35046772211E+02  0.12783658242E+03  0.15659175690E+03  0.00000000000E+00 0.  1.
         11    1    1    2    0    0  0.20329923595E+02 -0.95637722229E+01  0.35964463716E+02  0.42405355592E+02  0.00000000000E+00 0. -1.
</event>
<event>
 7    1  0.2670433E-009  0.1348121E+03  0.7561462E-02  0.1220485E+00
         -1   -1    0    0    0  501 -0.00000000000E+00  0.00000000000E+00  0.14051671564E+03  0.14051671564E+03  0.00000000000E+00 0.  1.
          1   -1    0    0  501    0  0.00000000000E+00 -0.00000000000E+00 -0.17598512585E+03  0.17598512585E+03  0.00000000000E+00 0. -1.
         25    2    1    2    0    0  0.10847264993E+03  0.35094753668E+02 -0.27463940465E+02  0.17146378564E+03  0.12509038429E+03 0.  0.
          5    1    3    3  502    0  0.20850356907E+02 -0.13094803451E+02 -0.60994942095E+02  0.65909533618E+02  0.41800000000E+01 0. -1.
         -5    1    3    3    0  502  0.87622293022E+02  0.48189557119E+02  0.33531001630E+02  0.10555425202E+03  0.41800000000E+01 0. -1.
        -11    1    1    2    0    0 -0.12385628646E+03 -0.36482807135E+02 -0.97940362281E+01  0.12948860204E+03  0.00000000000E+00 0.  1.
         11    1    1    2    0    0  0.15383636534E+02  0.13880534667E+01  0.17895664833E+01  0.15549453805E+02  0.00000000000E+00 0. -1.
</event>
<event>
 7    1  0.2670433E-009  0.1274239E+03  0.7561462E-02  0.1231329E+00
          1   -1    0    0  501    0  0.00000000000E+00  0.00000000000E+00  0.56540102708E+03  0.56540102708E+03  0.00000000000E+00 0. -1.
         -1   -1    0    0    0  501 -0.00000000000E+00 -0.00000000000E+00 -0.42764600209E+02  0.42764600209E+02  0.00000000000E+00 0.  1.
         25    2    1    2    0    0  0.79783409602E+02 -0.70126253480E+02  0.34555954251E+03  0.38254679632E+03  0.12509024773E+03 0.  0.
          5    1    3    3  502    0  0.18960576959E+02 -0.53449225443E+02  0.29818013458E+03  0.30355425913E+03  0.41800000000E+01 0. -1.
         -5    1    3    3    0  502  0.60822832643E+02 -0.16677028037E+02  0.47379407930E+02  0.78992537183E+02  0.41800000000E+01 0. -1.
        -11    1    1    2    0    0 -0.12204922192E+02  0.65947778497E+02  0.58139001933E+02  0.88759299007E+02  0.00000000000E+00 0.  1.
         11    1    1    2    0    0 -0.67578487410E+02  0.41784749834E+01  0.11893788242E+03  0.13685953196E+03  0.00000000000E+00 0. -1.
</event>
<event>
 7    1  0.2670433E-009  0.1208666E+03  0.7561462E-02  0.1241674E+00
         -2   -1    0    0    0  501 -0.00000000000E+00  0.00000000000E+00  0.50750728573E+02  0.50750728573E+02  0.00000000000E+00 0.  1.
          2   -1    0    0  501    0  0.00000000000E+00 -0.00000000000E+00 -0.42130875135E+03  0.42130875135E+03  0.00000000000E+00 0. -1.
         25    2    1    2    0    0  0.71930958331E+02 -0.29591476701E+02 -0.98413897728E+02  0.17715987539E+03  0.12510238975E+03 0.  0.
          5    1    3    3  502    0  0.53615399209E+02 -0.67316268423E+02 -0.20479710965E+02  0.88560611944E+02  0.41800000000E+01 0.  1.
         -5    1    3    3    0  502  0.18315559122E+02  0.37724791722E+02 -0.77934186763E+02  0.88599263444E+02  0.41800000000E+01 0.  1.
        -11    1    1    2    0    0  0.47492657247E+01 -0.21021640563E+02 -0.45737610499E+02  0.50560794209E+02  0.00000000000E+00 0.  1.
         11    1    1    2    0    0 -0.76680224055E+02  0.50613117264E+02 -0.22640651455E+03  0.24433881032E+03  0.00000000000E+00 0. -1.
</event>
<event>
 7    1  0.2985035E-009  0.1571743E+03  0.7561462E-02  0.1191924E+00
         -2   -1    0    0    0  501 -0.00000000000E+00  0.00000000000E+00  0.18682253034E+03  0.18682253034E+03  0.00000000000E+00 0.  1.
          2   -1    0    0  501    0  0.00000000000E+00 -0.00000000000E+00 -0.15292348495E+03  0.15292348495E+03  0.00000000000E+00 0. -1.
         25    2    1    2    0    0  0.12095884118E+03  0.18012512217E+02  0.60205912481E+02  0.18501020495E+03  0.12509409331E+03 0.  0.
          5    1    3    3  502    0 -0.16907059643E+02  0.24194793581E+02 -0.82100990864E+01  0.30921106532E+02  0.41800000000E+01 0.  1.
         -5    1    3    3    0  502  0.13786590082E+03 -0.61822813640E+01  0.68416011567E+02  0.15408909841E+03  0.41800000000E+01 0.  1.
        -11    1    1    2    0    0 -0.90883039143E+02 -0.49030000648E+02  0.16440739113E+01  0.10327812327E+03  0.00000000000E+00 0.  1.
         11    1    1    2    0    0 -0.30075802033E+02  0.31017488431E+02 -0.27950940995E+02  0.51457687074E+02  0.00000000000E+00 0. -1.
</event>
<event>
 7    1  0.2670433E-009  0.1164535E+03  0.7561462E-02  0.1249065E+00
          1   -1    0    0  501    0  0.00000000000E+00  0.00000000000E+00  0.10745647542E+03  0.10745647542E+03  0.00000000000E+00 0. -1.
         -1   -1    0    0    0  501 -0.00000000000E+00 -0.00000000000E+00 -0.14714539329E+03  0.14714539329E+03  0.00000000000E+00 0.  1.
         25    2    1    2    0    0  0.54859349175E+01  0.35398740151E+02 -0.40869671167E+02  0.13638484725E+03  0.12508928911E+03 0.  0.
          5    1    3    3  502    0 -0.45068199167E+02  0.47591672386E+02  0.63935227363E+01  0.65988327677E+02  0.41800000000E+01 0.  1.
         -5    1    3    3    0  502  0.50554134085E+02 -0.12192932235E+02 -0.47263193903E+02  0.70396519569E+02  0.41800000000E+01 0.  1.
        -11    1    1    2    0    0  0.28189684100E+02  0.30204833735E+02 -0.12608670110E+02  0.43196861373E+02  0.00000000000E+00 0.  1.
         11    1    1    2    0    0 -0.33675619017E+02 -0.65603573886E+02  0.13789423402E+02  0.75020160094E+02  0.00000000000E+00 0. -1.
</event>
<event>
 7    1  0.2670433E-009  0.1127734E+03  0.7561462E-02  0.1255518E+00
          1   -1    0    0  501    0  0.00000000000E+00  0.00000000000E+00  0.21543291640E+03  0.21543291640E+03  0.00000000000E+00 0. -1.
         -1   -1    0    0    0  501 -0.00000000000E+00 -0.00000000000E+00 -0.11159978575E+03  0.11159978575E+03  0.00000000000E+00 0.  1.
         25    2    1    2    0    0 -0.93744359416E+01 -0.90276985211E+02 -0.75565837396E+01  0.15473371943E+03  0.12509039877E+03 0.  0.
          5    1    3    3  502    0  0.25759127770E+02 -0.25290411045E+02  0.49421615499E+02  0.61344160543E+02  0.41800000000E+01 0.  1.
         -5    1    3    3    0  502 -0.35133563712E+02 -0.64986574166E+02 -0.56978199238E+02  0.93389558888E+02  0.41800000000E+01 0.  1.
        -11    1    1    2    0    0  0.31169669892E+02  0.11094293997E+02 -0.99951500855E+00  0.33100312850E+02  0.00000000000E+00 0.  1.
         11    1    1    2    0    0 -0.21795233951E+02  0.79182691213E+02  0.11238922939E+03  0.13919866987E+03  0.00000000000E+00 0. -1.
</event>
<event>
 7    1  0.2670433E-009  0.1739492E+03  0.7561462E-02  0.1173791E+00
         -3   -1    0    0    0  501 -0.00000000000E+00  0.00000000000E+00  0.22544273195E+03  0.22544273195E+03  0.00000000000E+00 0.  1.
          3   -1    0    0  501    0  0.00000000000E+00 -0.00000000000E+00 -0.14670084236E+03  0.14670084236E+03  0.00000000000E+00 0. -1.
         25    2    1    2    0    0 -0.14156897789E+03 -0.79906683327E+01  0.13265345003E+02  0.18954842987E+03  0.12508801543E+03 0.  0.
          5    1    3    3  502    0 -0.74136690129E+02  0.51513449369E+02 -0.21742289682E+02  0.92952051348E+02  0.41800000000E+01 0.  1.
         -5    1    3    3    0  502 -0.67432287764E+02 -0.59504117701E+02  0.35007634686E+02  0.96596378518E+02  0.41800000000E+01 0.  1.
        -11    1    1    2    0    0  0.15440470365E+03  0.86121764943E+01  0.50104314603E+02  0.16255898755E+03  0.00000000000E+00 0.  1.
         11    1    1    2    0    0 -0.12835725756E+02 -0.62150816154E+00  0.15372229984E+02  0.20036156886E+02  0.00000000000E+00 0. -1.
</event>
<event>
 7    1  0.3024086E-009  0.1291068E+03  0.7561462E-02  0.1228787E+00
         -1   -1    0    0    0  501 -0.00000000000E+00  0.00000000000E+00  0.13125853491E+02  0.13125853491E+02  0.00000000000E+00 0.  1.
          1   -1    0    0  501    0  0.00000000000E+00 -0.00000000000E+00 -0.15321523090E+04  0.15321523090E+04  0.00000000000E+00 0. -1.
         25    2    1    2    0    0 -0.83555560026E+02  0.13630989096E+02 -0.10186336854E+04  0.10297714445E+04  0.12508919820E+03 0.  0.
          5    1    3    3  502    0 -0.93708760116E+02 -0.22564555541E+02 -0.90229842692E+03  0.90744168656E+03  0.41800000000E+01 0.  1.
         -5    1    3    3    0  502  0.10153200090E+02  0.36195544637E+02 -0.11633525846E+03  0.12232975797E+03  0.41800000000E+01 0.  1.
        -11    1    1    2    0    0  0.42513377797E+02  0.38642472095E+02 -0.23295951234E+03  0.23993908046E+03  0.00000000000E+00 0.  1.
         11    1    1    2    0    0  0.41042182229E+02 -0.52273461191E+02 -0.26743325782E+03  0.27556763754E+03  0.00000000000E+00 0. -1.
</event>
<event>
 7    1  0.2670433E-009  0.1406845E+03  0.7561462E-02  0.1212411E+00
         -2   -1    0    0    0  501 -0.00000000000E+00  0.00000000000E+00  0.56706568881E+03  0.56706568881E+03  0.00000000000E+00 0.  1.
          2   -1    0    0  501    0  0.00000000000E+00 -0.00000000000E+00 -0.52698962933E+02  0.52698962933E+02  0.00000000000E+00 0. -1.
         25    2    1    2    0    0  0.44950164369E+02 -0.81332916663E+02  0.44227908559E+03  0.46892460945E+03  0.12507573379E+03 0.  0.
          5    1    3    3  502    0  0.55406204685E+01 -0.10781712379E+03  0.31499369550E+03  0.33300710392E+03  0.41800000000E+01 0.  1.
         -5    1    3    3    0  502  0.39409543901E+02  0.26484207127E+02  0.12728539009E+03  0.13591750552E+03  0.41800000000E+01 0.  1.
        -11    1    1    2    0    0 -0.69414802110E+02  0.70401268124E+02  0.34572283474E+02  0.10473774912E+03  0.00000000000E+00 0. -1.
         11    1    1    2    0    0  0.24464637741E+02  0.10931648539E+02  0.37515356811E+02  0.46102293177E+02  0.00000000000E+00 0.  1.
</event>
<event>
 7    1  0.2670433E-009  0.1221607E+03  0.7561462E-02  0.1239575E+00
         -2   -1    0    0    0  501 -0.00000000000E+00  0.00000000000E+00  0.54305316050E+02  0.54305316050E+02  0.00000000000E+00 0.  1.
          2   -1    0    0  501    0  0.00000000000E+00 -0.00000000000E+00 -0.38198934611E+03  0.38198934611E+03  0.00000000000E+00 0. -1.
         25    2    1    2    0    0  0.62269603045E+02 -0.35649842007E+02 -0.27252134775E+03  0.30832096031E+03  0.12508203264E+03 0.  0.
          5    1    3    3  502    0 -0.21686359431E+02  0.24079861854E+02 -0.11883192488E+03  0.12324218719E+03  0.41800000000E+01 0.  1.
         -5    1    3    3    0  502  0.83955962475E+02 -0.59729703861E+02 -0.15368942287E+03  0.18507877313E+03  0.41800000000E+01 0.  1.
        -11    1    1    2    0    0  0.10897865868E+02  0.33608507048E+02 -0.39732169612E+02  0.53168980886E+02  0.00000000000E+00 0. -1.
         11    1    1    2    0    0 -0.73167468913E+02  0.20413349594E+01 -0.15430512692E+02  0.74804720957E+02  0.00000000000E+00 0.  1.
</event>
<event>
 7    1  0.2670433E-009  0.9439436E+02  0.7561462E-02  0.1292546E+00
         -1   -1    0    0    0  501 -0.00000000000E+00  0.00000000000E+00  0.69196985349E+02  0.69196985349E+02  0.00000000000E+00 0.  1.
          1   -1    0    0  501    0  0.00000000000E+00 -0.00000000000E+00 -0.28876388356E+03  0.28876388356E+03  0.00000000000E+00 0. -1.
         25    2    1    2    0    0  0.82154055363E+02 -0.38665786494E+02 -0.11236774723E+03  0.19109517655E+03  0.12508606647E+03 0.  0.
          5    1    3    3  502    0  0.49934800192E+02 -0.88015488400E+01  0.17603930959E+02  0.53836068926E+02  0.41800000000E+01 0.  1.
         -5    1    3    3    0  502  0.32219255171E+02 -0.29864237654E+02 -0.12997167819E+03  0.13725910763E+03  0.41800000000E+01 0.  1.
        -11    1    1    2    0    0 -0.36908807096E+02  0.30338285537E+02  0.25693516363E+01  0.47846349687E+02  0.00000000000E+00 0.  1.
         11    1    1    2    0    0 -0.45245248267E+02  0.83275009569E+01 -0.10976850261E+03  0.11901934267E+03  0.00000000000E+00 0. -1.
</event>
<event>
 7    1  0.2670433E-009  0.1324085E+03  0.7561462E-02  0.1223925E+00
         -2   -1    0    0    0  501 -0.00000000000E+00  0.00000000000E+00  0.88127267642E+02  0.88127267642E+02  0.00000000000E+00 0.  1.
          2   -1    0    0  501    0  0.00000000000E+00 -0.00000000000E+00 -0.30331153230E+03  0.30331153230E+03  0.00000000000E+00 0. -1.
         25    2    1    2    0    0  0.72292415260E+02  0.60994393435E+02 -0.18513371807E+03  0.24262901648E+03  0.12509131358E+03 0.  0.
          5    1    3    3  502    0 -0.25704962039E+02  0.23054269002E+02 -0.10441299509E+03  0.11005357939E+03  0.41800000000E+01 0. -1.
         -5    1    3    3    0  502  0.97997377300E+02  0.37940124433E+02 -0.80720722981E+02  0.13257543708E+03  0.41800000000E+01 0. -1.
        -11    1    1    2    0    0 -0.47760323612E+02  0.10826783203E+02  0.25064241995E+02  0.55013489008E+02  0.00000000000E+00 0.  1.
         11    1    1    2    0    0 -0.24532091648E+02 -0.71821176638E+02 -0.55114788582E+02  0.93796294461E+02  0.00000000000E+00 0. -1.
</event>
<event>
 7    1  0.2670433E-009  0.1019245E+03  0.7561462E-02  0.1276300E+00
         -2   -1    0    0    0  501 -0.00000000000E+00  0.00000000000E+00  0.19973792256E+02  0.19973792256E+02  0.00000000000E+00 0. -1.
          2   -1    0    0  501    0  0.00000000000E+00 -0.00000000000E+00 -0.60391182211E+03  0.60391182211E+03  0.00000000000E+00 0.  1.
         25    2    1    2    0    0 -0.11825456154E+02 -0.16314504035E+02 -0.34935881022E+03  0.37162480618E+03  0.12508962321E+03 0.  0.
          5    1    3    3  502    0  0.33821989253E+02  0.34037219841E+02 -0.22243068881E+03  0.22758590250E+03  0.41800000000E+01 0. -1.
         -5    1    3    3    0  502 -0.45647445407E+02 -0.50351723876E+02 -0.12692812141E+03  0.14403890369E+03  0.41800000000E+01 0. -1.
        -11    1    1    2    0    0  0.45848670824E+02 -0.69538412629E+01 -0.81918945695E+02  0.94133788772E+02  0.00000000000E+00 0.  1.
         11    1    1    2    0    0 -0.34023214670E+02  0.23268345298E+02 -0.15266027394E+03  0.15812701942E+03  0.00000000000E+00 0. -1.
</event>
<event>
 7    1  0.2670433E-009  0.1421205E+03  0.7561462E-02  0.1210504E+00
         -1   -1    0    0    0  501 -0.00000000000E+00  0.00000000000E+00  0.47030644064E+02  0.47030644064E+02  0.00000000000E+00 0.  1.
          1   -1    0    0  501    0  0.00000000000E+00 -0.00000000000E+00 -0.52311492985E+03  0.52311492985E+03  0.00000000000E+00 0. -1.
         25    2    1    2    0    0  0.11260775840E+03 -0.72610380565E+01 -0.26803977618E+03  0.31658415596E+03  0.12508787418E+03 0.  0.
          5    1    3    3  502    0 -0.16964539026E+02  0.20122952855E+02 -0.94846754514E+02  0.98519582103E+02  0.41800000000E+01 0. -1.
         -5    1    3    3    0  502  0.12957229742E+03 -0.27383990911E+02 -0.17319302166E+03  0.21806457386E+03  0.41800000000E+01 0. -1.
        -11    1    1    2    0    0 -0.27821201306E+02  0.26199034493E+02 -0.13550517022E+02  0.40546580152E+02  0.00000000000E+00 0.  1.
         11    1    1    2    0    0 -0.84786557092E+02 -0.18937996436E+02 -0.19449399259E+03  0.21301483781E+03  0.00000000000E+00 0. -1.
</event>
<event>
 7    1  0.2670433E-009  0.8466429E+02  0.7561462E-02  0.1316313E+00
         -2   -1    0    0    0  501 -0.00000000000E+00  0.00000000000E+00  0.42231925308E+03  0.42231925308E+03  0.00000000000E+00 0.  1.
          2   -1    0    0  501    0  0.00000000000E+00 -0.00000000000E+00 -0.32409567486E+02  0.32409567486E+02  0.00000000000E+00 0. -1.
         25    2    1    2    0    0  0.35650662938E+02 -0.29218829097E+02  0.24910280159E+03  0.28253272213E+03  0.12509126098E+03 0.  0.
          5    1    3    3  502    0 -0.19509941182E+02 -0.22747950085E+02  0.32298089821E+01  0.30430430560E+02  0.41800000000E+01 0. -1.
         -5    1    3    3    0  502  0.55160604120E+02 -0.64708790118E+01  0.24587299261E+03  0.25210229158E+03  0.41800000000E+01 0. -1.
        -11    1    1    2    0    0 -0.24807727897E+02 -0.20688616924E+02  0.10491112910E+03  0.10977152292E+03  0.00000000000E+00 0.  1.
         11    1    1    2    0    0 -0.10842935041E+02  0.49907446020E+02  0.35895754900E+02  0.62424575516E+02  0.00000000000E+00 0. -1.
</event>
<event>
 7    1  0.2670433E-009  0.9660707E+02  0.7561462E-02  0.1287597E+00
          2   -1    0    0  501    0  0.00000000000E+00  0.00000000000E+00  0.39329994162E+03  0.39329994162E+03  0.00000000000E+00 0. -1.
         -2   -1    0    0    0  501 -0.00000000000E+00 -0.00000000000E+00 -0.53946294042E+02  0.53946294042E+02  0.00000000000E+00 0.  1.
         25    2    1    2    0    0  0.53709176496E+02 -0.19937534013E+02  0.30570320959E+03  0.33523691302E+03  0.12508858698E+03 0.  0.
          5    1    3    3  502    0 -0.10613973527E+02  0.37030091386E+02  0.17155056268E+03  0.17587197633E+03  0.41800000000E+01 0.  1.
         -5    1    3    3    0  502  0.64323150024E+02 -0.56967625399E+02  0.13415264691E+03  0.15936493669E+03  0.41800000000E+01 0.  1.
        -11    1    1    2    0    0 -0.39353740061E+02 -0.49977035904E+01 -0.24854025478E+02  0.46812567548E+02  0.00000000000E+00 0.  1.
         11    1    1    2    0    0 -0.14355436435E+02  0.24935237603E+02  0.58504463457E+02  0.65196755088E+02  0.00000000000E+00 0. -1.
</event>
<event>
 7    1  0.2670433E-009  0.1091056E+03  0.7561462E-02  0.1262235E+00
          2   -1    0    0  501    0  0.00000000000E+00  0.00000000000E+00  0.71804814898E+03  0.71804814898E+03  0.00000000000E+00 0.  1.
         -2   -1    0    0    0  501 -0.00000000000E+00 -0.00000000000E+00 -0.19743797965E+02  0.19743797965E+02  0.00000000000E+00 0. -1.
         25    2    1    2    0    0  0.57427834070E+01 -0.24067239585E+02  0.26347975314E+03  0.29271437892E+03  0.12509162935E+03 0.  0.
          5    1    3    3  502    0  0.62996997002E+02 -0.17082293864E+02  0.10177150616E+03  0.12097660212E+03  0.41800000000E+01 0. -1.
         -5    1    3    3    0  502 -0.57254213595E+02 -0.69849457209E+01  0.16170824698E+03  0.17173777680E+03  0.41800000000E+01 0. -1.
        -11    1    1    2    0    0  0.28669377915E+02  0.45975027754E+02  0.24544194075E+03  0.25135111435E+03  0.00000000000E+00 0.  1.
         11    1    1    2    0    0 -0.34412161322E+02 -0.21907788169E+02  0.18938265713E+03  0.19372645367E+03  0.00000000000E+00 0. -1.
</event>
<event>
 7    1  0.2670433E-009  0.1308410E+03  0.7561462E-02  0.1226213E+00
         -2   -1    0    0    0  501 -0.00000000000E+00  0.00000000000E+00  0.35559226064E+02  0.35559226064E+02  0.00000000000E+00 0.  1.
          2   -1    0    0  501    0  0.00000000000E+00 -0.00000000000E+00 -0.61154256478E+03  0.61154256478E+03  0.00000000000E+00 0. -1.
         25    2    1    2    0    0 -0.58686349416E+02  0.40529217958E+02 -0.16518828031E+03  0.21913606156E+03  0.12508693140E+03 0.  0.
          5    1    3    3  502    0 -0.59109527752E+02  0.82344746641E+02 -0.12499340829E+03  0.16098266393E+03  0.41800000000E+01 0.  1.
         -5    1    3    3    0  502  0.42317833598E+00 -0.41815528683E+02 -0.40194872021E+02  0.58153397628E+02  0.41800000000E+01 0.  1.
        -11    1    1    2    0    0  0.78151062528E+02 -0.53594877535E+02 -0.29591321792E+03  0.31071632080E+03  0.00000000000E+00 0.  1.
         11    1    1    2    0    0 -0.19464713112E+02  0.13065659577E+02 -0.11488184048E+03  0.11724940848E+03  0.00000000000E+00 0. -1.
</event>
<event>
 7    1  0.2670433E-009  0.1127819E+03  0.7561462E-02  0.1255503E+00
          2   -1    0    0  501    0  0.00000000000E+00  0.00000000000E+00  0.54305748417E+03  0.54305748417E+03  0.00000000000E+00 0. -1.
         -2   -1    0    0    0  501 -0.00000000000E+00 -0.00000000000E+00 -0.27392568281E+02  0.27392568281E+02  0.00000000000E+00 0.  1.
         25    2    1    2    0    0  0.43081820763E+02 -0.24493178662E+01  0.37417616310E+03  0.39688547796E+03  0.12509292205E+03 0.  0.
          5    1    3    3  502    0 -0.32383368781E+02 -0.30392532002E+02  0.20084339335E+03  0.20573752605E+03  0.41800000000E+01 0.  1.
         -5    1    3    3    0  502  0.75465189544E+02  0.27943214136E+02  0.17333276975E+03  0.19114795191E+03  0.41800000000E+01 0.  1.
        -11    1    1    2    0    0  0.97241246711E+01 -0.34552930212E+02  0.46089780869E+02  0.58418588544E+02  0.00000000000E+00 0.  1.
         11    1    1    2    0    0 -0.52805945434E+02  0.37002248078E+02  0.95398971922E+02  0.11514598595E+03  0.00000000000E+00 0. -1.
</event>
<event>
 7    1  0.2670433E-009  0.1275109E+03  0.7561462E-02  0.1231197E+00
         -2   -1    0    0    0  501 -0.00000000000E+00  0.00000000000E+00  0.24160462392E+02  0.24160462392E+02  0.00000000000E+00 0. -1.
          2   -1    0    0  501    0  0.00000000000E+00 -0.00000000000E+00 -0.82258006632E+03  0.82258006632E+03  0.00000000000E+00 0.  1.
         25    2    1    2    0    0 -0.60588427077E+02  0.40673888281E+02 -0.56967273369E+03  0.58779157222E+03  0.12508631492E+03 0.  0.
          5    1    3    3  502    0  0.27373633218E+02 -0.12933515865E+02 -0.25108774027E+03  0.25294093647E+03  0.41800000000E+01 0. -1.
         -5    1    3    3    0  502 -0.87962060295E+02  0.53607404146E+02 -0.31858499342E+03  0.33485063575E+03  0.41800000000E+01 0. -1.
        -11    1    1    2    0    0  0.83984122035E+02 -0.12768442065E+02 -0.15980847861E+03  0.18098374430E+03  0.00000000000E+00 0.  1.
         11    1    1    2    0    0 -0.23395694958E+02 -0.27905446216E+02 -0.68938391635E+02  0.77965212193E+02  0.00000000000E+00 0. -1.
</event>
<event>
 7    1  0.2670433E-009  0.1021229E+03  0.7561462E-02  0.1275894E+00
          2   -1    0    0  501    0  0.00000000000E+00  0.00000000000E+00  0.59326658055E+03  0.59326658055E+03  0.00000000000E+00 0. -1.
         -2   -1    0    0    0  501 -0.00000000000E+00 -0.00000000000E+00 -0.22351576075E+02  0.22351576075E+02  0.00000000000E+00 0.  1.
         25    2    1    2    0    0 -0.37905649469E+02 -0.80584030373E+00  0.35759762218E+03  0.38074229635E+03  0.12510455309E+03 0.  0.
          5    1    3    3  502    0 -0.50776455986E+02  0.50729209990E+02  0.14888427220E+03  0.16533511465E+03  0.41800000000E+01 0. -1.
         -5    1    3    3    0  502  0.12870806517E+02 -0.51535050294E+02  0.20871334998E+03  0.21540718170E+03  0.41800000000E+01 0. -1.
        -11    1    1    2    0    0  0.55101218198E+02 -0.13462690787E+02  0.20203113857E+03  0.20984272502E+03  0.00000000000E+00 0. -1.
         11    1    1    2    0    0 -0.17195568729E+02  0.14268531091E+02  0.11286243732E+02  0.25033135261E+02  0.00000000000E+00 0.  1.
</event>
<event>
 7    1  0.2670433E-009  0.1112376E+03  0.7561462E-02  0.1258295E+00
          1   -1    0    0  501    0  0.00000000000E+00  0.00000000000E+00  0.55755669094E+03  0.55755669094E+03  0.00000000000E+00 0. -1.
         -1   -1    0    0    0  501 -0.00000000000E+00 -0.00000000000E+00 -0.26620825396E+02  0.26620825396E+02  0.00000000000E+00 0.  1.
         25    2    1    2    0    0  0.39642950954E+01 -0.36303340986E+02  0.39705346641E+03  0.41788972264E+03  0.12508683741E+03 0.  0.
          5    1    3    3  502    0  0.97876974616E+01  0.44758534230E+02  0.10348439204E+03  0.11325024152E+03  0.41800000000E+01 0. -1.
         -5    1    3    3    0  502 -0.58234023662E+01 -0.81061875217E+02  0.29356907437E+03  0.30463948112E+03  0.41800000000E+01 0. -1.
        -11    1    1    2    0    0  0.23554881901E+02  0.56329458372E+02  0.63405841918E+02  0.88023526010E+02  0.00000000000E+00 0. -1.
         11    1    1    2    0    0 -0.27519176997E+02 -0.20026117386E+02  0.70476557217E+02  0.78264267691E+02  0.00000000000E+00 0.  1.
</event>
<event>
 7    1  0.2670433E-009  0.1389332E+03  0.7561462E-02  0.1214772E+00
         -4   -1    0    0    0  501 -0.00000000000E+00  0.00000000000E+00  0.36864781687E+03  0.36864781687E+03  0.00000000000E+00 0.  1.
          4   -1    0    0  501    0  0.00000000000E+00 -0.00000000000E+00 -0.60761421429E+02  0.60761421429E+02  0.00000000000E+00 0. -1.
         25    2    1    2    0    0  0.73607443311E+02 -0.72550280863E+02  0.16862774268E+03  0.23401723072E+03  0.12508856746E+03 0.  0.
          5    1    3    3  502    0 -0.23642636509E+02 -0.14803819989E+02  0.94750357229E+02  0.98859647695E+02  0.41800000000E+01 0.  1.
         -5    1    3    3    0  502  0.97250079819E+02 -0.57746460875E+02  0.73877385455E+02  0.13515758303E+03  0.41800000000E+01 0.  1.
        -11    1    1    2    0    0 -0.38664909050E+02  0.89609786436E+02  0.10743274668E+03  0.14514366702E+03  0.00000000000E+00 0. -1.
         11    1    1    2    0    0 -0.34942534261E+02 -0.17059505573E+02  0.31825906078E+02  0.50248340556E+02  0.00000000000E+00 0.  1.
</event>
<event>
 7    1  0.2670433E-009  0.1282522E+03  0.7561462E-02  0.1230072E+00
         -2   -1    0    0    0  501 -0.00000000000E+00  0.00000000000E+00  0.75361278482E+02  0.75361278482E+02  0.00000000000E+00 0.  1.
          2   -1    0    0  501    0  0.00000000000E+00 -0.00000000000E+00 -0.24195688799E+03  0.24195688799E+03  0.00000000000E+00 0. -1.
         25    2    1    2    0    0  0.79532329313E+02  0.35850348412E+01 -0.80052506449E+02  0.16851709939E+03  0.12510541601E+03 0.  0.
          5    1    3    3  502    0 -0.50989720205E+00 -0.42750843147E+02 -0.59994374987E+02  0.73788156333E+02  0.41800000000E+01 0.  1.
         -5    1    3    3    0  502  0.80042226515E+02  0.46335877988E+02 -0.20058131462E+02  0.94728943054E+02  0.41800000000E+01 0.  1.
        -11    1    1    2    0    0  0.12714860337E+02 -0.23384359006E+02 -0.16833715106E+02  0.31493965831E+02  0.00000000000E+00 0.  1.
         11    1    1    2    0    0 -0.92247189650E+02  0.19799324165E+02 -0.69709387950E+02  0.11730710125E+03  0.00000000000E+00 0. -1.
</event>
<event>
 7    1  0.2670433E-009  0.1108432E+03  0.7561462E-02  0.1259016E+00
          2   -1    0    0  501    0  0.00000000000E+00  0.00000000000E+00  0.68586138295E+02  0.68586138295E+02  0.00000000000E+00 0. -1.
         -2   -1    0    0    0  501 -0.00000000000E+00 -0.00000000000E+00 -0.34290509263E+03  0.34290509263E+03  0.00000000000E+00 0.  1.
         25    2    1    2    0    0  0.60169865559E+01  0.64597279536E+02 -0.26320167401E+03  0.29854877710E+03  0.12508892219E+03 0.  0.
          5    1    3    3  502    0  0.12194890264E+02  0.86465114969E+02 -0.26110237059E+03  0.27534860047E+03  0.41800000000E+01 0. -1.
         -5    1    3    3    0  502 -0.61779037081E+01 -0.21867835432E+02 -0.20993034256E+01  0.23200176628E+02  0.41800000000E+01 0. -1.
        -11    1    1    2    0    0  0.37705281765E+02 -0.54526307852E+02  0.15836891884E+01  0.66312250696E+02  0.00000000000E+00 0.  1.
         11    1    1    2    0    0 -0.43722268321E+02 -0.10070971685E+02 -0.12700969517E+02  0.46630203136E+02  0.00000000000E+00 0. -1.
</event>
<event>
 7    1  0.2670433E-009  0.1219221E+03  0.7561462E-02  0.1239959E+00
          4   -1    0    0  501    0  0.00000000000E+00  0.00000000000E+00  0.51416487683E+02  0.51416487683E+02  0.00000000000E+00 0.  1.
         -4   -1    0    0    0  501 -0.00000000000E+00 -0.00000000000E+00 -0.31390559783E+03  0.31390559783E+03  0.00000000000E+00 0. -1.
         25    2    1    2    0    0  0.59077085669E+02  0.12861739463E+02 -0.18682448562E+03  0.23282330649E+03  0.12509107573E+03 0.  0.
          5    1    3    3  502    0  0.30855183017E+02 -0.54053578124E+02 -0.59627373236E+02  0.86294424305E+02  0.41800000000E+01 0.  1.
         -5    1    3    3    0  502  0.28221902653E+02  0.66915317587E+02 -0.12719711238E+03  0.14652888219E+03  0.41800000000E+01 0.  1.
        -11    1    1    2    0    0 -0.58927052700E+02  0.29817122029E+02 -0.44013043166E+02  0.79363759202E+02  0.00000000000E+00 0.  1.
         11    1    1    2    0    0 -0.15003296979E+00 -0.42678861492E+02 -0.31651581362E+02  0.53135019816E+02  0.00000000000E+00 0. -1.
</event>
<event>
 7    1  0.2670433E-009  0.1216275E+03  0.7561462E-02  0.1240436E+00
         -3   -1    0    0    0  501 -0.00000000000E+00  0.00000000000E+00  0.81237209748E+02  0.81237209748E+02  0.00000000000E+00 0.  1.
          3   -1    0    0  501    0  0.00000000000E+00 -0.00000000000E+00 -0.30291268574E+03  0.30291268574E+03  0.00000000000E+00 0. -1.
         25    2    1    2    0    0 -0.68304967615E+02  0.72256642831E+02 -0.18576256532E+03  0.24503694852E+03  0.12509510156E+03 0.  0.
          5    1    3    3  502    0 -0.37365992175E+01  0.41252025469E+02  0.43289061183E+01  0.41855747600E+02  0.41800000000E+01 0.  1.
         -5    1    3    3    0  502 -0.64568368398E+02  0.31004617362E+02 -0.19009147144E+03  0.20318120092E+03  0.41800000000E+01 0.  1.
        -11    1    1    2    0    0  0.27837180285E+02 -0.83382135297E+02 -0.70737189789E+01  0.88190286274E+02  0.00000000000E+00 0.  1.
         11    1    1    2    0    0  0.40467787331E+02  0.11125492466E+02 -0.28839191689E+02  0.50922660686E+02  0.00000000000E+00 0. -1.
</event>
<event>
 7    1  0.2670433E-009  0.1192255E+03  0.7561462E-02  0.1244380E+00
         -2   -1    0    0    0  501 -0.00000000000E+00  0.00000000000E+00  0.33780187890E+03  0.33780187890E+03  0.00000000000E+00 0.  1.
          2   -1    0    0  501    0  0.00000000000E+00 -0.00000000000E+00 -0.55256618968E+02  0.55256618968E+02  0.00000000000E+00 0. -1.
         25    2    1    2    0    0 -0.63729573890E+01  0.82612422898E+02  0.15633296612E+03  0.21668582415E+03  0.12508926048E+03 0.  0.
          5    1    3    3  502    0 -0.28363718150E+02  0.96357690564E+02  0.16119165167E+03  0.18997243486E+03  0.41800000000E+01 0. -1.
         -5    1    3    3    0  502  0.21990760761E+02 -0.13745267667E+02 -0.48586855477E+01  0.26713389290E+02  0.41800000000E+01 0. -1.
        -11    1    1    2    0    0  0.40105585710E+02 -0.54933516613E+02  0.37885222954E+02  0.77855246264E+02  0.00000000000E+00 0. -1.
         11    1    1    2    0    0 -0.33732628321E+02 -0.27678906285E+02  0.88327070859E+02  0.98517427459E+02  0.00000000000E+00 0.  1.
</event>
<event>
 7    1  0.2670433E-009  0.1198310E+03  0.7561462E-02  0.1243376E+00
          2   -1    0    0  501    0  0.00000000000E+00  0.00000000000E+00  0.80186770544E+03  0.80186770544E+03  0.00000000000E+00 0. -1.
         -2   -1    0    0    0  501 -0.00000000000E+00 -0.00000000000E+00 -0.30216398483E+02  0.30216398483E+02  0.00000000000E+00 0.  1.
         25    2    1    2    0    0  0.90760856673E+02  0.50821979615E+02  0.52329902753E+03  0.54800528829E+03  0.12509003586E+03 0.  0.
          5    1    3    3  502    0  0.53985673971E+02  0.41112160355E+02  0.49687281915E+03  0.50150247610E+03  0.41800000000E+01 0.  1.
         -5    1    3    3    0  502  0.36775182702E+02  0.97098192605E+01  0.26426208378E+02  0.46502812195E+02  0.41800000000E+01 0.  1.
        -11    1    1    2    0    0  0.43984210330E+01 -0.36991695559E+02  0.40303133394E+02  0.54882367016E+02  0.00000000000E+00 0. -1.
         11    1    1    2    0    0 -0.95159277706E+02 -0.13830284056E+02  0.20804914604E+03  0.22919644861E+03  0.00000000000E+00 0.  1.
</event>
<event>
 7    1  0.2670433E-009  0.1247854E+03  0.7561462E-02  0.1235405E+00
         -1   -1    0    0    0  501 -0.00000000000E+00  0.00000000000E+00  0.45913821467E+02  0.45913821467E+02  0.00000000000E+00 0.  1.
          1   -1    0    0  501    0  0.00000000000E+00 -0.00000000000E+00 -0.54666992020E+03  0.54666992020E+03  0.00000000000E+00 0. -1.
         25    2    1    2    0    0 -0.35023041633E+02 -0.10842580150E+03 -0.30562247575E+03  0.34933520063E+03  0.12508883578E+03 0.  0.
          5    1    3    3  502    0 -0.26712638807E+02 -0.24905962146E+01 -0.19122996716E+03  0.19314797664E+03  0.41800000000E+01 0. -1.
         -5    1    3    3    0  502 -0.83104028259E+01 -0.10593520528E+03 -0.11439250859E+03  0.15618722398E+03  0.41800000000E+01 0. -1.
        -11    1    1    2    0    0  0.15388469912E+02  0.18655589893E+02  0.34558053433E+01  0.24429053012E+02  0.00000000000E+00 0.  1.
         11    1    1    2    0    0  0.19634571722E+02  0.89770211607E+02 -0.19858942833E+03  0.21881948803E+03  0.00000000000E+00 0. -1.
</event>
<event>
 7    1  0.2670433E-009  0.1036860E+03  0.7561462E-02  0.1272730E+00
          2   -1    0    0  501    0  0.00000000000E+00  0.00000000000E+00  0.10220533963E+04  0.10220533963E+04  0.00000000000E+00 0. -1.
         -2   -1    0    0    0  501 -0.00000000000E+00 -0.00000000000E+00 -0.21096781706E+02  0.21096781706E+02  0.00000000000E+00 0.  1.
         25    2    1    2    0    0 -0.51975566043E+02  0.77798017875E+02  0.42475201550E+03  0.45256446789E+03  0.12508529839E+03 0.  0.
          5    1    3    3  502    0 -0.23091253743E+02  0.26598452347E+02  0.14860031480E+02  0.38457464844E+02  0.41800000000E+01 0. -1.
         -5    1    3    3    0  502 -0.28884312299E+02  0.51199565528E+02  0.40989198402E+03  0.41410700305E+03  0.41800000000E+01 0. -1.
        -11    1    1    2    0    0  0.66634025448E+02 -0.68745355935E+02  0.55531758140E+03  0.56351010064E+03  0.00000000000E+00 0.  1.
         11    1    1    2    0    0 -0.14658459405E+02 -0.90526619404E+01  0.20887017688E+02  0.27075609471E+02  0.00000000000E+00 0. -1.
</event>
<event>
 7    1  0.2670433E-009  0.1524569E+03  0.7561462E-02  0.1197486E+00
          2   -1    0    0  501    0  0.00000000000E+00  0.00000000000E+00  0.78554125161E+03  0.78554125161E+03  0.00000000000E+00 0. -1.
         -2   -1    0    0    0  501 -0.00000000000E+00 -0.00000000000E+00 -0.37308116003E+02  0.37308116003E+02  0.00000000000E+00 0.  1.
         25    2    1    2    0    0 -0.12685903335E+03  0.20745273819E+02  0.31921370136E+03  0.36615412553E+03  0.12509146967E+03 0.  0.
          5    1    3    3  502    0 -0.14343735788E+03  0.22253922442E+02  0.31721699258E+03  0.34887477049E+03  0.41800000000E+01 0.  1.
         -5    1    3    3    0  502  0.16578324532E+02 -0.15086486231E+01  0.19967087768E+01  0.17279355048E+02  0.41800000000E+01 0.  1.
        -11    1    1    2    0    0  0.28179112956E+02  0.21248977035E+02  0.20867297351E+03  0.21163646024E+03  0.00000000000E+00 0. -1.
         11    1    1    2    0    0  0.98679920391E+02 -0.41994250854E+02  0.22034646074E+03  0.24505878184E+03  0.00000000000E+00 0.  1.
</event>
<event>
 7    1  0.2670433E-009  0.1155446E+03  0.7561462E-02  0.1250633E+00
         -2   -1    0    0    0  501 -0.00000000000E+00  0.00000000000E+00  0.11334169746E+03  0.11334169746E+03  0.00000000000E+00 0. -1.
          2   -1    0    0  501    0  0.00000000000E+00 -0.00000000000E+00 -0.12742681312E+03  0.12742681312E+03  0.00000000000E+00 0.  1.
         25    2    1    2    0    0  0.11103042868E+02  0.53044041525E+02 -0.10777510282E+02  0.13675369995E+03  0.12509385205E+03 0.  0.
          5    1    3    3  502    0  0.56296366752E+00  0.89547393936E+02  0.14662671237E+02  0.90837872149E+02  0.41800000000E+01 0. -1.
         -5    1    3    3    0  502  0.10540079201E+02 -0.36503352410E+02 -0.25440181519E+02  0.45915827799E+02  0.41800000000E+01 0. -1.
        -11    1    1    2    0    0 -0.42058684089E+02 -0.29779342047E+00 -0.74552756555E+01  0.42715368702E+02  0.00000000000E+00 0. -1.
         11    1    1    2    0    0  0.30955641221E+02 -0.52746248105E+02  0.41476702795E+01  0.61299441933E+02  0.00000000000E+00 0.  1.
</event>
<event>
 7    1  0.2670433E-009  0.1640834E+03  0.7561462E-02  0.1184162E+00
          1   -1    0    0  501    0  0.00000000000E+00  0.00000000000E+00  0.98693833196E+02  0.98693833196E+02  0.00000000000E+00 0. -1.
         -1   -1    0    0    0  501 -0.00000000000E+00 -0.00000000000E+00 -0.43787254747E+03  0.43787254747E+03  0.00000000000E+00 0.  1.
         25    2    1    2    0    0  0.51674733388E+02 -0.12661281020E+03 -0.27077830444E+02  0.18729755724E+03  0.12508430865E+03 0.  0.
          5    1    3    3  502    0  0.68061712631E+01 -0.12694182731E+03  0.11855853363E+02  0.12774421767E+03  0.41800000000E+01 0.  1.
         -5    1    3    3    0  502  0.44868562125E+02  0.32901711479E+00 -0.38933683807E+02  0.59553339572E+02  0.41800000000E+01 0.  1.
        -11    1    1    2    0    0  0.17104176136E+02  0.50533868316E+02 -0.12484506490E+03  0.13576639834E+03  0.00000000000E+00 0.  1.
         11    1    1    2    0    0 -0.68778909524E+02  0.76078941884E+02 -0.18725581894E+03  0.21350242509E+03  0.00000000000E+00 0. -1.
</event>
<event>
 7    1  0.2670433E-009  0.4187915E+03  0.7561462E-02  0.1037460E+00
         -1   -1    0    0    0  501 -0.00000000000E+00  0.00000000000E+00  0.94563870791E+02  0.94563870791E+02  0.00000000000E+00 0.  1.
          1   -1    0    0  501    0  0.00000000000E+00 -0.00000000000E+00 -0.22495566641E+04  0.22495566641E+04  0.00000000000E+00 0. -1.
         25    2    1    2    0    0 -0.38853572632E+03  0.12372035205E+03 -0.61369850489E+03  0.74735560569E+03  0.12509120794E+03 0.  0.
          5    1    3    3  502    0 -0.22828432949E+02  0.38772671373E+02 -0.33441353898E+02  0.56216136001E+02  0.41800000000E+01 0.  1.
         -5    1    3    3    0  502 -0.36570729337E+03  0.84947680678E+02 -0.58025715100E+03  0.69113946969E+03  0.41800000000E+01 0.  1.
        -11    1    1    2    0    0  0.19404481779E+03 -0.10732468183E+03 -0.84932731738E+03  0.87779773905E+03  0.00000000000E+00 0. -1.
         11    1    1    2    0    0  0.19449090854E+03 -0.16395670219E+02 -0.69196697104E+03  0.71896719016E+03  0.00000000000E+00 0.  1.
</event>
<event>
 7    1  0.2670433E-009  0.1025376E+03  0.7561462E-02  0.1275048E+00
         -2   -1    0    0    0  501 -0.00000000000E+00  0.00000000000E+00  0.26188314215E+02  0.26188314215E+02  0.00000000000E+00 0.  1.
          2   -1    0    0  501    0  0.00000000000E+00 -0.00000000000E+00 -0.45679004096E+03  0.45679004096E+03  0.00000000000E+00 0. -1.
         25    2    1    2    0    0 -0.78334274215E+01 -0.13221255261E+02 -0.24934472959E+03  0.27938606275E+03  0.12509042213E+03 0.  0.
          5    1    3    3  502    0 -0.62754071811E+02  0.25524396677E+01 -0.88184947761E+02  0.10834503167E+03  0.41800000000E+01 0.  1.
         -5    1    3    3    0  502  0.54920644389E+02 -0.15773694929E+02 -0.16115978183E+03  0.17104103108E+03  0.41800000000E+01 0.  1.
        -11    1    1    2    0    0  0.11444709829E+02 -0.34823757907E+02 -0.39579184233E+02  0.53946152063E+02  0.00000000000E+00 0.  1.
         11    1    1    2    0    0 -0.36112824073E+01  0.48045013168E+02 -0.14167781292E+03  0.14964614036E+03  0.00000000000E+00 0. -1.
</event>
<event>
 7    1  0.2670433E-009  0.1372116E+03  0.7561462E-02  0.1217131E+00
          1   -1    0    0  501    0  0.00000000000E+00  0.00000000000E+00  0.36650181580E+03  0.36650181580E+03  0.00000000000E+00 0. -1.
         -1   -1    0    0    0  501 -0.00000000000E+00 -0.00000000000E+00 -0.65725329562E+02  0.65725329562E+02  0.00000000000E+00 0.  1.
         25    2    1    2    0    0  0.18389310588E+02 -0.86134339644E+02  0.25169625877E+03  0.29454341077E+03  0.12509005931E+03 0.  0.
          5    1    3    3  502    0  0.62362297241E+02 -0.93391009360E+01  0.12325862179E+03  0.13851510809E+03  0.41800000000E+01 0. -1.
         -5    1    3    3    0  502 -0.43972986653E+02 -0.76795238708E+02  0.12843763698E+03  0.15602830268E+03  0.41800000000E+01 0. -1.
        -11    1    1    2    0    0 -0.54146800526E+01 -0.17434656765E+02 -0.65630064676E+01  0.19399976043E+02  0.00000000000E+00 0.  1.
         11    1    1    2    0    0 -0.12974630535E+02  0.10356899641E+03  0.55643233938E+02  0.11828375855E+03  0.00000000000E+00 0. -1.
</event>
<event>
 7    1  0.2670433E-009  0.1393475E+03  0.7561462E-02  0.1214210E+00
          2   -1    0    0  501    0  0.00000000000E+00  0.00000000000E+00  0.31929799776E+03  0.31929799776E+03  0.00000000000E+00 0. -1.
         -2   -1    0    0    0  501 -0.00000000000E+00 -0.00000000000E+00 -0.14394053835E+03  0.14394053835E+03  0.00000000000E+00 0.  1.
         25    2    1    2    0    0 -0.57485951078E+02 -0.11522088493E+03 -0.51590493728E+02  0.18678979001E+03  0.12509340396E+03 0.  0.
          5    1    3    3  502    0 -0.72511363259E+02 -0.88902858383E+02 -0.83979001828E+02  0.14223769254E+03  0.41800000000E+01 0.  1.
         -5    1    3    3    0  502  0.15025412181E+02 -0.26318026546E+02  0.32388508099E+02  0.44552097474E+02  0.41800000000E+01 0.  1.
        -11    1    1    2    0    0  0.48234954170E+02  0.58448344273E+02  0.51019336088E+02  0.91355308586E+02  0.00000000000E+00 0.  1.
         11    1    1    2    0    0  0.92509969077E+01  0.56772540656E+02  0.17592861704E+03  0.18509343751E+03  0.00000000000E+00 0. -1.
</event>
<event>
 7    1  0.2670433E-009  0.1572396E+03  0.7561462E-02  0.1191849E+00
         -2   -1    0    0    0  501 -0.00000000000E+00  0.00000000000E+00  0.46301228401E+03  0.46301228401E+03  0.00000000000E+00 0.  1.
          2   -1    0    0  501    0  0.00000000000E+00 -0.00000000000E+00 -0.57749322441E+02  0.57749322441E+02  0.00000000000E+00 0. -1.
         25    2    1    2    0    0  0.22933206984E+02  0.12047879546E+03  0.22008869888E+03  0.28129633362E+03  0.12509004675E+03 0.  0.
          5    1    3    3  502    0  0.63335237890E+02  0.10047331744E+03  0.10869990337E+03  0.16105707457E+03  0.41800000000E+01 0. -1.
         -5    1    3    3    0  502 -0.40402030905E+02  0.20005478022E+02  0.11138879551E+03  0.12023925905E+03  0.41800000000E+01 0. -1.
        -11    1    1    2    0    0 -0.35235693573E+02 -0.13007076459E+03  0.15421641647E+03  0.20479907473E+03  0.00000000000E+00 0.  1.
         11    1    1    2    0    0  0.12302486589E+02  0.95919691277E+01  0.30957846220E+02  0.34666198098E+02  0.00000000000E+00 0. -1.
</event>
<event>
 7    1  0.2670433E-009  0.1027280E+03  0.7561462E-02  0.1274662E+00
         -2   -1    0    0    0  501 -0.00000000000E+00  0.00000000000E+00  0.82904484641E+02  0.82904484641E+02  0.00000000000E+00 0.  1.
          2   -1    0    0  501    0  0.00000000000E+00 -0.00000000000E+00 -0.17170636103E+03  0.17170636103E+03  0.00000000000E+00 0. -1.
         25    2    1    2    0    0  0.31693143592E+01 -0.38015909075E+02 -0.17600760744E+02  0.13195498483E+03  0.12508827821E+03 0.  0.
          5    1    3    3  502    0  0.63047928202E+02 -0.81078220848E+01 -0.78128460898E+01  0.64181702950E+02  0.41800000000E+01 0. -1.
         -5    1    3    3    0  502 -0.59878613843E+02 -0.29908086990E+02 -0.97879146539E+01  0.67773281877E+02  0.41800000000E+01 0. -1.
        -11    1    1    2    0    0 -0.33508555883E+02  0.15570748381E+02 -0.76103831249E+02  0.84599436484E+02  0.00000000000E+00 0.  1.
         11    1    1    2    0    0  0.30339241524E+02  0.22445160694E+02  0.49027156030E+01  0.38056424360E+02  0.00000000000E+00 0. -1.
</event>
<event>
 7    1  0.2670433E-009  0.7646730E+02  0.7561462E-02  0.1339387E+00
         -2   -1    0    0    0  501 -0.00000000000E+00  0.00000000000E+00  0.33622860320E+03  0.33622860320E+03  0.00000000000E+00 0.  1.
          2   -1    0    0  501    0  0.00000000000E+00 -0.00000000000E+00 -0.46148532327E+02  0.46148532327E+02  0.00000000000E+00 0. -1.
         25    2    1    2    0    0  0.43534434389E+02 -0.31301936693E+02  0.23619080143E+03  0.27259623565E+03  0.12509018662E+03 0.  0.
          5    1    3    3  502    0  0.51882042093E+02 -0.25973069896E+02  0.24909742699E+03  0.25579942765E+03  0.41800000000E+01 0.  1.
         -5    1    3    3    0  502 -0.83476077040E+01 -0.53288667978E+01 -0.12906625555E+02  0.16796807999E+02  0.41800000000E+01 0.  1.
        -11    1    1    2    0    0 -0.17970401483E+02 -0.19883104272E+02  0.44289710243E+02  0.51767283088E+02  0.00000000000E+00 0.  1.
         11    1    1    2    0    0 -0.25564032906E+02  0.51185040965E+02  0.95995591982E+01  0.58013616797E+02  0.00000000000E+00 0. -1.
</event>
<event>
 7    1  0.2670433E-009  0.9164701E+02  0.7561462E-02  0.1298912E+00
          2   -1    0    0  501    0  0.00000000000E+00  0.00000000000E+00  0.43698473190E+03  0.43698473190E+03  0.00000000000E+00 0. -1.
         -2   -1    0    0    0  501 -0.00000000000E+00 -0.00000000000E+00 -0.29372956613E+02  0.29372956613E+02  0.00000000000E+00 0.  1.
         25    2    1    2    0    0  0.10619390425E+02  0.40671547620E+01  0.29924345644E+03  0.32453525197E+03  0.12508864998E+03 0.  0.
          5    1    3    3  502    0 -0.20968237301E+01 -0.52052832223E+02  0.65596757286E+02  0.83870739705E+02  0.41800000000E+01 0.  1.
         -5    1    3    3    0  502  0.12716214155E+02  0.56119986985E+02  0.23364669915E+03  0.24066451227E+03  0.41800000000E+01 0.  1.
        -11    1    1    2    0    0 -0.27487154453E+02  0.26655220543E+02  0.13355444607E+02  0.40551354389E+02  0.00000000000E+00 0.  1.
         11    1    1    2    0    0  0.16867764028E+02 -0.30722375305E+02  0.95012874243E+02  0.10127108215E+03  0.00000000000E+00 0. -1.
</event>
<event>
 7    1  0.2670433E-009  0.1888586E+03  0.7561462E-02  0.1159495E+00
         -1   -1    0    0    0  501 -0.00000000000E+00  0.00000000000E+00  0.48670171245E+02  0.48670171245E+02  0.00000000000E+00 0.  1.
          1   -1    0    0  501    0  0.00000000000E+00 -0.00000000000E+00 -0.77083699994E+03  0.77083699994E+03  0.00000000000E+00 0. -1.
         25    2    1    2    0    0  0.53120116735E+02  0.14747305157E+03 -0.45054825883E+03  0.49316522581E+03  0.12509260039E+03 0.  0.
          5    1    3    3  502    0 -0.40493074924E+02  0.31698752210E+02 -0.11431917268E+03  0.12542266801E+03  0.41800000000E+01 0.  1.
         -5    1    3    3    0  502  0.93613191659E+02  0.11577429936E+03 -0.33622908615E+03  0.36774255780E+03  0.41800000000E+01 0.  1.
        -11    1    1    2    0    0 -0.28084155193E+02 -0.14944838694E+03 -0.20572459843E+03  0.25582445257E+03  0.00000000000E+00 0.  1.
         11    1    1    2    0    0 -0.25035961542E+02  0.19753353709E+01 -0.65893971433E+02  0.70517492804E+02  0.00000000000E+00 0. -1.
</event>
<event>
 7    1  0.2670433E-009  0.6974905E+02  0.7561462E-02  0.1360948E+00
          2   -1    0    0  501    0  0.00000000000E+00  0.00000000000E+00  0.10773991400E+03  0.10773991400E+03  0.00000000000E+00 0. -1.
         -2   -1    0    0    0  501 -0.00000000000E+00 -0.00000000000E+00 -0.16976694959E+03  0.16976694959E+03  0.00000000000E+00 0.  1.
         25    2    1    2    0    0  0.43417002061E+02  0.51911745116E+02 -0.61461971232E+02  0.15493300037E+03  0.12508715101E+03 0.  0.
          5    1    3    3  502    0  0.12992896779E+02  0.37431092664E+01 -0.89979004504E+02  0.91085234177E+02  0.41800000000E+01 0.  1.
         -5    1    3    3    0  502  0.30424105282E+02  0.48168635849E+02  0.28517033271E+02  0.63847766197E+02  0.41800000000E+01 0.  1.
        -11    1    1    2    0    0 -0.39310676443E+02 -0.42185071095E+02 -0.47350336300E+02  0.74612089191E+02  0.00000000000E+00 0.  1.
         11    1    1    2    0    0 -0.41063256178E+01 -0.97266740208E+01  0.46785271939E+02  0.47961774029E+02  0.00000000000E+00 0. -1.
</event>
<event>
 7    1  0.2670433E-009  0.1470575E+03  0.7561462E-02  0.1204136E+00
         -1   -1    0    0    0  501 -0.00000000000E+00  0.00000000000E+00  0.61722875675E+03  0.61722875675E+03  0.00000000000E+00 0.  1.
          1   -1    0    0  501    0  0.00000000000E+00 -0.00000000000E+00 -0.48700177328E+02  0.48700177328E+02  0.00000000000E+00 0. -1.
         25    2    1    2    0    0 -0.41290473654E+01  0.13302922013E+03  0.34439281837E+03  0.38982973740E+03  0.12508792257E+03 0.  0.
          5    1    3    3  502    0  0.14853129373E+02  0.72970885796E+02  0.30813377136E+03  0.31703195277E+03  0.41800000000E+01 0. -1.
         -5    1    3    3    0  502 -0.18982176739E+02  0.60058334330E+02  0.36259047013E+02  0.72797784627E+02  0.41800000000E+01 0. -1.
        -11    1    1    2    0    0  0.27729706718E+02 -0.75683558523E+01  0.71825833425E+02  0.77363861022E+02  0.00000000000E+00 0. -1.
         11    1    1    2    0    0 -0.23600659352E+02 -0.12546086427E+03  0.15230992762E+03  0.19873533566E+03  0.00000000000E+00 0.  1.
</event>
<event>
 7    1  0.2670433E-009  0.1165346E+03  0.7561462E-02  0.1248926E+00
          2   -1    0    0  501    0  0.00000000000E+00  0.00000000000E+00  0.84181826530E+03  0.84181826530E+03  0.00000000000E+00 0. -1.
         -2   -1    0    0    0  501 -0.00000000000E+00 -0.00000000000E+00 -0.30705136209E+02  0.30705136209E+02  0.00000000000E+00 0.  1.
         25    2    1    2    0    0  0.83211722780E+02 -0.60048867975E+02  0.60228874564E+03  0.62364120438E+03  0.12508621554E+03 0.  0.
          5    1    3    3  502    0  0.13121976546E+02  0.83548792866E+00  0.40836996803E+03  0.40860297049E+03  0.41800000000E+01 0.  1.
         -5    1    3    3    0  502  0.70089746234E+02 -0.60884355904E+02  0.19391877761E+03  0.21503823388E+03  0.41800000000E+01 0.  1.
        -11    1    1    2    0    0 -0.10382094579E+02  0.52043276192E+02  0.45605198625E+02  0.69972313284E+02  0.00000000000E+00 0.  1.
         11    1    1    2    0    0 -0.72829628201E+02  0.80055917835E+01  0.16321918483E+03  0.17890988385E+03  0.00000000000E+00 0. -1.
</event>
<event>
 7    1  0.2670433E-009  0.8739720E+02  0.7561462E-02  0.1309280E+00
          3   -1    0    0  501    0  0.00000000000E+00  0.00000000000E+00  0.86692852326E+02  0.86692852326E+02  0.00000000000E+00 0. -1.
         -3   -1    0    0    0  501 -0.00000000000E+00 -0.00000000000E+00 -0.21417750103E+03  0.21417750103E+03  0.00000000000E+00 0.  1.
         25    2    1    2    0    0 -0.32974030588E+02  0.27428332975E+01  0.96255469712E+01  0.12975101361E+03  0.12509142476E+03 0.  0.
          5    1    3    3  502    0  0.23584947483E+01 -0.28350974361E+02  0.56372993776E+02  0.63282912955E+02  0.41800000000E+01 0. -1.
         -5    1    3    3    0  502 -0.35332525337E+02  0.31093807659E+02 -0.46747446805E+02  0.66468100651E+02  0.41800000000E+01 0. -1.
        -11    1    1    2    0    0  0.79884078250E+01  0.44571886113E+02 -0.85645104795E+02  0.96879056904E+02  0.00000000000E+00 0.  1.
         11    1    1    2    0    0  0.24985622763E+02 -0.47314719411E+02 -0.51465090881E+02  0.74240282847E+02  0.00000000000E+00 0. -1.
</event>
<event>
 7    1  0.2670433E-009  0.1785932E+03  0.7561462E-02  0.1169172E+00
         -2   -1    0    0    0  501 -0.00000000000E+00  0.00000000000E+00  0.16791146049E+03  0.16791146049E+03  0.00000000000E+00 0.  1.
          2   -1    0    0  501    0  0.00000000000E+00 -0.00000000000E+00 -0.23763922389E+03  0.23763922389E+03  0.00000000000E+00 0. -1.
         25    2    1    2    0    0  0.16612693246E+03 -0.26158233656E+01 -0.87542457979E+01  0.20815637830E+03  0.12508973094E+03 0.  0.
          5    1    3    3  502    0  0.87082964861E+02  0.34747553102E+02  0.46402974556E+02  0.10469739091E+03  0.41800000000E+01 0. -1.
         -5    1    3    3    0  502  0.79043967602E+02 -0.37363376468E+02 -0.55157220353E+02  0.10345898739E+03  0.41800000000E+01 0. -1.
        -11    1    1    2    0    0 -0.34522092174E+02  0.24580390884E+02 -0.46928803644E+02  0.63231978267E+02  0.00000000000E+00 0. -1.
         11    1    1    2    0    0 -0.13160484029E+03 -0.21964567518E+02 -0.14044713955E+02  0.13416232781E+03  0.00000000000E+00 0.  1.
</event>
<event>
 7    1  0.2670433E-009  0.1295141E+03  0.7561462E-02  0.1228178E+00
         -2   -1    0    0    0  501 -0.00000000000E+00  0.00000000000E+00  0.96626996874E+02  0.96626996874E+02  0.00000000000E+00 0.  1.
          2   -1    0    0  501    0  0.00000000000E+00 -0.00000000000E+00 -0.21423866919E+03  0.21423866919E+03  0.00000000000E+00 0. -1.
         25    2    1    2    0    0 -0.81680608768E+02 -0.53907481526E+02 -0.58333350857E+02  0.16919635282E+03  0.12508751965E+03 0.  0.
          5    1    3    3  502    0  0.29322984227E+02  0.82251186103E+01 -0.47762279916E+01  0.31109077999E+02  0.41800000000E+01 0. -1.
         -5    1    3    3    0  502 -0.11100359300E+03 -0.62132600136E+02 -0.53557122865E+02  0.13808727482E+03  0.41800000000E+01 0. -1.
        -11    1    1    2    0    0  0.46950343929E+02  0.16008809267E+02 -0.73188944888E+02  0.88415148154E+02  0.00000000000E+00 0. -1.
         11    1    1    2    0    0  0.34730264839E+02  0.37898672259E+02  0.13910623433E+02  0.53254165087E+02  0.00000000000E+00 0.  1.
</event>
<event>
 7    1  0.2670433E-009  0.9545341E+02  0.7561462E-02  0.1290158E+00
          2   -1    0    0  501    0  0.00000000000E+00  0.00000000000E+00  0.14272252948E+03  0.14272252948E+03  0.00000000000E+00 0. -1.
         -2   -1    0    0    0  501 -0.00000000000E+00 -0.00000000000E+00 -0.12622956316E+03  0.12622956316E+03  0.00000000000E+00 0.  1.
         25    2    1    2    0    0 -0.33600194548E+02  0.71632152355E+02  0.68690689211E+01  0.14817366907E+03  0.12509242093E+03 0.  0.
          5    1    3    3  502    0 -0.22348335758E+02  0.63856537162E+02 -0.53362282487E+02  0.86267670895E+02  0.41800000000E+01 0. -1.
         -5    1    3    3    0  502 -0.11251858790E+02  0.77756151930E+01  0.60231351408E+02  0.61905998177E+02  0.41800000000E+01 0. -1.
        -11    1    1    2    0    0  0.25598694761E+02 -0.87436876803E+02  0.27942133280E+02  0.95295663127E+02  0.00000000000E+00 0. -1.
         11    1    1    2    0    0  0.80014997870E+01  0.15804724448E+02 -0.18318235880E+02  0.25482760437E+02  0.00000000000E+00 0.  1.
</event>
<event>
 7    1  0.2670433E-009  0.3471374E+03  0.7561462E-02  0.1063796E+00
         -1   -1    0    0    0  501 -0.00000000000E+00  0.00000000000E+00  0.12645031860E+03  0.12645031860E+03  0.00000000000E+00 0.  1.
          1   -1    0    0  501    0  0.00000000000E+00 -0.00000000000E+00 -0.10562138139E+04  0.10562138139E+04  0.00000000000E+00 0. -1.
         25    2    1    2    0    0 -0.28506262582E+03 -0.18870612247E+03 -0.58033466596E+03  0.68505949167E+03  0.12508989288E+03 0.  0.
          5    1    3    3  502    0 -0.21392169650E+03 -0.13746082562E+03 -0.51905767350E+03  0.57801065010E+03  0.41800000000E+01 0.  1.
         -5    1    3    3    0  502 -0.71140929320E+02 -0.51245296856E+02 -0.61276992464E+02  0.10704884156E+03  0.41800000000E+01 0.  1.
        -11    1    1    2    0    0  0.58864260134E+02  0.20211777120E+01 -0.39577686925E+02  0.70961113173E+02  0.00000000000E+00 0.  1.
         11    1    1    2    0    0  0.22619836569E+03  0.18668494476E+03 -0.30985114238E+03  0.42664352764E+03  0.00000000000E+00 0. -1.
</event>
<event>
 7    1  0.2670433E-009  0.1195398E+03  0.7561462E-02  0.1243858E+00
          3   -1    0    0  501    0  0.00000000000E+00  0.00000000000E+00  0.45592941533E+03  0.45592941533E+03  0.00000000000E+00 0. -1.
         -3   -1    0    0    0  501 -0.00000000000E+00 -0.00000000000E+00 -0.33429945216E+02  0.33429945216E+02  0.00000000000E+00 0.  1.
         25    2    1    2    0    0  0.24797861748E+02 -0.44086269613E+02  0.23811370027E+03  0.27368648613E+03  0.12509046853E+03 0.  0.
          5    1    3    3  502    0 -0.10191466673E+02  0.37117527509E+02  0.35289286227E+02  0.52386858693E+02  0.41800000000E+01 0.  1.
         -5    1    3    3    0  502  0.34989328421E+02 -0.81203797123E+02  0.20282441404E+03  0.22129962744E+03  0.41800000000E+01 0.  1.
        -11    1    1    2    0    0  0.35864772022E+02  0.35697409308E+02  0.80714659989E+02  0.95265120798E+02  0.00000000000E+00 0.  1.
         11    1    1    2    0    0 -0.60662633770E+02  0.83888603051E+01  0.10367110985E+03  0.12040775361E+03  0.00000000000E+00 0. -1.
</event>
<event>
 7    1  0.2670433E-009  0.8575707E+02  0.7561462E-02  0.1313464E+00
          1   -1    0    0  501    0  0.00000000000E+00  0.00000000000E+00  0.14214777342E+02  0.14214777342E+02  0.00000000000E+00 0. -1.
         -1   -1    0    0    0  501 -0.00000000000E+00 -0.00000000000E+00 -0.11060242346E+04  0.11060242346E+04  0.00000000000E+00 0.  1.
         25    2    1    2    0    0 -0.13638435806E+02 -0.59507075091E+02 -0.55103357577E+03  0.56834351999E+03  0.12509698709E+03 0.  0.
          5    1    3    3  502    0 -0.18531853211E+01 -0.18797472449E+02 -0.41264046104E+01  0.19780770494E+02  0.41800000000E+01 0. -1.
         -5    1    3    3    0  502 -0.11785250485E+02 -0.40709602642E+02 -0.54690717116E+03  0.54856274950E+03  0.41800000000E+01 0. -1.
        -11    1    1    2    0    0  0.50654064815E+02  0.17497463958E+02 -0.29435222813E+03  0.29919095864E+03  0.00000000000E+00 0.  1.
         11    1    1    2    0    0 -0.37015629009E+02  0.42009611133E+02 -0.24642365332E+03  0.25270453326E+03  0.00000000000E+00 0. -1.
</event>
<event>
 7    1  0.2670433E-009  0.7381452E+02  0.7561462E-02  0.1347582E+00
         -2   -1    0    0    0  501 -0.00000000000E+00  0.00000000000E+00  0.19473231287E+02  0.19473231287E+02  0.00000000000E+00 0.  1.
          2   -1    0    0  501    0  0.00000000000E+00 -0.00000000000E+00 -0.68123293442E+03  0.68123293442E+03  0.00000000000E+00 0. -1.
         25    2    1    2    0    0 -0.13769784403E+02  0.34506219691E+02 -0.42583186971E+03  0.44537694815E+03  0.12509020156E+03 0.  0.
          5    1    3    3  502    0  0.29542271493E+02  0.88955445336E+01 -0.36498067262E+03  0.36630621112E+03  0.41800000000E+01 0.  1.
         -5    1    3    3    0  502 -0.43312055896E+02  0.25610675158E+02 -0.60851197085E+02  0.79070737031E+02  0.41800000000E+01 0.  1.
        -11    1    1    2    0    0  0.33474120795E+02 -0.31697535404E+02 -0.22998144081E+03  0.23455641887E+03  0.00000000000E+00 0. -1.
         11    1    1    2    0    0 -0.19704336392E+02 -0.28086842871E+01 -0.59463926076E+01  0.20772798683E+02  0.00000000000E+00 0.  1.
</event>
<event>
 7    1  0.2670433E-009  0.1536207E+03  0.7561462E-02  0.1196093E+00
         -1   -1    0    0    0  501 -0.00000000000E+00  0.00000000000E+00  0.19718564643E+03  0.19718564643E+03  0.00000000000E+00 0.  1.
          1   -1    0    0  501    0  0.00000000000E+00 -0.00000000000E+00 -0.12576834248E+03  0.12576834248E+03  0.00000000000E+00 0. -1.
         25    2    1    2    0    0 -0.11420263498E+03  0.15693865818E+00  0.36666346403E+02  0.17330196836E+03  0.12508750861E+03 0.  0.
          5    1    3    3  502    0  0.21918069967E+02 -0.11581138580E+02  0.26047375025E+02  0.36200313640E+02  0.41800000000E+01 0.  1.
         -5    1    3    3    0  502 -0.13612070495E+03  0.11738077239E+02  0.10618971378E+02  0.13710165472E+03  0.41800000000E+01 0.  1.
        -11    1    1    2    0    0  0.80065093228E+02 -0.42800740546E+02  0.24969787974E+02  0.94158445486E+02  0.00000000000E+00 0.  1.
         11    1    1    2    0    0  0.34137541752E+02  0.42643801888E+02  0.97811695741E+01  0.55493575075E+02  0.00000000000E+00 0. -1.
</event>
<event>
 7    1  0.2670433E-009  0.1285859E+03  0.7561462E-02  0.1229569E+00
         -4   -1    0    0    0  501 -0.00000000000E+00  0.00000000000E+00  0.14678138393E+03  0.14678138393E+03  0.00000000000E+00 0.  1.
          4   -1    0    0  501    0  0.00000000000E+00 -0.00000000000E+00 -0.14501129083E+03  0.14501129083E+03  0.00000000000E+00 0. -1.
         25    2    1    2    0    0  0.33925263577E+02  0.90422620050E+02  0.16215414739E+01  0.15804149687E+03  0.12508921461E+03 0.  0.
          5    1    3    3  502    0  0.35650705600E-01 -0.30715827677E+02  0.80209364047E+01  0.32019855741E+02  0.41800000000E+01 0.  1.
         -5    1    3    3    0  502  0.33889612872E+02  0.12113844773E+03 -0.63993949308E+01  0.12602164113E+03  0.41800000000E+01 0.  1.
        -11    1    1    2    0    0 -0.18333193449E+02 -0.16181260311E+02  0.40888794102E+02  0.47642760734E+02  0.00000000000E+00 0.  1.
         11    1    1    2    0    0 -0.15592070128E+02 -0.74241359739E+02 -0.40740242481E+02  0.86108417151E+02  0.00000000000E+00 0. -1.
</event>
<event>
 7    1  0.2670433E-009  0.1399724E+03  0.7561462E-02  0.1213366E+00
         -1   -1    0    0    0  501 -0.00000000000E+00  0.00000000000E+00  0.28722172999E+03  0.28722172999E+03  0.00000000000E+00 0.  1.
          1   -1    0    0  501    0  0.00000000000E+00 -0.00000000000E+00 -0.11760675870E+03  0.11760675870E+03  0.00000000000E+00 0. -1.
         25    2    1    2    0    0  0.12515664830E+03 -0.21900200850E+02  0.17287393761E+03  0.24835079420E+03  0.12509561648E+03 0.  0.
          5    1    3    3  502    0  0.62313682383E+02  0.21253822992E+02  0.15710139268E+03  0.17039084478E+03  0.41800000000E+01 0.  1.
         -5    1    3    3    0  502  0.62842965917E+02 -0.43154023842E+02  0.15772544931E+02  0.77959949414E+02  0.41800000000E+01 0.  1.
        -11    1    1    2    0    0 -0.10993931109E+03 -0.12213800350E+01 -0.34026959367E+02  0.11509117193E+03  0.00000000000E+00 0. -1.
         11    1    1    2    0    0 -0.15217337212E+02  0.23121580885E+02  0.30767993044E+02  0.41386522569E+02  0.00000000000E+00 0.  1.
</event>
<event>
 7    1  0.2670433E-009  0.9085986E+02  0.7561462E-02  0.1300783E+00
          4   -1    0    0  501    0  0.00000000000E+00  0.00000000000E+00  0.43335414554E+02  0.43335414554E+02  0.00000000000E+00 0.  1.
         -4   -1    0    0    0  501 -0.00000000000E+00 -0.00000000000E+00 -0.27613699971E+03  0.27613699971E+03  0.00000000000E+00 0. -1.
         25    2    1    2    0    0  0.22051675856E+02  0.21074277048E+02 -0.14688540578E+03  0.19532952160E+03  0.12509155853E+03 0.  0.
          5    1    3    3  502    0 -0.49116350074E+01 -0.50561716499E+02 -0.71565677041E+02  0.87861993286E+02  0.41800000000E+01 0. -1.
         -5    1    3    3    0  502  0.26963310864E+02  0.71635993547E+02 -0.75319728742E+02  0.10746752831E+03  0.41800000000E+01 0. -1.
        -11    1    1    2    0    0 -0.43778737435E+01  0.14079996531E+02 -0.83424015666E+02  0.84717049469E+02  0.00000000000E+00 0. -1.
         11    1    1    2    0    0 -0.17673802113E+02 -0.35154273580E+02 -0.24921637115E+01  0.39425843200E+02  0.00000000000E+00 0.  1.
</event>
<event>
 7    1  0.2670433E-009  0.1785446E+03  0.7561462E-02  0.1169219E+00
         -2   -1    0    0    0  501 -0.00000000000E+00  0.00000000000E+00  0.76873573086E+02  0.76873573086E+02  0.00000000000E+00 0.  1.
          2   -1    0    0  501    0  0.00000000000E+00 -0.00000000000E+00 -0.44372040646E+03  0.44372040646E+03  0.00000000000E+00 0. -1.
         25    2    1    2    0    0 -0.55049728382E+02  0.13870655342E+03 -0.20981688774E+03  0.28625095477E+03  0.12508597911E+03 0.  0.
          5    1    3    3  502    0 -0.48877280671E+02  0.16238255888E+03 -0.17778975980E+03  0.24573106251E+03  0.41800000000E+01 0. -1.
         -5    1    3    3    0  502 -0.61724477106E+01 -0.23676005452E+02 -0.32027127939E+02  0.40519892262E+02  0.41800000000E+01 0. -1.
        -11    1    1    2    0    0  0.47663875600E+02 -0.36168948302E+02 -0.20104625931E+02  0.63120787720E+02  0.00000000000E+00 0.  1.
         11    1    1    2    0    0  0.73858527814E+01 -0.10253760512E+03 -0.13692531971E+03  0.17122223706E+03  0.00000000000E+00 0. -1.
</event>
<event>
 7    1  0.2670433E-009  0.7160979E+02  0.7561462E-02  0.1354703E+00
          2   -1    0    0  501    0  0.00000000000E+00  0.00000000000E+00  0.80621989463E+02  0.80621989463E+02  0.00000000000E+00 0. -1.
         -2   -1    0    0    0  501 -0.00000000000E+00 -0.00000000000E+00 -0.15607517518E+03  0.15607517518E+03  0.00000000000E+00 0.  1.
         25    2    1    2    0    0 -0.17305897277E+02 -0.26521571119E+02 -0.46870298254E+02  0.13728444037E+03  0.12508918775E+03 0.  0.
          5    1    3    3  502    0  0.18384819254E+02 -0.10287797792E+02 -0.81820959836E+02  0.84593038904E+02  0.41800000000E+01 0. -1.
         -5    1    3    3    0  502 -0.35690716531E+02 -0.16233773327E+02  0.34950661583E+02  0.52691401462E+02  0.41800000000E+01 0. -1.
        -11    1    1    2    0    0  0.38213579060E+02 -0.10643023753E+02 -0.38880498167E+02  0.55544979223E+02  0.00000000000E+00 0.  1.
         11    1    1    2    0    0 -0.20907681782E+02  0.37164594872E+02  0.10297610707E+02  0.43867745051E+02  0.00000000000E+00 0. -1.
</event>
<event>
 7    1  0.2670433E-009  0.8656827E+02  0.7561462E-02  0.1311382E+00
          1   -1    0    0  501    0  0.00000000000E+00  0.00000000000E+00  0.12817184422E+03  0.12817184422E+03  0.00000000000E+00 0. -1.
         -1   -1    0    0    0  501 -0.00000000000E+00 -0.00000000000E+00 -0.11426206659E+03  0.11426206659E+03  0.00000000000E+00 0.  1.
         25    2    1    2    0    0 -0.22479530818E+02  0.20674779469E+02  0.52495040184E+02  0.13905583994E+03  0.12509205236E+03 0.  0.
          5    1    3    3  502    0 -0.73149229938E+02  0.82314785235E+01  0.16563137817E+02  0.75567036554E+02  0.41800000000E+01 0.  1.
         -5    1    3    3    0  502  0.50669699120E+02  0.12443300946E+02  0.35931902366E+02  0.63488803382E+02  0.41800000000E+01 0.  1.
        -11    1    1    2    0    0 -0.65391610098E+01 -0.16498274116E+02 -0.62858697019E+02  0.65315920467E+02  0.00000000000E+00 0.  1.
         11    1    1    2    0    0  0.29018691828E+02 -0.41765053530E+01  0.24273434469E+02  0.38062150403E+02  0.00000000000E+00 0. -1.
</event>
<event>
 7    1  0.2670433E-009  0.1496454E+03  0.7561462E-02  0.1200909E+00
         -2   -1    0    0    0  501 -0.00000000000E+00  0.00000000000E+00  0.39327368234E+02  0.39327368234E+02  0.00000000000E+00 0. -1.
          2   -1    0    0  501    0  0.00000000000E+00 -0.00000000000E+00 -0.67565800718E+03  0.67565800718E+03  0.00000000000E+00 0.  1.
         25    2    1    2    0    0  0.10175962982E+03 -0.58092840585E+02 -0.41523036890E+03  0.44921419069E+03  0.12508928603E+03 0.  0.
          5    1    3    3  502    0 -0.23435307865E+02 -0.29817861887E+02 -0.14635287293E+03  0.15124468374E+03  0.41800000000E+01 0.  1.
         -5    1    3    3    0  502  0.12519493768E+03 -0.28274978698E+02 -0.26887749596E+03  0.29796950696E+03  0.41800000000E+01 0.  1.
        -11    1    1    2    0    0 -0.45455269538E+02 -0.77225987167E+01 -0.27513726136E+02  0.53691947121E+02  0.00000000000E+00 0. -1.
         11    1    1    2    0    0 -0.56304360278E+02  0.65815439302E+02 -0.19358654392E+03  0.21207923760E+03  0.00000000000E+00 0.  1.
</event>
<event>
 7    1  0.2670433E-009  0.1106774E+03  0.7561462E-02  0.1259321E+00
          2   -1    0    0  501    0  0.00000000000E+00  0.00000000000E+00  0.56977100900E+03  0.56977100900E+03  0.00000000000E+00 0. -1.
         -2   -1    0    0    0  501 -0.00000000000E+00 -0.00000000000E+00 -0.36822479672E+02  0.36822479672E+02  0.00000000000E+00 0.  1.
         25    2    1    2    0    0 -0.34366924842E+02  0.84886525044E+02  0.25828753930E+03  0.30124888075E+03  0.12510646482E+03 0.  0.
          5    1    3    3  502    0  0.35044351312E+01  0.73377523756E+02  0.24998730986E+03  0.26059100051E+03  0.41800000000E+01 0.  1.
         -5    1    3    3    0  502 -0.37871359973E+02  0.11509001287E+02  0.83002294426E+01  0.40657880240E+02  0.41800000000E+01 0.  1.
        -11    1    1    2    0    0 -0.24262904131E+01 -0.67033442272E+02  0.71223910027E+02  0.97837695331E+02  0.00000000000E+00 0. -1.
         11    1    1    2    0    0  0.36793215255E+02 -0.17853082771E+02  0.20343708000E+03  0.20750691259E+03  0.00000000000E+00 0.  1.
</event>
<event>
 7    1  0.2670433E-009  0.2348739E+03  0.7561462E-02  0.1123256E+00
          2   -1    0    0  501    0  0.00000000000E+00  0.00000000000E+00  0.50077423742E+03  0.50077423742E+03  0.00000000000E+00 0. -1.
         -2   -1    0    0    0  501 -0.00000000000E+00 -0.00000000000E+00 -0.13363402060E+03  0.13363402060E+03  0.00000000000E+00 0.  1.
         25    2    1    2    0    0  0.14261394424E+03  0.15498447299E+03  0.31552768457E+03  0.39945405787E+03  0.12508757197E+03 0.  0.
          5    1    3    3  502    0  0.81950834030E+02  0.41258816032E+01  0.99411627768E+02  0.12896940037E+03  0.41800000000E+01 0.  1.
         -5    1    3    3    0  502  0.60663110210E+02  0.15085859139E+03  0.21611605680E+03  0.27048465750E+03  0.41800000000E+01 0.  1.
        -11    1    1    2    0    0 -0.13103672459E+03 -0.90097054262E+02  0.15443763023E+02  0.15977049851E+03  0.00000000000E+00 0. -1.
         11    1    1    2    0    0 -0.11577219649E+02 -0.64887418728E+02  0.36168769229E+02  0.75183701635E+02  0.00000000000E+00 0.  1.
</event>
<event>
 7    1  0.2670433E-009  0.2045723E+03  0.7561462E-02  0.1145938E+00
         -1   -1    0    0    0  501 -0.00000000000E+00  0.00000000000E+00  0.14228902174E+03  0.14228902174E+03  0.00000000000E+00 0.  1.
          1   -1    0    0  501    0  0.00000000000E+00 -0.00000000000E+00 -0.33881534591E+03  0.33881534591E+03  0.00000000000E+00 0. -1.
         25    2    1    2    0    0 -0.74031075083E+02  0.17016727387E+03 -0.54090997473E+02  0.23024000680E+03  0.12508846290E+03 0.  0.
          5    1    3    3  502    0  0.35186863794E+02  0.47195843721E+02 -0.94633267943E+01  0.59771146903E+02  0.41800000000E+01 0. -1.
         -5    1    3    3    0  502 -0.10921793888E+03  0.12297143015E+03 -0.44627670679E+02  0.17046885990E+03  0.41800000000E+01 0. -1.
        -11    1    1    2    0    0  0.47538378819E+01 -0.13145770393E+02  0.13166225750E+02  0.19203118349E+02  0.00000000000E+00 0.  1.
         11    1    1    2    0    0  0.69277237201E+02 -0.15702150348E+03 -0.15560155245E+03  0.23166124249E+03  0.00000000000E+00 0. -1.
</event>
<event>
 7    1  0.2670433E-009  0.1099316E+03  0.7561462E-02  0.1260697E+00
         -1   -1    0    0    0  501 -0.00000000000E+00  0.00000000000E+00  0.89118216238E+02  0.89118216238E+02  0.00000000000E+00 0.  1.
          1   -1    0    0  501    0  0.00000000000E+00 -0.00000000000E+00 -0.19416963526E+03  0.19416963526E+03  0.00000000000E+00 0. -1.
         25    2    1    2    0    0 -0.18779460692E+02  0.27278495415E+02  0.14194241087E+02  0.13017676525E+03  0.12509088406E+03 0.  0.
          5    1    3    3  502    0  0.15579605695E+01  0.73781350760E+02 -0.85354415131E+01  0.74407265256E+02  0.41800000000E+01 0.  1.
         -5    1    3    3    0  502 -0.20337421261E+02 -0.46502855345E+02  0.22729682600E+02  0.55769499997E+02  0.41800000000E+01 0.  1.
        -11    1    1    2    0    0 -0.35695770615E+02 -0.45169257667E+01 -0.34661164596E+02  0.49959853776E+02  0.00000000000E+00 0.  1.
         11    1    1    2    0    0  0.54475231306E+02 -0.22761569648E+02 -0.84584495515E+02  0.10315123247E+03  0.00000000000E+00 0. -1.
</event>
<event>
 7    1  0.2670433E-009  0.1321893E+03  0.7561462E-02  0.1224243E+00
         -1   -1    0    0    0  501 -0.00000000000E+00  0.00000000000E+00  0.26314112428E+02  0.26314112428E+02  0.00000000000E+00 0.  1.
          1   -1    0    0  501    0  0.00000000000E+00 -0.00000000000E+00 -0.10513506183E+04  0.10513506183E+04  0.00000000000E+00 0. -1.
         25    2    1    2    0    0 -0.11291402161E+02  0.12341345221E+03 -0.62174326856E+03  0.64619816113E+03  0.12509594518E+03 0.  0.
          5    1    3    3  502    0  0.54380513621E+01  0.43287717054E+02 -0.42043887058E+02  0.60733513724E+02  0.41800000000E+01 0. -1.
         -5    1    3    3    0  502 -0.16729453523E+02  0.80125735152E+02 -0.57969938150E+03  0.58546464740E+03  0.41800000000E+01 0. -1.
        -11    1    1    2    0    0  0.36654950524E+02 -0.84910253469E+02 -0.16872177359E+03  0.19240679153E+03  0.00000000000E+00 0.  1.
         11    1    1    2    0    0 -0.25363548362E+02 -0.38503198737E+02 -0.23457146373E+03  0.23905977808E+03  0.00000000000E+00 0. -1.
</event>
<event>
 7    1  0.2670433E-009  0.1338597E+03  0.7561462E-02  0.1221838E+00
          4   -1    0    0  501    0  0.00000000000E+00  0.00000000000E+00  0.57669201878E+02  0.57669201878E+02  0.00000000000E+00 0. -1.
         -4   -1    0    0    0  501 -0.00000000000E+00 -0.00000000000E+00 -0.32862848270E+03  0.32862848270E+03  0.00000000000E+00 0.  1.
         25    2    1    2    0    0 -0.20188713378E+02  0.81667899137E+02 -0.14966485968E+03  0.21241959535E+03  0.12508111116E+03 0.  0.
          5    1    3    3  502    0 -0.23373746411E+02 -0.29119255399E+02 -0.22978725033E+02  0.44042675446E+02  0.41800000000E+01 0.  1.
         -5    1    3    3    0  502  0.31850330331E+01  0.11078715454E+03 -0.12668613465E+03  0.16837691991E+03  0.41800000000E+01 0.  1.
        -11    1    1    2    0    0  0.52951246890E+02 -0.59644882915E+02 -0.55564863917E+02  0.97204941784E+02  0.00000000000E+00 0.  1.
         11    1    1    2    0    0 -0.32762533512E+02 -0.22023016222E+02 -0.65729557222E+02  0.76673147440E+02  0.00000000000E+00 0. -1.
</event>
<event>
 7    1  0.2670433E-009  0.1406374E+03  0.7561462E-02  0.1212474E+00
         -1   -1    0    0    0  501 -0.00000000000E+00  0.00000000000E+00  0.37672403871E+02  0.37672403871E+02  0.00000000000E+00 0.  1.
          1   -1    0    0  501    0  0.00000000000E+00 -0.00000000000E+00 -0.56931371710E+03  0.56931371710E+03  0.00000000000E+00 0. -1.
         25    2    1    2    0    0  0.40865722068E+02 -0.86690722309E+02 -0.24422062266E+03  0.29064700635E+03  0.12508669470E+03 0.  0.
          5    1    3    3  502    0  0.16984491484E+02 -0.11246074867E+03 -0.13907957544E+03  0.17971225235E+03  0.41800000000E+01 0.  1.
         -5    1    3    3    0  502  0.23881230583E+02  0.25770026359E+02 -0.10514104723E+03  0.11093475400E+03  0.41800000000E+01 0.  1.
        -11    1    1    2    0    0 -0.69943356941E+02  0.54259044215E+02 -0.19689690704E+03  0.21588077511E+03  0.00000000000E+00 0. -1.
         11    1    1    2    0    0  0.29077634874E+02  0.32431678093E+02 -0.90523783523E+02  0.10045833951E+03  0.00000000000E+00 0.  1.
</event>
<event>
 7    1  0.2670433E-009  0.1802284E+03  0.7561462E-02  0.1167582E+00
         -1   -1    0    0    0  501 -0.00000000000E+00  0.00000000000E+00  0.66774596524E+02  0.66774596524E+02  0.00000000000E+00 0.  1.
          1   -1    0    0  501    0  0.00000000000E+00 -0.00000000000E+00 -0.56479868734E+03  0.56479868734E+03  0.00000000000E+00 0. -1.
         25    2    1    2    0    0  0.11093739888E+03  0.11540221068E+03 -0.27278742722E+03  0.34012463936E+03  0.12508802161E+03 0.  0.
          5    1    3    3  502    0  0.10285725408E+03  0.34165563849E+02 -0.93969805326E+02  0.14350852652E+03  0.41800000000E+01 0. -1.
         -5    1    3    3    0  502  0.80801447910E+01  0.81236646834E+02 -0.17881762189E+03  0.19661611284E+03  0.41800000000E+01 0. -1.
        -11    1    1    2    0    0 -0.82832124299E+01 -0.45039324044E+02 -0.16985378578E+02  0.48843171518E+02  0.00000000000E+00 0.  1.
         11    1    1    2    0    0 -0.10265418645E+03 -0.70362886640E+02 -0.20825128502E+03  0.24260547298E+03  0.00000000000E+00 0. -1.
</event>
<event>
 7    1  0.2670433E-009  0.1930462E+03  0.7561462E-02  0.1155742E+00
         -2   -1    0    0    0  501 -0.00000000000E+00  0.00000000000E+00  0.16947178044E+03  0.16947178044E+03  0.00000000000E+00 0. -1.
          2   -1    0    0  501    0  0.00000000000E+00 -0.00000000000E+00 -0.23038771965E+03  0.23038771965E+03  0.00000000000E+00 0.  1.
         25    2    1    2    0    0  0.74384443122E+02 -0.14538412394E+03 -0.55226374066E+02  0.21299335960E+03  0.12508648996E+03 0.  0.
          5    1    3    3  502    0  0.10556186075E+03 -0.82568280557E+02 -0.24442783779E+02  0.13629288124E+03  0.41800000000E+01 0.  1.
         -5    1    3    3    0  502 -0.31177417625E+02 -0.62815843384E+02 -0.30783590287E+02  0.76700478361E+02  0.41800000000E+01 0.  1.
        -11    1    1    2    0    0 -0.55311085595E+02  0.26461690518E+02  0.18445556883E+02  0.64029491826E+02  0.00000000000E+00 0.  1.
         11    1    1    2    0    0 -0.19073357527E+02  0.11892243342E+03 -0.24135122032E+02  0.12283664866E+03  0.00000000000E+00 0. -1.
</event>
<event>
 7    1  0.2670433E-009  0.8679960E+02  0.7561462E-02  0.1310792E+00
         -1   -1    0    0    0  501 -0.00000000000E+00  0.00000000000E+00  0.68840692040E+02  0.68840692040E+02  0.00000000000E+00 0.  1.
          1   -1    0    0  501    0  0.00000000000E+00 -0.00000000000E+00 -0.22063609257E+03  0.22063609257E+03  0.00000000000E+00 0. -1.
         25    2    1    2    0    0  0.16523816329E+02 -0.80347905103E+01 -0.18720278865E+02  0.12780928034E+03  0.12508864431E+03 0.  0.
          5    1    3    3  502    0 -0.27914214155E+02 -0.27930586498E+02  0.36594968224E+02  0.53999862161E+02  0.41800000000E+01 0. -1.
         -5    1    3    3    0  502  0.44438030484E+02  0.19895795988E+02 -0.55315247090E+02  0.73809418179E+02  0.41800000000E+01 0. -1.
        -11    1    1    2    0    0  0.33683982674E+02  0.87793416017E+01 -0.26145144943E+02  0.43534539527E+02  0.00000000000E+00 0.  1.
         11    1    1    2    0    0 -0.50207799004E+02 -0.74455109134E+00 -0.10692997672E+03  0.11813296474E+03  0.00000000000E+00 0. -1.
</event>
<event>
 7    1  0.2670433E-009  0.1113531E+03  0.7561462E-02  0.1258084E+00
         -2   -1    0    0    0  501 -0.00000000000E+00  0.00000000000E+00  0.32937957024E+02  0.32937957024E+02  0.00000000000E+00 0.  1.
          2   -1    0    0  501    0  0.00000000000E+00 -0.00000000000E+00 -0.50566196910E+03  0.50566196910E+03  0.00000000000E+00 0. -1.
         25    2    1    2    0    0 -0.30109498357E+02  0.10689945049E+02 -0.13123476758E+03  0.18409429430E+03  0.12508912086E+03 0.  0.
          5    1    3    3  502    0 -0.78541421205E+02  0.10558372536E+02 -0.92934358933E+02  0.12220679828E+03  0.41800000000E+01 0.  1.
         -5    1    3    3    0  502  0.48431922848E+02  0.13157251246E+00 -0.38300408642E+02  0.61887496025E+02  0.41800000000E+01 0.  1.
        -11    1    1    2    0    0 -0.27395689779E+02 -0.23184166918E+02 -0.11314630989E+03  0.11870179804E+03  0.00000000000E+00 0.  1.
         11    1    1    2    0    0  0.57505188136E+02  0.12494221869E+02 -0.22834293461E+03  0.23580383379E+03  0.00000000000E+00 0. -1.
</event>
<event>
 7    1  0.2670433E-009  0.2247801E+03  0.7561462E-02  0.1130369E+00
         -2   -1    0    0    0  501 -0.00000000000E+00  0.00000000000E+00  0.13822016340E+03  0.13822016340E+03  0.00000000000E+00 0. -1.
          2   -1    0    0  501    0  0.00000000000E+00 -0.00000000000E+00 -0.43731241715E+03  0.43731241715E+03  0.00000000000E+00 0.  1.
         25    2    1    2    0    0 -0.14636784430E+03  0.16108843605E+03 -0.19682147290E+03  0.31899370051E+03  0.12508100852E+03 0.  0.
          5    1    3    3  502    0 -0.39519347670E+02  0.37269698978E+02 -0.13239089258E+03  0.14316294960E+03  0.41800000000E+01 0. -1.
         -5    1    3    3    0  502 -0.10684849663E+03  0.12381873707E+03 -0.64430580328E+02  0.17583075090E+03  0.41800000000E+01 0. -1.
        -11    1    1    2    0    0  0.39605986683E+02 -0.17065751407E+01 -0.36086826508E+02  0.53607887734E+02  0.00000000000E+00 0.  1.
         11    1    1    2    0    0  0.10676185761E+03 -0.15938186091E+03 -0.66183954333E+02  0.20293099231E+03  0.00000000000E+00 0. -1.
</event>
<event>
 7    1  0.2670433E-009  0.1421329E+03  0.7561462E-02  0.1210487E+00
         -1   -1    0    0    0  501 -0.00000000000E+00  0.00000000000E+00  0.58165422324E+02  0.58165422324E+02  0.00000000000E+00 0.  1.
          1   -1    0    0  501    0  0.00000000000E+00 -0.00000000000E+00 -0.55511401864E+03  0.55511401864E+03  0.00000000000E+00 0. -1.
         25    2    1    2    0    0 -0.10121629759E+03 -0.59089756050E+02 -0.11880016575E+03  0.20856398891E+03  0.12509644248E+03 0.  0.
          5    1    3    3  502    0 -0.16491099145E+02  0.19913969783E+02 -0.83314223347E+02  0.87334155720E+02  0.41800000000E+01 0.  1.
         -5    1    3    3    0  502 -0.84725198446E+02 -0.79003725833E+02 -0.35485942402E+02  0.12122983319E+03  0.41800000000E+01 0.  1.
        -11    1    1    2    0    0  0.45739962190E+02 -0.16295972818E+02 -0.16325702339E+03  0.17032486183E+03  0.00000000000E+00 0.  1.
         11    1    1    2    0    0  0.55476335400E+02  0.75385728868E+02 -0.21489140718E+03  0.23439059022E+03  0.00000000000E+00 0. -1.
</event>
<event>
 7    1  0.2670433E-009  0.8252469E+02  0.7561462E-02  0.1322036E+00
         -1   -1    0    0    0  501 -0.00000000000E+00  0.00000000000E+00  0.58648604109E+02  0.58648604109E+02  0.00000000000E+00 0.  1.
          1   -1    0    0  501    0  0.00000000000E+00 -0.00000000000E+00 -0.26224483237E+03  0.26224483237E+03  0.00000000000E+00 0. -1.
         25    2    1    2    0    0 -0.12912332542E+02  0.24353549317E+02 -0.52657860138E+02  0.13849287495E+03  0.12509037726E+03 0.  0.
          5    1    3    3  502    0 -0.39385471508E+02  0.47996883012E+02  0.13153371594E+02  0.63603456895E+02  0.41800000000E+01 0.  1.
         -5    1    3    3    0  502  0.26473138966E+02 -0.23643333695E+02 -0.65811231732E+02  0.74889418057E+02  0.41800000000E+01 0.  1.
        -11    1    1    2    0    0  0.26934481377E+02  0.10965216113E+02 -0.25146511435E+01  0.29189479643E+02  0.00000000000E+00 0.  1.
         11    1    1    2    0    0 -0.14022148835E+02 -0.35318765430E+02 -0.14842371698E+03  0.15321108189E+03  0.00000000000E+00 0. -1.
</event>
<event>
 7    1  0.2670433E-009  0.1023408E+03  0.7561462E-02  0.1275449E+00
          2   -1    0    0  501    0  0.00000000000E+00  0.00000000000E+00  0.12240633800E+03  0.12240633800E+03  0.00000000000E+00 0. -1.
         -2   -1    0    0    0  501 -0.00000000000E+00 -0.00000000000E+00 -0.14837648948E+03  0.14837648948E+03  0.00000000000E+00 0.  1.
         25    2    1    2    0    0 -0.54513959971E+02  0.90807291231E+01  0.43543700188E+02  0.14351596661E+03  0.12508615980E+03 0.  0.
          5    1    3    3  502    0 -0.52681260347E+02  0.42014837408E+02  0.72757833369E+02  0.99255914034E+02  0.41800000000E+01 0.  1.
         -5    1    3    3    0  502 -0.18326996238E+01 -0.32934108285E+02 -0.29214133181E+02  0.44260052575E+02  0.41800000000E+01 0.  1.
        -11    1    1    2    0    0  0.51043137666E+02  0.33592533895E+02 -0.54553272704E+02  0.81914100124E+02  0.00000000000E+00 0.  1.
         11    1    1    2    0    0  0.34708223047E+01 -0.42673263018E+02 -0.14960578961E+02  0.45352760742E+02  0.00000000000E+00 0. -1.
</event>
<event>
 7    1  0.2670433E-009  0.1796760E+03  0.7561462E-02  0.1168117E+00
          2   -1    0    0  501    0  0.00000000000E+00  0.00000000000E+00  0.38058833448E+03  0.38058833448E+03  0.00000000000E+00 0. -1.
         -2   -1    0    0    0  501 -0.00000000000E+00 -0.00000000000E+00 -0.96282728116E+02  0.96282728116E+02  0.00000000000E+00 0.  1.
         25    2    1    2    0    0  0.14342254423E+03 -0.43331301555E+02  0.20459160721E+03  0.28275683451E+03  0.12508426692E+03 0.  0.
          5    1    3    3  502    0  0.12836843403E+03 -0.80784071158E+02  0.13985642233E+03  0.20635360980E+03  0.41800000000E+01 0.  1.
         -5    1    3    3    0  502  0.15054110197E+02  0.37452769603E+02  0.64735184879E+02  0.76403224710E+02  0.41800000000E+01 0.  1.
        -11    1    1    2    0    0 -0.47595243817E+02 -0.20582448920E+02 -0.35630514858E+01  0.51977300559E+02  0.00000000000E+00 0.  1.
         11    1    1    2    0    0 -0.95827300413E+02  0.63913750475E+02  0.83277050640E+02  0.14213692753E+03  0.00000000000E+00 0. -1.
</event>
<event>
 7    1  0.2670433E-009  0.8201981E+02  0.7561462E-02  0.1323415E+00
         -1   -1    0    0    0  501 -0.00000000000E+00  0.00000000000E+00  0.95548128968E+02  0.95548128968E+02  0.00000000000E+00 0.  1.
          1   -1    0    0  501    0  0.00000000000E+00 -0.00000000000E+00 -0.16510795787E+03  0.16510795787E+03  0.00000000000E+00 0. -1.
         25    2    1    2    0    0 -0.31815651114E+01 -0.59833746633E+02 -0.57972303472E+02  0.15032753607E+03  0.12508949012E+03 0.  0.
          5    1    3    3  502    0  0.27162775443E+02 -0.40874052485E+02  0.28321582519E+02  0.56816273837E+02  0.41800000000E+01 0. -1.
         -5    1    3    3    0  502 -0.30344340555E+02 -0.18959694148E+02 -0.86293885991E+02  0.93511262238E+02  0.41800000000E+01 0. -1.
        -11    1    1    2    0    0  0.45574778823E+01 -0.89079193064E+01  0.28868804531E+02  0.30553715095E+02  0.00000000000E+00 0.  1.
         11    1    1    2    0    0 -0.13759127709E+01  0.68741665940E+02 -0.40456329962E+02  0.79774835670E+02  0.00000000000E+00 0. -1.
</event>
<event>
 7    1  0.2670433E-009  0.8686600E+02  0.7561462E-02  0.1310624E+00
         -2   -1    0    0    0  501 -0.00000000000E+00  0.00000000000E+00  0.20137145831E+03  0.20137145831E+03  0.00000000000E+00 0.  1.
          2   -1    0    0  501    0  0.00000000000E+00 -0.00000000000E+00 -0.79597300816E+02  0.79597300816E+02  0.00000000000E+00 0. -1.
         25    2    1    2    0    0 -0.42777102760E+02 -0.47417135186E+02  0.53776881656E+02  0.15038826288E+03  0.12508561620E+03 0.  0.
          5    1    3    3  502    0 -0.75517374459E+01 -0.38297529922E+02 -0.36101281357E+02  0.53333895903E+02  0.41800000000E+01 0. -1.
         -5    1    3    3    0  502 -0.35225365314E+02 -0.91196052645E+01  0.89878163014E+02  0.97054366972E+02  0.41800000000E+01 0. -1.
        -11    1    1    2    0    0  0.42737257784E+02  0.66345759555E+02  0.76426244766E+02  0.10985992856E+03  0.00000000000E+00 0.  1.
         11    1    1    2    0    0  0.39844975760E-01 -0.18928624368E+02 -0.84289689314E+01  0.20720567689E+02  0.00000000000E+00 0. -1.
</event>
<event>
 7    1  0.2670433E-009  0.1596304E+03  0.7561462E-02  0.1189115E+00
         -2   -1    0    0    0  501 -0.00000000000E+00  0.00000000000E+00  0.12019096292E+03  0.12019096292E+03  0.00000000000E+00 0.  1.
          2   -1    0    0  501    0  0.00000000000E+00 -0.00000000000E+00 -0.46396997806E+03  0.46396997806E+03  0.00000000000E+00 0. -1.
         25    2    1    2    0    0 -0.10630515210E+03 -0.72825553840E+02 -0.38297611841E+03  0.42299248596E+03  0.12509032436E+03 0.  0.
          5    1    3    3  502    0 -0.12335325793E+03 -0.29670585223E+02 -0.22555387643E+03  0.25882116112E+03  0.41800000000E+01 0. -1.
         -5    1    3    3    0  502  0.17048105834E+02 -0.43154968616E+02 -0.15742224198E+03  0.16417132483E+03  0.41800000000E+01 0. -1.
        -11    1    1    2    0    0  0.65972836459E+01 -0.12737528803E+02  0.25253282685E+02  0.29043021156E+02  0.00000000000E+00 0. -1.
         11    1    1    2    0    0  0.99707868454E+02  0.85563082642E+02  0.13943820587E+02  0.13212543387E+03  0.00000000000E+00 0.  1.
</event>
<event>
 7    1  0.2670433E-009  0.1723982E+03  0.7561462E-02  0.1175370E+00
          2   -1    0    0  501    0  0.00000000000E+00  0.00000000000E+00  0.15665545571E+03  0.15665545571E+03  0.00000000000E+00 0. -1.
         -2   -1    0    0    0  501 -0.00000000000E+00 -0.00000000000E+00 -0.23553879356E+03  0.23553879356E+03  0.00000000000E+00 0.  1.
         25    2    1    2    0    0 -0.66838061375E+02 -0.14353049971E+03 -0.36692393892E+02  0.20509007371E+03  0.12508907135E+03 0.  0.
          5    1    3    3  502    0 -0.68783878688E+02 -0.15655575271E+03 -0.56871310579E+01  0.17114538128E+03  0.41800000000E+01 0.  1.
         -5    1    3    3    0  502  0.19458173128E+01  0.13025253005E+02 -0.31005262834E+02  0.33944692431E+02  0.41800000000E+01 0.  1.
        -11    1    1    2    0    0  0.53748350492E+02  0.90063434489E+02 -0.69335894745E+02  0.12572896927E+03  0.00000000000E+00 0.  1.
         11    1    1    2    0    0  0.13089710883E+02  0.53467065218E+02  0.27144950786E+02  0.61375206291E+02  0.00000000000E+00 0. -1.
</event>
<event>
 7    1  0.2670433E-009  0.1070417E+03  0.7561462E-02  0.1266148E+00
          1   -1    0    0  501    0  0.00000000000E+00  0.00000000000E+00  0.25980325267E+03  0.25980325267E+03  0.00000000000E+00 0. -1.
         -1   -1    0    0    0  501 -0.00000000000E+00 -0.00000000000E+00 -0.60593457084E+02  0.60593457084E+02  0.00000000000E+00 0.  1.
         25    2    1    2    0    0 -0.80341954396E+01 -0.71346333125E+01  0.19203354164E+03  0.22943473718E+03  0.12509183115E+03 0.  0.
          5    1    3    3  502    0 -0.22172059877E+02  0.56165724452E+02  0.95097503386E+02  0.11272620100E+03  0.41800000000E+01 0. -1.
         -5    1    3    3    0  502  0.14137864438E+02 -0.63300357764E+02  0.96936038256E+02  0.11670853618E+03  0.41800000000E+01 0. -1.
        -11    1    1    2    0    0 -0.34886272848E+02  0.24108220564E+02  0.13206772890E+02  0.44414830655E+02  0.00000000000E+00 0. -1.
         11    1    1    2    0    0  0.42920468287E+02 -0.16973587251E+02 -0.60305189437E+01  0.46547141920E+02  0.00000000000E+00 0.  1.
</event>
<event>
 7    1  0.2670433E-009  0.1929139E+03  0.7561462E-02  0.1155859E+00
          1   -1    0    0  501    0  0.00000000000E+00  0.00000000000E+00  0.41114064346E+03  0.41114064346E+03  0.00000000000E+00 0. -1.
         -1   -1    0    0    0  501 -0.00000000000E+00 -0.00000000000E+00 -0.10018098437E+03  0.10018098437E+03  0.00000000000E+00 0.  1.
         25    2    1    2    0    0 -0.65130002221E+02  0.15675047089E+03  0.18300672139E+03  0.27919661814E+03  0.12508662676E+03 0.  0.
          5    1    3    3  502    0 -0.72343481201E+02  0.16723823527E+03  0.12834591770E+03  0.22291781804E+03  0.41800000000E+01 0.  1.
         -5    1    3    3    0  502  0.72134789805E+01 -0.10487764380E+02  0.54660803694E+02  0.56278800104E+02  0.41800000000E+01 0.  1.
        -11    1    1    2    0    0  0.91204717678E+01  0.10429294991E+02  0.23255245151E+02  0.27069533175E+02  0.00000000000E+00 0. -1.
         11    1    1    2    0    0  0.56009530453E+02 -0.16717976588E+03  0.10469769255E+03  0.20505547651E+03  0.00000000000E+00 0.  1.
</event>
<event>
 7    1  0.3522628E-009  0.2157452E+03  0.7561462E-02  0.1137096E+00
          2   -1    0    0  501    0  0.00000000000E+00  0.00000000000E+00  0.10576250410E+04  0.10576250410E+04  0.00000000000E+00 0. -1.
         -2   -1    0    0    0  501 -0.00000000000E+00 -0.00000000000E+00 -0.62039665360E+02  0.62039665360E+02  0.00000000000E+00 0.  1.
         25    2    1    2    0    0 -0.17080844760E+03  0.82055053084E+02  0.22053003126E+03  0.31652741568E+03  0.12509017822E+03 0.  0.
          5    1    3    3  502    0 -0.20942875763E+02  0.71837173965E+02  0.54993927547E+02  0.92956915157E+02  0.41800000000E+01 0. -1.
         -5    1    3    3    0  502 -0.14986557183E+03  0.10217879119E+02  0.16553610371E+03  0.22357050053E+03  0.41800000000E+01 0. -1.
        -11    1    1    2    0    0  0.52703960841E+02 -0.69904767059E+02  0.41064433152E+03  0.41987277949E+03  0.00000000000E+00 0. -1.
         11    1    1    2    0    0  0.11810448675E+03 -0.12150286024E+02  0.36441101290E+03  0.38326451123E+03  0.00000000000E+00 0.  1.
</event>
<event>
 7    1  0.2670433E-009  0.3808308E+03  0.7561462E-02  0.1050627E+00
          2   -1    0    0  501    0  0.00000000000E+00  0.00000000000E+00  0.12219388791E+04  0.12219388791E+04  0.00000000000E+00 0. -1.
         -2   -1    0    0    0  501 -0.00000000000E+00 -0.00000000000E+00 -0.13350414757E+03  0.13350414757E+03  0.00000000000E+00 0.  1.
         25    2    1    2    0    0  0.35269599550E+03 -0.12681761600E+03  0.72325339051E+03  0.82414722050E+03  0.12508397661E+03 0.  0.
          5    1    3    3  502    0  0.10015182577E+03 -0.75518125081E+02  0.33877244827E+03  0.36127222358E+03  0.41800000000E+01 0.  1.
         -5    1    3    3    0  502  0.25254416972E+03 -0.51299490919E+02  0.38448094224E+03  0.46287499692E+03  0.41800000000E+01 0.  1.
        -11    1    1    2    0    0 -0.18797667466E+03  0.39845713859E+02  0.13329293746E+03  0.23385875717E+03  0.00000000000E+00 0. -1.
         11    1    1    2    0    0 -0.16471932084E+03  0.86971902141E+02  0.23188840360E+03  0.29743704904E+03  0.00000000000E+00 0.  1.
</event>
<event>
 7    1  0.2670433E-009  0.1283783E+03  0.7561462E-02  0.1229882E+00
          1   -1    0    0  501    0  0.00000000000E+00  0.00000000000E+00  0.15679459583E+04  0.15679459583E+04  0.00000000000E+00 0. -1.
         -1   -1    0    0    0  501 -0.00000000000E+00 -0.00000000000E+00 -0.14111554505E+02  0.14111554505E+02  0.00000000000E+00 0.  1.
         25    2    1    2    0    0  0.97755133621E+02 -0.15562303060E+02  0.89596685240E+03  0.91005574429E+03  0.12508639291E+03 0.  0.
          5    1    3    3  502    0  0.60096352640E+02  0.24994843287E+02  0.76550424662E+03  0.76827764368E+03  0.41800000000E+01 0. -1.
         -5    1    3    3    0  502  0.37658780981E+02 -0.40557146347E+02  0.13046260578E+03  0.14177810061E+03  0.41800000000E+01 0. -1.
        -11    1    1    2    0    0 -0.92081659526E+02 -0.24728770058E+02  0.42065509591E+03  0.43132499789E+03  0.00000000000E+00 0. -1.
         11    1    1    2    0    0 -0.56734740952E+01  0.40291073118E+02  0.23721245552E+03  0.24067677066E+03  0.00000000000E+00 0.  1.
</event>
<event>
 7    1  0.2670433E-009  0.2127058E+03  0.7561462E-02  0.1139441E+00
         -2   -1    0    0    0  501 -0.00000000000E+00  0.00000000000E+00  0.38528629637E+02  0.38528629637E+02  0.00000000000E+00 0.  1.
          2   -1    0    0  501    0  0.00000000000E+00 -0.00000000000E+00 -0.18264545022E+04  0.18264545022E+04  0.00000000000E+00 0. -1.
         25    2    1    2    0    0  0.19248836220E+03  0.16653222258E+02 -0.14277835481E+04  0.14462165433E+04  0.12508928930E+03 0.  0.
          5    1    3    3  502    0  0.81067427884E+02 -0.40367406580E+02 -0.36545903194E+03  0.37653583070E+03  0.41800000000E+01 0. -1.
         -5    1    3    3    0  502  0.11142093431E+03  0.57020628838E+02 -0.10623245162E+04  0.10696807126E+04  0.41800000000E+01 0. -1.
        -11    1    1    2    0    0 -0.81181588320E+02  0.33009737678E+02 -0.19240156003E+03  0.21142008742E+03  0.00000000000E+00 0. -1.
         11    1    1    2    0    0 -0.11130677388E+03 -0.49662959936E+02 -0.16774076444E+03  0.20734650119E+03  0.00000000000E+00 0.  1.
</event>
<event>
 7    1  0.2670433E-009  0.1138646E+03  0.7561462E-02  0.1253576E+00
         -3   -1    0    0    0  501 -0.00000000000E+00  0.00000000000E+00  0.27815022350E+03  0.27815022350E+03  0.00000000000E+00 0.  1.
          3   -1    0    0  501    0  0.00000000000E+00 -0.00000000000E+00 -0.89672272713E+02  0.89672272713E+02  0.00000000000E+00 0. -1.
         25    2    1    2    0    0  0.10443221764E+03  0.59897405105E+01  0.44402033167E+02  0.16900180552E+03  0.12509238445E+03 0.  0.
          5    1    3    3  502    0  0.62008956494E+02 -0.13146756060E+02 -0.38180666901E+02  0.74116014500E+02  0.41800000000E+01 0. -1.
         -5    1    3    3    0  502  0.42423261143E+02  0.19136496570E+02  0.82582700068E+02  0.94885791020E+02  0.41800000000E+01 0. -1.
        -11    1    1    2    0    0 -0.30991112775E+02 -0.26986023057E+02  0.10555830914E+03  0.11327511262E+03  0.00000000000E+00 0.  1.
         11    1    1    2    0    0 -0.73441104861E+02  0.20996282547E+02  0.38517608479E+02  0.85545578068E+02  0.00000000000E+00 0. -1.
</event>
<event>
 7    1  0.2670433E-009  0.9711243E+02  0.7561462E-02  0.1286488E+00
          2   -1    0    0  501    0  0.00000000000E+00  0.00000000000E+00  0.18114273676E+03  0.18114273676E+03  0.00000000000E+00 0. -1.
         -2   -1    0    0    0  501 -0.00000000000E+00 -0.00000000000E+00 -0.77877676966E+02  0.77877676966E+02  0.00000000000E+00 0.  1.
         25    2    1    2    0    0 -0.25289698033E+02  0.40058357827E+02  0.45636409243E+02  0.14133107435E+03  0.12509016696E+03 0.  0.
          5    1    3    3  502    0  0.28705801886E+02  0.13053051806E+02  0.69378767256E+02  0.76323593792E+02  0.41800000000E+01 0.  1.
         -5    1    3    3    0  502 -0.53995499919E+02  0.27005306021E+02 -0.23742358014E+02  0.65007480560E+02  0.41800000000E+01 0.  1.
        -11    1    1    2    0    0  0.32601740084E+02  0.22051624405E+02  0.15589541900E+02  0.42334163651E+02  0.00000000000E+00 0. -1.
         11    1    1    2    0    0 -0.73120420511E+01 -0.62109982232E+02  0.42039108650E+02  0.75355175720E+02  0.00000000000E+00 0.  1.
</event>
<event>
 7    1  0.2670433E-009  0.1057600E+03  0.7561462E-02  0.1268629E+00
         -2   -1    0    0    0  501 -0.00000000000E+00  0.00000000000E+00  0.44563491886E+02  0.44563491886E+02  0.00000000000E+00 0.  1.
          2   -1    0    0  501    0  0.00000000000E+00 -0.00000000000E+00 -0.34553840746E+03  0.34553840746E+03  0.00000000000E+00 0. -1.
         25    2    1    2    0    0  0.16430351278E+02 -0.34914583460E+02 -0.24362966963E+03  0.27657157674E+03  0.12508971404E+03 0.  0.
          5    1    3    3  502    0  0.21165990512E+02 -0.78212064057E+02 -0.11527926295E+03  0.14096775157E+03  0.41800000000E+01 0. -1.
         -5    1    3    3    0  502 -0.47356392341E+01  0.43297480597E+02 -0.12835040668E+03  0.13560382517E+03  0.41800000000E+01 0. -1.
        -11    1    1    2    0    0  0.25009948211E+02 -0.86890933535E+01 -0.44864880442E+02  0.52094676790E+02  0.00000000000E+00 0. -1.
         11    1    1    2    0    0 -0.41440299488E+02  0.43603676814E+02 -0.12480365504E+02  0.61435645813E+02  0.00000000000E+00 0.  1.
</event>
<event>
 7    1  0.2670433E-009  0.7880657E+02  0.7561462E-02  0.1332473E+00
         -1   -1    0    0    0  501 -0.00000000000E+00  0.00000000000E+00  0.94636505035E+02  0.94636505035E+02  0.00000000000E+00 0.  1.
          1   -1    0    0  501    0  0.00000000000E+00 -0.00000000000E+00 -0.15124409116E+03  0.15124409116E+03  0.00000000000E+00 0. -1.
         25    2    1    2    0    0 -0.21305801948E+02  0.38819965818E+02 -0.48934677727E+02  0.14143462204E+03  0.12509285625E+03 0.  0.
          5    1    3    3  502    0  0.39376247908E+02 -0.24063634439E+01  0.16573298289E+02  0.42993326232E+02  0.41800000000E+01 0. -1.
         -5    1    3    3    0  502 -0.60682049855E+02  0.41226329262E+02 -0.65507976017E+02  0.98441295811E+02  0.41800000000E+01 0. -1.
        -11    1    1    2    0    0  0.13446950178E+02 -0.28284972260E+02  0.42379800615E+02  0.52696372029E+02  0.00000000000E+00 0.  1.
         11    1    1    2    0    0  0.78588517698E+01 -0.10534993559E+02 -0.50052709016E+02  0.51749602126E+02  0.00000000000E+00 0. -1.
</event>
<event>
 7    1  0.2670433E-009  0.1034901E+03  0.7561462E-02  0.1273123E+00
          3   -1    0    0  501    0  0.00000000000E+00  0.00000000000E+00  0.39271015036E+02  0.39271015036E+02  0.00000000000E+00 0. -1.
         -3   -1    0    0    0  501 -0.00000000000E+00 -0.00000000000E+00 -0.36560344887E+03  0.36560344887E+03  0.00000000000E+00 0.  1.
         25    2    1    2    0    0 -0.29062824690E+02  0.35293416278E+02 -0.21721641977E+03  0.25479494610E+03  0.12508884254E+03 0.  0.
          5    1    3    3  502    0 -0.48944340785E+02 -0.33759730627E+02 -0.79049638875E+02  0.99002958104E+02  0.41800000000E+01 0. -1.
         -5    1    3    3    0  502  0.19881516095E+02  0.69053146906E+02 -0.13816678090E+03  0.15579198800E+03  0.41800000000E+01 0. -1.
        -11    1    1    2    0    0  0.21061100626E+02 -0.52419609323E+02 -0.11674490461E+03  0.12969486556E+03  0.00000000000E+00 0.  1.
         11    1    1    2    0    0  0.80017240638E+01  0.17126193045E+02  0.76288905478E+01  0.20384652246E+02  0.00000000000E+00 0. -1.
</event>
<event>
 7    1  0.2670433E-009  0.1289747E+03  0.7561462E-02  0.1228985E+00
         -2   -1    0    0    0  501 -0.00000000000E+00  0.00000000000E+00  0.20287878079E+03  0.20287878079E+03  0.00000000000E+00 0.  1.
          2   -1    0    0  501    0  0.00000000000E+00 -0.00000000000E+00 -0.11416708789E+03  0.11416708789E+03  0.00000000000E+00 0. -1.
         25    2    1    2    0    0 -0.85368699553E+02  0.29849076333E+02  0.99448106116E+02  0.18362009520E+03  0.12509049256E+03 0.  0.
          5    1    3    3  502    0 -0.41617541140E+02  0.62621388913E+02  0.63423066421E+01  0.75572186243E+02  0.41800000000E+01 0.  1.
         -5    1    3    3    0  502 -0.43751158413E+02 -0.32772312580E+02  0.93105799474E+02  0.10804790896E+03  0.41800000000E+01 0.  1.
        -11    1    1    2    0    0 -0.63040234362E+01 -0.35421403231E+02  0.13520338616E+02  0.38434568745E+02  0.00000000000E+00 0.  1.
         11    1    1    2    0    0  0.91672722989E+02  0.55723268982E+01 -0.24256751833E+02  0.94991204734E+02  0.00000000000E+00 0. -1.
</event>
<event>
 7    1  0.2670433E-009  0.9027490E+02  0.7561462E-02  0.1302187E+00
         -2   -1    0    0    0  501 -0.00000000000E+00  0.00000000000E+00  0.45871371423E+02  0.45871371423E+02  0.00000000000E+00 0.  1.
          2   -1    0    0  501    0  0.00000000000E+00 -0.00000000000E+00 -0.31605674503E+03  0.31605674503E+03  0.00000000000E+00 0. -1.
         25    2    1    2    0    0 -0.24183820271E+02  0.17585111834E+02 -0.21465451335E+03  0.25023350928E+03  0.12508459435E+03 0.  0.
          5    1    3    3  502    0  0.30558749958E+02  0.49443832902E+02 -0.62941196775E+02  0.85776433025E+02  0.41800000000E+01 0.  1.
         -5    1    3    3    0  502 -0.54742570229E+02 -0.31858721068E+02 -0.15171331658E+03  0.16445707626E+03  0.41800000000E+01 0.  1.
        -11    1    1    2    0    0 -0.72970465332E+01  0.12999238618E+02 -0.65089280478E+02  0.66774557474E+02  0.00000000000E+00 0. -1.
         11    1    1    2    0    0  0.31480866804E+02 -0.30584350453E+02  0.95584202267E+01  0.44920049694E+02  0.00000000000E+00 0.  1.
</event>
<event>
 7    1  0.2670433E-009  0.1028311E+03  0.7561462E-02  0.1274453E+00
          4   -1    0    0  501    0  0.00000000000E+00  0.00000000000E+00  0.46854731133E+02  0.46854731133E+02  0.00000000000E+00 0. -1.
         -4   -1    0    0    0  501 -0.00000000000E+00 -0.00000000000E+00 -0.27557877298E+03  0.27557877298E+03  0.00000000000E+00 0.  1.
         25    2    1    2    0    0  0.74749390420E+01  0.23053718700E+02 -0.95292914513E+02  0.15911107368E+03  0.12509294765E+03 0.  0.
          5    1    3    3  502    0  0.56275793630E+02  0.30736068459E+02 -0.17048237800E+02  0.66481468584E+02  0.41800000000E+01 0.  1.
         -5    1    3    3    0  502 -0.48800854588E+02 -0.76823497590E+01 -0.78244676713E+02  0.92629605096E+02  0.41800000000E+01 0.  1.
        -11    1    1    2    0    0  0.40690495493E+02 -0.93988852302E+01 -0.42897779114E+02  0.59868814252E+02  0.00000000000E+00 0.  1.
         11    1    1    2    0    0 -0.48165434535E+02 -0.13654833470E+02 -0.90533348215E+02  0.10345361618E+03  0.00000000000E+00 0. -1.
</event>
<event>
 7    1  0.2670433E-009  0.9227279E+02  0.7561462E-02  0.1297439E+00
          2   -1    0    0  501    0  0.00000000000E+00  0.00000000000E+00  0.11939241729E+03  0.11939241729E+03  0.00000000000E+00 0. -1.
         -2   -1    0    0    0  501 -0.00000000000E+00 -0.00000000000E+00 -0.10199157654E+03  0.10199157654E+03  0.00000000000E+00 0.  1.
         25    2    1    2    0    0 -0.17475271584E+02 -0.39719810345E+02 -0.19782354407E+02  0.13387148103E+03  0.12508870227E+03 0.  0.
          5    1    3    3  502    0 -0.56334624099E+02 -0.12759951313E+02  0.29877830818E+02  0.65165661235E+02  0.41800000000E+01 0.  1.
         -5    1    3    3    0  502  0.38859352515E+02 -0.26959859032E+02 -0.49660185224E+02  0.68705819793E+02  0.41800000000E+01 0.  1.
        -11    1    1    2    0    0 -0.48207218471E+01 -0.17284063795E+02  0.69347449328E+01  0.19237175148E+02  0.00000000000E+00 0.  1.
         11    1    1    2    0    0  0.22295993431E+02  0.57003874140E+02  0.30248450224E+02  0.68275337649E+02  0.00000000000E+00 0. -1.
</event>
<event>
 7    1  0.2670433E-009  0.1584338E+03  0.7561462E-02  0.1190476E+00
          2   -1    0    0  501    0  0.00000000000E+00  0.00000000000E+00  0.42112829532E+03  0.42112829532E+03  0.00000000000E+00 0. -1.
         -2   -1    0    0    0  501 -0.00000000000E+00 -0.00000000000E+00 -0.78586102079E+02  0.78586102079E+02  0.00000000000E+00 0.  1.
         25    2    1    2    0    0  0.81560212174E+02 -0.12003106219E+03  0.17930534588E+03  0.26240695561E+03  0.12508988445E+03 0.  0.
          5    1    3    3  502    0  0.33749921301E+02 -0.14642340530E+02  0.13237691383E+03  0.13745753904E+03  0.41800000000E+01 0.  1.
         -5    1    3    3    0  502  0.47810290873E+02 -0.10538872166E+03  0.46928432047E+02  0.12494941657E+03  0.41800000000E+01 0.  1.
        -11    1    1    2    0    0  0.21763852675E+01  0.62283189914E+02  0.99067223636E+02  0.11703951127E+03  0.00000000000E+00 0.  1.
         11    1    1    2    0    0 -0.83736597442E+02  0.57747872273E+02  0.64169623726E+02  0.12026793052E+03  0.00000000000E+00 0. -1.
</event>
<event>
 7    1  0.2670433E-009  0.1235742E+03  0.7561462E-02  0.1237315E+00
          3   -1    0    0  501    0  0.00000000000E+00  0.00000000000E+00  0.17334104049E+03  0.17334104049E+03  0.00000000000E+00 0. -1.
         -3   -1    0    0    0  501 -0.00000000000E+00 -0.00000000000E+00 -0.14353566126E+03  0.14353566126E+03  0.00000000000E+00 0.  1.
         25    2    1    2    0    0  0.81568178877E+02  0.60376523824E+01 -0.64377226744E+02  0.16272875106E+03  0.12508556291E+03 0.  0.
          5    1    3    3  502    0  0.92415661829E+02 -0.38574610597E+02 -0.59020520297E+02  0.11631659104E+03  0.41800000000E+01 0. -1.
         -5    1    3    3    0  502 -0.10847482952E+02  0.44612262979E+02 -0.53567064463E+01  0.46412160028E+02  0.41800000000E+01 0. -1.
        -11    1    1    2    0    0 -0.20235218714E+02 -0.28968945945E+02  0.79561672865E+02  0.87055865366E+02  0.00000000000E+00 0. -1.
         11    1    1    2    0    0 -0.61332960163E+02  0.22931293562E+02  0.14620933107E+02  0.67092085314E+02  0.00000000000E+00 0.  1.
</event>
<event>
 7    1  0.2670433E-009  0.9377737E+02  0.7561462E-02  0.1293954E+00
          3   -1    0    0  501    0  0.00000000000E+00  0.00000000000E+00  0.13829754401E+02  0.13829754401E+02  0.00000000000E+00 0. -1.
         -3   -1    0    0    0  501 -0.00000000000E+00 -0.00000000000E+00 -0.11451369609E+04  0.11451369609E+04  0.00000000000E+00 0.  1.
         25    2    1    2    0    0 -0.12367051904E+02 -0.69353531904E+02 -0.71149352310E+03  0.72583237434E+03  0.12508695321E+03 0.  0.
          5    1    3    3  502    0  0.11097922997E+02 -0.48143183189E+01 -0.19328934185E+01  0.12944111893E+02  0.41800000000E+01 0. -1.
         -5    1    3    3    0  502 -0.23464974901E+02 -0.64539213585E+02 -0.70956062969E+03  0.71288826245E+03  0.41800000000E+01 0. -1.
        -11    1    1    2    0    0  0.26277160505E+02 -0.79167190215E+01 -0.89209022058E+02  0.93334951764E+02  0.00000000000E+00 0. -1.
         11    1    1    2    0    0 -0.13910108601E+02  0.77270250925E+02 -0.33060466131E+03  0.33979938917E+03  0.00000000000E+00 0.  1.
</event>
<event>
 7    1  0.2670433E-009  0.9861991E+02  0.7561462E-02  0.1283225E+00
         -2   -1    0    0    0  501 -0.00000000000E+00  0.00000000000E+00  0.49793392519E+02  0.49793392519E+02  0.00000000000E+00 0.  1.
          2   -1    0    0  501    0  0.00000000000E+00 -0.00000000000E+00 -0.31556934754E+03  0.31556934754E+03  0.00000000000E+00 0. -1.
         25    2    1    2    0    0  0.30810430080E+02 -0.26840970185E+02 -0.20446375983E+03  0.24315475326E+03  0.12509630159E+03 0.  0.
          5    1    3    3  502    0  0.49238525858E+02 -0.51247066367E+02 -0.19958958418E+03  0.21190603756E+03  0.41800000000E+01 0. -1.
         -5    1    3    3    0  502 -0.18428095778E+02  0.24406096183E+02 -0.48741756402E+01  0.31248715702E+02  0.41800000000E+01 0. -1.
        -11    1    1    2    0    0  0.26988462404E+02  0.25855975443E+02 -0.51407727533E+02  0.63558343427E+02  0.00000000000E+00 0. -1.
         11    1    1    2    0    0 -0.57798892485E+02  0.98499474206E+00 -0.99044676588E+01  0.58649643364E+02  0.00000000000E+00 0.  1.
</event>
<event>
 7    1  0.2670433E-009  0.9904737E+02  0.7561462E-02  0.1282312E+00
         -1   -1    0    0    0  501 -0.00000000000E+00  0.00000000000E+00  0.19722254009E+03  0.19722254009E+03  0.00000000000E+00 0.  1.
          1   -1    0    0  501    0  0.00000000000E+00 -0.00000000000E+00 -0.97804077713E+02  0.97804077713E+02  0.00000000000E+00 0. -1.
         25    2    1    2    0    0 -0.29807629577E+01 -0.53955719215E+02 -0.17771035117E+02  0.13741894910E+03  0.12509217920E+03 0.  0.
          5    1    3    3  502    0  0.33962585840E+02 -0.48500977845E+02 -0.57565508212E+02  0.82686529886E+02  0.41800000000E+01 0.  1.
         -5    1    3    3    0  502 -0.36943348798E+02 -0.54547413698E+01  0.39794473095E+02  0.54732419212E+02  0.41800000000E+01 0.  1.
        -11    1    1    2    0    0 -0.41210583957E+02  0.22873368663E+02  0.76965548998E+02  0.90250755989E+02  0.00000000000E+00 0.  1.
         11    1    1    2    0    0  0.44191346914E+02  0.31082350552E+02  0.40223948493E+02  0.67356912713E+02  0.00000000000E+00 0. -1.
</event>
<event>
 7    1  0.2670433E-009  0.9439167E+02  0.7561462E-02  0.1292552E+00
         -2   -1    0    0    0  501 -0.00000000000E+00  0.00000000000E+00  0.49584021300E+02  0.49584021300E+02  0.00000000000E+00 0.  1.
          2   -1    0    0  501    0  0.00000000000E+00 -0.00000000000E+00 -0.30930299611E+03  0.30930299611E+03  0.00000000000E+00 0. -1.
         25    2    1    2    0    0  0.56938969685E+02 -0.12769189046E+02 -0.19780107471E+03  0.24120111106E+03  0.12509041675E+03 0.  0.
          5    1    3    3  502    0  0.71971207837E+02  0.20315300603E+02 -0.52755763504E+02  0.91614459443E+02  0.41800000000E+01 0.  1.
         -5    1    3    3    0  502 -0.15032238152E+02 -0.33084489649E+02 -0.14504531120E+03  0.14958665162E+03  0.41800000000E+01 0.  1.
        -11    1    1    2    0    0 -0.12704032992E+02 -0.18990905295E+02  0.12052605639E+02  0.25832387440E+02  0.00000000000E+00 0.  1.
         11    1    1    2    0    0 -0.44234936693E+02  0.31760094341E+02 -0.73970505741E+02  0.91853518911E+02  0.00000000000E+00 0. -1.
</event>
<event>
 7    1  0.2670433E-009  0.8041751E+02  0.7561462E-02  0.1327871E+00
         -2   -1    0    0    0  501 -0.00000000000E+00  0.00000000000E+00  0.29694127789E+02  0.29694127789E+02  0.00000000000E+00 0. -1.
          2   -1    0    0  501    0  0.00000000000E+00 -0.00000000000E+00 -0.43457196513E+03  0.43457196513E+03  0.00000000000E+00 0.  1.
         25    2    1    2    0    0  0.18835088771E+02 -0.40900407351E+01 -0.17717716794E+03  0.21774215573E+03  0.12509359912E+03 0.  0.
          5    1    3    3  502    0 -0.14538793313E+02 -0.29546593405E+02  0.23966730104E+01  0.33280536870E+02  0.41800000000E+01 0. -1.
         -5    1    3    3    0  502  0.33373882084E+02  0.25456552670E+02 -0.17957384095E+03  0.18446161886E+03  0.41800000000E+01 0. -1.
        -11    1    1    2    0    0 -0.17958589117E+02  0.42968553331E+02 -0.17461259645E+03  0.18071625920E+03  0.00000000000E+00 0.  1.
         11    1    1    2    0    0 -0.87649965436E+00 -0.38878512596E+02 -0.53088072958E+02  0.65807677999E+02  0.00000000000E+00 0. -1.
</event>
<event>
 7    1  0.2670433E-009  0.1137641E+03  0.7561462E-02  0.1253754E+00
         -2   -1    0    0    0  501 -0.00000000000E+00  0.00000000000E+00  0.33906940722E+02  0.33906940722E+02  0.00000000000E+00 0.  1.
          2   -1    0    0  501    0  0.00000000000E+00 -0.00000000000E+00 -0.49362462777E+03  0.49362462777E+03  0.00000000000E+00 0. -1.
         25    2    1    2    0    0  0.46060378685E+02  0.13452453331E+02 -0.36647950560E+03  0.39020363006E+03  0.12509643439E+03 0.  0.
          5    1    3    3  502    0  0.78560395910E+02 -0.24110681383E+02 -0.19560802214E+03  0.21220987604E+03  0.41800000000E+01 0. -1.
         -5    1    3    3    0  502 -0.32500017226E+02  0.37563134714E+02 -0.17087148346E+03  0.17799375402E+03  0.41800000000E+01 0. -1.
        -11    1    1    2    0    0 -0.13016077310E+01  0.31754926949E+02 -0.53777585500E+02  0.62466777334E+02  0.00000000000E+00 0.  1.
         11    1    1    2    0    0 -0.44758770954E+02 -0.45207380280E+02 -0.39460595945E+02  0.74861161101E+02  0.00000000000E+00 0. -1.
</event>
<event>
 7    1  0.2670433E-009  0.2367379E+03  0.7561462E-02  0.1121985E+00
         -2   -1    0    0    0  501 -0.00000000000E+00  0.00000000000E+00  0.50999398895E+02  0.50999398895E+02  0.00000000000E+00 0. -1.
          2   -1    0    0  501    0  0.00000000000E+00 -0.00000000000E+00 -0.11699144836E+04  0.11699144836E+04  0.00000000000E+00 0.  1.
         25    2    1    2    0    0 -0.14211252307E+03 -0.16334021665E+03 -0.51132828039E+03  0.56919131093E+03  0.12508454152E+03 0.  0.
          5    1    3    3  502    0 -0.57397973366E+02 -0.14225903176E+03 -0.24700735266E+03  0.29079591492E+03  0.41800000000E+01 0.  1.
         -5    1    3    3    0  502 -0.84714549699E+02 -0.21081184891E+02 -0.26432092773E+03  0.27839539602E+03  0.41800000000E+01 0.  1.
        -11    1    1    2    0    0  0.32255987053E+01 -0.99961816132E+01 -0.11385187226E+02  0.15490339635E+02  0.00000000000E+00 0. -1.
         11    1    1    2    0    0  0.13888692436E+03  0.17333639826E+03 -0.59620161704E+03  0.63623223188E+03  0.00000000000E+00 0.  1.
</event>
<event>
 7    1  0.2670433E-009  0.1228399E+03  0.7561462E-02  0.1238484E+00
          1   -1    0    0  501    0  0.00000000000E+00  0.00000000000E+00  0.81365617284E+03  0.81365617284E+03  0.00000000000E+00 0. -1.
         -1   -1    0    0    0  501 -0.00000000000E+00 -0.00000000000E+00 -0.24556057986E+02  0.24556057986E+02  0.00000000000E+00 0.  1.
         25    2    1    2    0    0  0.72940638007E+02 -0.54749157913E+00  0.27273232923E+03  0.30878955099E+03  0.12508967572E+03 0.  0.
          5    1    3    3  502    0  0.94833052785E+02 -0.22580626627E+02  0.12936633535E+03  0.16203800085E+03  0.41800000000E+01 0.  1.
         -5    1    3    3    0  502 -0.21892414779E+02  0.22033135048E+02  0.14336599389E+03  0.14675155014E+03  0.41800000000E+01 0.  1.
        -11    1    1    2    0    0 -0.11804440027E+02 -0.41119749686E+02  0.19866031434E+03  0.20321441660E+03  0.00000000000E+00 0. -1.
         11    1    1    2    0    0 -0.61136197979E+02  0.41667241265E+02  0.31770747128E+03  0.32620826324E+03  0.00000000000E+00 0.  1.
</event>
<event>
 7    1  0.2670433E-009  0.1289621E+03  0.7561462E-02  0.1229004E+00
          1   -1    0    0  501    0  0.00000000000E+00  0.00000000000E+00  0.13404727240E+03  0.13404727240E+03  0.00000000000E+00 0. -1.
         -1   -1    0    0    0  501 -0.00000000000E+00 -0.00000000000E+00 -0.22002424610E+03  0.22002424610E+03  0.00000000000E+00 0.  1.
         25    2    1    2    0    0  0.36950386887E+02 -0.70462503733E+02  0.64773253775E+02  0.16178196134E+03  0.12509009987E+03 0.  0.
          5    1    3    3  502    0  0.37662984418E+02 -0.10447644998E+03  0.35392165872E+02  0.11663578696E+03  0.41800000000E+01 0.  1.
         -5    1    3    3    0  502 -0.71259753138E+00  0.34013946244E+02  0.29381087903E+02  0.45146174375E+02  0.41800000000E+01 0.  1.
        -11    1    1    2    0    0 -0.62311912009E+02  0.48526104762E+02 -0.13212891893E+03  0.15393377939E+03  0.00000000000E+00 0.  1.
         11    1    1    2    0    0  0.25361525122E+02  0.21936398971E+02 -0.18621308552E+02  0.38355777772E+02  0.00000000000E+00 0. -1.
</event>
<event>
 7    1  0.2670433E-009  0.1217832E+03  0.7561462E-02  0.1240184E+00
          3   -1    0    0  501    0  0.00000000000E+00  0.00000000000E+00  0.36601752494E+02  0.36601752494E+02  0.00000000000E+00 0.  1.
         -3   -1    0    0    0  501 -0.00000000000E+00 -0.00000000000E+00 -0.45187388534E+03  0.45187388534E+03  0.00000000000E+00 0. -1.
         25    2    1    2    0    0  0.40093870482E+02 -0.53254102201E+02 -0.25924082822E+03  0.29546054182E+03  0.12509039492E+03 0.  0.
          5    1    3    3  502    0  0.69437832670E+02  0.11512949107E+02 -0.13034334267E+03  0.14819250987E+03  0.41800000000E+01 0.  1.
         -5    1    3    3    0  502 -0.29343962187E+02 -0.64767051308E+02 -0.12889748556E+03  0.14726803195E+03  0.41800000000E+01 0.  1.
        -11    1    1    2    0    0 -0.44613712583E+02  0.70814642083E+02 -0.83402714950E+02  0.11815714005E+03  0.00000000000E+00 0. -1.
         11    1    1    2    0    0  0.45198421007E+01 -0.17560539882E+02 -0.72628589668E+02  0.74857955962E+02  0.00000000000E+00 0.  1.
</event>
<event>
 7    1  0.2670433E-009  0.8858292E+02  0.7561462E-02  0.1306320E+00
          1   -1    0    0  501    0  0.00000000000E+00  0.00000000000E+00  0.25621199566E+03  0.25621199566E+03  0.00000000000E+00 0. -1.
         -1   -1    0    0    0  501 -0.00000000000E+00 -0.00000000000E+00 -0.92147494580E+02  0.92147494580E+02  0.00000000000E+00 0.  1.
         25    2    1    2    0    0 -0.47526763136E+02  0.40940384486E+02 -0.10908687228E+02  0.14035864490E+03  0.12508653583E+03 0.  0.
          5    1    3    3  502    0  0.43477304602E+01 -0.20070879101E+02 -0.47721328538E+02  0.52120442683E+02  0.41800000000E+01 0.  1.
         -5    1    3    3    0  502 -0.51874493596E+02  0.61011263588E+02  0.36812641309E+02  0.88238202218E+02  0.41800000000E+01 0.  1.
        -11    1    1    2    0    0  0.36495179658E+02 -0.31299197500E+01  0.94119574014E+01  0.37819035921E+02  0.00000000000E+00 0.  1.
         11    1    1    2    0    0  0.11031583478E+02 -0.37810464736E+02  0.16556123091E+03  0.17018180942E+03  0.00000000000E+00 0. -1.
</event>
<event>
 7    1  0.2670433E-009  0.1637769E+03  0.7561462E-02  0.1184497E+00
          1   -1    0    0  501    0  0.00000000000E+00  0.00000000000E+00  0.44690233544E+03  0.44690233544E+03  0.00000000000E+00 0. -1.
         -1   -1    0    0    0  501 -0.00000000000E+00 -0.00000000000E+00 -0.91342695941E+02  0.91342695941E+02  0.00000000000E+00 0.  1.
         25    2    1    2    0    0 -0.13348207130E+03 -0.52192660911E+02  0.63875627597E+02  0.20067128718E+03  0.12508929805E+03 0.  0.
          5    1    3    3  502    0 -0.23155159546E+01  0.26934931008E+02  0.35510678564E+02  0.44825582144E+02  0.41800000000E+01 0. -1.
         -5    1    3    3    0  502 -0.13116655535E+03 -0.79127591919E+02  0.28364949033E+02  0.15584570504E+03  0.41800000000E+01 0. -1.
        -11    1    1    2    0    0  0.79002995789E+02  0.47712159720E+02  0.25641845101E+03  0.27252219276E+03  0.00000000000E+00 0. -1.
         11    1    1    2    0    0  0.54479075513E+02  0.44805011914E+01  0.35265560890E+02  0.65051551438E+02  0.00000000000E+00 0.  1.
</event>
<event>
 7    1  0.2670433E-009  0.1255167E+03  0.7561462E-02  0.1234264E+00
          1   -1    0    0  501    0  0.00000000000E+00  0.00000000000E+00  0.67293419245E+02  0.67293419245E+02  0.00000000000E+00 0. -1.
         -1   -1    0    0    0  501 -0.00000000000E+00 -0.00000000000E+00 -0.33924854894E+03  0.33924854894E+03  0.00000000000E+00 0.  1.
         25    2    1    2    0    0  0.97859759288E+02  0.42093436705E+02 -0.19329208037E+03  0.25368604143E+03  0.12508552826E+03 0.  0.
          5    1    3    3  502    0  0.10760787866E+03  0.73263216203E+01 -0.79017882364E+02  0.13377005895E+03  0.41800000000E+01 0. -1.
         -5    1    3    3    0  502 -0.97481193764E+01  0.34767115085E+02 -0.11427419801E+03  0.11991598248E+03  0.41800000000E+01 0. -1.
        -11    1    1    2    0    0 -0.47630959734E+02 -0.24195476179E+02 -0.83699589734E+02  0.99296277445E+02  0.00000000000E+00 0.  1.
         11    1    1    2    0    0 -0.50228799553E+02 -0.17897960526E+02  0.50365404076E+01  0.53559649316E+02  0.00000000000E+00 0. -1.
</event>
<event>
 7    1  0.2670433E-009  0.1574347E+03  0.7561462E-02  0.1191624E+00
         -3   -1    0    0    0  501 -0.00000000000E+00  0.00000000000E+00  0.91354140635E+03  0.91354140635E+03  0.00000000000E+00 0.  1.
          3   -1    0    0  501    0  0.00000000000E+00 -0.00000000000E+00 -0.35687306988E+02  0.35687306988E+02  0.00000000000E+00 0. -1.
         25    2    1    2    0    0  0.11067914840E+03 -0.85360711725E+02  0.37525870442E+03  0.41952670297E+03  0.12508890547E+03 0.  0.
          5    1    3    3  502    0  0.14955080948E+02 -0.44495593175E+02  0.23485761953E+02  0.52655158082E+02  0.41800000000E+01 0.  1.
         -5    1    3    3    0  502  0.95724067448E+02 -0.40865118551E+02  0.35177294246E+03  0.36687154489E+03  0.41800000000E+01 0.  1.
        -11    1    1    2    0    0  0.11225986742E+02 -0.45374211937E+01  0.15924934373E+02  0.20005361886E+02  0.00000000000E+00 0. -1.
         11    1    1    2    0    0 -0.12190513514E+03  0.89898132919E+02  0.48667046058E+03  0.50969664848E+03  0.00000000000E+00 0.  1.
</event>
<event>
 7    1  0.2670433E-009  0.1058361E+03  0.7561462E-02  0.1268481E+00
         -2   -1    0    0    0  501 -0.00000000000E+00  0.00000000000E+00  0.14021818532E+03  0.14021818532E+03  0.00000000000E+00 0.  1.
          2   -1    0    0  501    0  0.00000000000E+00 -0.00000000000E+00 -0.91133759728E+02  0.91133759728E+02  0.00000000000E+00 0. -1.
         25    2    1    2    0    0 -0.26821218672E+02  0.75064400659E+01  0.44190104194E+02  0.13555736790E+03  0.12508920925E+03 0.  0.
          5    1    3    3  502    0  0.38710426573E+02 -0.22413223059E+02 -0.91186657778E+01  0.45841816707E+02  0.41800000000E+01 0. -1.
         -5    1    3    3    0  502 -0.65531645245E+02  0.29919663125E+02  0.53308769972E+02  0.89715551193E+02  0.41800000000E+01 0. -1.
        -11    1    1    2    0    0 -0.31228505661E+02  0.11840151644E+02  0.86209805721E+01  0.34492463855E+02  0.00000000000E+00 0. -1.
         11    1    1    2    0    0  0.58049724333E+02 -0.19346591710E+02 -0.37266591717E+01  0.61302113295E+02  0.00000000000E+00 0.  1.
</event>
<event>
 7    1  0.2670433E-009  0.8514461E+02  0.7561462E-02  0.1315055E+00
          1   -1    0    0  501    0  0.00000000000E+00  0.00000000000E+00  0.26437563412E+03  0.26437563412E+03  0.00000000000E+00 0.  1.
         -1   -1    0    0    0  501 -0.00000000000E+00 -0.00000000000E+00 -0.45811384431E+02  0.45811384431E+02  0.00000000000E+00 0. -1.
         25    2    1    2    0    0  0.13623272372E+02  0.98098632701E+01  0.15995356473E+03  0.20375076411E+03  0.12508958406E+03 0.  0.
          5    1    3    3  502    0 -0.33718963188E+02  0.35496991644E+02  0.13609331475E+03  0.14469232051E+03  0.41800000000E+01 0. -1.
         -5    1    3    3    0  502  0.47342235560E+02 -0.25687128374E+02  0.23860249974E+02  0.59058443603E+02  0.41800000000E+01 0. -1.
        -11    1    1    2    0    0  0.15269299660E+01  0.27145091684E+02 -0.83737792037E+01  0.28448333796E+02  0.00000000000E+00 0. -1.
         11    1    1    2    0    0 -0.15150202338E+02 -0.36954954954E+02  0.66984464160E+02  0.77987920637E+02  0.00000000000E+00 0.  1.
</event>
<event>
 7    1  0.2670433E-009  0.2444187E+03  0.7561462E-02  0.1116884E+00
          1   -1    0    0  501    0  0.00000000000E+00  0.00000000000E+00  0.10563474388E+04  0.10563474388E+04  0.00000000000E+00 0. -1.
         -1   -1    0    0    0  501 -0.00000000000E+00 -0.00000000000E+00 -0.81971191320E+02  0.81971191320E+02  0.00000000000E+00 0.  1.
         25    2    1    2    0    0  0.15274058378E+03  0.16922464524E+03  0.78953232407E+03  0.83125104542E+03  0.12510133201E+03 0.  0.
          5    1    3    3  502    0  0.22233134064E+01  0.89536678541E+02  0.26891721453E+03  0.28347081084E+03  0.41800000000E+01 0.  1.
         -5    1    3    3    0  502  0.15051727037E+03  0.79687966696E+02  0.52061510953E+03  0.54778023457E+03  0.41800000000E+01 0.  1.
        -11    1    1    2    0    0 -0.12091904336E+03 -0.14511296487E+03  0.18865144955E+03  0.26696171455E+03  0.00000000000E+00 0. -1.
         11    1    1    2    0    0 -0.31821540418E+02 -0.24111680370E+02 -0.38075261449E+01  0.40105870146E+02  0.00000000000E+00 0.  1.
</event>
<event>
 7    1  0.2670433E-009  0.3370032E+03  0.7561462E-02  0.1068080E+00
          2   -1    0    0  501    0  0.00000000000E+00  0.00000000000E+00  0.15754929867E+04  0.15754929867E+04  0.00000000000E+00 0. -1.
         -2   -1    0    0    0  501 -0.00000000000E+00 -0.00000000000E+00 -0.91111765939E+02  0.91111765939E+02  0.00000000000E+00 0.  1.
         25    2    1    2    0    0  0.12446516288E+03  0.30577827956E+03  0.10817909379E+04  0.11379433768E+04  0.12510620438E+03 0.  0.
          5    1    3    3  502    0  0.76059173971E+02  0.95860941118E+02  0.24547162594E+03  0.27431388867E+03  0.41800000000E+01 0. -1.
         -5    1    3    3    0  502  0.48405988910E+02  0.20991733844E+03  0.83631931196E+03  0.86362948809E+03  0.41800000000E+01 0. -1.
        -11    1    1    2    0    0 -0.89729832827E+02 -0.13690371484E+03  0.24766579256E+03  0.29687104075E+03  0.00000000000E+00 0. -1.
         11    1    1    2    0    0 -0.34735330054E+02 -0.16887456472E+03  0.15492449032E+03  0.23179033514E+03  0.00000000000E+00 0.  1.
</event>
<event>
 7    1  0.2670433E-009  0.8314553E+02  0.7561462E-02  0.1320355E+00
          2   -1    0    0  501    0  0.00000000000E+00  0.00000000000E+00  0.53079434156E+03  0.53079434156E+03  0.00000000000E+00 0. -1.
         -2   -1    0    0    0  501 -0.00000000000E+00 -0.00000000000E+00 -0.29742716343E+02  0.29742716343E+02  0.00000000000E+00 0.  1.
         25    2    1    2    0    0 -0.42216135772E+02  0.25613491705E+02  0.37573608907E+03  0.39907380232E+03  0.12507612877E+03 0.  0.
          5    1    3    3  502    0  0.63191038068E+01  0.12195244160E+02  0.33181123608E+03  0.33212170034E+03  0.41800000000E+01 0.  1.
         -5    1    3    3    0  502 -0.48535239579E+02  0.13418247545E+02  0.43924852996E+02  0.66952101975E+02  0.41800000000E+01 0.  1.
        -11    1    1    2    0    0  0.11675733129E+02 -0.56662556315E+02  0.64251012322E+02  0.86459011194E+02  0.00000000000E+00 0. -1.
         11    1    1    2    0    0  0.30540402643E+02  0.31049064610E+02  0.61064523823E+02  0.75004244390E+02  0.00000000000E+00 0.  1.
</event>
<event>
 7    1  0.2670433E-009  0.2867982E+03  0.7561462E-02  0.1092033E+00
          2   -1    0    0  501    0  0.00000000000E+00  0.00000000000E+00  0.11030997259E+04  0.11030997259E+04  0.00000000000E+00 0. -1.
         -2   -1    0    0    0  501 -0.00000000000E+00 -0.00000000000E+00 -0.10673789147E+03  0.10673789147E+03  0.00000000000E+00 0.  1.
         25    2    1    2    0    0 -0.19556624518E+03 -0.18229273714E+03  0.82956159493E+03  0.88051027982E+03  0.12509642209E+03 0.  0.
          5    1    3    3  502    0 -0.16481364120E+02 -0.87853638396E+02  0.31724947802E+03  0.32962797340E+03  0.41800000000E+01 0.  1.
         -5    1    3    3    0  502 -0.17908488106E+03 -0.94439098741E+02  0.51231211691E+03  0.55088230642E+03  0.41800000000E+01 0.  1.
        -11    1    1    2    0    0  0.52173318308E+02  0.10838778708E+03  0.92379996230E+02  0.15167079889E+03  0.00000000000E+00 0. -1.
         11    1    1    2    0    0  0.14339292687E+03  0.73904950058E+02  0.74420243251E+02  0.17765653865E+03  0.00000000000E+00 0.  1.
</event>
<event>
 7    1  0.2670433E-009  0.7560243E+02  0.7561462E-02  0.1342016E+00
         -1   -1    0    0    0  501 -0.00000000000E+00  0.00000000000E+00  0.26316089640E+03  0.26316089640E+03  0.00000000000E+00 0.  1.
          1   -1    0    0  501    0  0.00000000000E+00 -0.00000000000E+00 -0.54559882284E+02  0.54559882284E+02  0.00000000000E+00 0. -1.
         25    2    1    2    0    0 -0.59683155421E+01 -0.49440707435E+02  0.11282696078E+03  0.17566775711E+03  0.12509689632E+03 0.  0.
          5    1    3    3  502    0  0.27487473841E+02 -0.42058617234E+02 -0.70615122251E+01  0.50909977968E+02  0.41800000000E+01 0. -1.
         -5    1    3    3    0  502 -0.33455789383E+02 -0.73820902017E+01  0.11988847300E+03  0.12475777915E+03  0.41800000000E+01 0. -1.
        -11    1    1    2    0    0  0.22786379215E+02  0.13234886566E+02  0.98572369174E+02  0.10203378492E+03  0.00000000000E+00 0.  1.
         11    1    1    2    0    0 -0.16818063673E+02  0.36205820870E+02 -0.27983158348E+01  0.40019236650E+02  0.00000000000E+00 0. -1.
</event>
<event>
 7    1  0.2670433E-009  0.9791186E+02  0.7561462E-02  0.1284749E+00
         -2   -1    0    0    0  501 -0.00000000000E+00  0.00000000000E+00  0.59521782229E+02  0.59521782229E+02  0.00000000000E+00 0. -1.
          2   -1    0    0  501    0  0.00000000000E+00 -0.00000000000E+00 -0.26618061250E+03  0.26618061250E+03  0.00000000000E+00 0.  1.
         25    2    1    2    0    0 -0.62173150030E+02 -0.16102717860E+02 -0.12964994614E+03  0.19126258163E+03  0.12508984167E+03 0.  0.
          5    1    3    3  502    0 -0.51722774024E+02 -0.41629010887E+02 -0.86471770215E+01  0.67085512375E+02  0.41800000000E+01 0.  1.
         -5    1    3    3    0  502 -0.10450376006E+02  0.25526293027E+02 -0.12100276912E+03  0.12417706925E+03  0.41800000000E+01 0.  1.
        -11    1    1    2    0    0  0.54108647931E+02 -0.24934989954E+02 -0.18237464165E+02  0.62306537410E+02  0.00000000000E+00 0. -1.
         11    1    1    2    0    0  0.80645020993E+01  0.41037707814E+02 -0.58771419973E+02  0.72133275694E+02  0.00000000000E+00 0.  1.
</event>
<event>
 7    1  0.2670433E-009  0.1258036E+03  0.7561462E-02  0.1233819E+00
          2   -1    0    0  501    0  0.00000000000E+00  0.00000000000E+00  0.71997775385E+03  0.71997775385E+03  0.00000000000E+00 0. -1.
         -2   -1    0    0    0  501 -0.00000000000E+00 -0.00000000000E+00 -0.31822502146E+02  0.31822502146E+02  0.00000000000E+00 0.  1.
         25    2    1    2    0    0  0.28556317643E+02 -0.10042640553E+03  0.32339286371E+03  0.36212024249E+03  0.12508876655E+03 0.  0.
          5    1    3    3  502    0  0.41755597585E+01 -0.86311217445E+02  0.82481654238E+02  0.11953140693E+03  0.41800000000E+01 0. -1.
         -5    1    3    3    0  502  0.24380757885E+02 -0.14115188085E+02  0.24091120947E+03  0.24258883556E+03  0.41800000000E+01 0. -1.
        -11    1    1    2    0    0 -0.19988309468E+02  0.11660529420E+03  0.30359514713E+03  0.32583176719E+03  0.00000000000E+00 0.  1.
         11    1    1    2    0    0 -0.85680081749E+01 -0.16178888669E+02  0.61167240867E+02  0.63848246318E+02  0.00000000000E+00 0. -1.
</event>
<event>
 7    1  0.2670433E-009  0.9007907E+02  0.7561462E-02  0.1302660E+00
          3   -1    0    0  501    0  0.00000000000E+00  0.00000000000E+00  0.13253891287E+03  0.13253891287E+03  0.00000000000E+00 0. -1.
         -3   -1    0    0    0  501 -0.00000000000E+00 -0.00000000000E+00 -0.10264546550E+03  0.10264546550E+03  0.00000000000E+00 0.  1.
         25    2    1    2    0    0  0.35355774394E+02 -0.23052444742E+02 -0.17504335524E+01  0.13202666652E+03  0.12508609300E+03 0.  0.
          5    1    3    3  502    0 -0.99827302468E+01 -0.66870740554E+02  0.75292099182E+01  0.68157994744E+02  0.41800000000E+01 0.  1.
         -5    1    3    3    0  502  0.45338504641E+02  0.43818295812E+02 -0.92796434706E+01  0.63868671772E+02  0.41800000000E+01 0.  1.
        -11    1    1    2    0    0 -0.28059805973E+02  0.34021514549E+01  0.60916248848E+02  0.67154424422E+02  0.00000000000E+00 0. -1.
         11    1    1    2    0    0 -0.72959684217E+01  0.19650293287E+02 -0.29272367931E+02  0.36003287430E+02  0.00000000000E+00 0.  1.
</event>
<event>
 7    1  0.2670433E-009  0.1407699E+03  0.7561462E-02  0.1212297E+00
          2   -1    0    0  501    0  0.00000000000E+00  0.00000000000E+00  0.10876420387E+03  0.10876420387E+03  0.00000000000E+00 0. -1.
         -2   -1    0    0    0  501 -0.00000000000E+00 -0.00000000000E+00 -0.24267971039E+03  0.24267971039E+03  0.00000000000E+00 0.  1.
         25    2    1    2    0    0 -0.89199964292E+02 -0.31022359055E+02 -0.15657174697E+03  0.22154424291E+03  0.12509244272E+03 0.  0.
          5    1    3    3  502    0 -0.75317285091E+02  0.39181522963E+02 -0.82101720192E+02  0.11817804379E+03  0.41800000000E+01 0. -1.
         -5    1    3    3    0  502 -0.13882679201E+02 -0.70203882018E+02 -0.74470026774E+02  0.10336619912E+03  0.41800000000E+01 0. -1.
        -11    1    1    2    0    0  0.10019195231E+03  0.94444620095E+01  0.66170441350E+01  0.10085341067E+03  0.00000000000E+00 0.  1.
         11    1    1    2    0    0 -0.10991988022E+02  0.21577897045E+02  0.16039196310E+02  0.29046260686E+02  0.00000000000E+00 0. -1.
</event>
<event>
 7    1  0.2670433E-009  0.2732090E+03  0.7561462E-02  0.1099457E+00
         -1   -1    0    0    0  501 -0.00000000000E+00  0.00000000000E+00  0.96823527850E+03  0.96823527850E+03  0.00000000000E+00 0.  1.
          1   -1    0    0  501    0  0.00000000000E+00 -0.00000000000E+00 -0.83113730057E+02  0.83113730057E+02  0.00000000000E+00 0. -1.
         25    2    1    2    0    0  0.24306212680E+03  0.79634094082E+02  0.55428294425E+03  0.62313655463E+03  0.12509515181E+03 0.  0.
          5    1    3    3  502    0  0.19525747514E+03  0.10955290150E+03  0.39426180575E+03  0.45341720711E+03  0.41800000000E+01 0. -1.
         -5    1    3    3    0  502  0.47804651652E+02 -0.29918807417E+02  0.16002113849E+03  0.16971934752E+03  0.41800000000E+01 0. -1.
        -11    1    1    2    0    0 -0.12758581443E+03 -0.79752578193E+02  0.14213925832E+03  0.20698353202E+03  0.00000000000E+00 0.  1.
         11    1    1    2    0    0 -0.11547631236E+03  0.11848411128E+00  0.18869934587E+03  0.22122892191E+03  0.00000000000E+00 0. -1.
</event>
<event>
 7    1  0.2670433E-009  0.1113562E+03  0.7561462E-02  0.1258079E+00
          1   -1    0    0  501    0  0.00000000000E+00  0.00000000000E+00  0.35716814208E+03  0.35716814208E+03  0.00000000000E+00 0. -1.
         -1   -1    0    0    0  501 -0.00000000000E+00 -0.00000000000E+00 -0.62692012565E+02  0.62692012565E+02  0.00000000000E+00 0.  1.
         25    2    1    2    0    0  0.37006016446E+02 -0.71003105528E+02  0.75312978711E+02  0.16652488014E+03  0.12509038611E+03 0.  0.
          5    1    3    3  502    0  0.48763507883E+02 -0.40650784757E+02 -0.19216141529E+02  0.66461255613E+02  0.41800000000E+01 0. -1.
         -5    1    3    3    0  502 -0.11757491437E+02 -0.30352320771E+02  0.94529120240E+02  0.10006362453E+03  0.41800000000E+01 0. -1.
        -11    1    1    2    0    0 -0.54977370496E+02  0.20496503167E+01  0.81627472828E+02  0.98436561568E+02  0.00000000000E+00 0. -1.
         11    1    1    2    0    0  0.17971354050E+02  0.68953455211E+02  0.13753567797E+03  0.15489871293E+03  0.00000000000E+00 0.  1.
</event>
<event>
 7    1  0.2670433E-009  0.1271117E+03  0.7561462E-02  0.1231806E+00
          2   -1    0    0  501    0  0.00000000000E+00  0.00000000000E+00  0.13686181842E+04  0.13686181842E+04  0.00000000000E+00 0. -1.
         -2   -1    0    0    0  501 -0.00000000000E+00 -0.00000000000E+00 -0.14754345018E+02  0.14754345018E+02  0.00000000000E+00 0.  1.
         25    2    1    2    0    0  0.59739491446E+02  0.44971419512E+02  0.99256718036E+03  0.10032086347E+04  0.12508685669E+03 0.  0.
          5    1    3    3  502    0  0.98360813924E+02  0.29089068613E+02  0.75749278675E+03  0.76441730619E+03  0.41800000000E+01 0.  1.
         -5    1    3    3    0  502 -0.38621322478E+02  0.15882350899E+02  0.23507439361E+03  0.23879132847E+03  0.41800000000E+01 0.  1.
        -11    1    1    2    0    0  0.10387096481E+02 -0.37689146169E+02  0.20509732712E+03  0.20879003114E+03  0.00000000000E+00 0.  1.
         11    1    1    2    0    0 -0.70126587927E+02 -0.72822733429E+01  0.15619933172E+03  0.17137386344E+03  0.00000000000E+00 0. -1.
</event>
<event>
 7    1  0.2670433E-009  0.1110263E+03  0.7561462E-02  0.1258681E+00
          2   -1    0    0  501    0  0.00000000000E+00  0.00000000000E+00  0.11010472577E+03  0.11010472577E+03  0.00000000000E+00 0. -1.
         -2   -1    0    0    0  501 -0.00000000000E+00 -0.00000000000E+00 -0.19886027175E+03  0.19886027175E+03  0.00000000000E+00 0.  1.
         25    2    1    2    0    0  0.86460241771E+02  0.36134169751E+02 -0.86465139187E+02  0.17861913580E+03  0.12509006255E+03 0.  0.
          5    1    3    3  502    0  0.98577210954E+02  0.11631960315E+02 -0.13091697971E+02  0.10020795366E+03  0.41800000000E+01 0. -1.
         -5    1    3    3    0  502 -0.12116969183E+02  0.24502209436E+02 -0.73373441216E+02  0.78411182144E+02  0.41800000000E+01 0. -1.
        -11    1    1    2    0    0 -0.64669655952E+02 -0.34249572512E+02  0.39513738865E+02  0.83165697119E+02  0.00000000000E+00 0. -1.
         11    1    1    2    0    0 -0.21790585819E+02 -0.18845972386E+01 -0.41804145659E+02  0.47180164597E+02  0.00000000000E+00 0.  1.
</event>
<event>
 7    1  0.2670433E-009  0.1029998E+03  0.7561462E-02  0.1274111E+00
          4   -1    0    0  501    0  0.00000000000E+00  0.00000000000E+00  0.82809091275E+02  0.82809091275E+02  0.00000000000E+00 0. -1.
         -4   -1    0    0    0  501 -0.00000000000E+00 -0.00000000000E+00 -0.14625543872E+03  0.14625543872E+03  0.00000000000E+00 0.  1.
         25    2    1    2    0    0  0.58069989107E+01  0.19761258833E+02 -0.48912597389E+02  0.13588215680E+03  0.12508912729E+03 0.  0.
          5    1    3    3  502    0 -0.53058191121E+02  0.23574724017E+02  0.14177799117E+01  0.58227328269E+02  0.41800000000E+01 0. -1.
         -5    1    3    3    0  502  0.58865190032E+02 -0.38134651834E+01 -0.50330377300E+02  0.77654828526E+02  0.41800000000E+01 0. -1.
        -11    1    1    2    0    0  0.39183023231E+02 -0.19258928809E+02 -0.19690484910E+02  0.47894998115E+02  0.00000000000E+00 0. -1.
         11    1    1    2    0    0 -0.44990022142E+02 -0.50233002398E+00  0.51567348535E+01  0.45287375085E+02  0.00000000000E+00 0.  1.
</event>
<event>
 7    1  0.2670433E-009  0.1192806E+03  0.7561462E-02  0.1244289E+00
          2   -1    0    0  501    0  0.00000000000E+00  0.00000000000E+00  0.63282022456E+02  0.63282022456E+02  0.00000000000E+00 0. -1.
         -2   -1    0    0    0  501 -0.00000000000E+00 -0.00000000000E+00 -0.40913938332E+03  0.40913938332E+03  0.00000000000E+00 0.  1.
         25    2    1    2    0    0  0.34443346024E+02  0.11199205172E+03 -0.17615630094E+03  0.24577889569E+03  0.12509060505E+03 0.  0.
          5    1    3    3  502    0  0.20113798260E+02  0.98332618875E+02 -0.19421620550E+03  0.21865789649E+03  0.41800000000E+01 0. -1.
         -5    1    3    3    0  502  0.14329547765E+02  0.13659432844E+02  0.18059904568E+02  0.27120999203E+02  0.41800000000E+01 0. -1.
        -11    1    1    2    0    0 -0.33512330175E+02 -0.92940679020E+02 -0.17972823886E+03  0.20509335907E+03  0.00000000000E+00 0.  1.
         11    1    1    2    0    0 -0.93101584915E+00 -0.19051372699E+02  0.10027178933E+02  0.21549151017E+02  0.00000000000E+00 0. -1.
</event>
<event>
 7    1  0.2670433E-009  0.1465096E+03  0.7561462E-02  0.1204829E+00
          2   -1    0    0  501    0  0.00000000000E+00  0.00000000000E+00  0.28761346745E+03  0.28761346745E+03  0.00000000000E+00 0. -1.
         -2   -1    0    0    0  501 -0.00000000000E+00 -0.00000000000E+00 -0.87140136009E+02  0.87140136009E+02  0.00000000000E+00 0.  1.
         25    2    1    2    0    0 -0.94384020191E+02 -0.30095518540E+02  0.17720166826E+03  0.23845672143E+03  0.12508834181E+03 0.  0.
          5    1    3    3  502    0 -0.89010460198E+02 -0.73488482510E+02  0.12386377493E+03  0.16936093477E+03  0.41800000000E+01 0. -1.
         -5    1    3    3    0  502 -0.53735599929E+01  0.43392963970E+02  0.53337893327E+02  0.69095786657E+02  0.41800000000E+01 0. -1.
        -11    1    1    2    0    0  0.66776065292E+02  0.62194965860E+02  0.22336636046E+02  0.93947761996E+02  0.00000000000E+00 0.  1.
         11    1    1    2    0    0  0.27607954899E+02 -0.32099447321E+02  0.93502713668E+00  0.42349120035E+02  0.00000000000E+00 0. -1.
</event>
<event>
 7    1  0.2670433E-009  0.9110282E+02  0.7561462E-02  0.1300203E+00
          3   -1    0    0  501    0  0.00000000000E+00  0.00000000000E+00  0.50507322671E+02  0.50507322671E+02  0.00000000000E+00 0. -1.
         -3   -1    0    0    0  501 -0.00000000000E+00 -0.00000000000E+00 -0.28711777995E+03  0.28711777995E+03  0.00000000000E+00 0.  1.
         25    2    1    2    0    0 -0.51081735772E+02 -0.73582070939E+01 -0.13875672843E+03  0.19381488895E+03  0.12508914643E+03 0.  0.
          5    1    3    3  502    0 -0.32807097957E+02 -0.45459534352E+02 -0.85556400167E+01  0.56864279789E+02  0.41800000000E+01 0.  1.
         -5    1    3    3    0  502 -0.18274637815E+02  0.38101327258E+02 -0.13020108841E+03  0.13695060916E+03  0.41800000000E+01 0.  1.
        -11    1    1    2    0    0  0.49503072398E+02 -0.21966578146E+02 -0.10066479946E+03  0.11430873362E+03  0.00000000000E+00 0.  1.
         11    1    1    2    0    0  0.15786633737E+01  0.29324785240E+02  0.28110706029E+01  0.29501480054E+02  0.00000000000E+00 0. -1.
</event>
<event>
 7    1  0.2670433E-009  0.1387895E+03  0.7561462E-02  0.1214967E+00
         -1   -1    0    0    0  501 -0.00000000000E+00  0.00000000000E+00  0.41521291599E+02  0.41521291599E+02  0.00000000000E+00 0.  1.
          1   -1    0    0  501    0  0.00000000000E+00 -0.00000000000E+00 -0.69635497115E+03  0.69635497115E+03  0.00000000000E+00 0. -1.
         25    2    1    2    0    0  0.20272255614E+02 -0.11359500500E+03 -0.46496622802E+03  0.49513302547E+03  0.12509328600E+03 0.  0.
          5    1    3    3  502    0 -0.14015599407E+02 -0.65601738481E+02 -0.40635424094E+03  0.41187530473E+03  0.41800000000E+01 0. -1.
         -5    1    3    3    0  502  0.34287855021E+02 -0.47993266518E+02 -0.58611987081E+02  0.83257720738E+02  0.41800000000E+01 0. -1.
        -11    1    1    2    0    0 -0.96524777617E+00 -0.18103644425E+02 -0.21960735881E+02  0.28477141099E+02  0.00000000000E+00 0.  1.
         11    1    1    2    0    0 -0.19307007837E+02  0.13169864942E+03 -0.16790671565E+03  0.21426609618E+03  0.00000000000E+00 0. -1.
</event>
<event>
 7    1  0.2670433E-009  0.1841429E+03  0.7561462E-02  0.1163853E+00
         -2   -1    0    0    0  501 -0.00000000000E+00  0.00000000000E+00  0.98582294306E+02  0.98582294306E+02  0.00000000000E+00 0.  1.
          2   -1    0    0  501    0  0.00000000000E+00 -0.00000000000E+00 -0.53283891097E+03  0.53283891097E+03  0.00000000000E+00 0. -1.
         25    2    1    2    0    0 -0.80281110452E+02 -0.13610322734E+03 -0.52401426851E+02  0.20823918482E+03  0.12509397816E+03 0.  0.
          5    1    3    3  502    0 -0.28728621874E+02 -0.14364146777E+03 -0.23211740849E+02  0.14837271410E+03  0.41800000000E+01 0.  1.
         -5    1    3    3    0  502 -0.51552488577E+02  0.75382404309E+01 -0.29189686002E+02  0.59866470718E+02  0.41800000000E+01 0.  1.
        -11    1    1    2    0    0  0.68351957496E+02  0.55656604713E+02 -0.27574482685E+03  0.28949068599E+03  0.00000000000E+00 0.  1.
         11    1    1    2    0    0  0.11929152955E+02  0.80446622624E+02 -0.10611036296E+03  0.13369133446E+03  0.00000000000E+00 0. -1.
</event>
<event>
 7    1  0.2670433E-009  0.1192113E+03  0.7561462E-02  0.1244404E+00
         -2   -1    0    0    0  501 -0.00000000000E+00  0.00000000000E+00  0.11994193619E+03  0.11994193619E+03  0.00000000000E+00 0.  1.
          2   -1    0    0  501    0  0.00000000000E+00 -0.00000000000E+00 -0.15391910943E+03  0.15391910943E+03  0.00000000000E+00 0. -1.
         25    2    1    2    0    0 -0.69836584712E+02 -0.39428118545E+02 -0.42823861194E+02  0.15463644307E+03  0.12508725491E+03 0.  0.
          5    1    3    3  502    0 -0.54139038377E+02  0.39853369494E+02 -0.24383853026E+02  0.71633590059E+02  0.41800000000E+01 0.  1.
         -5    1    3    3    0  502 -0.15697546335E+02 -0.79281488038E+02 -0.18440008168E+02  0.83002853010E+02  0.41800000000E+01 0.  1.
        -11    1    1    2    0    0  0.18051633129E+02  0.33449193730E+02 -0.34573352004E+02  0.51381190027E+02  0.00000000000E+00 0. -1.
         11    1    1    2    0    0  0.51784951583E+02  0.59789248149E+01  0.43420039965E+02  0.67843412524E+02  0.00000000000E+00 0.  1.
</event>
<event>
 7    1  0.2670433E-009  0.9978852E+02  0.7561462E-02  0.1280741E+00
          1   -1    0    0  501    0  0.00000000000E+00  0.00000000000E+00  0.22831930792E+03  0.22831930792E+03  0.00000000000E+00 0. -1.
         -1   -1    0    0    0  501 -0.00000000000E+00 -0.00000000000E+00 -0.85147764755E+02  0.85147764755E+02  0.00000000000E+00 0.  1.
         25    2    1    2    0    0  0.12405653417E+02 -0.44967602746E+02  0.16002388836E+03  0.20840215805E+03  0.12509128308E+03 0.  0.
          5    1    3    3  502    0 -0.25799944233E+02  0.10759882637E+02  0.13223986143E+03  0.13522671906E+03  0.41800000000E+01 0.  1.
         -5    1    3    3    0  502  0.38205597650E+02 -0.55727485383E+02  0.27784026924E+02  0.73175438988E+02  0.41800000000E+01 0.  1.
        -11    1    1    2    0    0 -0.13156236247E+00 -0.28817533674E+02 -0.27576630796E+01  0.28949477739E+02  0.00000000000E+00 0. -1.
         11    1    1    2    0    0 -0.12274091055E+02  0.73785136420E+02 -0.14094682116E+02  0.76115436882E+02  0.00000000000E+00 0.  1.
</event>
<event>
 7    1  0.2670433E-009  0.1160011E+03  0.7561462E-02  0.1249844E+00
         -1   -1    0    0    0  501 -0.00000000000E+00  0.00000000000E+00  0.33838783686E+03  0.33838783686E+03  0.00000000000E+00 0.  1.
          1   -1    0    0  501    0  0.00000000000E+00 -0.00000000000E+00 -0.11868894343E+03  0.11868894343E+03  0.00000000000E+00 0. -1.
         25    2    1    2    0    0  0.11231380081E+03 -0.67717959058E+00  0.25064062469E+03  0.30179698353E+03  0.12508336458E+03 0.  0.
          5    1    3    3  502    0  0.43719306420E+02  0.75861116915E+01  0.30054194973E+01  0.44670256221E+02  0.41800000000E+01 0.  1.
         -5    1    3    3    0  502  0.68594494393E+02 -0.82632912821E+01  0.24763520519E+03  0.25712672730E+03  0.41800000000E+01 0.  1.
        -11    1    1    2    0    0 -0.50500817661E+02 -0.18048726855E+02  0.34152474470E+02  0.63580505172E+02  0.00000000000E+00 0.  1.
         11    1    1    2    0    0 -0.61812983152E+02  0.18725906445E+02 -0.65094205727E+02  0.91699291587E+02  0.00000000000E+00 0. -1.
</event>
<event>
 7    1  0.2670433E-009  0.2193990E+03  0.7561462E-02  0.1134332E+00
          2   -1    0    0  501    0  0.00000000000E+00  0.00000000000E+00  0.22759022882E+04  0.22759022882E+04  0.00000000000E+00 0. -1.
         -2   -1    0    0    0  501 -0.00000000000E+00 -0.00000000000E+00 -0.48336411085E+02  0.48336411085E+02  0.00000000000E+00 0.  1.
         25    2    1    2    0    0 -0.15823569465E+03 -0.13734153117E+03  0.19451698481E+04  0.19604169497E+04  0.12509055694E+03 0.  0.
          5    1    3    3  502    0 -0.10041076073E+03 -0.62620154690E+02  0.57936565011E+03  0.59134223050E+03  0.41800000000E+01 0.  1.
         -5    1    3    3    0  502 -0.57824933924E+02 -0.74721376485E+02  0.13658041980E+04  0.13690747192E+04  0.41800000000E+01 0.  1.
        -11    1    1    2    0    0  0.13930780639E+03  0.70087541390E+02  0.22301329016E+03  0.27212838141E+03  0.00000000000E+00 0. -1.
         11    1    1    2    0    0  0.18927888263E+02  0.67253989785E+02  0.59382738871E+02  0.91693368200E+02  0.00000000000E+00 0.  1.
</event>
<event>
 7    1  0.2670433E-009  0.1315591E+03  0.7561462E-02  0.1225160E+00
         -1   -1    0    0    0  501 -0.00000000000E+00  0.00000000000E+00  0.10878736460E+03  0.10878736460E+03  0.00000000000E+00 0.  1.
          1   -1    0    0  501    0  0.00000000000E+00 -0.00000000000E+00 -0.18160149394E+03  0.18160149394E+03  0.00000000000E+00 0. -1.
         25    2    1    2    0    0  0.44200420854E+02  0.76444861901E+02 -0.28845674556E+02  0.15580090002E+03  0.12507738961E+03 0.  0.
          5    1    3    3  502    0  0.24922535097E+02  0.11071493665E+03 -0.20950285235E+02  0.11547864220E+03  0.41800000000E+01 0.  1.
         -5    1    3    3    0  502  0.19277885758E+02 -0.34270074753E+02 -0.78953893211E+01  0.40322257816E+02  0.41800000000E+01 0.  1.
        -11    1    1    2    0    0 -0.47330944605E+02 -0.86979916762E+02 -0.59527372325E+02  0.11553887784E+03  0.00000000000E+00 0. -1.
         11    1    1    2    0    0  0.31305237506E+01  0.10535054861E+02  0.15558917538E+02  0.19049080682E+02  0.00000000000E+00 0.  1.
</event>
<event>
 7    1  0.2670433E-009  0.1337691E+03  0.7561462E-02  0.1221968E+00
          4   -1    0    0  501    0  0.00000000000E+00  0.00000000000E+00  0.89057022879E+03  0.89057022879E+03  0.00000000000E+00 0. -1.
         -4   -1    0    0    0  501 -0.00000000000E+00 -0.00000000000E+00 -0.20174457432E+02  0.20174457432E+02  0.00000000000E+00 0.  1.
         25    2    1    2    0    0  0.39005782669E+02  0.68386816256E+02  0.47791748596E+03  0.50024874236E+03  0.12508186571E+03 0.  0.
          5    1    3    3  502    0  0.75265578535E+02  0.79455431817E+02  0.36347456904E+03  0.37961731744E+03  0.41800000000E+01 0.  1.
         -5    1    3    3    0  502 -0.36259795866E+02 -0.11068615561E+02  0.11444291692E+03  0.12063142492E+03  0.41800000000E+01 0.  1.
        -11    1    1    2    0    0 -0.45810791108E+02  0.50797849020E+01  0.16767804341E+03  0.17389755328E+03  0.00000000000E+00 0. -1.
         11    1    1    2    0    0  0.68050084386E+01 -0.73466601158E+02  0.22480024200E+03  0.23659839059E+03  0.00000000000E+00 0.  1.
</event>
<event>
 7    1  0.2670433E-009  0.8836207E+02  0.7561462E-02  0.1306867E+00
          2   -1    0    0  501    0  0.00000000000E+00  0.00000000000E+00  0.14306936167E+03  0.14306936167E+03  0.00000000000E+00 0. -1.
         -2   -1    0    0    0  501 -0.00000000000E+00 -0.00000000000E+00 -0.13629272508E+03  0.13629272508E+03  0.00000000000E+00 0.  1.
         25    2    1    2    0    0  0.65946644911E+02 -0.23225006425E+02  0.60295478696E+02  0.15547258844E+03  0.12509124712E+03 0.  0.
          5    1    3    3  502    0  0.70159901181E+02 -0.27166017246E+02  0.94312501723E+02  0.12071754060E+03  0.41800000000E+01 0.  1.
         -5    1    3    3    0  502 -0.42132562704E+01  0.39410108215E+01 -0.34017023027E+02  0.34755047839E+02  0.41800000000E+01 0.  1.
        -11    1    1    2    0    0 -0.61096812392E+02  0.42465897684E+02 -0.66816502003E+02  0.10000308940E+03  0.00000000000E+00 0.  1.
         11    1    1    2    0    0 -0.48498325186E+01 -0.19240891259E+02  0.13297659890E+02  0.23886408907E+02  0.00000000000E+00 0. -1.
</event>
<event>
 7    1  0.2670433E-009  0.1259481E+03  0.7561462E-02  0.1233595E+00
          2   -1    0    0  501    0  0.00000000000E+00  0.00000000000E+00  0.20411547893E+03  0.20411547893E+03  0.00000000000E+00 0.  1.
         -2   -1    0    0    0  501 -0.00000000000E+00 -0.00000000000E+00 -0.83027486900E+02  0.83027486900E+02  0.00000000000E+00 0. -1.
         25    2    1    2    0    0 -0.49203643956E+02 -0.48997659404E+02  0.89361652323E+02  0.16868639437E+03  0.12509126881E+03 0.  0.
          5    1    3    3  502    0 -0.60773488087E+02  0.25924898786E+02  0.32024124468E+02  0.73542737094E+02  0.41800000000E+01 0.  1.
         -5    1    3    3    0  502  0.11569844131E+02 -0.74922558190E+02  0.57337527855E+02  0.95143657274E+02  0.41800000000E+01 0.  1.
        -11    1    1    2    0    0  0.52196074746E+02 -0.78994598232E+01  0.31512051436E+02  0.61480412084E+02  0.00000000000E+00 0.  1.
         11    1    1    2    0    0 -0.29924307899E+01  0.56897119227E+02  0.21428827460E+00  0.56976159381E+02  0.00000000000E+00 0. -1.
</event>
<event>
 7    1  0.2670433E-009  0.1556292E+03  0.7561462E-02  0.1193722E+00
         -2   -1    0    0    0  501 -0.00000000000E+00  0.00000000000E+00  0.99240262914E+03  0.99240262914E+03  0.00000000000E+00 0.  1.
          2   -1    0    0  501    0  0.00000000000E+00 -0.00000000000E+00 -0.28096810097E+02  0.28096810097E+02  0.00000000000E+00 0. -1.
         25    2    1    2    0    0 -0.11924566119E+03  0.32607592107E+02  0.59029473518E+03  0.61593650118E+03  0.12508843405E+03 0.  0.
          5    1    3    3  502    0 -0.21357510485E+02  0.52707726966E+02  0.36514685138E+03  0.36957264944E+03  0.41800000000E+01 0.  1.
         -5    1    3    3    0  502 -0.97888150701E+02 -0.20100134860E+02  0.22514788379E+03  0.24636385174E+03  0.41800000000E+01 0.  1.
        -11    1    1    2    0    0  0.12767680614E+02  0.28656305882E+02  0.78243273400E+02  0.84298323634E+02  0.00000000000E+00 0.  1.
         11    1    1    2    0    0  0.10647798057E+03 -0.61263897989E+02  0.29576781046E+03  0.32026461442E+03  0.00000000000E+00 0. -1.
</event>
<event>
 7    1  0.2670433E-009  0.8163342E+02  0.7561462E-02  0.1324479E+00
         -2   -1    0    0    0  501 -0.00000000000E+00  0.00000000000E+00  0.33591726591E+02  0.33591726591E+02  0.00000000000E+00 0.  1.
          2   -1    0    0  501    0  0.00000000000E+00 -0.00000000000E+00 -0.53288724652E+03  0.53288724652E+03  0.00000000000E+00 0. -1.
         25    2    1    2    0    0  0.20547875310E+02  0.63364972678E+02 -0.19229557013E+03  0.23887739279E+03  0.12508991787E+03 0.  0.
          5    1    3    3  502    0  0.31567599486E+02  0.21438411513E+02  0.32650167618E+01  0.38525985516E+02  0.41800000000E+01 0. -1.
         -5    1    3    3    0  502 -0.11019724176E+02  0.41926561164E+02 -0.19556058689E+03  0.20035140727E+03  0.41800000000E+01 0. -1.
        -11    1    1    2    0    0  0.12710575292E+02 -0.40768419006E+01 -0.18889355062E+00  0.13349720780E+02  0.00000000000E+00 0.  1.
         11    1    1    2    0    0 -0.33258450602E+02 -0.59288130777E+02 -0.30681105625E+03  0.31425185954E+03  0.00000000000E+00 0. -1.
</event>
<event>
 7    1  0.2670433E-009  0.1134122E+03  0.7561462E-02  0.1254378E+00
          1   -1    0    0  501    0  0.00000000000E+00  0.00000000000E+00  0.21541414648E+03  0.21541414648E+03  0.00000000000E+00 0. -1.
         -1   -1    0    0    0  501 -0.00000000000E+00 -0.00000000000E+00 -0.11492649564E+03  0.11492649564E+03  0.00000000000E+00 0.  1.
         25    2    1    2    0    0 -0.65539554514E+02  0.16423051960E+02  0.14722701603E+03  0.20466528557E+03  0.12508770934E+03 0.  0.
          5    1    3    3  502    0 -0.91495036556E+02  0.36940653212E+02  0.13865758613E+03  0.17023322873E+03  0.41800000000E+01 0. -1.
         -5    1    3    3    0  502  0.25955482042E+02 -0.20517601252E+02  0.85694299007E+01  0.34432056837E+02  0.41800000000E+01 0. -1.
        -11    1    1    2    0    0  0.82776407380E+01  0.23497288233E+02 -0.49928603574E+02  0.55798811325E+02  0.00000000000E+00 0.  1.
         11    1    1    2    0    0  0.57261913776E+02 -0.39920340193E+02  0.31892383876E+01  0.69876545220E+02  0.00000000000E+00 0. -1.
</event>
<event>
 7    1  0.2670433E-009  0.9229449E+02  0.7561462E-02  0.1297388E+00
          2   -1    0    0  501    0  0.00000000000E+00  0.00000000000E+00  0.81139206064E+02  0.81139206064E+02  0.00000000000E+00 0. -1.
         -2   -1    0    0    0  501 -0.00000000000E+00 -0.00000000000E+00 -0.19242302077E+03  0.19242302077E+03  0.00000000000E+00 0.  1.
         25    2    1    2    0    0  0.37013047608E+02  0.23651094397E+02 -0.13986528268E+02  0.13331086659E+03  0.12508726642E+03 0.  0.
          5    1    3    3  502    0 -0.42061697224E+02  0.27087397077E+02  0.85118020024E+01  0.50919904037E+02  0.41800000000E+01 0.  1.
         -5    1    3    3    0  502  0.79074744832E+02 -0.34363026797E+01 -0.22498330270E+02  0.82390962558E+02  0.41800000000E+01 0.  1.
        -11    1    1    2    0    0 -0.36344002347E+02 -0.52600696855E+01 -0.11125168676E+03  0.11715584768E+03  0.00000000000E+00 0.  1.
         11    1    1    2    0    0 -0.66904526051E+00 -0.18391024711E+02  0.13954400326E+02  0.23095512550E+02  0.00000000000E+00 0. -1.
</event>
<event>
 7    1  0.2670433E-009  0.1175201E+03  0.7561462E-02  0.1247245E+00
         -1   -1    0    0    0  501 -0.00000000000E+00  0.00000000000E+00  0.33332664874E+02  0.33332664874E+02  0.00000000000E+00 0.  1.
          1   -1    0    0  501    0  0.00000000000E+00 -0.00000000000E+00 -0.45503937991E+03  0.45503937991E+03  0.00000000000E+00 0. -1.
         25    2    1    2    0    0 -0.49724679016E+02  0.17019239470E+02 -0.18684833253E+03  0.23091524994E+03  0.12508938832E+03 0.  0.
          5    1    3    3  502    0  0.53018834992E+01 -0.46997015993E+02 -0.94317112225E+02  0.10559365293E+03  0.41800000000E+01 0. -1.
         -5    1    3    3    0  502 -0.55026562516E+02  0.64016255463E+02 -0.92531220309E+02  0.12532159701E+03  0.41800000000E+01 0. -1.
        -11    1    1    2    0    0  0.14752656984E+02 -0.51715364949E+02 -0.14982084657E+03  0.15918041942E+03  0.00000000000E+00 0. -1.
         11    1    1    2    0    0  0.34972022032E+02  0.34696125479E+02 -0.85037535929E+02  0.98276375417E+02  0.00000000000E+00 0.  1.
</event>
<event>
 7    1  0.2670433E-009  0.1604562E+03  0.7561462E-02  0.1188183E+00
         -1   -1    0    0    0  501 -0.00000000000E+00  0.00000000000E+00  0.13901740455E+02  0.13901740455E+02  0.00000000000E+00 0.  1.
          1   -1    0    0  501    0  0.00000000000E+00 -0.00000000000E+00 -0.23808539052E+04  0.23808539052E+04  0.00000000000E+00 0. -1.
         25    2    1    2    0    0 -0.12329714495E+03  0.37473837403E+02 -0.16931596331E+04  0.17026573346E+04  0.12508389743E+03 0.  0.
          5    1    3    3  502    0 -0.69144772127E+01  0.50735761152E+02 -0.82824644724E+03  0.82983828378E+03  0.41800000000E+01 0. -1.
         -5    1    3    3    0  502 -0.11638266774E+03 -0.13261923749E+02 -0.86491318585E+03  0.87281905079E+03  0.41800000000E+01 0. -1.
        -11    1    1    2    0    0  0.75085933587E+02  0.19613788232E+02 -0.43565215244E+03  0.44251033439E+03  0.00000000000E+00 0.  1.
         11    1    1    2    0    0  0.48211211363E+02 -0.57087625635E+02 -0.23814037924E+03  0.24958797673E+03  0.00000000000E+00 0. -1.
</event>
<event>
 7    1  0.2670433E-009  0.2901500E+03  0.7561462E-02  0.1090271E+00
         -2   -1    0    0    0  501 -0.00000000000E+00  0.00000000000E+00  0.10855186000E+04  0.10855186000E+04  0.00000000000E+00 0.  1.
          2   -1    0    0  501    0  0.00000000000E+00 -0.00000000000E+00 -0.88665152064E+02  0.88665152064E+02  0.00000000000E+00 0. -1.
         25    2    1    2    0    0  0.21126330897E+03 -0.19561796582E+03  0.57683776246E+03  0.65672537472E+03  0.12509132400E+03 0.  0.
          5    1    3    3  502    0  0.39419488734E+02 -0.34605545150E+02  0.28270382012E+02  0.59733799027E+02  0.41800000000E+01 0.  1.
         -5    1    3    3    0  502  0.17184382023E+03 -0.16101242067E+03  0.54856738044E+03  0.59699157569E+03  0.41800000000E+01 0.  1.
        -11    1    1    2    0    0 -0.14286743652E+03  0.16181729761E+03  0.24494964563E+03  0.32649084385E+03  0.00000000000E+00 0.  1.
         11    1    1    2    0    0 -0.68395872449E+02  0.33800668216E+02  0.17506603986E+03  0.19096753350E+03  0.00000000000E+00 0. -1.
</event>
<event>
 7    1  0.2670433E-009  0.8542499E+02  0.7561462E-02  0.1314325E+00
          4   -1    0    0  501    0  0.00000000000E+00  0.00000000000E+00  0.11179798562E+03  0.11179798562E+03  0.00000000000E+00 0. -1.
         -4   -1    0    0    0  501 -0.00000000000E+00 -0.00000000000E+00 -0.10104477987E+03  0.10104477987E+03  0.00000000000E+00 0.  1.
         25    2    1    2    0    0  0.32994297827E+01  0.11427969690E+02  0.11525792540E+02  0.12618103608E+03  0.12508926911E+03 0.  0.
          5    1    3    3  502    0 -0.29894051414E+02  0.36516891387E+02 -0.38450571676E+02  0.61016854464E+02  0.41800000000E+01 0.  1.
         -5    1    3    3    0  502  0.33193481197E+02 -0.25088921697E+02  0.49976364216E+02  0.65164181619E+02  0.41800000000E+01 0.  1.
        -11    1    1    2    0    0  0.15661910847E+02  0.31249536689E+02 -0.14713565617E+02  0.37925163254E+02  0.00000000000E+00 0.  1.
         11    1    1    2    0    0 -0.18961340629E+02 -0.42677506379E+02  0.13940978829E+02  0.48736566148E+02  0.00000000000E+00 0. -1.
</event>
<event>
 7    1  0.2670433E-009  0.1445389E+03  0.7561462E-02  0.1207349E+00
          1   -1    0    0  501    0  0.00000000000E+00  0.00000000000E+00  0.82767826285E+02  0.82767826285E+02  0.00000000000E+00 0. -1.
         -1   -1    0    0    0  501 -0.00000000000E+00 -0.00000000000E+00 -0.27722020785E+03  0.27722020785E+03  0.00000000000E+00 0.  1.
         25    2    1    2    0    0 -0.10135151901E+03  0.69080520356E+01 -0.66526111880E+02  0.17433214236E+03  0.12508445432E+03 0.  0.
          5    1    3    3  502    0 -0.19222967701E+02  0.55621125291E+02 -0.49997787114E+02  0.77333583793E+02  0.41800000000E+01 0.  1.
         -5    1    3    3    0  502 -0.82128551304E+02 -0.48713073256E+02 -0.16528324766E+02  0.96998558571E+02  0.41800000000E+01 0.  1.
        -11    1    1    2    0    0 -0.87571131686E+01 -0.21702004685E+02 -0.20425658157E+02  0.31062381582E+02  0.00000000000E+00 0.  1.
         11    1    1    2    0    0  0.11010863217E+03  0.14793952649E+02 -0.10750061153E+03  0.15459351019E+03  0.00000000000E+00 0. -1.
</event>
<event>
 7    1  0.3285474E-009  0.1676211E+03  0.7561462E-02  0.1180352E+00
          2   -1    0    0  501    0  0.00000000000E+00  0.00000000000E+00  0.46081727783E+02  0.46081727783E+02  0.00000000000E+00 0. -1.
         -2   -1    0    0    0  501 -0.00000000000E+00 -0.00000000000E+00 -0.89543039566E+03  0.89543039566E+03  0.00000000000E+00 0.  1.
         25    2    1    2    0    0 -0.14188437822E+03  0.67808221883E+02 -0.59975523197E+03  0.63252075293E+03  0.12508810047E+03 0.  0.
          5    1    3    3  502    0 -0.71356394188E+02  0.44698655026E+02 -0.50549212886E+03  0.51247387201E+03  0.41800000000E+01 0.  1.
         -5    1    3    3    0  502 -0.70527984031E+02  0.23109566858E+02 -0.94263103111E+02  0.12004688093E+03  0.41800000000E+01 0.  1.
        -11    1    1    2    0    0  0.78139519162E+02 -0.79859695665E+02 -0.19248564265E+03  0.22256252621E+03  0.00000000000E+00 0.  1.
         11    1    1    2    0    0  0.63744859057E+02  0.12051473782E+02 -0.57107793262E+02  0.86428844304E+02  0.00000000000E+00 0. -1.
</event>
<event>
 7    1  0.2670433E-009  0.8932612E+02  0.7561462E-02  0.1304492E+00
          2   -1    0    0  501    0  0.00000000000E+00  0.00000000000E+00  0.92515001136E+03  0.92515001136E+03  0.00000000000E+00 0.  1.
         -2   -1    0    0    0  501 -0.00000000000E+00 -0.00000000000E+00 -0.14895512239E+02  0.14895512239E+02  0.00000000000E+00 0. -1.
         25    2    1    2    0    0 -0.23897397321E+01 -0.46536543646E+02  0.54867196569E+03  0.56467481357E+03  0.12508140709E+03 0.  0.
          5    1    3    3  502    0 -0.14393831096E+02 -0.62595374854E+02  0.12582468983E+03  0.14133183753E+03  0.41800000000E+01 0. -1.
         -5    1    3    3    0  502  0.12004091364E+02  0.16058831207E+02  0.42284727586E+03  0.42334297605E+03  0.41800000000E+01 0. -1.
        -11    1    1    2    0    0  0.41607155930E+02  0.29743149632E+02  0.26340878787E+03  0.26832815711E+03  0.00000000000E+00 0.  1.
         11    1    1    2    0    0 -0.39217416198E+02  0.16793394015E+02  0.98173745560E+02  0.10704255291E+03  0.00000000000E+00 0. -1.
</event>
<event>
 7    1  0.2670433E-009  0.1080487E+03  0.7561462E-02  0.1264227E+00
          1   -1    0    0  501    0  0.00000000000E+00  0.00000000000E+00  0.26085163261E+02  0.26085163261E+02  0.00000000000E+00 0. -1.
         -1   -1    0    0    0  501 -0.00000000000E+00 -0.00000000000E+00 -0.57178600777E+03  0.57178600777E+03  0.00000000000E+00 0.  1.
         25    2    1    2    0    0 -0.21429658610E+02  0.12795008786E+02 -0.18407925014E+03  0.22395456271E+03  0.12509010075E+03 0.  0.
          5    1    3    3  502    0  0.29438184012E+02  0.54205232219E+02 -0.88155662119E+02  0.10767407785E+03  0.41800000000E+01 0.  1.
         -5    1    3    3    0  502 -0.50867842622E+02 -0.41410223434E+02 -0.95923588026E+02  0.11628048485E+03  0.41800000000E+01 0.  1.
        -11    1    1    2    0    0  0.23462386072E+02  0.34218717756E+02 -0.10288785028E+03  0.11093833396E+03  0.00000000000E+00 0.  1.
         11    1    1    2    0    0 -0.20327274619E+01 -0.47013726541E+02 -0.25873374408E+03  0.26297827436E+03  0.00000000000E+00 0. -1.
</event>
<event>
 7    1  0.2670433E-009  0.9192682E+02  0.7561462E-02  0.1298252E+00
          3   -1    0    0  501    0  0.00000000000E+00  0.00000000000E+00  0.20485158616E+03  0.20485158616E+03  0.00000000000E+00 0. -1.
         -3   -1    0    0    0  501 -0.00000000000E+00 -0.00000000000E+00 -0.83866110232E+02  0.83866110232E+02  0.00000000000E+00 0.  1.
         25    2    1    2    0    0 -0.48904003486E+02  0.46230459426E+02  0.34651256231E+02  0.14620934291E+03  0.12509038915E+03 0.  0.
          5    1    3    3  502    0 -0.59942759660E+02 -0.32808893711E+01 -0.27257577917E+02  0.66063201744E+02  0.41800000000E+01 0. -1.
         -5    1    3    3    0  502  0.11038756174E+02  0.49511348797E+02  0.61908834148E+02  0.80146141162E+02  0.41800000000E+01 0. -1.
        -11    1    1    2    0    0  0.21996979905E+02 -0.39226602353E+02 -0.66445863460E+01  0.45461456035E+02  0.00000000000E+00 0.  1.
         11    1    1    2    0    0  0.26907023580E+02 -0.70038570733E+01  0.92978806040E+02  0.97046897449E+02  0.00000000000E+00 0. -1.
</event>
<event>
 7    1  0.2670433E-009  0.1043682E+03  0.7561462E-02  0.1271369E+00
         -3   -1    0    0    0  501 -0.00000000000E+00  0.00000000000E+00  0.21797710569E+02  0.21797710569E+02  0.00000000000E+00 0.  1.
          3   -1    0    0  501    0  0.00000000000E+00 -0.00000000000E+00 -0.86541090614E+03  0.86541090614E+03  0.00000000000E+00 0. -1.
         25    2    1    2    0    0  0.71140422970E+02  0.45194062155E+02 -0.42967268556E+03  0.45538007468E+03  0.12509569402E+03 0.  0.
          5    1    3    3  502    0  0.64300656007E+02  0.51551437469E+02 -0.12055309597E+03  0.14609122635E+03  0.41800000000E+01 0. -1.
         -5    1    3    3    0  502  0.68397669627E+01 -0.63573753135E+01 -0.30911958959E+03  0.30928884833E+03  0.41800000000E+01 0. -1.
        -11    1    1    2    0    0 -0.45746985494E+01 -0.49092834769E+02 -0.25055743054E+03  0.25536260551E+03  0.00000000000E+00 0. -1.
         11    1    1    2    0    0 -0.66565724421E+02  0.38987726132E+01 -0.16338307947E+03  0.17646593652E+03  0.00000000000E+00 0.  1.
</event>
<event>
 7    1  0.2670433E-009  0.1065168E+03  0.7561462E-02  0.1267160E+00
         -2   -1    0    0    0  501 -0.00000000000E+00  0.00000000000E+00  0.42108153655E+02  0.42108153655E+02  0.00000000000E+00 0.  1.
          2   -1    0    0  501    0  0.00000000000E+00 -0.00000000000E+00 -0.41576201393E+03  0.41576201393E+03  0.00000000000E+00 0. -1.
         25    2    1    2    0    0  0.17484004137E+02 -0.32865800793E+02 -0.32238703032E+03  0.34780363469E+03  0.12509244472E+03 0.  0.
          5    1    3    3  502    0  0.33559656422E+02  0.41857948229E+02 -0.14146123247E+03  0.15135088721E+03  0.41800000000E+01 0. -1.
         -5    1    3    3    0  502 -0.16075652285E+02 -0.74723749023E+02 -0.18092579785E+03  0.19645274748E+03  0.41800000000E+01 0. -1.
        -11    1    1    2    0    0 -0.44238298176E+02  0.58014160630E+01 -0.56128124173E+02  0.71701114197E+02  0.00000000000E+00 0. -1.
         11    1    1    2    0    0  0.26754294039E+02  0.27064384730E+02  0.48612942135E+01  0.38365418697E+02  0.00000000000E+00 0.  1.
</event>
<event>
 7    1  0.2905097E-009  0.1094073E+03  0.7561462E-02  0.1261671E+00
          1   -1    0    0  501    0  0.00000000000E+00  0.00000000000E+00  0.19075552789E+04  0.19075552789E+04  0.00000000000E+00 0. -1.
         -1   -1    0    0    0  501 -0.00000000000E+00 -0.00000000000E+00 -0.12489147310E+02  0.12489147310E+02  0.00000000000E+00 0.  1.
         25    2    1    2    0    0 -0.52071903932E+02 -0.73478955070E+02  0.14038873681E+04  0.14123235025E+04  0.12508914129E+03 0.  0.
          5    1    3    3  502    0 -0.57256269881E+02 -0.39323819600E+02  0.30305347348E+03  0.31093974242E+03  0.41800000000E+01 0.  1.
         -5    1    3    3    0  502  0.51843659486E+01 -0.34155135470E+02  0.11008338947E+04  0.11013837601E+04  0.41800000000E+01 0.  1.
        -11    1    1    2    0    0  0.32291733364E+02 -0.57242949566E+01  0.55544777671E+02  0.64503844250E+02  0.00000000000E+00 0.  1.
         11    1    1    2    0    0  0.19780170568E+02  0.79203250027E+02  0.43563398581E+03  0.44321707949E+03  0.00000000000E+00 0. -1.
</event>
<event>
 7    1  0.2670433E-009  0.2144236E+03  0.7561462E-02  0.1138110E+00
         -2   -1    0    0    0  501 -0.00000000000E+00  0.00000000000E+00  0.50953680513E+02  0.50953680513E+02  0.00000000000E+00 0.  1.
          2   -1    0    0  501    0  0.00000000000E+00 -0.00000000000E+00 -0.10738575360E+04  0.10738575360E+04  0.00000000000E+00 0. -1.
         25    2    1    2    0    0 -0.16644068139E+03  0.11896477102E+03 -0.60246816303E+03  0.64843739867E+03  0.12509218748E+03 0.  0.
          5    1    3    3  502    0 -0.67331403803E+02  0.70842152837E+01 -0.79460221162E+02  0.10447537122E+03  0.41800000000E+01 0. -1.
         -5    1    3    3    0  502 -0.99109277585E+02  0.11188055573E+03 -0.52300794187E+03  0.54396202745E+03  0.41800000000E+01 0. -1.
        -11    1    1    2    0    0  0.15141036570E+03 -0.83352536975E+02 -0.26635153089E+03  0.31751516857E+03  0.00000000000E+00 0.  1.
         11    1    1    2    0    0  0.15030315689E+02 -0.35612234043E+02 -0.15408416155E+03  0.15885864926E+03  0.00000000000E+00 0. -1.
</event>
<event>
 7    1  0.2670433E-009  0.3291755E+03  0.7561462E-02  0.1071502E+00
         -2   -1    0    0    0  501 -0.00000000000E+00  0.00000000000E+00  0.24317881731E+03  0.24317881731E+03  0.00000000000E+00 0.  1.
          2   -1    0    0  501    0  0.00000000000E+00 -0.00000000000E+00 -0.46454591638E+03  0.46454591638E+03  0.00000000000E+00 0. -1.
         25    2    1    2    0    0 -0.26125905842E+03 -0.18207671986E+03 -0.12154682683E+03  0.36308253339E+03  0.12508823852E+03 0.  0.
          5    1    3    3  502    0 -0.25804140933E+03 -0.13296105142E+03 -0.87951604920E+02  0.30334298629E+03  0.41800000000E+01 0.  1.
         -5    1    3    3    0  502 -0.32176490905E+01 -0.49115668441E+02 -0.33595221915E+02  0.59739547099E+02  0.41800000000E+01 0.  1.
        -11    1    1    2    0    0  0.12065288290E+03  0.90844911331E+02 -0.92010254527E+02  0.17684966215E+03  0.00000000000E+00 0.  1.
         11    1    1    2    0    0  0.14060617552E+03  0.91231808530E+02 -0.78100177065E+01  0.16779253815E+03  0.00000000000E+00 0. -1.
</event>
<event>
 7    1  0.2670433E-009  0.1773237E+03  0.7561462E-02  0.1170419E+00
          1   -1    0    0  501    0  0.00000000000E+00  0.00000000000E+00  0.84853749069E+03  0.84853749069E+03  0.00000000000E+00 0. -1.
         -1   -1    0    0    0  501 -0.00000000000E+00 -0.00000000000E+00 -0.75387814465E+02  0.75387814465E+02  0.00000000000E+00 0.  1.
         25    2    1    2    0    0  0.69906350129E+02  0.15936345393E+03  0.12934520204E+03  0.25032305729E+03  0.12509134056E+03 0.  0.
          5    1    3    3  502    0  0.53827443123E+02  0.69367925156E+02 -0.46876940195E+01  0.88026981936E+02  0.41800000000E+01 0. -1.
         -5    1    3    3    0  502  0.16078907007E+02  0.89995528775E+02  0.13403289606E+03  0.16229607536E+03  0.41800000000E+01 0. -1.
        -11    1    1    2    0    0 -0.67512772265E+02 -0.13693579377E+03  0.62740915615E+03  0.64571792236E+03  0.00000000000E+00 0. -1.
         11    1    1    2    0    0 -0.23935778641E+01 -0.22427660160E+02  0.16395318029E+02  0.27884325498E+02  0.00000000000E+00 0.  1.
</event>
<event>
 7    1  0.2670433E-009  0.1290655E+03  0.7561462E-02  0.1228849E+00
         -2   -1    0    0    0  501 -0.00000000000E+00  0.00000000000E+00  0.50996657971E+02  0.50996657971E+02  0.00000000000E+00 0.  1.
          2   -1    0    0  501    0  0.00000000000E+00 -0.00000000000E+00 -0.49727335664E+03  0.49727335664E+03  0.00000000000E+00 0. -1.
         25    2    1    2    0    0  0.17114585916E+02 -0.10600150323E+03 -0.31713590809E+03  0.35742415933E+03  0.12509043823E+03 0.  0.
          5    1    3    3  502    0  0.58304354858E+01  0.33091606773E+01 -0.18648188059E+03  0.18664915941E+03  0.41800000000E+01 0. -1.
         -5    1    3    3    0  502  0.11284150430E+02 -0.10931066390E+03 -0.13065402750E+03  0.17077499992E+03  0.41800000000E+01 0. -1.
        -11    1    1    2    0    0  0.32551338648E+02  0.13443599607E+02 -0.27540324155E+02  0.44707823395E+02  0.00000000000E+00 0.  1.
         11    1    1    2    0    0 -0.49665924564E+02  0.92557903620E+02 -0.10160046642E+03  0.14613803188E+03  0.00000000000E+00 0. -1.
</event>
<event>
 7    1  0.2670433E-009  0.1110090E+03  0.7561462E-02  0.1258713E+00
          2   -1    0    0  501    0  0.00000000000E+00  0.00000000000E+00  0.27553375973E+03  0.27553375973E+03  0.00000000000E+00 0.  1.
         -2   -1    0    0    0  501 -0.00000000000E+00 -0.00000000000E+00 -0.44868584597E+02  0.44868584597E+02  0.00000000000E+00 0. -1.
         25    2    1    2    0    0 -0.85017368436E+01 -0.35626851629E+02  0.12818913057E+03  0.18281668009E+03  0.12509169932E+03 0.  0.
          5    1    3    3  502    0  0.53354513191E+02 -0.41952835582E+02  0.68599951886E+02  0.96592806616E+02  0.41800000000E+01 0.  1.
         -5    1    3    3    0  502 -0.61856250035E+02  0.63259839539E+01  0.59589178684E+02  0.86223873479E+02  0.41800000000E+01 0.  1.
        -11    1    1    2    0    0  0.43057709142E+02  0.37489070210E+02  0.60515672218E+02  0.83195812910E+02  0.00000000000E+00 0.  1.
         11    1    1    2    0    0 -0.34555972298E+02 -0.18622185811E+01  0.41960372345E+02  0.54389851322E+02  0.00000000000E+00 0. -1.
</event>
<event>
 7    1  0.2670433E-009  0.1190611E+03  0.7561462E-02  0.1244654E+00
         -2   -1    0    0    0  501 -0.00000000000E+00  0.00000000000E+00  0.10157920132E+03  0.10157920132E+03  0.00000000000E+00 0.  1.
          2   -1    0    0  501    0  0.00000000000E+00 -0.00000000000E+00 -0.25908579392E+03  0.25908579392E+03  0.00000000000E+00 0. -1.
         25    2    1    2    0    0 -0.32305319210E+02 -0.84262056564E+02  0.17963191940E+01  0.15425505123E+03  0.12509063211E+03 0.  0.
          5    1    3    3  502    0  0.30475057078E+02 -0.75448743333E+02 -0.25108706461E+02  0.85259377869E+02  0.41800000000E+01 0. -1.
         -5    1    3    3    0  502 -0.62780376288E+02 -0.88133132313E+01  0.26905025655E+02  0.68995673360E+02  0.41800000000E+01 0. -1.
        -11    1    1    2    0    0  0.27955293335E+02  0.40961523216E+02 -0.96032625233E+01  0.50513042481E+02  0.00000000000E+00 0.  1.
         11    1    1    2    0    0  0.43500258752E+01  0.43300533349E+02 -0.14969964927E+03  0.15589690152E+03  0.00000000000E+00 0. -1.
</event>
<event>
 7    1  0.2670433E-009  0.1535921E+03  0.7561462E-02  0.1196127E+00
         -1   -1    0    0    0  501 -0.00000000000E+00  0.00000000000E+00  0.11288081320E+03  0.11288081320E+03  0.00000000000E+00 0.  1.
          1   -1    0    0  501    0  0.00000000000E+00 -0.00000000000E+00 -0.28295609188E+03  0.28295609188E+03  0.00000000000E+00 0. -1.
         25    2    1    2    0    0  0.12272300354E+03  0.40354606040E+02 -0.15536207358E+03  0.23764381593E+03  0.12509108489E+03 0.  0.
          5    1    3    3  502    0  0.11692182601E+03 -0.17462984014E+02 -0.81864312293E+02  0.14385724603E+03  0.41800000000E+01 0. -1.
         -5    1    3    3    0  502  0.58011775284E+01  0.57817590054E+02 -0.73497761285E+02  0.93786569904E+02  0.41800000000E+01 0. -1.
        -11    1    1    2    0    0 -0.68648006847E+02 -0.32634353479E+02 -0.51965819298E+02  0.92076035136E+02  0.00000000000E+00 0. -1.
         11    1    1    2    0    0 -0.54074996693E+02 -0.77202525614E+01  0.37252614196E+02  0.66117054013E+02  0.00000000000E+00 0.  1.
</event>
<event>
 7    1  0.2670433E-009  0.3605372E+03  0.7561462E-02  0.1058371E+00
          1   -1    0    0  501    0  0.00000000000E+00  0.00000000000E+00  0.10023813194E+04  0.10023813194E+04  0.00000000000E+00 0. -1.
         -1   -1    0    0    0  501 -0.00000000000E+00 -0.00000000000E+00 -0.13489126054E+03  0.13489126054E+03  0.00000000000E+00 0.  1.
         25    2    1    2    0    0  0.98714970876E+02 -0.33175402450E+03  0.36556703493E+03  0.51874220282E+03  0.12509531447E+03 0.  0.
          5    1    3    3  502    0  0.91126170947E+02 -0.10530303681E+03  0.16658035930E+03  0.21716168423E+03  0.41800000000E+01 0. -1.
         -5    1    3    3    0  502  0.75887999295E+01 -0.22645098769E+03  0.19898667564E+03  0.30158051859E+03  0.41800000000E+01 0. -1.
        -11    1    1    2    0    0 -0.38562352351E+02  0.25359885604E+03  0.41047273958E+03  0.48403233853E+03  0.00000000000E+00 0.  1.
         11    1    1    2    0    0 -0.60152618525E+02  0.78155168465E+02  0.91450284310E+02  0.13449803855E+03  0.00000000000E+00 0. -1.
</event>
<event>
 7    1  0.2670433E-009  0.1075723E+03  0.7561462E-02  0.1265133E+00
         -3   -1    0    0    0  501 -0.00000000000E+00  0.00000000000E+00  0.44658314906E+03  0.44658314906E+03  0.00000000000E+00 0.  1.
          3   -1    0    0  501    0  0.00000000000E+00 -0.00000000000E+00 -0.29321205454E+02  0.29321205454E+02  0.00000000000E+00 0. -1.
         25    2    1    2    0    0  0.24390928586E+02 -0.27747046049E+02  0.25362677799E+03  0.28519736018E+03  0.12508467443E+03 0.  0.
          5    1    3    3  502    0 -0.43078466879E+02 -0.24034284242E+02  0.17285888493E+03  0.17980841923E+03  0.41800000000E+01 0.  1.
         -5    1    3    3    0  502  0.67469395464E+02 -0.37127618074E+01  0.80767893066E+02  0.10538894095E+03  0.41800000000E+01 0.  1.
        -11    1    1    2    0    0  0.31694875543E+02 -0.63161913513E+01  0.54874956355E+02  0.63684536929E+02  0.00000000000E+00 0. -1.
         11    1    1    2    0    0 -0.56085804128E+02  0.34063237401E+02  0.10876020926E+03  0.12702245740E+03  0.00000000000E+00 0.  1.
</event>
<event>
 7    1  0.2670433E-009  0.9708415E+02  0.7561462E-02  0.1286550E+00
         -2   -1    0    0    0  501 -0.00000000000E+00  0.00000000000E+00  0.21661745029E+03  0.21661745029E+03  0.00000000000E+00 0.  1.
          2   -1    0    0  501    0  0.00000000000E+00 -0.00000000000E+00 -0.65816348274E+02  0.65816348274E+02  0.00000000000E+00 0. -1.
         25    2    1    2    0    0 -0.50207254382E+02 -0.22601032250E+02  0.88323170886E+02  0.16272252396E+03  0.12508422058E+03 0.  0.
          5    1    3    3  502    0 -0.27870583574E+02 -0.74688953879E+02  0.50728859038E+02  0.94583818910E+02  0.41800000000E+01 0. -1.
         -5    1    3    3    0  502 -0.22336670808E+02  0.52087921629E+02  0.37594311849E+02  0.68138705050E+02  0.41800000000E+01 0. -1.
        -11    1    1    2    0    0  0.16199807637E+02  0.16191062698E+02  0.78357027162E+02  0.81635825374E+02  0.00000000000E+00 0.  1.
         11    1    1    2    0    0  0.34007446745E+02  0.64099695519E+01 -0.15879096029E+02  0.38075449235E+02  0.00000000000E+00 0. -1.
</event>
<event>
 7    1  0.2670433E-009  0.1940167E+03  0.7561462E-02  0.1154888E+00
          2   -1    0    0  501    0  0.00000000000E+00  0.00000000000E+00  0.13953801279E+04  0.13953801279E+04  0.00000000000E+00 0. -1.
         -2   -1    0    0    0  501 -0.00000000000E+00 -0.00000000000E+00 -0.35787061236E+02  0.35787061236E+02  0.00000000000E+00 0.  1.
         25    2    1    2    0    0 -0.46991648959E+01  0.17956852018E+03  0.47594721676E+03  0.52386967779E+03  0.12508697206E+03 0.  0.
          5    1    3    3  502    0  0.11795240946E+02  0.14370795965E+03  0.20876172690E+03  0.25375191900E+03  0.41800000000E+01 0. -1.
         -5    1    3    3    0  502 -0.16494405842E+02  0.35860560530E+02  0.26718548986E+03  0.27011775880E+03  0.41800000000E+01 0. -1.
        -11    1    1    2    0    0 -0.34056062016E+02 -0.19182681209E+02  0.22012838636E+03  0.22357168224E+03  0.00000000000E+00 0. -1.
         11    1    1    2    0    0  0.38755226912E+02 -0.16038583897E+03  0.66351746350E+03  0.68372582906E+03  0.00000000000E+00 0.  1.
</event>
<event>
 7    1  0.2670433E-009  0.1402254E+03  0.7561462E-02  0.1213026E+00
          2   -1    0    0  501    0  0.00000000000E+00  0.00000000000E+00  0.54755943058E+02  0.54755943058E+02  0.00000000000E+00 0. -1.
         -2   -1    0    0    0  501 -0.00000000000E+00 -0.00000000000E+00 -0.53133382171E+03  0.53133382171E+03  0.00000000000E+00 0.  1.
         25    2    1    2    0    0 -0.36320877479E+02  0.92642211696E+02 -0.10608559749E+03  0.19184303421E+03  0.12509120773E+03 0.  0.
          5    1    3    3  502    0 -0.69239509047E+02  0.90157664576E+02 -0.11011974806E+03  0.15832354660E+03  0.41800000000E+01 0.  1.
         -5    1    3    3    0  502  0.32918631568E+02  0.24845471199E+01  0.40341505745E+01  0.33519487609E+02  0.41800000000E+01 0.  1.
        -11    1    1    2    0    0 -0.11383986160E+02 -0.84210709711E+02 -0.20806160887E+03  0.22474579386E+03  0.00000000000E+00 0.  1.
         11    1    1    2    0    0  0.47704863638E+02 -0.84315019848E+01 -0.16243067229E+03  0.16950093670E+03  0.00000000000E+00 0. -1.
</event>
<event>
 7    1  0.2670433E-009  0.1014958E+03  0.7561462E-02  0.1277182E+00
         -2   -1    0    0    0  501 -0.00000000000E+00  0.00000000000E+00  0.26890403814E+02  0.26890403814E+02  0.00000000000E+00 0.  1.
          2   -1    0    0  501    0  0.00000000000E+00 -0.00000000000E+00 -0.69658643564E+03  0.69658643564E+03  0.00000000000E+00 0. -1.
         25    2    1    2    0    0  0.48716405904E+02 -0.53615290277E+01 -0.46744485740E+03  0.48636804863E+03  0.12508856792E+03 0.  0.
          5    1    3    3  502    0 -0.12268306910E+02 -0.22591032532E+02 -0.36436059004E+03  0.36529026551E+03  0.41800000000E+01 0.  1.
         -5    1    3    3    0  502  0.60984712814E+02  0.17229503504E+02 -0.10308426737E+03  0.12107778312E+03  0.41800000000E+01 0.  1.
        -11    1    1    2    0    0 -0.64937469812E+02  0.39242064668E+02 -0.17488246812E+03  0.19063234846E+03  0.00000000000E+00 0. -1.
         11    1    1    2    0    0  0.16221063908E+02 -0.33880535640E+02 -0.27368706311E+02  0.46476442363E+02  0.00000000000E+00 0.  1.
</event>
<event>
 7    1  0.2670433E-009  0.1076512E+03  0.7561462E-02  0.1264982E+00
         -2   -1    0    0    0  501 -0.00000000000E+00  0.00000000000E+00  0.27663648350E+02  0.27663648350E+02  0.00000000000E+00 0.  1.
          2   -1    0    0  501    0  0.00000000000E+00 -0.00000000000E+00 -0.93245617178E+03  0.93245617178E+03  0.00000000000E+00 0. -1.
         25    2    1    2    0    0  0.25230580824E+02  0.60474790459E+02 -0.78492392842E+03  0.79752479191E+03  0.12508572186E+03 0.  0.
          5    1    3    3  502    0  0.34873803135E+02  0.94499411473E+02 -0.65882573911E+03  0.66649467201E+03  0.41800000000E+01 0.  1.
         -5    1    3    3    0  502 -0.96432223114E+01 -0.34024621014E+02 -0.12609818932E+03  0.13103011990E+03  0.41800000000E+01 0.  1.
        -11    1    1    2    0    0  0.12242747779E+02 -0.89511822936E+01 -0.91683106935E+02  0.92929008576E+02  0.00000000000E+00 0. -1.
         11    1    1    2    0    0 -0.37473328603E+02 -0.51523608165E+02 -0.28185488072E+02  0.69666019643E+02  0.00000000000E+00 0.  1.
</event>
<event>
 7    1  0.2670433E-009  0.1733753E+03  0.7561462E-02  0.1174373E+00
          2   -1    0    0  501    0  0.00000000000E+00  0.00000000000E+00  0.21567653611E+03  0.21567653611E+03  0.00000000000E+00 0. -1.
         -2   -1    0    0    0  501 -0.00000000000E+00 -0.00000000000E+00 -0.18648942980E+03  0.18648942980E+03  0.00000000000E+00 0.  1.
         25    2    1    2    0    0 -0.98726664582E+02 -0.10882658996E+03  0.98644990257E+02  0.21672163369E+03  0.12508897404E+03 0.  0.
          5    1    3    3  502    0 -0.99146669546E+02 -0.12834781689E+03  0.10776796101E+03  0.19476814421E+03  0.41800000000E+01 0.  1.
         -5    1    3    3    0  502  0.42000496429E+00  0.19521226929E+02 -0.91229707486E+01  0.21953489478E+02  0.41800000000E+01 0.  1.
        -11    1    1    2    0    0  0.16056310736E+02  0.72481939117E+02 -0.58413497151E+02  0.94464666738E+02  0.00000000000E+00 0.  1.
         11    1    1    2    0    0  0.82670353846E+02  0.36344650841E+02 -0.11044386797E+02  0.90979665473E+02  0.00000000000E+00 0. -1.
</event>
<event>
 7    1  0.2670433E-009  0.1172195E+03  0.7561462E-02  0.1247756E+00
         -1   -1    0    0    0  501 -0.00000000000E+00  0.00000000000E+00  0.19972148474E+02  0.19972148474E+02  0.00000000000E+00 0.  1.
          1   -1    0    0  501    0  0.00000000000E+00 -0.00000000000E+00 -0.98182260602E+03  0.98182260602E+03  0.00000000000E+00 0. -1.
         25    2    1    2    0    0 -0.52867666979E+02 -0.71233863392E+02 -0.48584305169E+03  0.50947038020E+03  0.12508934375E+03 0.  0.
          5    1    3    3  502    0 -0.55457519814E+02 -0.81407830321E+02 -0.19593010405E+03  0.21933729600E+03  0.41800000000E+01 0. -1.
         -5    1    3    3    0  502  0.25898528343E+01  0.10173966929E+02 -0.28991294764E+03  0.29013308420E+03  0.41800000000E+01 0. -1.
        -11    1    1    2    0    0  0.15585927160E+02  0.83775451177E+02 -0.35502368324E+03  0.36510691997E+03  0.00000000000E+00 0. -1.
         11    1    1    2    0    0  0.37281739819E+02 -0.12541587785E+02 -0.12098372261E+03  0.12721745432E+03  0.00000000000E+00 0.  1.
</event>
<event>
 7    1  0.2670433E-009  0.1159505E+03  0.7561462E-02  0.1249931E+00
         -2   -1    0    0    0  501 -0.00000000000E+00  0.00000000000E+00  0.12297987461E+03  0.12297987461E+03  0.00000000000E+00 0.  1.
          2   -1    0    0  501    0  0.00000000000E+00 -0.00000000000E+00 -0.19656008534E+03  0.19656008534E+03  0.00000000000E+00 0. -1.
         25    2    1    2    0    0 -0.34916696889E+00  0.82567815050E+02  0.36767797022E+02  0.15432762320E+03  0.12509028094E+03 0.  0.
          5    1    3    3  502    0  0.15599390926E+02 -0.30791653083E+02  0.14285505650E+02  0.37590091361E+02  0.41800000000E+01 0.  1.
         -5    1    3    3    0  502 -0.15948557895E+02  0.11335946813E+03  0.22482291372E+02  0.11673753184E+03  0.41800000000E+01 0.  1.
        -11    1    1    2    0    0 -0.43921042923E+00 -0.48809070216E+02  0.10361305497E+01  0.48822042232E+02  0.00000000000E+00 0.  1.
         11    1    1    2    0    0  0.78837739813E+00 -0.33758744834E+02 -0.11138413830E+03  0.11639029451E+03  0.00000000000E+00 0. -1.
</event>
<event>
 7    1  0.2670433E-009  0.1608363E+03  0.7561462E-02  0.1187756E+00
          1   -1    0    0  501    0  0.00000000000E+00  0.00000000000E+00  0.67128572043E+02  0.67128572043E+02  0.00000000000E+00 0. -1.
         -1   -1    0    0    0  501 -0.00000000000E+00 -0.00000000000E+00 -0.59094453087E+03  0.59094453087E+03  0.00000000000E+00 0.  1.
         25    2    1    2    0    0 -0.15150784074E+02  0.15337365002E+03 -0.16804464798E+03  0.26007194611E+03  0.12508153606E+03 0.  0.
          5    1    3    3  502    0 -0.22653561297E+02  0.51382886675E+02  0.75606795169E+01  0.56815677038E+02  0.41800000000E+01 0. -1.
         -5    1    3    3    0  502  0.75027772228E+01  0.10199076334E+03 -0.17560532750E+03  0.20325626908E+03  0.41800000000E+01 0. -1.
        -11    1    1    2    0    0 -0.19888015378E+02 -0.47726181868E+02 -0.19983220690E+03  0.20641277214E+03  0.00000000000E+00 0.  1.
         11    1    1    2    0    0  0.35038799451E+02 -0.10564746815E+03 -0.15593910396E+03  0.19158838466E+03  0.00000000000E+00 0. -1.
</event>
<event>
 7    1  0.2670433E-009  0.1049782E+03  0.7561462E-02  0.1270163E+00
         -1   -1    0    0    0  501 -0.00000000000E+00  0.00000000000E+00  0.36621663228E+03  0.36621663228E+03  0.00000000000E+00 0.  1.
          1   -1    0    0  501    0  0.00000000000E+00 -0.00000000000E+00 -0.43953451848E+02  0.43953451848E+02  0.00000000000E+00 0. -1.
         25    2    1    2    0    0 -0.52043872175E+02 -0.26518631690E+02  0.13038867252E+03  0.18989491943E+03  0.12508825703E+03 0.  0.
          5    1    3    3  502    0 -0.61246184355E+02  0.14596381500E+02  0.12089980983E+02  0.64247875382E+02  0.41800000000E+01 0.  1.
         -5    1    3    3    0  502  0.92023121804E+01 -0.41115013190E+02  0.11829869154E+03  0.12564704405E+03  0.41800000000E+01 0.  1.
        -11    1    1    2    0    0  0.41516739011E+01 -0.30085595052E+02  0.84462114701E+02  0.89756494170E+02  0.00000000000E+00 0.  1.
         11    1    1    2    0    0  0.47892198273E+02  0.56604226741E+02  0.10741239321E+03  0.13051867052E+03  0.00000000000E+00 0. -1.
</event>
<event>
 7    1  0.2670433E-009  0.1194219E+03  0.7561462E-02  0.1244054E+00
          1   -1    0    0  501    0  0.00000000000E+00  0.00000000000E+00  0.15252560508E+03  0.15252560508E+03  0.00000000000E+00 0. -1.
         -1   -1    0    0    0  501 -0.00000000000E+00 -0.00000000000E+00 -0.94983496880E+02  0.94983496880E+02  0.00000000000E+00 0.  1.
         25    2    1    2    0    0  0.16374239804E+02 -0.51641178471E+02  0.33724515110E+02  0.14042971899E+03  0.12509290953E+03 0.  0.
          5    1    3    3  502    0  0.40124668286E+02  0.30488430714E+02  0.92852327760E+01  0.51412268576E+02  0.41800000000E+01 0.  1.
         -5    1    3    3    0  502 -0.23750428482E+02 -0.82129609185E+02  0.24439282334E+02  0.89017450418E+02  0.41800000000E+01 0.  1.
        -11    1    1    2    0    0 -0.51035418114E+02  0.43540449851E+02  0.62224838622E+01  0.67372872737E+02  0.00000000000E+00 0.  1.
         11    1    1    2    0    0  0.34661178311E+02  0.81007286193E+01  0.17595109231E+02  0.39706510233E+02  0.00000000000E+00 0. -1.
</event>
<event>
 7    1  0.2670433E-009  0.2522012E+03  0.7561462E-02  0.1111922E+00
         -1   -1    0    0    0  501 -0.00000000000E+00  0.00000000000E+00  0.10515921202E+03  0.10515921202E+03  0.00000000000E+00 0.  1.
          1   -1    0    0  501    0  0.00000000000E+00 -0.00000000000E+00 -0.77050950991E+03  0.77050950991E+03  0.00000000000E+00 0. -1.
         25    2    1    2    0    0 -0.10947791275E+03 -0.21451625729E+03 -0.18113815602E+03  0.32628481183E+03  0.12509240122E+03 0.  0.
          5    1    3    3  502    0 -0.91768746176E+02 -0.68789019596E+02 -0.12330491814E+03  0.16844882674E+03  0.41800000000E+01 0. -1.
         -5    1    3    3    0  502 -0.17709166577E+02 -0.14572723770E+03 -0.57833237879E+02  0.15783598509E+03  0.41800000000E+01 0. -1.
        -11    1    1    2    0    0  0.71821156128E+02  0.10709070753E+03 -0.15834033102E+03  0.20420175938E+03  0.00000000000E+00 0.  1.
         11    1    1    2    0    0  0.37656756625E+02  0.10742554976E+03 -0.32587181086E+03  0.34518215071E+03  0.00000000000E+00 0. -1.
</event>
<event>
 7    1  0.2670433E-009  0.1289307E+03  0.7561462E-02  0.1229051E+00
          1   -1    0    0  501    0  0.00000000000E+00  0.00000000000E+00  0.15092326288E+03  0.15092326288E+03  0.00000000000E+00 0. -1.
         -1   -1    0    0    0  501 -0.00000000000E+00 -0.00000000000E+00 -0.16872670929E+03  0.16872670929E+03  0.00000000000E+00 0.  1.
         25    2    1    2    0    0  0.39482650894E+01 -0.95198006609E+02  0.58326202120E+02  0.16771333570E+03  0.12509023886E+03 0.  0.
          5    1    3    3  502    0 -0.12894917294E+02  0.12048706583E+02 -0.24936966148E+02  0.30834638039E+02  0.41800000000E+01 0.  1.
         -5    1    3    3    0  502  0.16843182384E+02 -0.10724671319E+03  0.83263168268E+02  0.13687869766E+03  0.41800000000E+01 0.  1.
        -11    1    1    2    0    0  0.17342463919E+02 -0.12451019120E+02 -0.16963582461E+02  0.27268151052E+02  0.00000000000E+00 0.  1.
         11    1    1    2    0    0 -0.21290729008E+02  0.10764902573E+03 -0.59166066075E+02  0.12466848542E+03  0.00000000000E+00 0. -1.
</event>
<event>
 7    1  0.2670433E-009  0.2782018E+03  0.7561462E-02  0.1096675E+00
          2   -1    0    0  501    0  0.00000000000E+00  0.00000000000E+00  0.15728705876E+04  0.15728705876E+04  0.00000000000E+00 0. -1.
         -2   -1    0    0    0  501 -0.00000000000E+00 -0.00000000000E+00 -0.57522068042E+02  0.57522068042E+02  0.00000000000E+00 0.  1.
         25    2    1    2    0    0 -0.21335958250E+03 -0.17561511776E+03  0.64288326891E+03  0.71085072756E+03  0.12508748303E+03 0.  0.
          5    1    3    3  502    0 -0.52682094319E+02 -0.63572675761E+02  0.80801911120E+02  0.11559978117E+03  0.41800000000E+01 0. -1.
         -5    1    3    3    0  502 -0.16067748818E+03 -0.11204244200E+03  0.56208135779E+03  0.59525094640E+03  0.41800000000E+01 0. -1.
        -11    1    1    2    0    0  0.12121838819E+03  0.11778684091E+03  0.39148645757E+03  0.42641445096E+03  0.00000000000E+00 0.  1.
         11    1    1    2    0    0  0.92141194304E+02  0.57828276848E+02  0.48097879304E+03  0.49312747707E+03  0.00000000000E+00 0. -1.
</event>
<event>
 7    1  0.2670433E-009  0.8959560E+02  0.7561462E-02  0.1303834E+00
         -2   -1    0    0    0  501 -0.00000000000E+00  0.00000000000E+00  0.43172394563E+02  0.43172394563E+02  0.00000000000E+00 0.  1.
          2   -1    0    0  501    0  0.00000000000E+00 -0.00000000000E+00 -0.40546499086E+03  0.40546499086E+03  0.00000000000E+00 0. -1.
         25    2    1    2    0    0 -0.58513109526E+02 -0.38177523637E+01 -0.27719947714E+03  0.30971830641E+03  0.12509004748E+03 0.  0.
          5    1    3    3  502    0 -0.10482500493E+02  0.31361660982E+02 -0.23320065162E+03  0.23557048396E+03  0.41800000000E+01 0.  1.
         -5    1    3    3    0  502 -0.48030609033E+02 -0.35179413346E+02 -0.43998825523E+02  0.74147822455E+02  0.41800000000E+01 0.  1.
        -11    1    1    2    0    0  0.10085693171E+02  0.29631320196E+02  0.66652293428E+01  0.32002525298E+02  0.00000000000E+00 0.  1.
         11    1    1    2    0    0  0.48427416355E+02 -0.25813567832E+02 -0.91758348504E+02  0.10691655372E+03  0.00000000000E+00 0. -1.
</event>
<event>
 7    1  0.2670433E-009  0.1046449E+03  0.7561462E-02  0.1270821E+00
          2   -1    0    0  501    0  0.00000000000E+00  0.00000000000E+00  0.51181477393E+03  0.51181477393E+03  0.00000000000E+00 0. -1.
         -2   -1    0    0    0  501 -0.00000000000E+00 -0.00000000000E+00 -0.30875545314E+02  0.30875545314E+02  0.00000000000E+00 0.  1.
         25    2    1    2    0    0  0.50843813055E+02 -0.11711219061E+02  0.18515204704E+03  0.22945768094E+03  0.12508917155E+03 0.  0.
          5    1    3    3  502    0  0.74418676707E+02  0.21303111152E+02  0.60591669062E+02  0.98390978993E+02  0.41800000000E+01 0.  1.
         -5    1    3    3    0  502 -0.23574863652E+02 -0.33014330213E+02  0.12456037798E+03  0.13106670194E+03  0.41800000000E+01 0.  1.
        -11    1    1    2    0    0 -0.16641551441E+02  0.42077989894E+02  0.22086849196E+03  0.22545595847E+03  0.00000000000E+00 0. -1.
         11    1    1    2    0    0 -0.34202261614E+02 -0.30366770832E+02  0.74918689611E+02  0.87776679838E+02  0.00000000000E+00 0.  1.
</event>
<event>
 7    1  0.2670433E-009  0.8832953E+02  0.7561462E-02  0.1306948E+00
         -1   -1    0    0    0  501 -0.00000000000E+00  0.00000000000E+00  0.50617171980E+02  0.50617171980E+02  0.00000000000E+00 0.  1.
          1   -1    0    0  501    0  0.00000000000E+00 -0.00000000000E+00 -0.25238205358E+03  0.25238205358E+03  0.00000000000E+00 0. -1.
         25    2    1    2    0    0  0.30396726846E+01  0.24843787084E+02 -0.86940242444E+02  0.15437677401E+03  0.12508848560E+03 0.  0.
          5    1    3    3  502    0  0.39460172289E+02 -0.14746924902E+01 -0.99835109287E+02  0.10744208375E+03  0.41800000000E+01 0. -1.
         -5    1    3    3    0  502 -0.36420499605E+02  0.26318479574E+02  0.12894866843E+02  0.46934690256E+02  0.41800000000E+01 0. -1.
        -11    1    1    2    0    0 -0.36214634036E+02  0.15669239051E+02 -0.66732314661E+02  0.77525651180E+02  0.00000000000E+00 0. -1.
         11    1    1    2    0    0  0.33174961352E+02 -0.40513026135E+02 -0.48092324494E+02  0.71096800368E+02  0.00000000000E+00 0.  1.
</event>
<event>
 7    1  0.2670433E-009  0.1407483E+03  0.7561462E-02  0.1212326E+00
         -1   -1    0    0    0  501 -0.00000000000E+00  0.00000000000E+00  0.12351510748E+03  0.12351510748E+03  0.00000000000E+00 0.  1.
          1   -1    0    0  501    0  0.00000000000E+00 -0.00000000000E+00 -0.43077537465E+03  0.43077537465E+03  0.00000000000E+00 0. -1.
         25    2    1    2    0    0 -0.11076223223E+03 -0.11236151972E+02  0.45600779057E+02  0.17355701089E+03  0.12509229304E+03 0.  0.
          5    1    3    3  502    0  0.25758532192E+02 -0.15553923494E+02  0.35812085913E+01  0.30589605615E+02  0.41800000000E+01 0.  1.
         -5    1    3    3    0  502 -0.13652076442E+03  0.43177715218E+01  0.42019570466E+02  0.14296740527E+03  0.41800000000E+01 0.  1.
        -11    1    1    2    0    0  0.59950503868E+02 -0.72650262865E+01 -0.29665151287E+03  0.30273579836E+03  0.00000000000E+00 0. -1.
         11    1    1    2    0    0  0.50811728358E+02  0.18501178258E+02 -0.56209533353E+02  0.77997672885E+02  0.00000000000E+00 0.  1.
</event>
<event>
 7    1  0.2670433E-009  0.1085073E+03  0.7561462E-02  0.1263359E+00
          2   -1    0    0  501    0  0.00000000000E+00  0.00000000000E+00  0.12539258925E+03  0.12539258925E+03  0.00000000000E+00 0.  1.
         -2   -1    0    0    0  501 -0.00000000000E+00 -0.00000000000E+00 -0.11562076453E+03  0.11562076453E+03  0.00000000000E+00 0. -1.
         25    2    1    2    0    0 -0.24046226132E+02  0.17461865551E+02  0.45540316849E+02  0.13639783574E+03  0.12508921375E+03 0.  0.
          5    1    3    3  502    0 -0.69642263844E+02  0.21379974078E+02  0.52534834818E+02  0.89914011556E+02  0.41800000000E+01 0.  1.
         -5    1    3    3    0  502  0.45596037712E+02 -0.39181085268E+01 -0.69945179687E+01  0.46483824187E+02  0.41800000000E+01 0.  1.
        -11    1    1    2    0    0  0.57009546690E+02 -0.27957994523E+02 -0.19781111971E+02  0.66505866376E+02  0.00000000000E+00 0.  1.
         11    1    1    2    0    0 -0.32963320558E+02  0.10496128972E+02 -0.15987380150E+02  0.38109651660E+02  0.00000000000E+00 0. -1.
</event>
<event>
 7    1  0.2670433E-009  0.1124845E+03  0.7561462E-02  0.1256037E+00
          1   -1    0    0  501    0  0.00000000000E+00  0.00000000000E+00  0.96495899660E+03  0.96495899660E+03  0.00000000000E+00 0. -1.
         -1   -1    0    0    0  501 -0.00000000000E+00 -0.00000000000E+00 -0.21712734945E+02  0.21712734945E+02  0.00000000000E+00 0.  1.
         25    2    1    2    0    0 -0.95486352192E+02  0.23123520588E+01  0.52230398060E+03  0.54550410655E+03  0.12510112585E+03 0.  0.
          5    1    3    3  502    0 -0.16384915613E+02 -0.93413343482E+01  0.39262641401E+03  0.39310138560E+03  0.41800000000E+01 0. -1.
         -5    1    3    3    0  502 -0.79101436579E+02  0.11653686407E+02  0.12967756659E+03  0.15240272095E+03  0.41800000000E+01 0. -1.
        -11    1    1    2    0    0  0.23459113899E+02  0.36787283783E+02  0.87152575142E+02  0.97463868315E+02  0.00000000000E+00 0.  1.
         11    1    1    2    0    0  0.72027238293E+02 -0.39099635841E+02  0.33378970591E+03  0.34370375667E+03  0.00000000000E+00 0. -1.
</event>
<event>
 7    1  0.2670433E-009  0.1012271E+03  0.7561462E-02  0.1277737E+00
          1   -1    0    0  501    0  0.00000000000E+00  0.00000000000E+00  0.11064534696E+03  0.11064534696E+03  0.00000000000E+00 0. -1.
         -1   -1    0    0    0  501 -0.00000000000E+00 -0.00000000000E+00 -0.13050720228E+03  0.13050720228E+03  0.00000000000E+00 0.  1.
         25    2    1    2    0    0  0.43382360902E+01  0.23744224181E+02 -0.55222273734E+02  0.13885127901E+03  0.12509024619E+03 0.  0.
          5    1    3    3  502    0 -0.10787423154E+02  0.63242652840E+02 -0.68866898995E+02  0.94213182803E+02  0.41800000000E+01 0. -1.
         -5    1    3    3    0  502  0.15125659244E+02 -0.39498428659E+02  0.13644625261E+02  0.44638096203E+02  0.41800000000E+01 0. -1.
        -11    1    1    2    0    0 -0.46780179558E+02 -0.25312826237E+02  0.15402352411E+02  0.55374694865E+02  0.00000000000E+00 0.  1.
         11    1    1    2    0    0  0.42441943468E+02  0.15686020555E+01  0.19958065998E+02  0.46926575372E+02  0.00000000000E+00 0. -1.
</event>
<event>
 7    1  0.2670433E-009  0.2361231E+03  0.7561462E-02  0.1122403E+00
         -1   -1    0    0    0  501 -0.00000000000E+00  0.00000000000E+00  0.14291314776E+03  0.14291314776E+03  0.00000000000E+00 0.  1.
          1   -1    0    0  501    0  0.00000000000E+00 -0.00000000000E+00 -0.47796257042E+03  0.47796257042E+03  0.00000000000E+00 0. -1.
         25    2    1    2    0    0  0.11848429139E+03 -0.19865149655E+03 -0.24026273167E+03  0.35619515505E+03  0.12509142202E+03 0.  0.
          5    1    3    3  502    0  0.11440607411E+01 -0.10829712275E+02 -0.84758536127E+02  0.85557427436E+02  0.41800000000E+01 0. -1.
         -5    1    3    3    0  502  0.11734023064E+03 -0.18782178428E+03 -0.15550419554E+03  0.27063772761E+03  0.41800000000E+01 0. -1.
        -11    1    1    2    0    0 -0.49304699501E+01  0.58463337939E+02  0.43429742349E+01  0.58831393338E+02  0.00000000000E+00 0. -1.
         11    1    1    2    0    0 -0.11355382144E+03  0.14018815862E+03 -0.99129665226E+02  0.20584916980E+03  0.00000000000E+00 0.  1.
</event>
<event>
 7    1  0.2670433E-009  0.1213317E+03  0.7561462E-02  0.1240916E+00
         -2   -1    0    0    0  501 -0.00000000000E+00  0.00000000000E+00  0.12270418917E+03  0.12270418917E+03  0.00000000000E+00 0.  1.
          2   -1    0    0  501    0  0.00000000000E+00 -0.00000000000E+00 -0.20961838770E+03  0.20961838770E+03  0.00000000000E+00 0. -1.
         25    2    1    2    0    0  0.57625539222E+02  0.37429265192E+02  0.50501251373E+02  0.15138634241E+03  0.12508315479E+03 0.  0.
          5    1    3    3  502    0  0.72800785595E+02  0.68273029285E+02  0.13655002575E+02  0.10082208293E+03  0.41800000000E+01 0.  1.
         -5    1    3    3    0  502 -0.15175246373E+02 -0.30843764092E+02  0.36846248797E+02  0.50564259475E+02  0.41800000000E+01 0.  1.
        -11    1    1    2    0    0 -0.69475027582E+02 -0.62534197350E+00 -0.11970890438E+03  0.13841023192E+03  0.00000000000E+00 0.  1.
         11    1    1    2    0    0  0.11849488361E+02 -0.36803923219E+02 -0.17706545521E+02  0.42526002551E+02  0.00000000000E+00 0. -1.
</event>
<event>
 7    1  0.2998450E-009  0.1769629E+03  0.7561462E-02  0.1170775E+00
         -1   -1    0    0    0  501 -0.00000000000E+00  0.00000000000E+00  0.46324025890E+02  0.46324025890E+02  0.00000000000E+00 0.  1.
          1   -1    0    0  501    0  0.00000000000E+00 -0.00000000000E+00 -0.83090494710E+03  0.83090494710E+03  0.00000000000E+00 0. -1.
         25    2    1    2    0    0  0.43500412327E+02  0.15477056724E+03 -0.47515991318E+03  0.51698297682E+03  0.12509292892E+03 0.  0.
          5    1    3    3  502    0  0.52475351090E+02  0.29844602387E+02 -0.68252975997E+02  0.91215699834E+02  0.41800000000E+01 0.  1.
         -5    1    3    3    0  502 -0.89749387631E+01  0.12492596485E+03 -0.40690693719E+03  0.42576727698E+03  0.41800000000E+01 0.  1.
        -11    1    1    2    0    0 -0.32567769789E+02 -0.34932241792E+02 -0.16749782848E+03  0.17417360216E+03  0.00000000000E+00 0. -1.
         11    1    1    2    0    0 -0.10932642538E+02 -0.11983832545E+03 -0.14192317955E+03  0.18607239401E+03  0.00000000000E+00 0.  1.
</event>
<event>
 7    1  0.2670433E-009  0.2338116E+03  0.7561462E-02  0.1123985E+00
          2   -1    0    0  501    0  0.00000000000E+00  0.00000000000E+00  0.22319684568E+03  0.22319684568E+03  0.00000000000E+00 0. -1.
         -2   -1    0    0    0  501 -0.00000000000E+00 -0.00000000000E+00 -0.27433244304E+03  0.27433244304E+03  0.00000000000E+00 0.  1.
         25    2    1    2    0    0 -0.21428056264E+03  0.43100202445E+02  0.73575357921E+01  0.25194098769E+03  0.12508533475E+03 0.  0.
          5    1    3    3  502    0 -0.11597354980E+03 -0.32696904335E+02  0.33245059432E+02  0.12506661498E+03  0.41800000000E+01 0. -1.
         -5    1    3    3    0  502 -0.98307012845E+02  0.75797106781E+02 -0.25887523639E+02  0.12687437271E+03  0.41800000000E+01 0. -1.
        -11    1    1    2    0    0  0.98414865754E+02  0.22130202953E+01 -0.69784279472E+02  0.12066577361E+03  0.00000000000E+00 0. -1.
         11    1    1    2    0    0  0.11586569689E+03 -0.45313222741E+02  0.11291146323E+02  0.12492252742E+03  0.00000000000E+00 0.  1.
</event>
<event>
 7    1  0.2670433E-009  0.9380458E+02  0.7561462E-02  0.1293891E+00
          2   -1    0    0  501    0  0.00000000000E+00  0.00000000000E+00  0.24181403002E+03  0.24181403002E+03  0.00000000000E+00 0. -1.
         -2   -1    0    0    0  501 -0.00000000000E+00 -0.00000000000E+00 -0.57392820767E+02  0.57392820767E+02  0.00000000000E+00 0.  1.
         25    2    1    2    0    0 -0.23936533735E+01  0.43872114138E+02  0.12827430210E+03  0.18447808968E+03  0.12508947604E+03 0.  0.
          5    1    3    3  502    0 -0.80822375870E+01 -0.28432148340E+02  0.10350426801E+03  0.10772332858E+03  0.41800000000E+01 0.  1.
         -5    1    3    3    0  502  0.56885842135E+01  0.72304262478E+02  0.24770034091E+02  0.76754761101E+02  0.41800000000E+01 0.  1.
        -11    1    1    2    0    0 -0.37557206007E+01  0.20298920683E+02 -0.94977730316E+01  0.22723540892E+02  0.00000000000E+00 0.  1.
         11    1    1    2    0    0  0.61493739743E+01 -0.64171034821E+02  0.65644680181E+02  0.92005220212E+02  0.00000000000E+00 0. -1.
</event>
<event>
 7    1  0.2670433E-009  0.9872067E+02  0.7561462E-02  0.1283009E+00
          1   -1    0    0  501    0  0.00000000000E+00  0.00000000000E+00  0.27409780748E+03  0.27409780748E+03  0.00000000000E+00 0. -1.
         -1   -1    0    0    0  501 -0.00000000000E+00 -0.00000000000E+00 -0.12488257560E+03  0.12488257560E+03  0.00000000000E+00 0.  1.
         25    2    1    2    0    0 -0.62250712047E+02  0.26214021476E+02 -0.64947233469E+02  0.15629058705E+03  0.12508508461E+03 0.  0.
          5    1    3    3  502    0 -0.44966827357E+01 -0.12481136681E+02  0.33170335423E+02  0.35968631897E+02  0.41800000000E+01 0.  1.
         -5    1    3    3    0  502 -0.57754029312E+02  0.38695158157E+02 -0.98117568892E+02  0.12032195515E+03  0.41800000000E+01 0.  1.
        -11    1    1    2    0    0  0.37851895763E+02  0.32763815367E+02  0.85870187780E+02  0.99397800578E+02  0.00000000000E+00 0.  1.
         11    1    1    2    0    0  0.24398816284E+02 -0.58977836843E+02  0.12829227757E+03  0.14329199545E+03  0.00000000000E+00 0. -1.
</event>
<event>
 7    1  0.2670433E-009  0.1188270E+03  0.7561462E-02  0.1245045E+00
         -2   -1    0    0    0  501 -0.00000000000E+00  0.00000000000E+00  0.48318389766E+02  0.48318389766E+02  0.00000000000E+00 0.  1.
          2   -1    0    0  501    0  0.00000000000E+00 -0.00000000000E+00 -0.90338091073E+03  0.90338091073E+03  0.00000000000E+00 0. -1.
         25    2    1    2    0    0 -0.63760774163E+02 -0.47833614774E+02 -0.81315589083E+03  0.82657229885E+03  0.12508305805E+03 0.  0.
          5    1    3    3  502    0 -0.40522441565E+02  0.39829509519E+02 -0.27926504604E+03  0.28501736165E+03  0.41800000000E+01 0. -1.
         -5    1    3    3    0  502 -0.23238332598E+02 -0.87663124292E+02 -0.53389084479E+03  0.54155493720E+03  0.41800000000E+01 0. -1.
        -11    1    1    2    0    0  0.43729033241E+02  0.53479417371E+02  0.94392106795E+01  0.69723562221E+02  0.00000000000E+00 0.  1.
         11    1    1    2    0    0  0.20031740922E+02 -0.56458025969E+01 -0.51345840816E+02  0.55403439428E+02  0.00000000000E+00 0. -1.
</event>
<event>
 7    1  0.2670433E-009  0.1372074E+03  0.7561462E-02  0.1217137E+00
          1   -1    0    0  501    0  0.00000000000E+00  0.00000000000E+00  0.44581013293E+03  0.44581013293E+03  0.00000000000E+00 0. -1.
         -1   -1    0    0    0  501 -0.00000000000E+00 -0.00000000000E+00 -0.49496259353E+02  0.49496259353E+02  0.00000000000E+00 0.  1.
         25    2    1    2    0    0 -0.10366482836E+03 -0.10661176435E+02  0.27229662476E+03  0.31725793076E+03  0.12508831062E+03 0.  0.
          5    1    3    3  502    0  0.21255785745E+02  0.19484766368E+02  0.24409746778E+02  0.38010165559E+02  0.41800000000E+01 0. -1.
         -5    1    3    3    0  502 -0.12492061410E+03 -0.30145942803E+02  0.24788687799E+03  0.27924776521E+03  0.41800000000E+01 0. -1.
        -11    1    1    2    0    0  0.58349860029E+02  0.32074116280E+02  0.33393728185E+02  0.74488899728E+02  0.00000000000E+00 0.  1.
         11    1    1    2    0    0  0.45314968327E+02 -0.21412939844E+02  0.90623520628E+02  0.10355956179E+03  0.00000000000E+00 0. -1.
</event>
<event>
 7    1  0.2670433E-009  0.1335627E+03  0.7561462E-02  0.1222263E+00
          3   -1    0    0  501    0  0.00000000000E+00  0.00000000000E+00  0.16583726309E+03  0.16583726309E+03  0.00000000000E+00 0. -1.
         -3   -1    0    0    0  501 -0.00000000000E+00 -0.00000000000E+00 -0.12655901486E+03  0.12655901486E+03  0.00000000000E+00 0.  1.
         25    2    1    2    0    0  0.94808793539E+02 -0.17141341974E+01  0.26119545234E+02  0.15912877369E+03  0.12509232744E+03 0.  0.
          5    1    3    3  502    0  0.12393350105E+03  0.17987143903E+01  0.77375218950E+01  0.12425815748E+03  0.41800000000E+01 0. -1.
         -5    1    3    3    0  502 -0.29124707509E+02 -0.35128485877E+01  0.18382023339E+02  0.34870616208E+02  0.41800000000E+01 0. -1.
        -11    1    1    2    0    0 -0.48207307622E+02 -0.30298957133E+02 -0.27887529627E+02  0.63400990688E+02  0.00000000000E+00 0.  1.
         11    1    1    2    0    0 -0.46601485917E+02  0.32013091330E+02  0.41046232625E+02  0.69866513573E+02  0.00000000000E+00 0. -1.
</event>
<event>
 7    1  0.2670433E-009  0.1366273E+03  0.7561462E-02  0.1217941E+00
         -2   -1    0    0    0  501 -0.00000000000E+00  0.00000000000E+00  0.11293353164E+03  0.11293353164E+03  0.00000000000E+00 0.  1.
          2   -1    0    0  501    0  0.00000000000E+00 -0.00000000000E+00 -0.22348856623E+03  0.22348856623E+03  0.00000000000E+00 0. -1.
         25    2    1    2    0    0 -0.28536411754E+02 -0.98658596250E+02  0.19533147210E+01  0.16186344297E+03  0.12509241912E+03 0.  0.
          5    1    3    3  502    0  0.44122727155E+02 -0.63456259444E+02 -0.16024856492E+02  0.79042901894E+02  0.41800000000E+01 0.  1.
         -5    1    3    3    0  502 -0.72659138909E+02 -0.35202336806E+02  0.17978171213E+02  0.82820541074E+02  0.41800000000E+01 0.  1.
        -11    1    1    2    0    0  0.38601106783E+02  0.40365458775E+02 -0.10782383103E+02  0.56882998271E+02  0.00000000000E+00 0.  1.
         11    1    1    2    0    0 -0.10064695028E+02  0.58293137476E+02 -0.10172596621E+03  0.11767565663E+03  0.00000000000E+00 0. -1.
</event>
<event>
 7    1  0.2670433E-009  0.1220252E+03  0.7561462E-02  0.1239793E+00
          2   -1    0    0  501    0  0.00000000000E+00  0.00000000000E+00  0.27820830947E+03  0.27820830947E+03  0.00000000000E+00 0. -1.
         -2   -1    0    0    0  501 -0.00000000000E+00 -0.00000000000E+00 -0.83315054221E+02  0.83315054221E+02  0.00000000000E+00 0.  1.
         25    2    1    2    0    0 -0.81681556896E+02  0.14596551812E+02  0.24940997670E+02  0.15216512295E+03  0.12508890925E+03 0.  0.
          5    1    3    3  502    0 -0.64973996440E+02 -0.50536845974E+02  0.88146736592E+01  0.82890071095E+02  0.41800000000E+01 0. -1.
         -5    1    3    3    0  502 -0.16707560455E+02  0.65133397787E+02  0.16126324011E+02  0.69275051856E+02  0.41800000000E+01 0. -1.
        -11    1    1    2    0    0  0.26274492952E+02  0.16200614208E+02  0.13181175654E+03  0.13537779745E+03  0.00000000000E+00 0.  1.
         11    1    1    2    0    0  0.55407063943E+02 -0.30797166021E+02  0.38140501040E+02  0.73980443290E+02  0.00000000000E+00 0. -1.
</event>
<event>
 7    1  0.2670433E-009  0.4689361E+02  0.7561462E-02  0.1462855E+00
          3   -1    0    0  501    0  0.00000000000E+00  0.00000000000E+00  0.29566305649E+03  0.29566305649E+03  0.00000000000E+00 0. -1.
         -3   -1    0    0    0  501 -0.00000000000E+00 -0.00000000000E+00 -0.38474384170E+02  0.38474384170E+02  0.00000000000E+00 0.  1.
         25    2    1    2    0    0  0.99806982237E+01  0.13315882343E+02  0.13554455791E+03  0.18519501670E+03  0.12509172623E+03 0.  0.
          5    1    3    3  502    0  0.14691671468E+02 -0.63837740749E+01  0.15554540403E+03  0.15642392048E+03  0.41800000000E+01 0.  1.
         -5    1    3    3    0  502 -0.47109732444E+01  0.19699656417E+02 -0.20000846124E+02  0.28771096217E+02  0.41800000000E+01 0.  1.
        -11    1    1    2    0    0  0.16098353959E+02 -0.23557143011E+02  0.49832475987E+01  0.28964266669E+02  0.00000000000E+00 0.  1.
         11    1    1    2    0    0 -0.26079052183E+02  0.10241260668E+02  0.11666086681E+03  0.11997815729E+03  0.00000000000E+00 0. -1.
</event>
<event>
 7    1  0.2670433E-009  0.1307563E+03  0.7561462E-02  0.1226338E+00
          1   -1    0    0  501    0  0.00000000000E+00  0.00000000000E+00  0.51244122900E+03  0.51244122900E+03  0.00000000000E+00 0. -1.
         -1   -1    0    0    0  501 -0.00000000000E+00 -0.00000000000E+00 -0.74038705372E+02  0.74038705372E+02  0.00000000000E+00 0.  1.
         25    2    1    2    0    0  0.80170535389E+02 -0.27633494237E+02  0.43689203764E+03  0.46229174163E+03  0.12509227422E+03 0.  0.
          5    1    3    3  502    0  0.34504375340E+02 -0.68183291743E+02  0.33322729868E+03  0.34190264429E+03  0.41800000000E+01 0. -1.
         -5    1    3    3    0  502  0.45666160049E+02  0.40549797507E+02  0.10366473897E+03  0.12038909733E+03  0.41800000000E+01 0. -1.
        -11    1    1    2    0    0 -0.96313068313E+02  0.56297101666E+01  0.53687822039E+01  0.96626728118E+02  0.00000000000E+00 0.  1.
         11    1    1    2    0    0  0.16142532925E+02  0.22003784070E+02 -0.38582962223E+01  0.27561464626E+02  0.00000000000E+00 0. -1.
</event>
<event>
 7    1  0.2670433E-009  0.1496574E+03  0.7561462E-02  0.1200895E+00
         -2   -1    0    0    0  501 -0.00000000000E+00  0.00000000000E+00  0.95366284840E+02  0.95366284840E+02  0.00000000000E+00 0.  1.
          2   -1    0    0  501    0  0.00000000000E+00 -0.00000000000E+00 -0.28583622286E+03  0.28583622286E+03  0.00000000000E+00 0. -1.
         25    2    1    2    0    0 -0.83783905953E+02  0.70328145991E+02 -0.16138559502E+03  0.23164627773E+03  0.12509555025E+03 0.  0.
          5    1    3    3  502    0 -0.11411511518E+03  0.62661804312E+02 -0.10615525878E+03  0.16803324850E+03  0.41800000000E+01 0. -1.
         -5    1    3    3    0  502  0.30331209228E+02  0.76663416786E+01 -0.55230336234E+02  0.63613029236E+02  0.41800000000E+01 0. -1.
        -11    1    1    2    0    0 -0.10149489576E+02 -0.36136132379E+02  0.14849188617E+02  0.40364967541E+02  0.00000000000E+00 0. -1.
         11    1    1    2    0    0  0.93933395529E+02 -0.34192013612E+02 -0.43933531621E+02  0.10919126243E+03  0.00000000000E+00 0.  1.
</event>
<event>
 7    1  0.2670433E-009  0.1313039E+03  0.7561462E-02  0.1225534E+00
         -2   -1    0    0    0  501 -0.00000000000E+00  0.00000000000E+00  0.10245945349E+03  0.10245945349E+03  0.00000000000E+00 0.  1.
          2   -1    0    0  501    0  0.00000000000E+00 -0.00000000000E+00 -0.23565247898E+03  0.23565247898E+03  0.00000000000E+00 0. -1.
         25    2    1    2    0    0  0.70704573381E+02  0.43327828549E+02 -0.13215029596E+03  0.19996994637E+03  0.12509133185E+03 0.  0.
          5    1    3    3  502    0  0.15996444453E+02  0.79778975639E+02 -0.53922312631E+02  0.97701890405E+02  0.41800000000E+01 0.  1.
         -5    1    3    3    0  502  0.54708128928E+02 -0.36451147090E+02 -0.78227983327E+02  0.10226805596E+03  0.41800000000E+01 0.  1.
        -11    1    1    2    0    0  0.57624854715E+01  0.16943771926E+02  0.30868372575E+02  0.35681284609E+02  0.00000000000E+00 0.  1.
         11    1    1    2    0    0 -0.76467058853E+02 -0.60271600474E+02 -0.31911102108E+02  0.10246070150E+03  0.00000000000E+00 0. -1.
</event>
<event>
 7    1  0.2670433E-009  0.1372114E+03  0.7561462E-02  0.1217131E+00
          1   -1    0    0  501    0  0.00000000000E+00  0.00000000000E+00  0.74544433778E+03  0.74544433778E+03  0.00000000000E+00 0. -1.
         -1   -1    0    0    0  501 -0.00000000000E+00 -0.00000000000E+00 -0.46710814795E+02  0.46710814795E+02  0.00000000000E+00 0.  1.
         25    2    1    2    0    0 -0.10916412115E+02 -0.11065996145E+03  0.14965741397E+03  0.22451865296E+03  0.12508592587E+03 0.  0.
          5    1    3    3  502    0  0.27723275198E+02 -0.16947873935E+02 -0.10958463759E+02  0.34545198604E+02  0.41800000000E+01 0. -1.
         -5    1    3    3    0  502 -0.38639687313E+02 -0.93712087512E+02  0.16061587773E+03  0.18997345435E+03  0.41800000000E+01 0. -1.
        -11    1    1    2    0    0 -0.37333482716E+02  0.55965430730E+02  0.19965764594E+03  0.21068719456E+03  0.00000000000E+00 0.  1.
         11    1    1    2    0    0  0.48249894830E+02  0.54694530717E+02  0.34941846308E+03  0.35694930506E+03  0.00000000000E+00 0. -1.
</event>
<event>
 7    1  0.2670433E-009  0.9636747E+02  0.7561462E-02  0.1288126E+00
         -2   -1    0    0    0  501 -0.00000000000E+00  0.00000000000E+00  0.61538089845E+02  0.61538089845E+02  0.00000000000E+00 0.  1.
          2   -1    0    0  501    0  0.00000000000E+00 -0.00000000000E+00 -0.23655746652E+03  0.23655746652E+03  0.00000000000E+00 0. -1.
         25    2    1    2    0    0 -0.20633125054E+02  0.44547374456E+02 -0.74482939902E+02  0.15364046220E+03  0.12508992313E+03 0.  0.
          5    1    3    3  502    0  0.42257860548E+02  0.49026407442E+02 -0.60981506921E+02  0.89025456984E+02  0.41800000000E+01 0.  1.
         -5    1    3    3    0  502 -0.62890985602E+02 -0.44790329862E+01 -0.13501432981E+02  0.64615005216E+02  0.41800000000E+01 0.  1.
        -11    1    1    2    0    0 -0.47182487804E+01 -0.38282945772E+02  0.20207095311E+01  0.38625497738E+02  0.00000000000E+00 0.  1.
         11    1    1    2    0    0  0.25351373834E+02 -0.62644286840E+01 -0.10255714631E+03  0.10582959643E+03  0.00000000000E+00 0. -1.
</event>
<event>
 7    1  0.2670433E-009  0.1579225E+03  0.7561462E-02  0.1191062E+00
         -2   -1    0    0    0  501 -0.00000000000E+00  0.00000000000E+00  0.21863202944E+03  0.21863202944E+03  0.00000000000E+00 0. -1.
          2   -1    0    0  501    0  0.00000000000E+00 -0.00000000000E+00 -0.20583216137E+03  0.20583216137E+03  0.00000000000E+00 0.  1.
         25    2    1    2    0    0  0.10779896335E+03 -0.40963584100E+02 -0.13350552873E+03  0.21626985155E+03  0.12510112216E+03 0.  0.
          5    1    3    3  502    0 -0.27673477403E+02 -0.12742794066E+02 -0.15910759893E+02  0.34624049915E+02  0.41800000000E+01 0. -1.
         -5    1    3    3    0  502  0.13547244075E+03 -0.28220790034E+02 -0.11759476884E+03  0.18164580163E+03  0.41800000000E+01 0. -1.
        -11    1    1    2    0    0 -0.93698036609E+02  0.68260222241E+02  0.12678419724E+03  0.17179351756E+03  0.00000000000E+00 0. -1.
         11    1    1    2    0    0 -0.14100926739E+02 -0.27296638141E+02  0.19521199550E+02  0.36400821702E+02  0.00000000000E+00 0.  1.
</event>
<event>
 7    1  0.2670433E-009  0.8388007E+02  0.7561462E-02  0.1318388E+00
         -1   -1    0    0    0  501 -0.00000000000E+00  0.00000000000E+00  0.10924605791E+03  0.10924605791E+03  0.00000000000E+00 0.  1.
          1   -1    0    0  501    0  0.00000000000E+00 -0.00000000000E+00 -0.11929127615E+03  0.11929127615E+03  0.00000000000E+00 0. -1.
         25    2    1    2    0    0 -0.22259493285E+02 -0.26841707233E+02 -0.56700106537E+01  0.12998302492E+03  0.12508986953E+03 0.  0.
          5    1    3    3  502    0 -0.33128244116E+01  0.28148027070E+02  0.44589822151E+02  0.53000102575E+02  0.41800000000E+01 0.  1.
         -5    1    3    3    0  502 -0.18946668873E+02 -0.54989734303E+02 -0.50259832804E+02  0.76982922350E+02  0.41800000000E+01 0.  1.
        -11    1    1    2    0    0  0.39932464283E+02 -0.89129340464E+01  0.25950452815E+02  0.48450676965E+02  0.00000000000E+00 0.  1.
         11    1    1    2    0    0 -0.17672970999E+02  0.35754641280E+02 -0.30325660401E+02  0.50103632161E+02  0.00000000000E+00 0. -1.
</event>
<event>
 7    1  0.2670433E-009  0.1598338E+03  0.7561462E-02  0.1188885E+00
          3   -1    0    0  501    0  0.00000000000E+00  0.00000000000E+00  0.24959459013E+03  0.24959459013E+03  0.00000000000E+00 0. -1.
         -3   -1    0    0    0  501 -0.00000000000E+00 -0.00000000000E+00 -0.12476696428E+03  0.12476696428E+03  0.00000000000E+00 0.  1.
         25    2    1    2    0    0 -0.86267237960E+02 -0.98110287164E+02  0.16011116909E+02  0.18158140158E+03  0.12509110577E+03 0.  0.
          5    1    3    3  502    0 -0.74601027196E+02 -0.12721859083E+03  0.35531676863E+01  0.14758042049E+03  0.41800000000E+01 0. -1.
         -5    1    3    3    0  502 -0.11666210764E+02  0.29108303670E+02  0.12457949223E+02  0.34000981088E+02  0.41800000000E+01 0. -1.
        -11    1    1    2    0    0  0.27622083149E+02  0.17338644776E+01  0.66950421064E+02  0.72445459790E+02  0.00000000000E+00 0. -1.
         11    1    1    2    0    0  0.58645154811E+02  0.96376422686E+02  0.41866087877E+02  0.12033469303E+03  0.00000000000E+00 0.  1.
</event>
<event>
 7    1  0.2670433E-009  0.1215767E+03  0.7561462E-02  0.1240518E+00
          1   -1    0    0  501    0  0.00000000000E+00  0.00000000000E+00  0.38564845853E+03  0.38564845853E+03  0.00000000000E+00 0. -1.
         -1   -1    0    0    0  501 -0.00000000000E+00 -0.00000000000E+00 -0.85407152079E+02  0.85407152079E+02  0.00000000000E+00 0.  1.
         25    2    1    2    0    0  0.65003427338E+02 -0.10040170765E+03  0.23911064785E+03  0.29517639461E+03  0.12509697660E+03 0.  0.
          5    1    3    3  502    0  0.15745269935E+02 -0.20264207960E+02  0.18450821129E+03  0.18633116778E+03  0.41800000000E+01 0.  1.
         -5    1    3    3    0  502  0.49258157403E+02 -0.80137499685E+02  0.54602436560E+02  0.10884522683E+03  0.41800000000E+01 0.  1.
        -11    1    1    2    0    0 -0.26438921051E+02  0.66809785088E+02  0.91545822303E+02  0.11637526159E+03  0.00000000000E+00 0. -1.
         11    1    1    2    0    0 -0.38564506287E+02  0.33591922557E+02 -0.30415163708E+02  0.59503954403E+02  0.00000000000E+00 0.  1.
</event>
<event>
 7    1  0.2670433E-009  0.8350335E+02  0.7561462E-02  0.1319393E+00
          3   -1    0    0  501    0  0.00000000000E+00  0.00000000000E+00  0.64865640216E+02  0.64865640216E+02  0.00000000000E+00 0. -1.
         -3   -1    0    0    0  501 -0.00000000000E+00 -0.00000000000E+00 -0.17164635507E+03  0.17164635507E+03  0.00000000000E+00 0.  1.
         25    2    1    2    0    0  0.69671105808E+01 -0.73261164655E+01 -0.49134121588E+02  0.13477229006E+03  0.12508875110E+03 0.  0.
          5    1    3    3  502    0 -0.35957750272E+02  0.20752286353E+02  0.21845889421E+02  0.47099177043E+02  0.41800000000E+01 0. -1.
         -5    1    3    3    0  502  0.42924860853E+02 -0.28078402818E+02 -0.70980011009E+02  0.87673113022E+02  0.41800000000E+01 0. -1.
        -11    1    1    2    0    0 -0.39759660990E+02  0.97433239656E+01 -0.72624673017E+01  0.41575310405E+02  0.00000000000E+00 0. -1.
         11    1    1    2    0    0  0.32792550410E+02 -0.24172075002E+01 -0.50384125963E+02  0.60164394815E+02  0.00000000000E+00 0.  1.
</event>
<event>
 7    1  0.2670433E-009  0.1124866E+03  0.7561462E-02  0.1256033E+00
          1   -1    0    0  501    0  0.00000000000E+00  0.00000000000E+00  0.14930779154E+03  0.14930779154E+03  0.00000000000E+00 0. -1.
         -1   -1    0    0    0  501 -0.00000000000E+00 -0.00000000000E+00 -0.11140733212E+03  0.11140733212E+03  0.00000000000E+00 0.  1.
         25    2    1    2    0    0 -0.52333084417E+02  0.29199516383E+02  0.62771373025E+02  0.15224825004E+03  0.12509164995E+03 0.  0.
          5    1    3    3  502    0 -0.75462426604E+02 -0.11826456269E+02  0.70866623857E+02  0.10427844300E+03  0.41800000000E+01 0.  1.
         -5    1    3    3    0  502  0.23129342187E+02  0.41025972652E+02 -0.80952508323E+01  0.47969807046E+02  0.41800000000E+01 0.  1.
        -11    1    1    2    0    0  0.28536497529E+02  0.27544765086E+02 -0.25095716489E+02  0.46934430442E+02  0.00000000000E+00 0.  1.
         11    1    1    2    0    0  0.23796586888E+02 -0.56744281468E+02  0.22480287828E+00  0.61532443176E+02  0.00000000000E+00 0. -1.
</event>
<event>
 7    1  0.2670433E-009  0.1151964E+03  0.7561462E-02  0.1251239E+00
          2   -1    0    0  501    0  0.00000000000E+00  0.00000000000E+00  0.59044260764E+03  0.59044260764E+03  0.00000000000E+00 0. -1.
         -2   -1    0    0    0  501 -0.00000000000E+00 -0.00000000000E+00 -0.37529688860E+02  0.37529688860E+02  0.00000000000E+00 0.  1.
         25    2    1    2    0    0  0.46061580465E+01  0.86205001900E+02  0.40552987799E+03  0.43307794319E+03  0.12509797715E+03 0.  0.
          5    1    3    3  502    0  0.54567158592E+02  0.34143374534E+02  0.28773421000E+03  0.29487589394E+03  0.41800000000E+01 0.  1.
         -5    1    3    3    0  502 -0.49961000545E+02  0.52061627366E+02  0.11779566799E+03  0.13820204925E+03  0.41800000000E+01 0.  1.
        -11    1    1    2    0    0 -0.17082369611E+02 -0.20278977321E+02 -0.62563127053E+01  0.27243085754E+02  0.00000000000E+00 0.  1.
         11    1    1    2    0    0  0.12476211564E+02 -0.65926024579E+02  0.15363935350E+03  0.16765126756E+03  0.00000000000E+00 0. -1.
</event>
<event>
 7    1  0.2670433E-009  0.1251167E+03  0.7561462E-02  0.1234887E+00
          1   -1    0    0  501    0  0.00000000000E+00  0.00000000000E+00  0.17715110248E+04  0.17715110248E+04  0.00000000000E+00 0. -1.
         -1   -1    0    0    0  501 -0.00000000000E+00 -0.00000000000E+00 -0.13961359016E+02  0.13961359016E+02  0.00000000000E+00 0.  1.
         25    2    1    2    0    0  0.81100061116E+01 -0.60940060679E+02  0.14461202561E+04  0.14528215904E+04  0.12508922890E+03 0.  0.
          5    1    3    3  502    0 -0.10496958610E+02 -0.97485631088E+02  0.10071699268E+04  0.10119399035E+04  0.41800000000E+01 0.  1.
         -5    1    3    3    0  502  0.18606964722E+02  0.36545570408E+02  0.43895032934E+03  0.44088168694E+03  0.41800000000E+01 0.  1.
        -11    1    1    2    0    0  0.41018277581E+02  0.40559228840E+02  0.10867124560E+03  0.12303247441E+03  0.00000000000E+00 0. -1.
         11    1    1    2    0    0 -0.49128283693E+02  0.20380831839E+02  0.20275816402E+03  0.20961831896E+03  0.00000000000E+00 0.  1.
</event>
<event>
 7    1  0.2670433E-009  0.8258702E+02  0.7561462E-02  0.1321866E+00
          1   -1    0    0  501    0  0.00000000000E+00  0.00000000000E+00  0.33545505099E+03  0.33545505099E+03  0.00000000000E+00 0. -1.
         -1   -1    0    0    0  501 -0.00000000000E+00 -0.00000000000E+00 -0.40484443203E+02  0.40484443203E+02  0.00000000000E+00 0.  1.
         25    2    1    2    0    0  0.22584947240E+02 -0.37933850612E+02  0.16890232080E+03  0.21476458505E+03  0.12508707429E+03 0.  0.
          5    1    3    3  502    0  0.17597066845E+02 -0.48910686294E+02  0.72964810150E+01  0.52655702735E+02  0.41800000000E+01 0.  1.
         -5    1    3    3    0  502  0.49878803949E+01  0.10976835682E+02  0.16160583978E+03  0.16210888231E+03  0.41800000000E+01 0.  1.
        -11    1    1    2    0    0  0.25915780216E+02  0.44325114681E+02  0.69020750018E+02  0.86024458085E+02  0.00000000000E+00 0. -1.
         11    1    1    2    0    0 -0.48500727456E+02 -0.63912640690E+01  0.57047536971E+02  0.75150451061E+02  0.00000000000E+00 0.  1.
</event>
<event>
 7    1  0.2670433E-009  0.1767038E+03  0.7561462E-02  0.1171032E+00
          2   -1    0    0  501    0  0.00000000000E+00  0.00000000000E+00  0.55886145350E+03  0.55886145350E+03  0.00000000000E+00 0. -1.
         -2   -1    0    0    0  501 -0.00000000000E+00 -0.00000000000E+00 -0.63182158537E+02  0.63182158537E+02  0.00000000000E+00 0.  1.
         25    2    1    2    0    0  0.61774310886E+02 -0.13344356269E+03  0.20111019134E+03  0.27877535657E+03  0.12508853049E+03 0.  0.
          5    1    3    3  502    0  0.46110785861E+02 -0.21977021621E+01  0.11766277592E+02  0.47822088577E+02  0.41800000000E+01 0.  1.
         -5    1    3    3    0  502  0.15663525025E+02 -0.13124586053E+03  0.18934391375E+03  0.23095326799E+03  0.41800000000E+01 0.  1.
        -11    1    1    2    0    0 -0.18672862124E+02 -0.12609900397E+02  0.24958727844E+02  0.33624744810E+02  0.00000000000E+00 0.  1.
         11    1    1    2    0    0 -0.43101448762E+02  0.14605346309E+03  0.26961037578E+03  0.30964351066E+03  0.00000000000E+00 0. -1.
</event>
<event>
 7    1  0.2670433E-009  0.1112485E+03  0.7561462E-02  0.1258275E+00
         -2   -1    0    0    0  501 -0.00000000000E+00  0.00000000000E+00  0.33140207764E+02  0.33140207764E+02  0.00000000000E+00 0.  1.
          2   -1    0    0  501    0  0.00000000000E+00 -0.00000000000E+00 -0.41504324053E+03  0.41504324053E+03  0.00000000000E+00 0. -1.
         25    2    1    2    0    0 -0.26444108397E+02 -0.35257542782E+02 -0.21258198441E+03  0.25056065937E+03  0.12508860354E+03 0.  0.
          5    1    3    3  502    0 -0.76029608747E+02 -0.12378851334E+02 -0.13691078079E+03  0.15714888375E+03  0.41800000000E+01 0.  1.
         -5    1    3    3    0  502  0.49585500351E+02 -0.22878691448E+02 -0.75671203622E+02  0.93411775623E+02  0.41800000000E+01 0.  1.
        -11    1    1    2    0    0 -0.23997577811E+02 -0.67634406027E+01 -0.13093695688E+02  0.28161547122E+02  0.00000000000E+00 0.  1.
         11    1    1    2    0    0  0.50441686208E+02  0.42020983384E+02 -0.15622735267E+03  0.16946124180E+03  0.00000000000E+00 0. -1.
</event>
<event>
 7    1  0.2670433E-009  0.1712017E+03  0.7561462E-02  0.1176600E+00
          1   -1    0    0  501    0  0.00000000000E+00  0.00000000000E+00  0.75173242656E+03  0.75173242656E+03  0.00000000000E+00 0. -1.
         -1   -1    0    0    0  501 -0.00000000000E+00 -0.00000000000E+00 -0.57901890749E+02  0.57901890749E+02  0.00000000000E+00 0.  1.
         25    2    1    2    0    0  0.19884780410E+02 -0.13519854661E+03  0.58279169782E+03  0.61152872262E+03  0.12508862475E+03 0.  0.
          5    1    3    3  502    0  0.62888510443E+02 -0.26915213688E+02  0.20434906567E+03  0.21553516305E+03  0.41800000000E+01 0. -1.
         -5    1    3    3    0  502 -0.43003730033E+02 -0.10828333292E+03  0.37844263216E+03  0.39599355957E+03  0.41800000000E+01 0. -1.
        -11    1    1    2    0    0  0.29555477109E+02  0.65207303042E+02  0.79015857075E+02  0.10662562669E+03  0.00000000000E+00 0.  1.
         11    1    1    2    0    0 -0.49440257519E+02  0.69991243567E+02  0.32022980918E+02  0.91479968007E+02  0.00000000000E+00 0. -1.
</event>
<event>
 7    1  0.2670433E-009  0.7244192E+02  0.7561462E-02  0.1351981E+00
          2   -1    0    0  501    0  0.00000000000E+00  0.00000000000E+00  0.15068551572E+03  0.15068551572E+03  0.00000000000E+00 0. -1.
         -2   -1    0    0    0  501 -0.00000000000E+00 -0.00000000000E+00 -0.89492713310E+02  0.89492713310E+02  0.00000000000E+00 0.  1.
         25    2    1    2    0    0  0.90272259474E+01 -0.32675335062E+02  0.46308757405E+02  0.13762674808E+03  0.12508977754E+03 0.  0.
          5    1    3    3  502    0  0.19554094521E+02 -0.67692581463E+02  0.65348331039E+02  0.96190046093E+02  0.41800000000E+01 0. -1.
         -5    1    3    3    0  502 -0.10526868573E+02  0.35017246402E+02 -0.19039573634E+02  0.41436701988E+02  0.41800000000E+01 0. -1.
        -11    1    1    2    0    0  0.36710208328E+01  0.16649502020E+02 -0.40269397330E+02  0.43729928799E+02  0.00000000000E+00 0.  1.
         11    1    1    2    0    0 -0.12698246780E+02  0.16025833042E+02  0.55153442330E+02  0.58821552146E+02  0.00000000000E+00 0. -1.
</event>
<event>
 7    1  0.2670433E-009  0.7494768E+02  0.7561462E-02  0.1344033E+00
          2   -1    0    0  501    0  0.00000000000E+00  0.00000000000E+00  0.68584839176E+03  0.68584839176E+03  0.00000000000E+00 0. -1.
         -2   -1    0    0    0  501 -0.00000000000E+00 -0.00000000000E+00 -0.20764528134E+02  0.20764528134E+02  0.00000000000E+00 0.  1.
         25    2    1    2    0    0 -0.20154798977E+02 -0.38043831209E+02  0.53757127314E+03  0.55361037902E+03  0.12509208220E+03 0.  0.
          5    1    3    3  502    0  0.56017395286E+01  0.11530185753E+02  0.36214590171E+00  0.13488076916E+02  0.41800000000E+01 0. -1.
         -5    1    3    3    0  502 -0.25756538505E+02 -0.49574016962E+02  0.53720912724E+03  0.54012230210E+03  0.41800000000E+01 0. -1.
        -11    1    1    2    0    0  0.40088480685E+02  0.31601468706E+01  0.40056293149E+02  0.56758959053E+02  0.00000000000E+00 0. -1.
         11    1    1    2    0    0 -0.19933681709E+02  0.34883684338E+02  0.87456297335E+02  0.96243581828E+02  0.00000000000E+00 0.  1.
</event>
<event>
 7    1  0.2670433E-009  0.1149463E+03  0.7561462E-02  0.1251675E+00
         -3   -1    0    0    0  501 -0.00000000000E+00  0.00000000000E+00  0.26490006595E+02  0.26490006595E+02  0.00000000000E+00 0.  1.
          3   -1    0    0  501    0  0.00000000000E+00 -0.00000000000E+00 -0.60650553580E+03  0.60650553580E+03  0.00000000000E+00 0. -1.
         25    2    1    2    0    0  0.39492884192E+02  0.17704030104E+02 -0.42973967670E+03  0.44966292500E+03  0.12508971100E+03 0.  0.
          5    1    3    3  502    0  0.72215186550E+02 -0.19845655300E+02 -0.32589439257E+03  0.33441517716E+03  0.41800000000E+01 0. -1.
         -5    1    3    3    0  502 -0.32722302358E+02  0.37549685404E+02 -0.10384528413E+03  0.11524774784E+03  0.41800000000E+01 0. -1.
        -11    1    1    2    0    0 -0.51435351586E+02 -0.49224611050E+02 -0.97964700836E+02  0.12110218964E+03  0.00000000000E+00 0. -1.
         11    1    1    2    0    0  0.11942467394E+02  0.31520580946E+02 -0.52311151666E+02  0.62230427760E+02  0.00000000000E+00 0.  1.
</event>
<event>
 7    1  0.2670433E-009  0.1033990E+03  0.7561462E-02  0.1273306E+00
         -2   -1    0    0    0  501 -0.00000000000E+00  0.00000000000E+00  0.98721183762E+02  0.98721183762E+02  0.00000000000E+00 0. -1.
          2   -1    0    0  501    0  0.00000000000E+00 -0.00000000000E+00 -0.19481886734E+03  0.19481886734E+03  0.00000000000E+00 0.  1.
         25    2    1    2    0    0 -0.48408732618E+02  0.64247632642E+02 -0.84566403808E+02  0.17108635180E+03  0.12509156417E+03 0.  0.
          5    1    3    3  502    0  0.41871796965E+00  0.19037476559E+02  0.31608978891E+02  0.37137592611E+02  0.41800000000E+01 0. -1.
         -5    1    3    3    0  502 -0.48827450588E+02  0.45210156083E+02 -0.11617538270E+03  0.13394875919E+03  0.41800000000E+01 0. -1.
        -11    1    1    2    0    0  0.25783954023E+01 -0.73772821806E+02 -0.15665375612E+02  0.75461787371E+02  0.00000000000E+00 0.  1.
         11    1    1    2    0    0  0.45830337216E+02  0.95251891646E+01  0.41340958437E+01  0.46991911925E+02  0.00000000000E+00 0. -1.
</event>
<event>
 7    1  0.2670433E-009  0.1668375E+03  0.7561462E-02  0.1181186E+00
         -2   -1    0    0    0  501 -0.00000000000E+00  0.00000000000E+00  0.35048442219E+02  0.35048442219E+02  0.00000000000E+00 0.  1.
          2   -1    0    0  501    0  0.00000000000E+00 -0.00000000000E+00 -0.86311105825E+03  0.86311105825E+03  0.00000000000E+00 0. -1.
         25    2    1    2    0    0 -0.12955809195E+03 -0.24159687855E+02 -0.50658968836E+03  0.53819054099E+03  0.12508779457E+03 0.  0.
          5    1    3    3  502    0 -0.10798454994E+03 -0.64899205286E+02 -0.43535885341E+03  0.45324096628E+03  0.41800000000E+01 0.  1.
         -5    1    3    3    0  502 -0.21573542001E+02  0.40739517430E+02 -0.71230834946E+02  0.84949574702E+02  0.41800000000E+01 0.  1.
        -11    1    1    2    0    0  0.67555980270E+02 -0.34606868555E+02 -0.13543740049E+03  0.15525699750E+03  0.00000000000E+00 0.  1.
         11    1    1    2    0    0  0.62002111675E+02  0.58766556410E+02 -0.18603552717E+03  0.20471196198E+03  0.00000000000E+00 0. -1.
</event>
<event>
 7    1  0.2670433E-009  0.9553354E+02  0.7561462E-02  0.1289979E+00
          1   -1    0    0  501    0  0.00000000000E+00  0.00000000000E+00  0.14476652294E+03  0.14476652294E+03  0.00000000000E+00 0. -1.
         -1   -1    0    0    0  501 -0.00000000000E+00 -0.00000000000E+00 -0.11150568559E+03  0.11150568559E+03  0.00000000000E+00 0.  1.
         25    2    1    2    0    0 -0.24851339165E+02  0.15752346409E+02 -0.40755469882E+02  0.13481224608E+03  0.12509039888E+03 0.  0.
          5    1    3    3  502    0 -0.20581187209E+02  0.67609149829E+02 -0.42518467967E+02  0.82582534024E+02  0.41800000000E+01 0. -1.
         -5    1    3    3    0  502 -0.42701519551E+01 -0.51856803421E+02  0.17629980850E+01  0.52229712052E+02  0.41800000000E+01 0. -1.
        -11    1    1    2    0    0 -0.62702186618E-01 -0.35979792103E+02 -0.48586974077E+01  0.36306422460E+02  0.00000000000E+00 0.  1.
         11    1    1    2    0    0  0.24914041351E+02  0.20227445694E+02  0.78875004645E+02  0.85153539994E+02  0.00000000000E+00 0. -1.
</event>
<event>
 7    1  0.2670433E-009  0.3661565E+03  0.7561462E-02  0.1056172E+00
         -1   -1    0    0    0  501 -0.00000000000E+00  0.00000000000E+00  0.25994533300E+03  0.25994533300E+03  0.00000000000E+00 0.  1.
          1   -1    0    0  501    0  0.00000000000E+00 -0.00000000000E+00 -0.72257885929E+03  0.72257885929E+03  0.00000000000E+00 0. -1.
         25    2    1    2    0    0  0.31169109797E+03  0.17386924746E+03  0.16586714268E+02  0.37855809921E+03  0.12509700083E+03 0.  0.
          5    1    3    3  502    0  0.12825284516E+02  0.33208030544E+02 -0.27652229879E+02  0.45270072154E+02  0.41800000000E+01 0. -1.
         -5    1    3    3    0  502  0.29886581345E+03  0.14066121692E+03  0.44238944147E+02  0.33328802705E+03  0.41800000000E+01 0. -1.
        -11    1    1    2    0    0 -0.24008623315E+03 -0.17045934928E+03 -0.36284844004E+03  0.46728661392E+03  0.00000000000E+00 0.  1.
         11    1    1    2    0    0 -0.71604864817E+02 -0.34098981841E+01 -0.11637180051E+03  0.13667947917E+03  0.00000000000E+00 0. -1.
</event>
<event>
 7    1  0.2670433E-009  0.1990264E+03  0.7561462E-02  0.1150563E+00
          1   -1    0    0  501    0  0.00000000000E+00  0.00000000000E+00  0.16608222959E+03  0.16608222959E+03  0.00000000000E+00 0. -1.
         -1   -1    0    0    0  501 -0.00000000000E+00 -0.00000000000E+00 -0.33875954343E+03  0.33875954343E+03  0.00000000000E+00 0.  1.
         25    2    1    2    0    0  0.14606697414E+03  0.87008054256E+02 -0.22038394832E+03  0.30515977393E+03  0.12508972983E+03 0.  0.
          5    1    3    3  502    0  0.12022127311E+03  0.11497293033E+03 -0.20460763412E+03  0.26373032734E+03  0.41800000000E+01 0.  1.
         -5    1    3    3    0  502  0.25845701029E+02 -0.27964876071E+02 -0.15776314196E+02  0.41429446592E+02  0.41800000000E+01 0.  1.
        -11    1    1    2    0    0 -0.21082700257E+02 -0.62524952084E+02  0.23491531176E+02  0.70040716160E+02  0.00000000000E+00 0.  1.
         11    1    1    2    0    0 -0.12498427388E+03 -0.24483102172E+02  0.24215103303E+02  0.12964128292E+03  0.00000000000E+00 0. -1.
</event>
<event>
 7    1  0.2670433E-009  0.1604203E+03  0.7561462E-02  0.1188223E+00
          3   -1    0    0  501    0  0.00000000000E+00  0.00000000000E+00  0.24654885732E+03  0.24654885732E+03  0.00000000000E+00 0. -1.
         -3   -1    0    0    0  501 -0.00000000000E+00 -0.00000000000E+00 -0.14342054896E+03  0.14342054896E+03  0.00000000000E+00 0.  1.
         25    2    1    2    0    0 -0.40906641621E+02  0.14458692878E+03  0.89197965002E+02  0.21490006122E+03  0.12508807316E+03 0.  0.
          5    1    3    3  502    0  0.19764834302E+02  0.55362205921E+02 -0.19117582766E+02  0.61956249808E+02  0.41800000000E+01 0.  1.
         -5    1    3    3    0  502 -0.60671475923E+02  0.89224722862E+02  0.10831554777E+03  0.15294381141E+03  0.41800000000E+01 0.  1.
        -11    1    1    2    0    0  0.15150744312E+02 -0.10872584488E+03  0.47492601350E+02  0.11960937079E+03  0.00000000000E+00 0. -1.
         11    1    1    2    0    0  0.25755897309E+02 -0.35861083906E+02 -0.33562257991E+02  0.55459974275E+02  0.00000000000E+00 0.  1.
</event>
<event>
 7    1  0.2670433E-009  0.6522767E+02  0.7561462E-02  0.1377117E+00
         -1   -1    0    0    0  501 -0.00000000000E+00  0.00000000000E+00  0.99044841251E+02  0.99044841251E+02  0.00000000000E+00 0. -1.
          1   -1    0    0  501    0  0.00000000000E+00 -0.00000000000E+00 -0.16411881438E+03  0.16411881438E+03  0.00000000000E+00 0.  1.
         25    2    1    2    0    0  0.31152559162E+02 -0.88285537199E+01  0.22735251489E+02  0.13120643810E+03  0.12509921037E+03 0.  0.
          5    1    3    3  502    0  0.18071083979E+02 -0.14929407266E+02 -0.50825619264E+02  0.56126350773E+02  0.41800000000E+01 0. -1.
         -5    1    3    3    0  502  0.13081475183E+02  0.61008535457E+01  0.73560870754E+02  0.75080087327E+02  0.41800000000E+01 0. -1.
        -11    1    1    2    0    0 -0.41627949721E+02  0.40609489000E+02 -0.30686337627E+02  0.65754605251E+02  0.00000000000E+00 0. -1.
         11    1    1    2    0    0  0.10475390559E+02 -0.31780935280E+02 -0.57122886994E+02  0.66202612283E+02  0.00000000000E+00 0.  1.
</event>
<event>
 7    1  0.2670433E-009  0.2136698E+03  0.7561462E-02  0.1138692E+00
         -3   -1    0    0    0  501 -0.00000000000E+00  0.00000000000E+00  0.35958099819E+03  0.35958099819E+03  0.00000000000E+00 0.  1.
          3   -1    0    0  501    0  0.00000000000E+00 -0.00000000000E+00 -0.14088057218E+03  0.14088057218E+03  0.00000000000E+00 0. -1.
         25    2    1    2    0    0  0.11917528841E+03  0.14700509608E+03  0.17384555344E+03  0.28579376389E+03  0.12507018584E+03 0.  0.
          5    1    3    3  502    0  0.10974229508E+03  0.36322676032E+02  0.87835154659E+02  0.14524184974E+03  0.41800000000E+01 0.  1.
         -5    1    3    3    0  502  0.94329933279E+01  0.11068242005E+03  0.86010398779E+02  0.14055191414E+03  0.41800000000E+01 0.  1.
        -11    1    1    2    0    0 -0.11467943761E+03 -0.96724080714E+02  0.60581557609E+02  0.16179322088E+03  0.00000000000E+00 0.  1.
         11    1    1    2    0    0 -0.44958507985E+01 -0.50281015366E+02 -0.15726685045E+02  0.52874585607E+02  0.00000000000E+00 0. -1.
</event>
<event>
 7    1  0.2670433E-009  0.9090318E+02  0.7561462E-02  0.1300679E+00
          2   -1    0    0  501    0  0.00000000000E+00  0.00000000000E+00  0.56075814175E+03  0.56075814175E+03  0.00000000000E+00 0. -1.
         -2   -1    0    0    0  501 -0.00000000000E+00 -0.00000000000E+00 -0.21112394390E+02  0.21112394390E+02  0.00000000000E+00 0.  1.
         25    2    1    2    0    0  0.19744130811E+00  0.82513880085E+01  0.37393653055E+03  0.39439116241E+03  0.12509090984E+03 0.  0.
          5    1    3    3  502    0  0.14530213798E+02 -0.53946300126E+02  0.11863461049E+03  0.13119822261E+03  0.41800000000E+01 0.  1.
         -5    1    3    3    0  502 -0.14332772490E+02  0.62197688135E+02  0.25530192006E+03  0.26319293980E+03  0.41800000000E+01 0.  1.
        -11    1    1    2    0    0 -0.28393868492E+02 -0.15978214307E+02  0.18647818117E+02  0.37540061547E+02  0.00000000000E+00 0.  1.
         11    1    1    2    0    0  0.28196427184E+02  0.77268262985E+01  0.14706139870E+03  0.14993931218E+03  0.00000000000E+00 0. -1.
</event>
<event>
 7    1  0.2670433E-009  0.7740189E+02  0.7561462E-02  0.1336590E+00
          2   -1    0    0  501    0  0.00000000000E+00  0.00000000000E+00  0.10206209953E+03  0.10206209953E+03  0.00000000000E+00 0. -1.
         -2   -1    0    0    0  501 -0.00000000000E+00 -0.00000000000E+00 -0.12159913950E+03  0.12159913950E+03  0.00000000000E+00 0.  1.
         25    2    1    2    0    0  0.29900244980E+01 -0.25880572746E+02 -0.21621944325E+02  0.12959192852E+03  0.12509122739E+03 0.  0.
          5    1    3    3  502    0 -0.44267858082E+02  0.64288830135E+01  0.28654547531E+02  0.53287233839E+02  0.41800000000E+01 0.  1.
         -5    1    3    3    0  502  0.47257882580E+02 -0.32309455760E+02 -0.50276491857E+02  0.76304694685E+02  0.41800000000E+01 0.  1.
        -11    1    1    2    0    0 -0.49902116566E+00 -0.13254096493E+02  0.38398059529E+02  0.40624267028E+02  0.00000000000E+00 0. -1.
         11    1    1    2    0    0 -0.24910033324E+01  0.39134669240E+02 -0.36313155167E+02  0.53445043477E+02  0.00000000000E+00 0.  1.
</event>
<event>
 7    1  0.2670433E-009  0.2443280E+03  0.7561462E-02  0.1116943E+00
          1   -1    0    0  501    0  0.00000000000E+00  0.00000000000E+00  0.12699331885E+03  0.12699331885E+03  0.00000000000E+00 0. -1.
         -1   -1    0    0    0  501 -0.00000000000E+00 -0.00000000000E+00 -0.58079181713E+03  0.58079181713E+03  0.00000000000E+00 0.  1.
         25    2    1    2    0    0 -0.21182062689E+03 -0.63770068473E+02 -0.81627412067E+02  0.26691412672E+03  0.12508204121E+03 0.  0.
          5    1    3    3  502    0 -0.14139943171E+03 -0.10022942886E+03 -0.68571218619E+02  0.18643825283E+03  0.41800000000E+01 0.  1.
         -5    1    3    3    0  502 -0.70421195182E+02  0.36459360388E+02 -0.13056193448E+02  0.80475873889E+02  0.41800000000E+01 0.  1.
        -11    1    1    2    0    0  0.14871297547E+03  0.37137009672E+01 -0.24783156016E+03  0.28904986224E+03  0.00000000000E+00 0.  1.
         11    1    1    2    0    0  0.63107651424E+02  0.60056367506E+02 -0.12433952605E+03  0.15182114703E+03  0.00000000000E+00 0. -1.
</event>
<event>
 7    1  0.2670433E-009  0.1015261E+03  0.7561462E-02  0.1277119E+00
          1   -1    0    0  501    0  0.00000000000E+00  0.00000000000E+00  0.21661098904E+02  0.21661098904E+02  0.00000000000E+00 0. -1.
         -1   -1    0    0    0  501 -0.00000000000E+00 -0.00000000000E+00 -0.68247383715E+03  0.68247383715E+03  0.00000000000E+00 0.  1.
         25    2    1    2    0    0  0.16000557988E+02  0.28490988812E+02 -0.49275865902E+03  0.50943760941E+03  0.12509127687E+03 0.  0.
          5    1    3    3  502    0  0.18389360392E+02  0.65896595948E+02 -0.15373242505E+03  0.16832011420E+03  0.41800000000E+01 0. -1.
         -5    1    3    3    0  502 -0.23888024041E+01 -0.37405607135E+02 -0.33902623397E+03  0.34111749522E+03  0.41800000000E+01 0. -1.
        -11    1    1    2    0    0  0.26775414121E+02 -0.43822989426E+02 -0.72016386038E+02  0.88451891227E+02  0.00000000000E+00 0.  1.
         11    1    1    2    0    0 -0.42775972109E+02  0.15332000614E+02 -0.96037693190E+02  0.10624543541E+03  0.00000000000E+00 0. -1.
</event>
<event>
 7    1  0.2670433E-009  0.1032094E+03  0.7561462E-02  0.1273688E+00
          1   -1    0    0  501    0  0.00000000000E+00  0.00000000000E+00  0.38350928030E+02  0.38350928030E+02  0.00000000000E+00 0. -1.
         -1   -1    0    0    0  501 -0.00000000000E+00 -0.00000000000E+00 -0.43201532739E+03  0.43201532739E+03  0.00000000000E+00 0.  1.
         25    2    1    2    0    0  0.45463264035E+02  0.80420543254E+01 -0.31124845365E+03  0.33860755799E+03  0.12509154814E+03 0.  0.
          5    1    3    3  502    0 -0.28039554449E+02  0.22223503957E+02 -0.20750120070E+03  0.21060465672E+03  0.41800000000E+01 0. -1.
         -5    1    3    3    0  502  0.73502818484E+02 -0.14181449632E+02 -0.10374725295E+03  0.12800290127E+03  0.41800000000E+01 0. -1.
        -11    1    1    2    0    0 -0.27151086465E+02 -0.45921889785E+02 -0.69763708905E+02  0.87823553434E+02  0.00000000000E+00 0.  1.
         11    1    1    2    0    0 -0.18312177569E+02  0.37879835459E+02 -0.12652236809E+02  0.43935143997E+02  0.00000000000E+00 0. -1.
</event>
<event>
 7    1  0.4023992E-009  0.1299673E+03  0.7561462E-02  0.1227504E+00
         -2   -1    0    0    0  501 -0.00000000000E+00  0.00000000000E+00  0.25869410451E+02  0.25869410451E+02  0.00000000000E+00 0.  1.
          2   -1    0    0  501    0  0.00000000000E+00 -0.00000000000E+00 -0.76793283637E+03  0.76793283637E+03  0.00000000000E+00 0. -1.
         25    2    1    2    0    0 -0.64401519624E+02 -0.43794918532E+02 -0.53216067471E+03  0.55218549667E+03  0.12509311891E+03 0.  0.
          5    1    3    3  502    0 -0.81196138863E+02 -0.74395452969E+02 -0.43873652348E+03  0.45236567711E+03  0.41800000000E+01 0.  1.
         -5    1    3    3    0  502  0.16794619239E+02  0.30600534437E+02 -0.93424151234E+02  0.99819819560E+02  0.41800000000E+01 0.  1.
        -11    1    1    2    0    0  0.21401865228E+02  0.63694284664E+02 -0.87212955507E+02  0.11009587341E+03  0.00000000000E+00 0.  1.
         11    1    1    2    0    0  0.42999654396E+02 -0.19899366132E+02 -0.12268979570E+03  0.13152087674E+03  0.00000000000E+00 0. -1.
</event>
<event>
 7    1  0.3123296E-009  0.1069175E+03  0.7561462E-02  0.1266387E+00
          1   -1    0    0  501    0  0.00000000000E+00  0.00000000000E+00  0.89701879381E+03  0.89701879381E+03  0.00000000000E+00 0. -1.
         -1   -1    0    0    0  501 -0.00000000000E+00 -0.00000000000E+00 -0.14129170626E+02  0.14129170626E+02  0.00000000000E+00 0.  1.
         25    2    1    2    0    0  0.20006585150E+02 -0.80664879013E+01  0.59605565077E+03  0.60942257346E+03  0.12509277579E+03 0.  0.
          5    1    3    3  502    0  0.44665273268E+02 -0.54524972013E+02  0.40977773144E+03  0.41581633060E+03  0.41800000000E+01 0. -1.
         -5    1    3    3    0  502 -0.24658688118E+02  0.46458484112E+02  0.18627791933E+03  0.19360624286E+03  0.41800000000E+01 0. -1.
        -11    1    1    2    0    0 -0.19713253207E+02  0.47292971275E+02  0.12268548014E+03  0.13295474614E+03  0.00000000000E+00 0.  1.
         11    1    1    2    0    0 -0.29333194296E+00 -0.39226483373E+02  0.16414849227E+03  0.16877064483E+03  0.00000000000E+00 0. -1.
</event>
<event>
 7    1  0.2670433E-009  0.1863291E+03  0.7561462E-02  0.1161815E+00
         -2   -1    0    0    0  501 -0.00000000000E+00  0.00000000000E+00  0.15108220007E+03  0.15108220007E+03  0.00000000000E+00 0.  1.
          2   -1    0    0  501    0  0.00000000000E+00 -0.00000000000E+00 -0.27012100576E+03  0.27012100576E+03  0.00000000000E+00 0. -1.
         25    2    1    2    0    0  0.14475368546E+03 -0.84725967199E+02 -0.93696511880E+02  0.22925760423E+03  0.12509154164E+03 0.  0.
          5    1    3    3  502    0  0.11247402044E+02 -0.59943444807E+02 -0.67200505155E+02  0.90846579028E+02  0.41800000000E+01 0.  1.
         -5    1    3    3    0  502  0.13350628341E+03 -0.24782522393E+02 -0.26496006726E+02  0.13841102521E+03  0.41800000000E+01 0.  1.
        -11    1    1    2    0    0 -0.92930836871E+02  0.81742088782E+02  0.17039125188E+02  0.12493294724E+03  0.00000000000E+00 0.  1.
         11    1    1    2    0    0 -0.51822848584E+02  0.29838784168E+01 -0.42381419004E+02  0.67012654347E+02  0.00000000000E+00 0. -1.
</event>
<event>
 7    1  0.2670433E-009  0.1122228E+03  0.7561462E-02  0.1256508E+00
         -2   -1    0    0    0  501 -0.00000000000E+00  0.00000000000E+00  0.17456104255E+02  0.17456104255E+02  0.00000000000E+00 0.  1.
          2   -1    0    0  501    0  0.00000000000E+00 -0.00000000000E+00 -0.13226687328E+04  0.13226687328E+04  0.00000000000E+00 0. -1.
         25    2    1    2    0    0 -0.48350224293E+02  0.63309694753E+02 -0.10137702714E+04  0.10245601749E+04  0.12509007648E+03 0.  0.
          5    1    3    3  502    0  0.13903618786E+02  0.44688528887E+02 -0.12718636033E+03  0.13558841353E+03  0.41800000000E+01 0. -1.
         -5    1    3    3    0  502 -0.62253843079E+02  0.18621165866E+02 -0.88658391103E+03  0.88897176136E+03  0.41800000000E+01 0. -1.
        -11    1    1    2    0    0  0.32418547066E+02  0.12599926926E+02 -0.15272249999E+03  0.15663295425E+03  0.00000000000E+00 0. -1.
         11    1    1    2    0    0  0.15931677227E+02 -0.75909621679E+02 -0.13871985719E+03  0.15893170792E+03  0.00000000000E+00 0.  1.
</event>
<event>
 7    1  0.2670433E-009  0.1105989E+03  0.7561462E-02  0.1259465E+00
          2   -1    0    0  501    0  0.00000000000E+00  0.00000000000E+00  0.87674890077E+03  0.87674890077E+03  0.00000000000E+00 0. -1.
         -2   -1    0    0    0  501 -0.00000000000E+00 -0.00000000000E+00 -0.16835810861E+02  0.16835810861E+02  0.00000000000E+00 0.  1.
         25    2    1    2    0    0  0.14241244256E+02 -0.42127028198E+02  0.61019100723E+03  0.62446613082E+03  0.12508950274E+03 0.  0.
          5    1    3    3  502    0  0.11051950627E+02  0.40217383649E+02  0.11401589583E+03  0.12147707792E+03  0.41800000000E+01 0.  1.
         -5    1    3    3    0  502  0.31892936291E+01 -0.82344411846E+02  0.49617511140E+03  0.50298905290E+03  0.41800000000E+01 0.  1.
        -11    1    1    2    0    0  0.93644878838E+00 -0.26483024506E+02  0.10423376781E+03  0.10754955079E+03  0.00000000000E+00 0. -1.
         11    1    1    2    0    0 -0.15177693044E+02  0.68610052704E+02  0.14548831486E+03  0.16156903002E+03  0.00000000000E+00 0.  1.
</event>
<event>
 7    1  0.2670433E-009  0.1243147E+03  0.7561462E-02  0.1236144E+00
         -1   -1    0    0    0  501 -0.00000000000E+00  0.00000000000E+00  0.19921018143E+03  0.19921018143E+03  0.00000000000E+00 0.  1.
          1   -1    0    0  501    0  0.00000000000E+00 -0.00000000000E+00 -0.92196992943E+02  0.92196992943E+02  0.00000000000E+00 0. -1.
         25    2    1    2    0    0 -0.48263977254E+02 -0.62737211408E+02  0.12371575211E+02  0.14854758416E+03  0.12509180505E+03 0.  0.
          5    1    3    3  502    0 -0.61152961083E+02  0.14990910038E+02 -0.15308817190E+02  0.64932613660E+02  0.41800000000E+01 0.  1.
         -5    1    3    3    0  502  0.12888983829E+02 -0.77728121446E+02  0.27680392402E+02  0.83614970497E+02  0.41800000000E+01 0.  1.
        -11    1    1    2    0    0  0.42917820602E+02 -0.74083613504E+00  0.44113563932E+02  0.61550748868E+02  0.00000000000E+00 0.  1.
         11    1    1    2    0    0  0.53461566519E+01  0.63478047543E+02  0.50528049345E+02  0.81308841348E+02  0.00000000000E+00 0. -1.
</event>
<event>
 7    1  0.2670433E-009  0.1323078E+03  0.7561462E-02  0.1224071E+00
         -1   -1    0    0    0  501 -0.00000000000E+00  0.00000000000E+00  0.46338534238E+02  0.46338534238E+02  0.00000000000E+00 0.  1.
          1   -1    0    0  501    0  0.00000000000E+00 -0.00000000000E+00 -0.44580649892E+03  0.44580649892E+03  0.00000000000E+00 0. -1.
         25    2    1    2    0    0 -0.33419140599E+02 -0.72338120178E+02 -0.30937656009E+03  0.34308994375E+03  0.12508881238E+03 0.  0.
          5    1    3    3  502    0 -0.76334389621E+02 -0.17342640644E+02 -0.15964508712E+03  0.17785312048E+03  0.41800000000E+01 0. -1.
         -5    1    3    3    0  502  0.42915249022E+02 -0.54995479534E+02 -0.14973147297E+03  0.16523682327E+03  0.41800000000E+01 0. -1.
        -11    1    1    2    0    0 -0.25193776877E+02  0.45207248342E+02 -0.25435673184E+02  0.57666239399E+02  0.00000000000E+00 0.  1.
         11    1    1    2    0    0  0.58612917476E+02  0.27130871836E+02 -0.64655731414E+02  0.91388850011E+02  0.00000000000E+00 0. -1.
</event>
<event>
 7    1  0.2670433E-009  0.1508984E+03  0.7561462E-02  0.1199373E+00
          1   -1    0    0  501    0  0.00000000000E+00  0.00000000000E+00  0.97852426425E+02  0.97852426425E+02  0.00000000000E+00 0.  1.
         -1   -1    0    0    0  501 -0.00000000000E+00 -0.00000000000E+00 -0.33786659939E+03  0.33786659939E+03  0.00000000000E+00 0. -1.
         25    2    1    2    0    0  0.24475601100E+02 -0.11812145798E+03 -0.29304824845E+02  0.17623387837E+03  0.12509145951E+03 0.  0.
          5    1    3    3  502    0 -0.28902986876E+02 -0.97663978573E+02  0.15985718596E+02  0.10318260978E+03  0.41800000000E+01 0. -1.
         -5    1    3    3    0  502  0.53378587977E+02 -0.20457479409E+02 -0.45290543441E+02  0.73051268595E+02  0.41800000000E+01 0. -1.
        -11    1    1    2    0    0 -0.47922056997E+02  0.44940591542E+02 -0.54358012220E+02  0.85270005321E+02  0.00000000000E+00 0. -1.
         11    1    1    2    0    0  0.23446455896E+02  0.73180866441E+02 -0.15635133590E+03  0.17421514212E+03  0.00000000000E+00 0.  1.
</event>
<event>
 7    1  0.2670433E-009  0.1106228E+03  0.7561462E-02  0.1259421E+00
         -1   -1    0    0    0  501 -0.00000000000E+00  0.00000000000E+00  0.76754516583E+02  0.76754516583E+02  0.00000000000E+00 0.  1.
          1   -1    0    0  501    0  0.00000000000E+00 -0.00000000000E+00 -0.22853474062E+03  0.22853474062E+03  0.00000000000E+00 0. -1.
         25    2    1    2    0    0  0.56723596212E+02 -0.52559579532E+01 -0.26438896776E+02  0.13996948467E+03  0.12508896800E+03 0.  0.
          5    1    3    3  502    0  0.85008381688E+02 -0.30655211869E+02 -0.40641174327E+02  0.99173304990E+02  0.41800000000E+01 0. -1.
         -5    1    3    3    0  502 -0.28284785476E+02  0.25399253916E+02  0.14202277551E+02  0.40796179680E+02  0.41800000000E+01 0. -1.
        -11    1    1    2    0    0  0.16194182841E+02 -0.85681726845E+01  0.14774382148E+01  0.18380641031E+02  0.00000000000E+00 0.  1.
         11    1    1    2    0    0 -0.72917779053E+02  0.13824130638E+02 -0.12681876548E+03  0.14693913151E+03  0.00000000000E+00 0. -1.
</event>
<event>
 7    1  0.2670433E-009  0.8113714E+02  0.7561462E-02  0.1325855E+00
          1   -1    0    0  501    0  0.00000000000E+00  0.00000000000E+00  0.20014919456E+03  0.20014919456E+03  0.00000000000E+00 0. -1.
         -1   -1    0    0    0  501 -0.00000000000E+00 -0.00000000000E+00 -0.77224428787E+02  0.77224428787E+02  0.00000000000E+00 0.  1.
         25    2    1    2    0    0 -0.59549760193E+02 -0.36883720347E+02  0.99815382894E+02  0.17469120193E+03  0.12508925855E+03 0.  0.
          5    1    3    3  502    0 -0.16600170670E+02 -0.45244138023E+01 -0.29596658713E+02  0.34488702404E+02  0.41800000000E+01 0.  1.
         -5    1    3    3    0  502 -0.42949589523E+02 -0.32359306545E+02  0.12941204161E+03  0.14020249952E+03  0.41800000000E+01 0.  1.
        -11    1    1    2    0    0  0.68037319560E+02  0.18695167213E+02 -0.19373363367E+01  0.70585688366E+02  0.00000000000E+00 0.  1.
         11    1    1    2    0    0 -0.84875593673E+01  0.18188553134E+02  0.25046719220E+02  0.32096733055E+02  0.00000000000E+00 0. -1.
</event>
<event>
 7    1  0.2670433E-009  0.8514225E+02  0.7561462E-02  0.1315061E+00
          2   -1    0    0  501    0  0.00000000000E+00  0.00000000000E+00  0.15557863309E+03  0.15557863309E+03  0.00000000000E+00 0. -1.
         -2   -1    0    0    0  501 -0.00000000000E+00 -0.00000000000E+00 -0.99771713798E+02  0.99771713798E+02  0.00000000000E+00 0.  1.
         25    2    1    2    0    0 -0.46563649658E+02  0.15359577474E+02 -0.95180414347E+01  0.13469379735E+03  0.12509091031E+03 0.  0.
          5    1    3    3  502    0  0.67054867064E+01 -0.77478768258E+01  0.50135130969E+02  0.51341960467E+02  0.41800000000E+01 0. -1.
         -5    1    3    3    0  502 -0.53269136365E+02  0.23107454300E+02 -0.59653172404E+02  0.83351836879E+02  0.41800000000E+01 0. -1.
        -11    1    1    2    0    0  0.39707927509E+02  0.33324316185E+02  0.27908186854E+02  0.58873563250E+02  0.00000000000E+00 0.  1.
         11    1    1    2    0    0  0.68557221489E+01 -0.48683893659E+02  0.37416773867E+02  0.61782986288E+02  0.00000000000E+00 0. -1.
</event>
<event>
 7    1  0.4697190E-009  0.1289752E+03  0.7561462E-02  0.1228984E+00
         -2   -1    0    0    0  501 -0.00000000000E+00  0.00000000000E+00  0.36672308787E+02  0.36672308787E+02  0.00000000000E+00 0.  1.
          2   -1    0    0  501    0  0.00000000000E+00 -0.00000000000E+00 -0.65522800941E+03  0.65522800941E+03  0.00000000000E+00 0. -1.
         25    2    1    2    0    0 -0.10222113077E+03  0.65450627148E+01 -0.24031605193E+03  0.28963838246E+03  0.12508633162E+03 0.  0.
          5    1    3    3  502    0 -0.62232392429E+02  0.42627201351E+02 -0.47134832723E+02  0.89045571582E+02  0.41800000000E+01 0.  1.
         -5    1    3    3    0  502 -0.39988738341E+02 -0.36082138636E+02 -0.19318121921E+03  0.20059281088E+03  0.41800000000E+01 0.  1.
        -11    1    1    2    0    0  0.27358851497E+02  0.33682554576E+02 -0.68612201386E+02  0.81182851743E+02  0.00000000000E+00 0.  1.
         11    1    1    2    0    0  0.74862279274E+02 -0.40227617291E+02 -0.30962744731E+03  0.32107908399E+03  0.00000000000E+00 0. -1.
</event>
<event>
 7    1  0.2670433E-009  0.8882758E+02  0.7561462E-02  0.1305716E+00
         -1   -1    0    0    0  501 -0.00000000000E+00  0.00000000000E+00  0.28185694709E+03  0.28185694709E+03  0.00000000000E+00 0.  1.
          1   -1    0    0  501    0  0.00000000000E+00 -0.00000000000E+00 -0.60236693074E+02  0.60236693074E+02  0.00000000000E+00 0. -1.
         25    2    1    2    0    0 -0.24808799821E+02 -0.21701027300E+02  0.20660182444E+03  0.24376049728E+03  0.12509378495E+03 0.  0.
          5    1    3    3  502    0 -0.63538058125E+02 -0.36932503520E+02  0.17927393535E+03  0.19379811904E+03  0.41800000000E+01 0. -1.
         -5    1    3    3    0  502  0.38729258304E+02  0.15231476220E+02  0.27327889090E+02  0.49962378234E+02  0.41800000000E+01 0. -1.
        -11    1    1    2    0    0  0.41535510560E+02  0.16612964353E+02  0.45110572614E+02  0.63530724722E+02  0.00000000000E+00 0.  1.
         11    1    1    2    0    0 -0.16726710739E+02  0.50880629467E+01 -0.30092143048E+02  0.34802418162E+02  0.00000000000E+00 0. -1.
</event>
<event>
 7    1  0.2670433E-009  0.1350671E+03  0.7561462E-02  0.1220125E+00
         -2   -1    0    0    0  501 -0.00000000000E+00  0.00000000000E+00  0.49731790828E+02  0.49731790828E+02  0.00000000000E+00 0. -1.
          2   -1    0    0  501    0  0.00000000000E+00 -0.00000000000E+00 -0.55812638952E+03  0.55812638952E+03  0.00000000000E+00 0.  1.
         25    2    1    2    0    0  0.69366176802E+02  0.98177148902E+02 -0.34366388083E+03  0.38497217709E+03  0.12509314569E+03 0.  0.
          5    1    3    3  502    0 -0.20447793268E+02  0.31039839729E+02 -0.19585649799E+03  0.19939614867E+03  0.41800000000E+01 0. -1.
         -5    1    3    3    0  502  0.89813970069E+02  0.67137309173E+02 -0.14780738284E+03  0.18557602842E+03  0.41800000000E+01 0. -1.
        -11    1    1    2    0    0 -0.38807594059E+02 -0.62218127311E+02 -0.28429675586E+02  0.78647130760E+02  0.00000000000E+00 0. -1.
         11    1    1    2    0    0 -0.30558582743E+02 -0.35959021591E+02 -0.13630104228E+03  0.14423887250E+03  0.00000000000E+00 0.  1.
</event>
<event>
 7    1  0.2670433E-009  0.2338345E+03  0.7561462E-02  0.1123970E+00
          1   -1    0    0  501    0  0.00000000000E+00  0.00000000000E+00  0.10614418632E+04  0.10614418632E+04  0.00000000000E+00 0. -1.
         -1   -1    0    0    0  501 -0.00000000000E+00 -0.00000000000E+00 -0.69217595045E+02  0.69217595045E+02  0.00000000000E+00 0.  1.
         25    2    1    2    0    0  0.11197877270E+03  0.18176303011E+03  0.24444866953E+03  0.34782181652E+03  0.12509124414E+03 0.  0.
          5    1    3    3  502    0  0.10444706208E+03  0.58906784105E+02  0.88433811067E+02  0.14905438380E+03  0.41800000000E+01 0. -1.
         -5    1    3    3    0  502  0.75317106203E+01  0.12285624600E+03  0.15601485846E+03  0.19876743272E+03  0.41800000000E+01 0. -1.
        -11    1    1    2    0    0 -0.19116852422E+02 -0.96768006745E+02  0.23553715125E+03  0.25535710445E+03  0.00000000000E+00 0.  1.
         11    1    1    2    0    0 -0.92861920281E+02 -0.84995023362E+02  0.51223844740E+03  0.52748053729E+03  0.00000000000E+00 0. -1.
</event>
<event>
 7    1  0.2670433E-009  0.1113679E+03  0.7561462E-02  0.1258058E+00
         -2   -1    0    0    0  501 -0.00000000000E+00  0.00000000000E+00  0.54465261641E+02  0.54465261641E+02  0.00000000000E+00 0.  1.
          2   -1    0    0  501    0  0.00000000000E+00 -0.00000000000E+00 -0.28837434915E+03  0.28837434915E+03  0.00000000000E+00 0. -1.
         25    2    1    2    0    0 -0.67188103005E+01  0.60500202959E+02 -0.10079969979E+03  0.17179152833E+03  0.12508530192E+03 0.  0.
          5    1    3    3  502    0 -0.50009431551E+02  0.12582009084E+02  0.31971670091E+00  0.51738040313E+02  0.41800000000E+01 0.  1.
         -5    1    3    3    0  502  0.43290621251E+02  0.47918193875E+02 -0.10111941650E+03  0.12005348802E+03  0.41800000000E+01 0.  1.
        -11    1    1    2    0    0 -0.36967256464E+02 -0.77074618002E+01 -0.35816460623E+02  0.52046151341E+02  0.00000000000E+00 0. -1.
         11    1    1    2    0    0  0.43686066765E+02 -0.52792741159E+02 -0.97292927093E+02  0.11900193112E+03  0.00000000000E+00 0.  1.
</event>
<event>
 7    1  0.2670433E-009  0.1268488E+03  0.7561462E-02  0.1232208E+00
         -2   -1    0    0    0  501 -0.00000000000E+00  0.00000000000E+00  0.13561690712E+02  0.13561690712E+02  0.00000000000E+00 0.  1.
          2   -1    0    0  501    0  0.00000000000E+00 -0.00000000000E+00 -0.25857220211E+04  0.25857220211E+04  0.00000000000E+00 0. -1.
         25    2    1    2    0    0 -0.10772571388E+03 -0.35944208808E+02 -0.20850656856E+04  0.20918997852E+04  0.12509589328E+03 0.  0.
          5    1    3    3  502    0 -0.63900607621E+01 -0.32759006480E+02 -0.13262874260E+03  0.13682777915E+03  0.41800000000E+01 0.  1.
         -5    1    3    3    0  502 -0.10133565312E+03 -0.31852023275E+01 -0.19524369430E+04  0.19550720061E+04  0.41800000000E+01 0.  1.
        -11    1    1    2    0    0  0.71728618661E+02  0.63886378469E+01 -0.41734949977E+03  0.42351672268E+03  0.00000000000E+00 0. -1.
         11    1    1    2    0    0  0.35997095222E+02  0.29555570961E+02 -0.69745144970E+02  0.83867203877E+02  0.00000000000E+00 0.  1.
</event>
<event>
 7    1  0.2670433E-009  0.8957449E+02  0.7561462E-02  0.1303885E+00
          2   -1    0    0  501    0  0.00000000000E+00  0.00000000000E+00  0.71073978575E+03  0.71073978575E+03  0.00000000000E+00 0. -1.
         -2   -1    0    0    0  501 -0.00000000000E+00 -0.00000000000E+00 -0.20146240197E+02  0.20146240197E+02  0.00000000000E+00 0.  1.
         25    2    1    2    0    0  0.35795727661E+02 -0.19880701638E+02  0.47634964792E+03  0.49419963109E+03  0.12509081452E+03 0.  0.
          5    1    3    3  502    0 -0.22250263753E+02 -0.18178444834E+01  0.11657601328E+02  0.25529411752E+02  0.41800000000E+01 0.  1.
         -5    1    3    3    0  502  0.58045991414E+02 -0.18062857155E+02  0.46469204659E+03  0.46867021934E+03  0.41800000000E+01 0.  1.
        -11    1    1    2    0    0  0.15660858952E+02  0.37878471535E+02  0.56596633396E+02  0.69880040216E+02  0.00000000000E+00 0. -1.
         11    1    1    2    0    0 -0.51456586613E+02 -0.17997769897E+02  0.15764726424E+03  0.16680635464E+03  0.00000000000E+00 0.  1.
</event>
<event>
 7    1  0.2670433E-009  0.1044540E+03  0.7561462E-02  0.1271199E+00
         -2   -1    0    0    0  501 -0.00000000000E+00  0.00000000000E+00  0.25044891499E+02  0.25044891499E+02  0.00000000000E+00 0.  1.
          2   -1    0    0  501    0  0.00000000000E+00 -0.00000000000E+00 -0.54314987651E+03  0.54314987651E+03  0.00000000000E+00 0. -1.
         25    2    1    2    0    0 -0.37732241291E+02 -0.13474846035E+02 -0.25939470517E+03  0.29075201246E+03  0.12508327693E+03 0.  0.
          5    1    3    3  502    0  0.21534986651E+02  0.41653166671E+02 -0.12785787575E+03  0.13624922288E+03  0.41800000000E+01 0. -1.
         -5    1    3    3    0  502 -0.59267227942E+02 -0.55128012705E+02 -0.13153682943E+03  0.15450278958E+03  0.41800000000E+01 0. -1.
        -11    1    1    2    0    0  0.58306124828E+02  0.14829453143E+02 -0.24593617555E+03  0.25318791306E+03  0.00000000000E+00 0. -1.
         11    1    1    2    0    0 -0.20573883538E+02 -0.13546071087E+01 -0.12774104288E+02  0.24254842498E+02  0.00000000000E+00 0.  1.
</event>
<event>
 7    1  0.2670433E-009  0.1126701E+03  0.7561462E-02  0.1255704E+00
          3   -1    0    0  501    0  0.00000000000E+00  0.00000000000E+00  0.11157401000E+04  0.11157401000E+04  0.00000000000E+00 0. -1.
         -3   -1    0    0    0  501 -0.00000000000E+00 -0.00000000000E+00 -0.17530722957E+02  0.17530722957E+02  0.00000000000E+00 0.  1.
         25    2    1    2    0    0 -0.67200369495E+02  0.55399899042E+01  0.83222101665E+03  0.84426729854E+03  0.12509544226E+03 0.  0.
          5    1    3    3  502    0 -0.22637817684E+02  0.46774632836E+02  0.65134098142E+03  0.65342396922E+03  0.41800000000E+01 0. -1.
         -5    1    3    3    0  502 -0.44562551811E+02 -0.41234642931E+02  0.18088003523E+03  0.19084332932E+03  0.41800000000E+01 0. -1.
        -11    1    1    2    0    0  0.57010245351E+02 -0.44347169323E+02  0.15550577504E+03  0.17146103223E+03  0.00000000000E+00 0. -1.
         11    1    1    2    0    0  0.10190124143E+02  0.38807179418E+02  0.11048258534E+03  0.11754249218E+03  0.00000000000E+00 0.  1.
</event>
<event>
 7    1  0.2670433E-009  0.2368297E+03  0.7561462E-02  0.1121923E+00
         -2   -1    0    0    0  501 -0.00000000000E+00  0.00000000000E+00  0.60613862828E+02  0.60613862828E+02  0.00000000000E+00 0. -1.
          2   -1    0    0  501    0  0.00000000000E+00 -0.00000000000E+00 -0.12250949148E+04  0.12250949148E+04  0.00000000000E+00 0.  1.
         25    2    1    2    0    0 -0.35982323323E+02  0.22733465682E+03 -0.82812103424E+03  0.86856644863E+03  0.12508978596E+03 0.  0.
          5    1    3    3  502    0  0.23389988526E+02  0.99453945292E+02 -0.19792595785E+03  0.22277867041E+03  0.41800000000E+01 0.  1.
         -5    1    3    3    0  502 -0.59372311849E+02  0.12788071153E+03 -0.63019507639E+03  0.64578777822E+03  0.41800000000E+01 0.  1.
        -11    1    1    2    0    0  0.31626063000E+02 -0.17476867618E+03 -0.18322469292E+03  0.25517755804E+03  0.00000000000E+00 0. -1.
         11    1    1    2    0    0  0.43562603226E+01 -0.52565980641E+02 -0.15313532477E+03  0.16196477092E+03  0.00000000000E+00 0.  1.
</event>
<event>
 7    1  0.2670433E-009  0.1117141E+03  0.7561462E-02  0.1257428E+00
         -4   -1    0    0    0  501 -0.00000000000E+00  0.00000000000E+00  0.22656183519E+03  0.22656183519E+03  0.00000000000E+00 0. -1.
          4   -1    0    0  501    0  0.00000000000E+00 -0.00000000000E+00 -0.11331290496E+03  0.11331290496E+03  0.00000000000E+00 0.  1.
         25    2    1    2    0    0  0.84373481347E+02 -0.27027780019E+02 -0.21573395849E+02  0.15480438733E+03  0.12509836802E+03 0.  0.
          5    1    3    3  502    0  0.63962412731E+01  0.82307705211E+01 -0.59899249872E+02  0.60943006334E+02  0.41800000000E+01 0.  1.
         -5    1    3    3    0  502  0.77977240074E+02 -0.35258550540E+02  0.38325854023E+02  0.93861380995E+02  0.41800000000E+01 0.  1.
        -11    1    1    2    0    0 -0.65800114610E+02 -0.25679259235E+02  0.69287383814E+02  0.98943524262E+02  0.00000000000E+00 0.  1.
         11    1    1    2    0    0 -0.18573366737E+02  0.52707039254E+02  0.65534942269E+02  0.86126828555E+02  0.00000000000E+00 0. -1.
</event>
<event>
 7    1  0.2670433E-009  0.1152664E+03  0.7561462E-02  0.1251117E+00
         -2   -1    0    0    0  501 -0.00000000000E+00  0.00000000000E+00  0.93446601846E+02  0.93446601846E+02  0.00000000000E+00 0.  1.
          2   -1    0    0  501    0  0.00000000000E+00 -0.00000000000E+00 -0.17889628918E+03  0.17889628918E+03  0.00000000000E+00 0. -1.
         25    2    1    2    0    0  0.35975679282E+02  0.31914646910E+02 -0.10416337723E+03  0.16973466435E+03  0.12508818065E+03 0.  0.
          5    1    3    3  502    0  0.76596286063E+02  0.47347661847E+02 -0.65619915496E+02  0.11149994543E+03  0.41800000000E+01 0.  1.
         -5    1    3    3    0  502 -0.40620606781E+02 -0.15433014937E+02 -0.38543461733E+02  0.58234718920E+02  0.41800000000E+01 0.  1.
        -11    1    1    2    0    0 -0.62355770292E+02 -0.32559976719E+02  0.26381005805E+02  0.75128900164E+02  0.00000000000E+00 0.  1.
         11    1    1    2    0    0  0.26380091010E+02  0.64532980834E+00 -0.76673159066E+01  0.27479326510E+02  0.00000000000E+00 0. -1.
</event>
<event>
 7    1  0.2670433E-009  0.1144518E+03  0.7561462E-02  0.1252541E+00
          2   -1    0    0  501    0  0.00000000000E+00  0.00000000000E+00  0.36566266188E+03  0.36566266188E+03  0.00000000000E+00 0. -1.
         -2   -1    0    0    0  501 -0.00000000000E+00 -0.00000000000E+00 -0.38953594312E+02  0.38953594312E+02  0.00000000000E+00 0.  1.
         25    2    1    2    0    0 -0.42459418155E+02 -0.24540352412E+02  0.21357022108E+03  0.25231370267E+03  0.12507971113E+03 0.  0.
          5    1    3    3  502    0  0.42658718439E+02 -0.80158103484E+01  0.44749786826E+02  0.62482279851E+02  0.41800000000E+01 0. -1.
         -5    1    3    3    0  502 -0.85118136593E+02 -0.16524542064E+02  0.16882043425E+03  0.18983142282E+03  0.41800000000E+01 0. -1.
        -11    1    1    2    0    0  0.56027707386E+02  0.46409918325E+02  0.99244944173E+02  0.12305504239E+03  0.00000000000E+00 0. -1.
         11    1    1    2    0    0 -0.13568289231E+02 -0.21869565913E+02  0.13893902316E+02  0.29247511133E+02  0.00000000000E+00 0.  1.
</event>
<event>
 7    1  0.2670433E-009  0.1403698E+03  0.7561462E-02  0.1212832E+00
         -2   -1    0    0    0  501 -0.00000000000E+00  0.00000000000E+00  0.57308386938E+03  0.57308386938E+03  0.00000000000E+00 0.  1.
          2   -1    0    0  501    0  0.00000000000E+00 -0.00000000000E+00 -0.49592410594E+02  0.49592410594E+02  0.00000000000E+00 0. -1.
         25    2    1    2    0    0  0.56766282078E+01 -0.12872040757E+03  0.28045685886E+03  0.33302486365E+03  0.12509333592E+03 0.  0.
          5    1    3    3  502    0  0.16803659317E+01 -0.62481051747E+02  0.25375411296E+03  0.26137201017E+03  0.41800000000E+01 0.  1.
         -5    1    3    3    0  502  0.39962622761E+01 -0.66239355826E+02  0.26702745898E+02  0.71652853474E+02  0.41800000000E+01 0.  1.
        -11    1    1    2    0    0 -0.37639470287E+02  0.10573756579E+03  0.21060897782E+03  0.23864891385E+03  0.00000000000E+00 0.  1.
         11    1    1    2    0    0  0.31962842079E+02  0.22982841779E+02  0.32425622107E+02  0.51002502478E+02  0.00000000000E+00 0. -1.
</event>
<event>
 7    1  0.2670433E-009  0.8833194E+02  0.7561462E-02  0.1306942E+00
          2   -1    0    0  501    0  0.00000000000E+00  0.00000000000E+00  0.20535350117E+03  0.20535350117E+03  0.00000000000E+00 0. -1.
         -2   -1    0    0    0  501 -0.00000000000E+00 -0.00000000000E+00 -0.69422380574E+02  0.69422380574E+02  0.00000000000E+00 0.  1.
         25    2    1    2    0    0  0.89754689119E+01  0.47369736197E+02  0.66145932999E+02  0.14949185054E+03  0.12509227784E+03 0.  0.
          5    1    3    3  502    0  0.42496344481E+02 -0.13421274704E+02 -0.10521253881E+02  0.45980855713E+02  0.41800000000E+01 0.  1.
         -5    1    3    3    0  502 -0.33520875569E+02  0.60791010900E+02  0.76667186879E+02  0.10351099482E+03  0.41800000000E+01 0.  1.
        -11    1    1    2    0    0 -0.24663746981E+02 -0.31917904576E+02  0.87936960533E+02  0.96746896981E+02  0.00000000000E+00 0. -1.
         11    1    1    2    0    0  0.15688278070E+02 -0.15451831621E+02 -0.18151772936E+02  0.28537134228E+02  0.00000000000E+00 0.  1.
</event>
<event>
 7    1  0.2670433E-009  0.1375500E+03  0.7561462E-02  0.1216664E+00
          1   -1    0    0  501    0  0.00000000000E+00  0.00000000000E+00  0.24166100028E+03  0.24166100028E+03  0.00000000000E+00 0. -1.
         -1   -1    0    0    0  501 -0.00000000000E+00 -0.00000000000E+00 -0.78310621823E+02  0.78310621823E+02  0.00000000000E+00 0.  1.
         25    2    1    2    0    0  0.40671614311E+02  0.74358013267E+02  0.91391313495E+02  0.17659028876E+03  0.12509381900E+03 0.  0.
          5    1    3    3  502    0 -0.17695236104E+02  0.88953395080E+02  0.54816461715E+02  0.10605727109E+03  0.41800000000E+01 0. -1.
         -5    1    3    3    0  502  0.58366850415E+02 -0.14595381813E+02  0.36574851780E+02  0.70533017661E+02  0.41800000000E+01 0. -1.
        -11    1    1    2    0    0  0.31429370782E+01  0.19851420192E+02  0.12576820888E+02  0.23709351758E+02  0.00000000000E+00 0. -1.
         11    1    1    2    0    0 -0.43814551389E+02 -0.94209433458E+02  0.59382244068E+02  0.11967198159E+03  0.00000000000E+00 0.  1.
</event>
<event>
 7    1  0.2670433E-009  0.2150676E+03  0.7561462E-02  0.1137615E+00
          2   -1    0    0  501    0  0.00000000000E+00  0.00000000000E+00  0.37755282925E+03  0.37755282925E+03  0.00000000000E+00 0. -1.
         -2   -1    0    0    0  501 -0.00000000000E+00 -0.00000000000E+00 -0.13666493527E+03  0.13666493527E+03  0.00000000000E+00 0.  1.
         25    2    1    2    0    0  0.10903150928E+03 -0.16442405453E+03  0.96381560100E+02  0.25270444655E+03  0.12508793889E+03 0.  0.
          5    1    3    3  502    0  0.20517741640E+02  0.61796766940E+01 -0.18615294721E+02  0.28690899666E+02  0.41800000000E+01 0. -1.
         -5    1    3    3    0  502  0.88513767642E+02 -0.17060373122E+03  0.11499685482E+03  0.22401354689E+03  0.41800000000E+01 0. -1.
        -11    1    1    2    0    0  0.14131424112E+02  0.33239638845E+02  0.37945622277E+02  0.52387412496E+02  0.00000000000E+00 0.  1.
         11    1    1    2    0    0 -0.12316293339E+03  0.13118441568E+03  0.10656071161E+03  0.20912590547E+03  0.00000000000E+00 0. -1.
</event>
<event>
 7    1  0.4085606E-009  0.8087593E+02  0.7561462E-02  0.1326584E+00
         -1   -1    0    0    0  501 -0.00000000000E+00  0.00000000000E+00  0.24658945629E+02  0.24658945629E+02  0.00000000000E+00 0.  1.
          1   -1    0    0  501    0  0.00000000000E+00 -0.00000000000E+00 -0.11632839696E+04  0.11632839696E+04  0.00000000000E+00 0. -1.
         25    2    1    2    0    0 -0.16478704700E+02  0.29817904943E+02 -0.10439688333E+04  0.10519879908E+04  0.12508857973E+03 0.  0.
          5    1    3    3  502    0 -0.53214431421E+02  0.44337029900E+02 -0.89905502451E+03  0.90172887135E+03  0.41800000000E+01 0. -1.
         -5    1    3    3    0  502  0.36735726721E+02 -0.14519124957E+02 -0.14491380876E+03  0.15025911945E+03  0.41800000000E+01 0. -1.
        -11    1    1    2    0    0 -0.11753575152E+02 -0.19130421284E+02  0.11755738844E+02  0.25343972521E+02  0.00000000000E+00 0.  1.
         11    1    1    2    0    0  0.28232279852E+02 -0.10687483660E+02 -0.10641192949E+03  0.11061095186E+03  0.00000000000E+00 0. -1.
</event>
<event>
 7    1  0.2670433E-009  0.1397901E+03  0.7561462E-02  0.1213612E+00
          1   -1    0    0  501    0  0.00000000000E+00  0.00000000000E+00  0.19721392433E+03  0.19721392433E+03  0.00000000000E+00 0. -1.
         -1   -1    0    0    0  501 -0.00000000000E+00 -0.00000000000E+00 -0.14717964104E+03  0.14717964104E+03  0.00000000000E+00 0.  1.
         25    2    1    2    0    0  0.11715087177E+03  0.43565436855E+02 -0.14221878648E+02  0.17740464029E+03  0.12509144863E+03 0.  0.
          5    1    3    3  502    0  0.12167356059E+03  0.26978731116E+02  0.31298512467E+02  0.12856662305E+03  0.41800000000E+01 0. -1.
         -5    1    3    3    0  502 -0.45226888142E+01  0.16586705739E+02 -0.45520391115E+02  0.48838017247E+02  0.41800000000E+01 0. -1.
        -11    1    1    2    0    0 -0.81406492822E+02 -0.74527197076E+00  0.74411701539E+02  0.11029358018E+03  0.00000000000E+00 0. -1.
         11    1    1    2    0    0 -0.35744378953E+02 -0.42820164884E+02 -0.10155539608E+02  0.56695344890E+02  0.00000000000E+00 0.  1.
</event>
<event>
 7    1  0.2670433E-009  0.9862316E+02  0.7561462E-02  0.1283218E+00
         -1   -1    0    0    0  501 -0.00000000000E+00  0.00000000000E+00  0.20008227108E+03  0.20008227108E+03  0.00000000000E+00 0.  1.
          1   -1    0    0  501    0  0.00000000000E+00 -0.00000000000E+00 -0.75302597524E+02  0.75302597524E+02  0.00000000000E+00 0. -1.
         25    2    1    2    0    0  0.58677895799E+01 -0.21083372464E+02  0.13096470988E+03  0.18242911786E+03  0.12509871406E+03 0.  0.
          5    1    3    3  502    0  0.33883231478E+02  0.30931716274E+02  0.11057862868E+03  0.11979127667E+03  0.41800000000E+01 0. -1.
         -5    1    3    3    0  502 -0.28015441898E+02 -0.52015088738E+02  0.20386081197E+02  0.62637841180E+02  0.41800000000E+01 0. -1.
        -11    1    1    2    0    0 -0.22778858725E+02 -0.30270324965E+02 -0.85540915734E+01  0.38837371963E+02  0.00000000000E+00 0.  1.
         11    1    1    2    0    0  0.16911069145E+02  0.51353697430E+02  0.23690552520E+01  0.54118378783E+02  0.00000000000E+00 0. -1.
</event>
<event>
 7    1  0.2670433E-009  0.1037765E+03  0.7561462E-02  0.1272549E+00
         -2   -1    0    0    0  501 -0.00000000000E+00  0.00000000000E+00  0.12418404189E+03  0.12418404189E+03  0.00000000000E+00 0.  1.
          2   -1    0    0  501    0  0.00000000000E+00 -0.00000000000E+00 -0.18225589421E+03  0.18225589421E+03  0.00000000000E+00 0. -1.
         25    2    1    2    0    0 -0.85345701264E+02  0.16335008434E+02  0.27299566279E+02  0.15473590314E+03  0.12508881715E+03 0.  0.
          5    1    3    3  502    0 -0.13414226905E+02 -0.40213113830E+01 -0.47020683314E+02  0.49239511452E+02  0.41800000000E+01 0.  1.
         -5    1    3    3    0  502 -0.71931474359E+02  0.20356319817E+02  0.74320249593E+02  0.10549639169E+03  0.41800000000E+01 0.  1.
        -11    1    1    2    0    0  0.26549792718E+02 -0.45311487973E+02 -0.13082498116E+02  0.54121845798E+02  0.00000000000E+00 0.  1.
         11    1    1    2    0    0  0.58795908546E+02  0.28976479538E+02 -0.72288920483E+02  0.97582187169E+02  0.00000000000E+00 0. -1.
</event>
<event>
 7    1  0.2670433E-009  0.1466107E+03  0.7561462E-02  0.1204701E+00
          1   -1    0    0  501    0  0.00000000000E+00  0.00000000000E+00  0.61152666271E+03  0.61152666271E+03  0.00000000000E+00 0. -1.
         -1   -1    0    0    0  501 -0.00000000000E+00 -0.00000000000E+00 -0.49991535310E+02  0.49991535310E+02  0.00000000000E+00 0.  1.
         25    2    1    2    0    0  0.78395859422E+02 -0.11079573042E+03  0.28019741025E+03  0.33552985049E+03  0.12509231472E+03 0.  0.
          5    1    3    3  502    0  0.33114689793E+02 -0.80419943639E+02  0.53198655075E+02  0.10203685274E+03  0.41800000000E+01 0.  1.
         -5    1    3    3    0  502  0.45281169629E+02 -0.30375786785E+02  0.22699875518E+03  0.23349299775E+03  0.41800000000E+01 0.  1.
        -11    1    1    2    0    0 -0.67508141861E+02  0.37222933407E+02  0.20675765494E+03  0.22066178614E+03  0.00000000000E+00 0. -1.
         11    1    1    2    0    0 -0.10887717561E+02  0.73572797017E+02  0.74580062209E+02  0.10532656139E+03  0.00000000000E+00 0.  1.
</event>
<event>
 7    1  0.2670433E-009  0.1195637E+03  0.7561462E-02  0.1243819E+00
          1   -1    0    0  501    0  0.00000000000E+00  0.00000000000E+00  0.12709674864E+03  0.12709674864E+03  0.00000000000E+00 0. -1.
         -1   -1    0    0    0  501 -0.00000000000E+00 -0.00000000000E+00 -0.12825771827E+03  0.12825771827E+03  0.00000000000E+00 0.  1.
         25    2    1    2    0    0 -0.34484156350E+02  0.59141716525E+02 -0.11426478939E+02  0.14305219054E+03  0.12508583103E+03 0.  0.
          5    1    3    3  502    0  0.40081169988E+02  0.28451342753E+02  0.24025244047E+02  0.54869516525E+02  0.41800000000E+01 0. -1.
         -5    1    3    3    0  502 -0.74565326338E+02  0.30690373771E+02 -0.35451722987E+02  0.88182674018E+02  0.41800000000E+01 0. -1.
        -11    1    1    2    0    0 -0.16524104592E+02 -0.55510199978E+02  0.17849582298E+02  0.60605576661E+02  0.00000000000E+00 0.  1.
         11    1    1    2    0    0  0.51008260942E+02 -0.36315165467E+01 -0.75840729919E+01  0.51696699700E+02  0.00000000000E+00 0. -1.
</event>
<event>
 7    1  0.2670433E-009  0.1049313E+03  0.7561462E-02  0.1270255E+00
          2   -1    0    0  501    0  0.00000000000E+00  0.00000000000E+00  0.11521670765E+04  0.11521670765E+04  0.00000000000E+00 0. -1.
         -2   -1    0    0    0  501 -0.00000000000E+00 -0.00000000000E+00 -0.18686768593E+02  0.18686768593E+02  0.00000000000E+00 0.  1.
         25    2    1    2    0    0  0.19067835500E+02  0.68998765043E+02  0.88521639986E+03  0.89687236500E+03  0.12509017784E+03 0.  0.
          5    1    3    3  502    0 -0.19429204004E+02  0.46668687129E+02  0.11908325717E+03  0.12943629655E+03  0.41800000000E+01 0. -1.
         -5    1    3    3    0  502  0.38497039504E+02  0.22330077914E+02  0.76613314269E+03  0.76743606845E+03  0.41800000000E+01 0. -1.
        -11    1    1    2    0    0  0.34450234412E+02 -0.12583504592E+02  0.60453107857E+02  0.70708850142E+02  0.00000000000E+00 0.  1.
         11    1    1    2    0    0 -0.53518069911E+02 -0.56415260451E+02  0.18781080020E+03  0.20327262996E+03  0.00000000000E+00 0. -1.
</event>
<event>
 7    1  0.2670433E-009  0.1240053E+03  0.7561462E-02  0.1236632E+00
          2   -1    0    0  501    0  0.00000000000E+00  0.00000000000E+00  0.44910518392E+03  0.44910518392E+03  0.00000000000E+00 0. -1.
         -2   -1    0    0    0  501 -0.00000000000E+00 -0.00000000000E+00 -0.39553567274E+02  0.39553567274E+02  0.00000000000E+00 0.  1.
         25    2    1    2    0    0  0.61616025670E+01 -0.65296028684E+02  0.14278880762E+03  0.20084336324E+03  0.12509147160E+03 0.  0.
          5    1    3    3  502    0  0.43354472215E+02 -0.87292986873E+02  0.92935070768E+02  0.13473706096E+03  0.41800000000E+01 0. -1.
         -5    1    3    3    0  502 -0.37192869648E+02  0.21996958189E+02  0.49853736852E+02  0.66106302274E+02  0.41800000000E+01 0. -1.
        -11    1    1    2    0    0 -0.13668674132E+02  0.84929514923E+02  0.22855346600E+03  0.24420594173E+03  0.00000000000E+00 0. -1.
         11    1    1    2    0    0  0.75070715649E+01 -0.19633486239E+02  0.38209343024E+02  0.43609446221E+02  0.00000000000E+00 0.  1.
</event>
<event>
 7    1  0.2670433E-009  0.1110537E+03  0.7561462E-02  0.1258631E+00
         -1   -1    0    0    0  501 -0.00000000000E+00  0.00000000000E+00  0.13188196433E+02  0.13188196433E+02  0.00000000000E+00 0.  1.
          1   -1    0    0  501    0  0.00000000000E+00 -0.00000000000E+00 -0.12542075544E+04  0.12542075544E+04  0.00000000000E+00 0. -1.
         25    2    1    2    0    0 -0.32213225312E+02 -0.27208697148E+02 -0.95738276473E+03  0.96644013800E+03  0.12508707787E+03 0.  0.
          5    1    3    3  502    0  0.32654780868E+02 -0.52717689908E+02 -0.44213590688E+03  0.44648305914E+03  0.41800000000E+01 0. -1.
         -5    1    3    3    0  502 -0.64868006179E+02  0.25508992759E+02 -0.51524685785E+03  0.51995707886E+03  0.41800000000E+01 0. -1.
        -11    1    1    2    0    0 -0.24727409654E+02 -0.42241788365E+01 -0.29968047954E+02  0.39081611702E+02  0.00000000000E+00 0.  1.
         11    1    1    2    0    0  0.56940634966E+02  0.31432875985E+02 -0.25366854531E+03  0.26187400116E+03  0.00000000000E+00 0. -1.
</event>
<event>
 7    1  0.2670433E-009  0.1052492E+03  0.7561462E-02  0.1269629E+00
         -2   -1    0    0    0  501 -0.00000000000E+00  0.00000000000E+00  0.38749469046E+02  0.38749469046E+02  0.00000000000E+00 0.  1.
          2   -1    0    0  501    0  0.00000000000E+00 -0.00000000000E+00 -0.48305202003E+03  0.48305202003E+03  0.00000000000E+00 0. -1.
         25    2    1    2    0    0  0.30719159970E+02 -0.30303378497E+02 -0.38147104717E+03  0.40376905769E+03  0.12508929043E+03 0.  0.
          5    1    3    3  502    0 -0.31601250194E+02 -0.50000504578E+02 -0.11524289391E+03  0.12960357429E+03  0.41800000000E+01 0.  1.
         -5    1    3    3    0  502  0.62320410164E+02  0.19697126081E+02 -0.26622815326E+03  0.27416548340E+03  0.41800000000E+01 0.  1.
        -11    1    1    2    0    0  0.18319099825E+02 -0.11193969214E+02 -0.47296256323E+02  0.51940641383E+02  0.00000000000E+00 0. -1.
         11    1    1    2    0    0 -0.49038259795E+02  0.41497347711E+02 -0.15535247485E+02  0.66091789998E+02  0.00000000000E+00 0.  1.
</event>
<event>
 7    1  0.2670433E-009  0.1634485E+03  0.7561462E-02  0.1184858E+00
          2   -1    0    0  501    0  0.00000000000E+00  0.00000000000E+00  0.43188839364E+03  0.43188839364E+03  0.00000000000E+00 0. -1.
         -2   -1    0    0    0  501 -0.00000000000E+00 -0.00000000000E+00 -0.12526765017E+03  0.12526765017E+03  0.00000000000E+00 0.  1.
         25    2    1    2    0    0 -0.12806074659E+03  0.15701204881E+02  0.34978985417E+03  0.39325068202E+03  0.12508826555E+03 0.  0.
          5    1    3    3  502    0 -0.88987792780E+02  0.68912901896E+02  0.23914797602E+03  0.26434266047E+03  0.41800000000E+01 0.  1.
         -5    1    3    3    0  502 -0.39072953811E+02 -0.53211697016E+02  0.11064187815E+03  0.12890802155E+03  0.41800000000E+01 0.  1.
        -11    1    1    2    0    0 -0.89571154881E+01 -0.59534766978E+01 -0.22574895905E+02  0.25005993837E+02  0.00000000000E+00 0.  1.
         11    1    1    2    0    0  0.13701786208E+03 -0.97477281828E+01 -0.20594214797E+02  0.13889936795E+03  0.00000000000E+00 0. -1.
</event>
<event>
 7    1  0.2670433E-009  0.8580472E+02  0.7561462E-02  0.1313341E+00
          1   -1    0    0  501    0  0.00000000000E+00  0.00000000000E+00  0.92474206933E+02  0.92474206933E+02  0.00000000000E+00 0. -1.
         -1   -1    0    0    0  501 -0.00000000000E+00 -0.00000000000E+00 -0.20557962889E+03  0.20557962889E+03  0.00000000000E+00 0.  1.
         25    2    1    2    0    0 -0.28408745503E+02 -0.49228421046E+02 -0.12977064679E+03  0.18899061274E+03  0.12508611703E+03 0.  0.
          5    1    3    3  502    0  0.85276127103E+01 -0.55935970694E+02 -0.13897729191E+03  0.15011233481E+03  0.41800000000E+01 0. -1.
         -5    1    3    3    0  502 -0.36936358214E+02  0.67075496479E+01  0.92066451170E+01  0.38878277928E+02  0.41800000000E+01 0. -1.
        -11    1    1    2    0    0  0.42646096161E+02  0.45545436505E+02  0.45142802511E+02  0.77012654303E+02  0.00000000000E+00 0. -1.
         11    1    1    2    0    0 -0.14237350657E+02  0.36829845413E+01 -0.28477577682E+02  0.32050568786E+02  0.00000000000E+00 0.  1.
</event>
<event>
 7    1  0.2670433E-009  0.3586653E+03  0.7561462E-02  0.1059114E+00
          2   -1    0    0  501    0  0.00000000000E+00  0.00000000000E+00  0.79113392574E+03  0.79113392574E+03  0.00000000000E+00 0.  1.
         -2   -1    0    0    0  501 -0.00000000000E+00 -0.00000000000E+00 -0.21299885296E+03  0.21299885296E+03  0.00000000000E+00 0. -1.
         25    2    1    2    0    0 -0.16397482839E+02 -0.34388233825E+03  0.53178301593E+02  0.37013350512E+03  0.12508772859E+03 0.  0.
          5    1    3    3  502    0 -0.53814700654E+02 -0.80385970604E+02 -0.75517744491E+01  0.97120687672E+02  0.41800000000E+01 0.  1.
         -5    1    3    3    0  502  0.37417217815E+02 -0.26349636765E+03  0.60730076042E+02  0.27301281745E+03  0.41800000000E+01 0.  1.
        -11    1    1    2    0    0 -0.32777614178E+02  0.91274550404E+02  0.12160154211E+03  0.15553890377E+03  0.00000000000E+00 0.  1.
         11    1    1    2    0    0  0.49175097018E+02  0.25260778785E+03  0.40335522908E+03  0.47846036981E+03  0.00000000000E+00 0. -1.
</event>
<event>
 7    1  0.2670433E-009  0.1357773E+03  0.7561462E-02  0.1219127E+00
         -2   -1    0    0    0  501 -0.00000000000E+00  0.00000000000E+00  0.70205841685E+02  0.70205841685E+02  0.00000000000E+00 0.  1.
          2   -1    0    0  501    0  0.00000000000E+00 -0.00000000000E+00 -0.36588523247E+03  0.36588523247E+03  0.00000000000E+00 0. -1.
         25    2    1    2    0    0  0.55181923821E+02 -0.88745258871E+02 -0.84078247846E+02  0.18340327223E+03  0.12508734075E+03 0.  0.
          5    1    3    3  502    0  0.83069571016E+02 -0.18118512287E+02 -0.30701320857E+02  0.90492417465E+02  0.41800000000E+01 0. -1.
         -5    1    3    3    0  502 -0.27887647195E+02 -0.70626746584E+02 -0.53376926989E+02  0.92910854769E+02  0.41800000000E+01 0. -1.
        -11    1    1    2    0    0  0.10007873114E+01  0.26544450046E+02 -0.13985929876E+03  0.14235951971E+03  0.00000000000E+00 0. -1.
         11    1    1    2    0    0 -0.56182711132E+02  0.62200808825E+02 -0.71741844180E+02  0.11032828221E+03  0.00000000000E+00 0.  1.
</event>
<event>
 7    1  0.2670433E-009  0.1501837E+03  0.7561462E-02  0.1200247E+00
          1   -1    0    0  501    0  0.00000000000E+00  0.00000000000E+00  0.46893324234E+03  0.46893324234E+03  0.00000000000E+00 0. -1.
         -1   -1    0    0    0  501 -0.00000000000E+00 -0.00000000000E+00 -0.66870775136E+02  0.66870775136E+02  0.00000000000E+00 0.  1.
         25    2    1    2    0    0 -0.10607135733E+03 -0.17149442514E+02  0.34266206009E+03  0.38027572482E+03  0.12508838170E+03 0.  0.
          5    1    3    3  502    0  0.17777574175E+02  0.20172901016E+02  0.11713066547E+03  0.12024996164E+03  0.41800000000E+01 0.  1.
         -5    1    3    3    0  502 -0.12384893150E+03 -0.37322343530E+02  0.22553139462E+03  0.26002576318E+03  0.41800000000E+01 0.  1.
        -11    1    1    2    0    0  0.78650404419E+02  0.55738600619E+02  0.39792187997E+02  0.10428852257E+03  0.00000000000E+00 0. -1.
         11    1    1    2    0    0  0.27420952906E+02 -0.38589158105E+02  0.19608219112E+02  0.51239770084E+02  0.00000000000E+00 0.  1.
</event>
<event>
 7    1  0.2670433E-009  0.1325350E+03  0.7561462E-02  0.1223742E+00
          4   -1    0    0  501    0  0.00000000000E+00  0.00000000000E+00  0.35777232665E+02  0.35777232665E+02  0.00000000000E+00 0.  1.
         -4   -1    0    0    0  501 -0.00000000000E+00 -0.00000000000E+00 -0.70643486476E+03  0.70643486476E+03  0.00000000000E+00 0. -1.
         25    2    1    2    0    0  0.11749987350E+03 -0.14830643582E+02 -0.45213075361E+03  0.48383419409E+03  0.12508853166E+03 0.  0.
          5    1    3    3  502    0  0.12810725917E+03 -0.39272650605E+01 -0.45000040635E+03  0.46791530364E+03  0.41800000000E+01 0. -1.
         -5    1    3    3    0  502 -0.10607385663E+02 -0.10903378522E+02 -0.21303472528E+01  0.15918890452E+02  0.41800000000E+01 0. -1.
        -11    1    1    2    0    0 -0.22618047418E+02  0.13148061818E+02 -0.11500104249E+03  0.11793933768E+03  0.00000000000E+00 0. -1.
         11    1    1    2    0    0 -0.94881826087E+02  0.16825817645E+01 -0.10352583599E+03  0.14043856565E+03  0.00000000000E+00 0.  1.
</event>
<event>
 7    1  0.2670433E-009  0.1500161E+03  0.7561462E-02  0.1200453E+00
         -2   -1    0    0    0  501 -0.00000000000E+00  0.00000000000E+00  0.12515779243E+03  0.12515779243E+03  0.00000000000E+00 0. -1.
          2   -1    0    0  501    0  0.00000000000E+00 -0.00000000000E+00 -0.23089399816E+03  0.23089399816E+03  0.00000000000E+00 0.  1.
         25    2    1    2    0    0  0.80392380550E+01  0.12922425431E+03 -0.74222799570E+02  0.19472939421E+03  0.12508787208E+03 0.  0.
          5    1    3    3  502    0 -0.42552974632E+02  0.10674398363E+03 -0.78211779535E+02  0.13906684921E+03  0.41800000000E+01 0. -1.
         -5    1    3    3    0  502  0.50592212687E+02  0.22480270684E+02  0.39889799641E+01  0.55662544999E+02  0.41800000000E+01 0. -1.
        -11    1    1    2    0    0 -0.39810904831E+01 -0.90431887150E+02 -0.63754742109E+02  0.11071785058E+03  0.00000000000E+00 0.  1.
         11    1    1    2    0    0 -0.40581475719E+01 -0.38792367163E+02  0.32241335953E+02  0.50604545803E+02  0.00000000000E+00 0. -1.
</event>
<event>
 7    1  0.2670433E-009  0.1367653E+03  0.7561462E-02  0.1217749E+00
          3   -1    0    0  501    0  0.00000000000E+00  0.00000000000E+00  0.30840170969E+03  0.30840170969E+03  0.00000000000E+00 0. -1.
         -3   -1    0    0    0  501 -0.00000000000E+00 -0.00000000000E+00 -0.73170976220E+02  0.73170976220E+02  0.00000000000E+00 0.  1.
         25    2    1    2    0    0 -0.16374731300E+02  0.98647859751E+02  0.16005402013E+03  0.22641575840E+03  0.12508906521E+03 0.  0.
          5    1    3    3  502    0 -0.82131840553E+01 -0.26999462547E+02  0.94202003601E+01  0.30043966864E+02  0.41800000000E+01 0. -1.
         -5    1    3    3    0  502 -0.81615472444E+01  0.12564732230E+03  0.15063381977E+03  0.19637179154E+03  0.41800000000E+01 0. -1.
        -11    1    1    2    0    0  0.19913722342E+02  0.39147101501E+00  0.48644443679E+02  0.52564165435E+02  0.00000000000E+00 0. -1.
         11    1    1    2    0    0 -0.35389910420E+01 -0.99039330766E+02  0.26532269662E+02  0.10259276207E+03  0.00000000000E+00 0.  1.
</event>
<event>
 7    1  0.2670433E-009  0.9997897E+02  0.7561462E-02  0.1280340E+00
          2   -1    0    0  501    0  0.00000000000E+00  0.00000000000E+00  0.16874934954E+03  0.16874934954E+03  0.00000000000E+00 0. -1.
         -2   -1    0    0    0  501 -0.00000000000E+00 -0.00000000000E+00 -0.83035402016E+02  0.83035402016E+02  0.00000000000E+00 0.  1.
         25    2    1    2    0    0  0.36531035796E+02 -0.10320661327E+02  0.25015883045E+02  0.13309717302E+03  0.12509208782E+03 0.  0.
          5    1    3    3  502    0  0.35046286930E+02 -0.66009343636E+02  0.15017039755E+02  0.76344348565E+02  0.41800000000E+01 0. -1.
         -5    1    3    3    0  502  0.14847488658E+01  0.55688682309E+02  0.99988432903E+01  0.56752824455E+02  0.41800000000E+01 0. -1.
        -11    1    1    2    0    0 -0.55554933454E+01 -0.23049316465E+02 -0.16623553428E+02  0.28956467747E+02  0.00000000000E+00 0.  1.
         11    1    1    2    0    0 -0.30975542450E+02  0.33369977792E+02  0.77321617910E+02  0.89731110793E+02  0.00000000000E+00 0. -1.
</event>
<event>
 7    1  0.2670433E-009  0.1254710E+03  0.7561462E-02  0.1234335E+00
         -1   -1    0    0    0  501 -0.00000000000E+00  0.00000000000E+00  0.33138566881E+02  0.33138566881E+02  0.00000000000E+00 0.  1.
          1   -1    0    0  501    0  0.00000000000E+00 -0.00000000000E+00 -0.71103056528E+03  0.71103056528E+03  0.00000000000E+00 0. -1.
         25    2    1    2    0    0  0.82041302608E+02  0.44202099027E+02 -0.49112869929E+03  0.51530572607E+03  0.12509193082E+03 0.  0.
          5    1    3    3  502    0  0.73729906707E+02  0.68740559125E+02 -0.21024806098E+03  0.23320180779E+03  0.41800000000E+01 0. -1.
         -5    1    3    3    0  502  0.83113959011E+01 -0.24538460099E+02 -0.28088063832E+03  0.28210391828E+03  0.41800000000E+01 0. -1.
        -11    1    1    2    0    0  0.99269029459E+01 -0.28924342857E+02 -0.87473877752E+02  0.92665205448E+02  0.00000000000E+00 0. -1.
         11    1    1    2    0    0 -0.91968205554E+02 -0.15277756170E+02 -0.99289421351E+02  0.13619820064E+03  0.00000000000E+00 0.  1.
</event>
<event>
 7    1  0.2670433E-009  0.1289936E+03  0.7561462E-02  0.1228957E+00
          2   -1    0    0  501    0  0.00000000000E+00  0.00000000000E+00  0.12473607572E+04  0.12473607572E+04  0.00000000000E+00 0. -1.
         -2   -1    0    0    0  501 -0.00000000000E+00 -0.00000000000E+00 -0.17099905099E+02  0.17099905099E+02  0.00000000000E+00 0.  1.
         25    2    1    2    0    0  0.75922785111E+02  0.42477370468E+02  0.86445427543E+03  0.87777956027E+03  0.12508863184E+03 0.  0.
          5    1    3    3  502    0 -0.82230189382E+01  0.52021231760E+02  0.16617786425E+03  0.17437425716E+03  0.41800000000E+01 0. -1.
         -5    1    3    3    0  502  0.84145804050E+02 -0.95438612919E+01  0.69827641118E+03  0.70340530311E+03  0.41800000000E+01 0. -1.
        -11    1    1    2    0    0 -0.50535309858E+02  0.18893310434E+02  0.11182456324E+03  0.12415920290E+03  0.00000000000E+00 0.  1.
         11    1    1    2    0    0 -0.25387475253E+02 -0.61370680902E+02  0.25398201339E+03  0.26252189909E+03  0.00000000000E+00 0. -1.
</event>
<event>
 7    1  0.2670433E-009  0.1182296E+03  0.7561462E-02  0.1246047E+00
          2   -1    0    0  501    0  0.00000000000E+00  0.00000000000E+00  0.24500012903E+03  0.24500012903E+03  0.00000000000E+00 0. -1.
         -2   -1    0    0    0  501 -0.00000000000E+00 -0.00000000000E+00 -0.59435140389E+02  0.59435140389E+02  0.00000000000E+00 0.  1.
         25    2    1    2    0    0 -0.40086901635E+02 -0.29800050676E+02  0.12751535086E+03  0.18547797780E+03  0.12508762066E+03 0.  0.
          5    1    3    3  502    0 -0.84264031093E+02 -0.13870279691E+02  0.97068035513E+02  0.12935411672E+03  0.41800000000E+01 0.  1.
         -5    1    3    3    0  502  0.44177129458E+02 -0.15929770985E+02  0.30447315344E+02  0.56123861080E+02  0.41800000000E+01 0.  1.
        -11    1    1    2    0    0  0.68519762221E+02  0.10192380263E+02  0.37630710001E+02  0.78834718021E+02  0.00000000000E+00 0. -1.
         11    1    1    2    0    0 -0.28432860586E+02  0.19607670413E+02  0.20418927785E+02  0.40122573597E+02  0.00000000000E+00 0.  1.
</event>
<event>
 7    1  0.2670433E-009  0.7947674E+02  0.7561462E-02  0.1330543E+00
          3   -1    0    0  501    0  0.00000000000E+00  0.00000000000E+00  0.73978831947E+02  0.73978831947E+02  0.00000000000E+00 0. -1.
         -3   -1    0    0    0  501 -0.00000000000E+00 -0.00000000000E+00 -0.18024035072E+03  0.18024035072E+03  0.00000000000E+00 0.  1.
         25    2    1    2    0    0  0.39237953445E+02  0.18518321695E+02 -0.32708156624E+02  0.13638047056E+03  0.12508902435E+03 0.  0.
          5    1    3    3  502    0  0.51421895591E+02  0.15804784377E+02  0.37009647901E+02  0.65430795450E+02  0.41800000000E+01 0.  1.
         -5    1    3    3    0  502 -0.12183942146E+02  0.27135373178E+01 -0.69717804525E+02  0.70949675114E+02  0.41800000000E+01 0.  1.
        -11    1    1    2    0    0 -0.14603392691E+02 -0.49867317074E+02 -0.37443487248E+02  0.64047038398E+02  0.00000000000E+00 0.  1.
         11    1    1    2    0    0 -0.24634560754E+02  0.31348995379E+02 -0.36109874903E+02  0.53791673708E+02  0.00000000000E+00 0. -1.
</event>
<event>
 7    1  0.2670433E-009  0.2818871E+03  0.7561462E-02  0.1094663E+00
         -1   -1    0    0    0  501 -0.00000000000E+00  0.00000000000E+00  0.57687850055E+02  0.57687850055E+02  0.00000000000E+00 0.  1.
          1   -1    0    0  501    0  0.00000000000E+00 -0.00000000000E+00 -0.17754014480E+04  0.17754014480E+04  0.00000000000E+00 0. -1.
         25    2    1    2    0    0  0.26552503998E+03  0.31615711403E+02 -0.12690521641E+04  0.13029364961E+04  0.12508804022E+03 0.  0.
          5    1    3    3  502    0  0.17476824588E+03 -0.27340617242E+02 -0.94029658837E+03  0.95680018584E+03  0.41800000000E+01 0. -1.
         -5    1    3    3    0  502  0.90756794102E+02  0.58956328645E+02 -0.32875557568E+03  0.34613631029E+03  0.41800000000E+01 0. -1.
        -11    1    1    2    0    0 -0.14297178144E+03  0.22184973733E+02 -0.18894618316E+03  0.23797849373E+03  0.00000000000E+00 0.  1.
         11    1    1    2    0    0 -0.12255325855E+03 -0.53800685136E+02 -0.25971525068E+03  0.29217430814E+03  0.00000000000E+00 0. -1.
</event>
<event>
 7    1  0.2670433E-009  0.1384451E+03  0.7561462E-02  0.1215437E+00
         -2   -1    0    0    0  501 -0.00000000000E+00  0.00000000000E+00  0.91011407714E+02  0.91011407714E+02  0.00000000000E+00 0.  1.
          2   -1    0    0  501    0  0.00000000000E+00 -0.00000000000E+00 -0.27618665609E+03  0.27618665609E+03  0.00000000000E+00 0. -1.
         25    2    1    2    0    0  0.65762057831E+02  0.69345593681E+02 -0.17070381827E+03  0.23220972866E+03  0.12509238546E+03 0.  0.
          5    1    3    3  502    0  0.29450073079E+02  0.94362274773E+02 -0.67133137276E+02  0.11956536382E+03  0.41800000000E+01 0. -1.
         -5    1    3    3    0  502  0.36311984751E+02 -0.25016681091E+02 -0.10357068099E+03  0.11264436484E+03  0.41800000000E+01 0. -1.
        -11    1    1    2    0    0 -0.75291582772E+02 -0.12869680561E+02 -0.22058045440E+01  0.76415421792E+02  0.00000000000E+00 0.  1.
         11    1    1    2    0    0  0.95295249410E+01 -0.56475913120E+02 -0.12265625569E+02  0.58572913355E+02  0.00000000000E+00 0. -1.
</event>
<event>
 7    1  0.2670433E-009  0.1086698E+03  0.7561462E-02  0.1263053E+00
          2   -1    0    0  501    0  0.00000000000E+00  0.00000000000E+00  0.36793015422E+03  0.36793015422E+03  0.00000000000E+00 0. -1.
         -2   -1    0    0    0  501 -0.00000000000E+00 -0.00000000000E+00 -0.69783716493E+02  0.69783716493E+02  0.00000000000E+00 0.  1.
         25    2    1    2    0    0  0.40681983643E+02  0.88862051451E+02  0.70588619257E+02  0.17372862564E+03  0.12508954479E+03 0.  0.
          5    1    3    3  502    0  0.31767114999E+02  0.37997013897E+02 -0.31781102090E+02  0.58995199046E+02  0.41800000000E+01 0. -1.
         -5    1    3    3    0  502  0.89148686441E+01  0.50865037554E+02  0.10236972135E+03  0.11473342659E+03  0.41800000000E+01 0. -1.
        -11    1    1    2    0    0 -0.29715374732E+02 -0.36801769214E+01  0.13264564499E+03  0.13598313989E+03  0.00000000000E+00 0. -1.
         11    1    1    2    0    0 -0.10966608911E+02 -0.85181874529E+02  0.94912173479E+02  0.12800210519E+03  0.00000000000E+00 0.  1.
</event>
<event>
 7    1  0.2670433E-009  0.9237133E+02  0.7561462E-02  0.1297209E+00
         -1   -1    0    0    0  501 -0.00000000000E+00  0.00000000000E+00  0.42111609609E+03  0.42111609609E+03  0.00000000000E+00 0.  1.
          1   -1    0    0  501    0  0.00000000000E+00 -0.00000000000E+00 -0.28473766478E+02  0.28473766478E+02  0.00000000000E+00 0. -1.
         25    2    1    2    0    0 -0.13388208411E+02  0.65034638338E+01  0.21012269458E+03  0.24499064043E+03  0.12508927994E+03 0.  0.
          5    1    3    3  502    0 -0.27436219413E+02  0.47128070488E+02  0.18930510674E+03  0.19704744861E+03  0.41800000000E+01 0.  1.
         -5    1    3    3    0  502  0.14048011002E+02 -0.40624606654E+02  0.20817587837E+02  0.47943191824E+02  0.41800000000E+01 0.  1.
        -11    1    1    2    0    0  0.29543510739E+02  0.32934590521E+02  0.57740297663E+02  0.72742341547E+02  0.00000000000E+00 0.  1.
         11    1    1    2    0    0 -0.16155302327E+02 -0.39438054355E+02  0.12477933737E+03  0.13185688059E+03  0.00000000000E+00 0. -1.
</event>
<event>
 7    1  0.2670433E-009  0.1156004E+03  0.7561462E-02  0.1250537E+00
          2   -1    0    0  501    0  0.00000000000E+00  0.00000000000E+00  0.11565515280E+03  0.11565515280E+03  0.00000000000E+00 0. -1.
         -2   -1    0    0    0  501 -0.00000000000E+00 -0.00000000000E+00 -0.20969695345E+03  0.20969695345E+03  0.00000000000E+00 0.  1.
         25    2    1    2    0    0  0.85421302457E+02 -0.68976476970E+02 -0.84730879430E+02  0.18676419030E+03  0.12508791932E+03 0.  0.
          5    1    3    3  502    0  0.27601189161E+02 -0.51563386546E+02  0.23168300955E+02  0.63046419758E+02  0.41800000000E+01 0.  1.
         -5    1    3    3    0  502  0.57820113296E+02 -0.17413090424E+02 -0.10789918039E+03  0.12371777054E+03  0.41800000000E+01 0.  1.
        -11    1    1    2    0    0 -0.19328905733E+02  0.28816790518E+02 -0.42126272486E+02  0.54576889305E+02  0.00000000000E+00 0.  1.
         11    1    1    2    0    0 -0.66092396724E+02  0.40159686451E+02  0.32815351264E+02  0.84011026653E+02  0.00000000000E+00 0. -1.
</event>
<event>
 7    1  0.2670433E-009  0.1291955E+03  0.7561462E-02  0.1228654E+00
         -2   -1    0    0    0  501 -0.00000000000E+00  0.00000000000E+00  0.69644891130E+02  0.69644891130E+02  0.00000000000E+00 0. -1.
          2   -1    0    0  501    0  0.00000000000E+00 -0.00000000000E+00 -0.35561697130E+03  0.35561697130E+03  0.00000000000E+00 0.  1.
         25    2    1    2    0    0  0.49696186980E+02 -0.91451454350E+02 -0.21487704450E+03  0.26954264202E+03  0.12509201457E+03 0.  0.
          5    1    3    3  502    0  0.81737648103E+02 -0.67839188732E+02 -0.92932694478E+02  0.14119899698E+03  0.41800000000E+01 0. -1.
         -5    1    3    3    0  502 -0.32041461123E+02 -0.23612265618E+02 -0.12194435003E+03  0.12834364504E+03  0.41800000000E+01 0. -1.
        -11    1    1    2    0    0 -0.32772408948E+02  0.89153856333E+02 -0.89571418608E+02  0.13055833914E+03  0.00000000000E+00 0.  1.
         11    1    1    2    0    0 -0.16923778032E+02  0.22975980163E+01  0.18476382945E+02  0.25160881269E+02  0.00000000000E+00 0. -1.
</event>
<event>
 7    1  0.2670433E-009  0.9687990E+02  0.7561462E-02  0.1286997E+00
          2   -1    0    0  501    0  0.00000000000E+00  0.00000000000E+00  0.19601176822E+03  0.19601176822E+03  0.00000000000E+00 0. -1.
         -2   -1    0    0    0  501 -0.00000000000E+00 -0.00000000000E+00 -0.94729173757E+02  0.94729173757E+02  0.00000000000E+00 0.  1.
         25    2    1    2    0    0  0.63412718769E+02  0.13362076536E+02  0.11270041675E+03  0.18041750551E+03  0.12509745948E+03 0.  0.
          5    1    3    3  502    0  0.36674812497E+02 -0.46660337694E+02  0.95247626079E+02  0.11230232259E+03  0.41800000000E+01 0. -1.
         -5    1    3    3    0  502  0.26737906272E+02  0.60022414230E+02  0.17452790669E+02  0.68115182918E+02  0.41800000000E+01 0. -1.
        -11    1    1    2    0    0 -0.56762061591E+02 -0.39512347915E+01 -0.46445537282E+02  0.73448838151E+02  0.00000000000E+00 0.  1.
         11    1    1    2    0    0 -0.66506571781E+01 -0.94108417441E+01  0.35027714992E+02  0.36874598314E+02  0.00000000000E+00 0. -1.
</event>
<event>
 7    1  0.2670433E-009  0.9334605E+02  0.7561462E-02  0.1294945E+00
          2   -1    0    0  501    0  0.00000000000E+00  0.00000000000E+00  0.52955820878E+03  0.52955820878E+03  0.00000000000E+00 0. -1.
         -2   -1    0    0    0  501 -0.00000000000E+00 -0.00000000000E+00 -0.25721214087E+02  0.25721214087E+02  0.00000000000E+00 0.  1.
         25    2    1    2    0    0  0.13730906184E+02 -0.11910326421E+02  0.38471692684E+03  0.40494998890E+03  0.12508791328E+03 0.  0.
          5    1    3    3  502    0  0.20247509756E+02  0.54946317224E+02  0.16343904168E+03  0.17366304205E+03  0.41800000000E+01 0.  1.
         -5    1    3    3    0  502 -0.65166035711E+01 -0.66856643645E+02  0.22127788516E+03  0.23128694685E+03  0.41800000000E+01 0.  1.
        -11    1    1    2    0    0 -0.41164622327E+01 -0.23567354960E+02 -0.17556147806E+01  0.23988490248E+02  0.00000000000E+00 0.  1.
         11    1    1    2    0    0 -0.96144439518E+01  0.35477681381E+02  0.12087568264E+03  0.12634094373E+03  0.00000000000E+00 0. -1.
</event>
<event>
 7    1  0.2670433E-009  0.9984909E+02  0.7561462E-02  0.1280614E+00
          3   -1    0    0  501    0  0.00000000000E+00  0.00000000000E+00  0.74677098554E+03  0.74677098554E+03  0.00000000000E+00 0. -1.
         -3   -1    0    0    0  501 -0.00000000000E+00 -0.00000000000E+00 -0.20837806476E+02  0.20837806476E+02  0.00000000000E+00 0.  1.
         25    2    1    2    0    0  0.56266557091E+02 -0.37617637366E+01  0.46655044523E+03  0.48630940680E+03  0.12508974729E+03 0.  0.
          5    1    3    3  502    0 -0.17252464547E+02 -0.33296745941E+01  0.47511047398E+01  0.18675643552E+02  0.41800000000E+01 0.  1.
         -5    1    3    3    0  502  0.73519021638E+02 -0.43208914253E+00  0.46179934049E+03  0.46763376324E+03  0.41800000000E+01 0.  1.
        -11    1    1    2    0    0 -0.79316266732E+02 -0.11796663031E+02  0.20706598632E+03  0.22205079175E+03  0.00000000000E+00 0. -1.
         11    1    1    2    0    0  0.23049709641E+02  0.15558426768E+02  0.52316747510E+02  0.59248593469E+02  0.00000000000E+00 0.  1.
</event>
<event>
 7    1  0.2670433E-009  0.1245328E+03  0.7561462E-02  0.1235801E+00
          2   -1    0    0  501    0  0.00000000000E+00  0.00000000000E+00  0.20139857928E+03  0.20139857928E+03  0.00000000000E+00 0. -1.
         -2   -1    0    0    0  501 -0.00000000000E+00 -0.00000000000E+00 -0.14824418389E+03  0.14824418389E+03  0.00000000000E+00 0.  1.
         25    2    1    2    0    0  0.52433223380E+02  0.48705606774E+02 -0.86491531950E+02  0.16807368106E+03  0.12508596292E+03 0.  0.
          5    1    3    3  502    0 -0.98786603809E+01  0.67611727527E+02 -0.12797004699E+02  0.69643157305E+02  0.41800000000E+01 0.  1.
         -5    1    3    3    0  502  0.62311883761E+02 -0.18906120753E+02 -0.73694527251E+02  0.98430523754E+02  0.41800000000E+01 0.  1.
        -11    1    1    2    0    0 -0.71638072598E+02 -0.10242868051E+02  0.77849742657E+02  0.10628975597E+03  0.00000000000E+00 0.  1.
         11    1    1    2    0    0  0.19204849218E+02 -0.38462738722E+02  0.61796184686E+02  0.75279326148E+02  0.00000000000E+00 0. -1.
</event>
<event>
 7    1  0.4782054E-009  0.1046573E+03  0.7561462E-02  0.1270796E+00
         -1   -1    0    0    0  501 -0.00000000000E+00  0.00000000000E+00  0.25665165010E+02  0.25665165010E+02  0.00000000000E+00 0.  1.
          1   -1    0    0  501    0  0.00000000000E+00 -0.00000000000E+00 -0.64543788124E+03  0.64543788124E+03  0.00000000000E+00 0. -1.
         25    2    1    2    0    0  0.55044142677E+02  0.41389152111E+02 -0.34031346457E+03  0.36905781452E+03  0.12508995458E+03 0.  0.
          5    1    3    3  502    0  0.91478523453E+02  0.12799985770E+02 -0.26365331725E+03  0.27939703647E+03  0.41800000000E+01 0.  1.
         -5    1    3    3    0  502 -0.36434380776E+02  0.28589166342E+02 -0.76660147316E+02  0.89660778053E+02  0.41800000000E+01 0.  1.
        -11    1    1    2    0    0 -0.13148864285E+02 -0.18237695644E+02 -0.44730706145E+01  0.22924103802E+02  0.00000000000E+00 0.  1.
         11    1    1    2    0    0 -0.41895278393E+02 -0.23151456467E+02 -0.27498618105E+03  0.27912112793E+03  0.00000000000E+00 0. -1.
</event>
<event>
 7    1  0.2670433E-009  0.1435377E+03  0.7561462E-02  0.1208646E+00
          2   -1    0    0  501    0  0.00000000000E+00  0.00000000000E+00  0.48841274959E+03  0.48841274959E+03  0.00000000000E+00 0. -1.
         -2   -1    0    0    0  501 -0.00000000000E+00 -0.00000000000E+00 -0.54020661116E+02  0.54020661116E+02  0.00000000000E+00 0.  1.
         25    2    1    2    0    0 -0.10922565128E+03 -0.79811829475E+01  0.14815112517E+03  0.22268848618E+03  0.12508982296E+03 0.  0.
          5    1    3    3  502    0 -0.13250139301E+03 -0.26350719952E+02  0.11049986528E+03  0.17458142003E+03  0.41800000000E+01 0. -1.
         -5    1    3    3    0  502  0.23275741725E+02  0.18369537004E+02  0.37651259892E+02  0.48107066155E+02  0.41800000000E+01 0. -1.
        -11    1    1    2    0    0  0.77704362591E+02  0.30240704439E+02  0.26009338157E+03  0.27313190093E+03  0.00000000000E+00 0. -1.
         11    1    1    2    0    0  0.31521288694E+02 -0.22259521491E+02  0.26147581734E+02  0.46613023593E+02  0.00000000000E+00 0.  1.
</event>
<event>
 7    1  0.2670433E-009  0.1909084E+03  0.7561462E-02  0.1157645E+00
         -1   -1    0    0    0  501 -0.00000000000E+00  0.00000000000E+00  0.78418360228E+02  0.78418360228E+02  0.00000000000E+00 0. -1.
          1   -1    0    0  501    0  0.00000000000E+00 -0.00000000000E+00 -0.80464493292E+03  0.80464493292E+03  0.00000000000E+00 0.  1.
         25    2    1    2    0    0  0.13577361074E+03  0.10489853577E+03 -0.11466354491E+03  0.24131885369E+03  0.12509550125E+03 0.  0.
          5    1    3    3  502    0 -0.50096321457E+01  0.49963952320E+02  0.18943414940E+01  0.50423743171E+02  0.41800000000E+01 0. -1.
         -5    1    3    3    0  502  0.14078324289E+03  0.54934583447E+02 -0.11655788640E+03  0.19089511052E+03  0.41800000000E+01 0. -1.
        -11    1    1    2    0    0 -0.67317517770E+02 -0.86035618025E+02 -0.24332023511E+03  0.26671803947E+03  0.00000000000E+00 0. -1.
         11    1    1    2    0    0 -0.68456092971E+02 -0.18862917741E+02 -0.36824279268E+03  0.37502639999E+03  0.00000000000E+00 0.  1.
</event>
<event>
 7    1  0.2670433E-009  0.1576532E+03  0.7561462E-02  0.1191372E+00
          2   -1    0    0  501    0  0.00000000000E+00  0.00000000000E+00  0.90551496794E+02  0.90551496794E+02  0.00000000000E+00 0. -1.
         -2   -1    0    0    0  501 -0.00000000000E+00 -0.00000000000E+00 -0.28151029677E+03  0.28151029677E+03  0.00000000000E+00 0.  1.
         25    2    1    2    0    0  0.85309583022E+02  0.76827522085E+02 -0.12703114535E+03  0.21204808069E+03  0.12508910237E+03 0.  0.
          5    1    3    3  502    0 -0.28478401987E+02  0.39445079945E+02 -0.26119880159E+02  0.55377380320E+02  0.41800000000E+01 0.  1.
         -5    1    3    3    0  502  0.11378798501E+03  0.37382442140E+02 -0.10091126519E+03  0.15667070037E+03  0.41800000000E+01 0.  1.
        -11    1    1    2    0    0  0.19780413050E+02 -0.11144053643E+02 -0.83012444793E+01  0.24173649537E+02  0.00000000000E+00 0. -1.
         11    1    1    2    0    0 -0.10508999607E+03 -0.65683468442E+02 -0.55626410149E+02  0.13584006334E+03  0.00000000000E+00 0.  1.
</event>
<event>
 7    1  0.2670433E-009  0.2116227E+03  0.7561462E-02  0.1140287E+00
          2   -1    0    0  501    0  0.00000000000E+00  0.00000000000E+00  0.15391746249E+03  0.15391746249E+03  0.00000000000E+00 0. -1.
         -2   -1    0    0    0  501 -0.00000000000E+00 -0.00000000000E+00 -0.35474588474E+03  0.35474588474E+03  0.00000000000E+00 0.  1.
         25    2    1    2    0    0 -0.90299261212E+02 -0.17115497993E+03 -0.22664421739E+02  0.23153642709E+03  0.12508979705E+03 0.  0.
          5    1    3    3  502    0 -0.51028250602E+02 -0.19487998726E+02  0.34467165419E+02  0.64723429651E+02  0.41800000000E+01 0. -1.
         -5    1    3    3    0  502 -0.39271010610E+02 -0.15166698121E+03 -0.57131587158E+02  0.16681299744E+03  0.41800000000E+01 0. -1.
        -11    1    1    2    0    0  0.79918351808E+01  0.10721770324E+03 -0.80696340755E+02  0.13442992497E+03  0.00000000000E+00 0.  1.
         11    1    1    2    0    0  0.82307426031E+02  0.63937276694E+02 -0.97467659759E+02  0.14269699517E+03  0.00000000000E+00 0. -1.
</event>
<event>
 7    1  0.2670433E-009  0.1239685E+03  0.7561462E-02  0.1236690E+00
         -3   -1    0    0    0  501 -0.00000000000E+00  0.00000000000E+00  0.33494035254E+03  0.33494035254E+03  0.00000000000E+00 0.  1.
          3   -1    0    0  501    0  0.00000000000E+00 -0.00000000000E+00 -0.57423874786E+02  0.57423874786E+02  0.00000000000E+00 0. -1.
         25    2    1    2    0    0  0.58262746410E+02 -0.50591924048E+02  0.10931618509E+03  0.18317435234E+03  0.12509486254E+03 0.  0.
          5    1    3    3  502    0  0.88530229680E+02 -0.41998190059E+01  0.83794417943E+02  0.12204186546E+03  0.41800000000E+01 0. -1.
         -5    1    3    3    0  502 -0.30267483270E+02 -0.46392105042E+02  0.25521767150E+02  0.61132486880E+02  0.41800000000E+01 0. -1.
        -11    1    1    2    0    0  0.85632361550E+01  0.33644468830E+02  0.92436420154E+01  0.35926650471E+02  0.00000000000E+00 0. -1.
         11    1    1    2    0    0 -0.66825982565E+02  0.16947455217E+02  0.15895665065E+03  0.17326322452E+03  0.00000000000E+00 0.  1.
</event>
<event>
 7    1  0.2670433E-009  0.1108778E+03  0.7561462E-02  0.1258953E+00
         -1   -1    0    0    0  501 -0.00000000000E+00  0.00000000000E+00  0.73010224048E+03  0.73010224048E+03  0.00000000000E+00 0.  1.
          1   -1    0    0  501    0  0.00000000000E+00 -0.00000000000E+00 -0.20103087194E+02  0.20103087194E+02  0.00000000000E+00 0. -1.
         25    2    1    2    0    0  0.28395752121E+02  0.45763607205E+02  0.44556132063E+03  0.46591088659E+03  0.12508971709E+03 0.  0.
          5    1    3    3  502    0  0.46140229302E+02 -0.31052869412E+02  0.21888906862E+03  0.22588293034E+03  0.41800000000E+01 0.  1.
         -5    1    3    3    0  502 -0.17744477181E+02  0.76816476616E+02  0.22667225201E+03  0.24002795625E+03  0.41800000000E+01 0.  1.
        -11    1    1    2    0    0  0.19071742317E+01  0.17121130199E+02  0.88928805113E+01  0.19386947584E+02  0.00000000000E+00 0. -1.
         11    1    1    2    0    0 -0.30302926353E+02 -0.62884737404E+02  0.25554495215E+03  0.26490749350E+03  0.00000000000E+00 0.  1.
</event>
<event>
 7    1  0.2670433E-009  0.6136730E+02  0.7561462E-02  0.1392182E+00
         -1   -1    0    0    0  501 -0.00000000000E+00  0.00000000000E+00  0.87178648389E+02  0.87178648389E+02  0.00000000000E+00 0.  1.
          1   -1    0    0  501    0  0.00000000000E+00 -0.00000000000E+00 -0.11390912824E+03  0.11390912824E+03  0.00000000000E+00 0. -1.
         25    2    1    2    0    0  0.10022835675E+01  0.40322523461E+02 -0.29554877267E+02  0.13471095333E+03  0.12508652887E+03 0.  0.
          5    1    3    3  502    0 -0.15819029695E+02  0.50563810734E+01  0.46254206392E+02  0.49322740182E+02  0.41800000000E+01 0.  1.
         -5    1    3    3    0  502  0.16821313262E+02  0.35266142388E+02 -0.75809083659E+02  0.85388213145E+02  0.41800000000E+01 0.  1.
        -11    1    1    2    0    0  0.19822378557E+02  0.12032403027E+01  0.11333354283E+01  0.19891177141E+02  0.00000000000E+00 0. -1.
         11    1    1    2    0    0 -0.20824662124E+02 -0.41525763764E+02  0.16910619831E+01  0.46485646165E+02  0.00000000000E+00 0.  1.
</event>
<event>
 7    1  0.2670433E-009  0.1196594E+03  0.7561462E-02  0.1243660E+00
         -1   -1    0    0    0  501 -0.00000000000E+00  0.00000000000E+00  0.24157470774E+03  0.24157470774E+03  0.00000000000E+00 0.  1.
          1   -1    0    0  501    0  0.00000000000E+00 -0.00000000000E+00 -0.80862995071E+02  0.80862995071E+02  0.00000000000E+00 0. -1.
         25    2    1    2    0    0 -0.22542878606E+02 -0.82524844991E+02  0.59028866331E+02  0.16263521887E+03  0.12508907203E+03 0.  0.
          5    1    3    3  502    0 -0.66844177144E+02 -0.78707462829E+02  0.24573996555E+02  0.10622787972E+03  0.41800000000E+01 0.  1.
         -5    1    3    3    0  502  0.44301298539E+02 -0.38173821616E+01  0.34454869777E+02  0.56407339151E+02  0.41800000000E+01 0.  1.
        -11    1    1    2    0    0 -0.40458205614E+01  0.45761994074E+02 -0.26651453926E+01  0.46017733165E+02  0.00000000000E+00 0. -1.
         11    1    1    2    0    0  0.26588699167E+02  0.36762850916E+02  0.10434799173E+03  0.11378475077E+03  0.00000000000E+00 0.  1.
</event>
<event>
 7    1  0.2670433E-009  0.1063524E+03  0.7561462E-02  0.1267478E+00
          3   -1    0    0  501    0  0.00000000000E+00  0.00000000000E+00  0.12813643741E+04  0.12813643741E+04  0.00000000000E+00 0. -1.
         -3   -1    0    0    0  501 -0.00000000000E+00 -0.00000000000E+00 -0.13287952717E+02  0.13287952717E+02  0.00000000000E+00 0.  1.
         25    2    1    2    0    0  0.69434871376E+02 -0.21357349821E+01  0.88117953300E+03  0.89272061162E+03  0.12508780244E+03 0.  0.
          5    1    3    3  502    0 -0.99807755327E+01 -0.20404199949E+02  0.58644421938E+03  0.58689883464E+03  0.41800000000E+01 0.  1.
         -5    1    3    3    0  502  0.79415646909E+02  0.18268464967E+02  0.29473531362E+03  0.30582177699E+03  0.41800000000E+01 0.  1.
        -11    1    1    2    0    0  0.85058799853E+01  0.25308398758E+02  0.11942774185E+03  0.12237585778E+03  0.00000000000E+00 0. -1.
         11    1    1    2    0    0 -0.77940751361E+02 -0.23172663776E+02  0.26746914654E+03  0.27955585743E+03  0.00000000000E+00 0.  1.
</event>
<event>
 7    1  0.2670433E-009  0.1270947E+03  0.7561462E-02  0.1231831E+00
          1   -1    0    0  501    0  0.00000000000E+00  0.00000000000E+00  0.44594691273E+03  0.44594691273E+03  0.00000000000E+00 0. -1.
         -1   -1    0    0    0  501 -0.00000000000E+00 -0.00000000000E+00 -0.55002243602E+02  0.55002243602E+02  0.00000000000E+00 0.  1.
         25    2    1    2    0    0 -0.43949107951E+01  0.89094848437E+02  0.10204717307E+03  0.18443932223E+03  0.12508809213E+03 0.  0.
          5    1    3    3  502    0  0.37341646875E+02  0.13389710722E+02  0.88185496211E+02  0.96787587462E+02  0.41800000000E+01 0. -1.
         -5    1    3    3    0  502 -0.41736557670E+02  0.75705137715E+02  0.13861676860E+02  0.87651734769E+02  0.41800000000E+01 0. -1.
        -11    1    1    2    0    0 -0.69894578784E+01  0.18385794107E+02  0.29071554088E+02  0.35100501470E+02  0.00000000000E+00 0.  1.
         11    1    1    2    0    0  0.11384368674E+02 -0.10748064254E+03  0.25982594197E+03  0.28140933263E+03  0.00000000000E+00 0. -1.
</event>
<event>
 7    1  0.2670433E-009  0.1116213E+03  0.7561462E-02  0.1257597E+00
         -2   -1    0    0    0  501 -0.00000000000E+00  0.00000000000E+00  0.18529181813E+03  0.18529181813E+03  0.00000000000E+00 0.  1.
          2   -1    0    0  501    0  0.00000000000E+00 -0.00000000000E+00 -0.10023216906E+03  0.10023216906E+03  0.00000000000E+00 0. -1.
         25    2    1    2    0    0 -0.34567435305E+02  0.28065975470E+02  0.11807866252E+03  0.17769003951E+03  0.12509425661E+03 0.  0.
          5    1    3    3  502    0 -0.57931290010E+02 -0.30711514536E+02  0.80841159682E+02  0.10417291868E+03  0.41800000000E+01 0.  1.
         -5    1    3    3    0  502  0.23363854706E+02  0.58777490006E+02  0.37237502840E+02  0.73517120835E+02  0.41800000000E+01 0.  1.
        -11    1    1    2    0    0  0.51208541049E+02  0.10388347399E+02  0.33388975179E+01  0.52358195870E+02  0.00000000000E+00 0.  1.
         11    1    1    2    0    0 -0.16641105744E+02 -0.38454322869E+02 -0.36357910969E+02  0.55475751800E+02  0.00000000000E+00 0. -1.
</event>
<event>
 7    1  0.2670433E-009  0.1142400E+03  0.7561462E-02  0.1252913E+00
          1   -1    0    0  501    0  0.00000000000E+00  0.00000000000E+00  0.11685012075E+03  0.11685012075E+03  0.00000000000E+00 0. -1.
         -1   -1    0    0    0  501 -0.00000000000E+00 -0.00000000000E+00 -0.14964164638E+03  0.14964164638E+03  0.00000000000E+00 0.  1.
         25    2    1    2    0    0 -0.63708569650E+02 -0.35647054615E+02 -0.43753455886E+02  0.15129820153E+03  0.12508911437E+03 0.  0.
          5    1    3    3  502    0 -0.89825426041E+01 -0.74603301224E+02 -0.36380248545E+02  0.83590271619E+02  0.41800000000E+01 0. -1.
         -5    1    3    3    0  502 -0.54726027046E+02  0.38956246609E+02 -0.73732073403E+01  0.67707929909E+02  0.41800000000E+01 0. -1.
        -11    1    1    2    0    0  0.12338595325E+02  0.32139932419E+02 -0.32851378980E+02  0.47586019915E+02  0.00000000000E+00 0.  1.
         11    1    1    2    0    0  0.51369974325E+02  0.35071221964E+01  0.43813309228E+02  0.67607545687E+02  0.00000000000E+00 0. -1.
</event>
<event>
 7    1  0.2670433E-009  0.1073769E+03  0.7561462E-02  0.1265506E+00
          2   -1    0    0  501    0  0.00000000000E+00  0.00000000000E+00  0.86150393425E+03  0.86150393425E+03  0.00000000000E+00 0. -1.
         -2   -1    0    0    0  501 -0.00000000000E+00 -0.00000000000E+00 -0.21272638192E+02  0.21272638192E+02  0.00000000000E+00 0.  1.
         25    2    1    2    0    0  0.76779328106E+02  0.29607243304E+02  0.42448295155E+03  0.45011520728E+03  0.12508504941E+03 0.  0.
          5    1    3    3  502    0  0.34631358593E+02 -0.11187727232E+02  0.20708616401E+02  0.42081057875E+02  0.41800000000E+01 0. -1.
         -5    1    3    3    0  502  0.42147969513E+02  0.40794970536E+02  0.40377433515E+03  0.40803414940E+03  0.41800000000E+01 0. -1.
        -11    1    1    2    0    0  0.11437992716E+02  0.16264711890E+02  0.84738342077E+02  0.87039962938E+02  0.00000000000E+00 0. -1.
         11    1    1    2    0    0 -0.88217320821E+02 -0.45871955194E+02  0.33101000243E+03  0.34562140222E+03  0.00000000000E+00 0.  1.
</event>
<event>
 7    1  0.2670433E-009  0.1116697E+03  0.7561462E-02  0.1257509E+00
         -1   -1    0    0    0  501 -0.00000000000E+00  0.00000000000E+00  0.82892678458E+02  0.82892678458E+02  0.00000000000E+00 0.  1.
          1   -1    0    0  501    0  0.00000000000E+00 -0.00000000000E+00 -0.18828595306E+03  0.18828595306E+03  0.00000000000E+00 0. -1.
         25    2    1    2    0    0 -0.37285154069E+01  0.62760196339E+02 -0.48570704796E+02  0.14818379696E+03  0.12508629120E+03 0.  0.
          5    1    3    3  502    0 -0.35637029586E+02 -0.23019524833E+02 -0.35823087085E+02  0.55683591565E+02  0.41800000000E+01 0.  1.
         -5    1    3    3    0  502  0.31908514179E+02  0.85779721171E+02 -0.12747617710E+02  0.92500205398E+02  0.41800000000E+01 0.  1.
        -11    1    1    2    0    0  0.25565783493E+02 -0.33370445628E+01 -0.53747549196E+02  0.59611611256E+02  0.00000000000E+00 0. -1.
         11    1    1    2    0    0 -0.21837268086E+02 -0.59423151776E+02 -0.30750206144E+01  0.63383223303E+02  0.00000000000E+00 0.  1.
</event>
<event>
 7    1  0.2670433E-009  0.1447201E+03  0.7561462E-02  0.1207115E+00
         -2   -1    0    0    0  501 -0.00000000000E+00  0.00000000000E+00  0.11454455910E+03  0.11454455910E+03  0.00000000000E+00 0.  1.
          2   -1    0    0  501    0  0.00000000000E+00 -0.00000000000E+00 -0.29447676636E+03  0.29447676636E+03  0.00000000000E+00 0. -1.
         25    2    1    2    0    0 -0.37402248865E+02  0.97848470199E+02  0.20703710004E+02  0.16446810088E+03  0.12509141161E+03 0.  0.
          5    1    3    3  502    0  0.84941309216E+01 -0.20609338871E+02 -0.20782893412E+02  0.30761927238E+02  0.41800000000E+01 0. -1.
         -5    1    3    3    0  502 -0.45896379787E+02  0.11845780907E+03  0.41486603416E+02  0.13370617364E+03  0.41800000000E+01 0. -1.
        -11    1    1    2    0    0  0.67514976444E+02 -0.53965235564E+02 -0.11820575278E+03  0.14643469085E+03  0.00000000000E+00 0. -1.
         11    1    1    2    0    0 -0.30112727579E+02 -0.43883234635E+02 -0.82430164487E+02  0.98118533732E+02  0.00000000000E+00 0.  1.
</event>
<event>
 7    1  0.2670433E-009  0.9825871E+02  0.7561462E-02  0.1284001E+00
          3   -1    0    0  501    0  0.00000000000E+00  0.00000000000E+00  0.37496338323E+03  0.37496338323E+03  0.00000000000E+00 0. -1.
         -3   -1    0    0    0  501 -0.00000000000E+00 -0.00000000000E+00 -0.43231928897E+02  0.43231928897E+02  0.00000000000E+00 0.  1.
         25    2    1    2    0    0 -0.44795526831E+02 -0.24504973568E+01  0.27330473374E+03  0.30390100729E+03  0.12509076938E+03 0.  0.
          5    1    3    3  502    0  0.27440049816E+02  0.33659145329E+02  0.15181101303E+03  0.15795553322E+03  0.41800000000E+01 0. -1.
         -5    1    3    3    0  502 -0.72235576647E+02 -0.36109642686E+02  0.12149372071E+03  0.14594547407E+03  0.41800000000E+01 0. -1.
        -11    1    1    2    0    0  0.14150400275E+02 -0.26388153263E+02  0.65129760607E+02  0.71683011776E+02  0.00000000000E+00 0. -1.
         11    1    1    2    0    0  0.30645126556E+02  0.28838650620E+02 -0.67030400121E+01  0.42611293064E+02  0.00000000000E+00 0.  1.
</event>
<event>
 7    1  0.2670433E-009  0.1713932E+03  0.7561462E-02  0.1176403E+00
         -2   -1    0    0    0  501 -0.00000000000E+00  0.00000000000E+00  0.67133855911E+02  0.67133855911E+02  0.00000000000E+00 0.  1.
          2   -1    0    0  501    0  0.00000000000E+00 -0.00000000000E+00 -0.55547302947E+03  0.55547302947E+03  0.00000000000E+00 0. -1.
         25    2    1    2    0    0 -0.13652157654E+03  0.83231470391E+02 -0.23634281814E+03  0.31156181215E+03  0.12508883475E+03 0.  0.
          5    1    3    3  502    0 -0.49275585466E+02  0.52619664316E+02 -0.19910777294E+03  0.21179775740E+03  0.41800000000E+01 0. -1.
         -5    1    3    3    0  502 -0.87245991070E+02  0.30611806075E+02 -0.37235045206E+02  0.99764054752E+02  0.41800000000E+01 0. -1.
        -11    1    1    2    0    0  0.30646137407E+02 -0.63240051716E+02 -0.67795623061E+02  0.97645974752E+02  0.00000000000E+00 0.  1.
         11    1    1    2    0    0  0.10587543913E+03 -0.19991418675E+02 -0.18420073236E+03  0.21339909848E+03  0.00000000000E+00 0. -1.
</event>
<event>
 7    1  0.2670433E-009  0.1003033E+03  0.7561462E-02  0.1279659E+00
         -3   -1    0    0    0  501 -0.00000000000E+00  0.00000000000E+00  0.14186298765E+03  0.14186298765E+03  0.00000000000E+00 0.  1.
          3   -1    0    0  501    0  0.00000000000E+00 -0.00000000000E+00 -0.85914894837E+02  0.85914894837E+02  0.00000000000E+00 0. -1.
         25    2    1    2    0    0 -0.78305002336E+01 -0.11732004946E+02  0.48509661327E+02  0.13490946023E+03  0.12509363910E+03 0.  0.
          5    1    3    3  502    0 -0.18726718516E+02  0.47345455327E+02  0.54128403016E+02  0.74428748072E+02  0.41800000000E+01 0.  1.
         -5    1    3    3    0  502  0.10896218283E+02 -0.59077460274E+02 -0.56187416894E+01  0.60480712160E+02  0.41800000000E+01 0.  1.
        -11    1    1    2    0    0  0.41195194267E+02 -0.17675412316E+02 -0.84966068930E+01  0.45625174629E+02  0.00000000000E+00 0.  1.
         11    1    1    2    0    0 -0.33364694033E+02  0.29407417262E+02  0.15935038377E+02  0.47243247624E+02  0.00000000000E+00 0. -1.
</event>
<event>
 7    1  0.2670433E-009  0.1123383E+03  0.7561462E-02  0.1256300E+00
          2   -1    0    0  501    0  0.00000000000E+00  0.00000000000E+00  0.27777591969E+03  0.27777591969E+03  0.00000000000E+00 0. -1.
         -2   -1    0    0    0  501 -0.00000000000E+00 -0.00000000000E+00 -0.63566070681E+02  0.63566070681E+02  0.00000000000E+00 0.  1.
         25    2    1    2    0    0  0.56370812056E+01 -0.52706857978E+02  0.19230217407E+03  0.23545131602E+03  0.12508959388E+03 0.  0.
          5    1    3    3  502    0  0.17567419130E+02 -0.90336430317E+02  0.15843357478E+03  0.18327016908E+03  0.41800000000E+01 0.  1.
         -5    1    3    3    0  502 -0.11930337924E+02  0.37629572339E+02  0.33868599292E+02  0.52181146935E+02  0.41800000000E+01 0.  1.
        -11    1    1    2    0    0  0.16682597818E+02  0.65184964147E+02 -0.65836165858E+01  0.67607193612E+02  0.00000000000E+00 0.  1.
         11    1    1    2    0    0 -0.22319679023E+02 -0.12478106169E+02  0.28491291523E+02  0.38283480745E+02  0.00000000000E+00 0. -1.
</event>
<event>
 7    1  0.2670433E-009  0.1491416E+03  0.7561462E-02  0.1201532E+00
         -1   -1    0    0    0  501 -0.00000000000E+00  0.00000000000E+00  0.20836729850E+02  0.20836729850E+02  0.00000000000E+00 0.  1.
          1   -1    0    0  501    0  0.00000000000E+00 -0.00000000000E+00 -0.13027236633E+04  0.13027236633E+04  0.00000000000E+00 0. -1.
         25    2    1    2    0    0 -0.33161652764E+02  0.11539716816E+03 -0.79634777730E+03  0.81500646130E+03  0.12509815310E+03 0.  0.
          5    1    3    3  502    0  0.33503486850E+02  0.82646348257E+02 -0.56449113284E+03  0.57150731751E+03  0.41800000000E+01 0.  1.
         -5    1    3    3    0  502 -0.66665139615E+02  0.32750819906E+02 -0.23185664446E+03  0.24349914379E+03  0.41800000000E+01 0.  1.
        -11    1    1    2    0    0 -0.13694065899E+02 -0.62347837272E+02 -0.11701151124E+03  0.13329093749E+03  0.00000000000E+00 0.  1.
         11    1    1    2    0    0  0.46855718664E+02 -0.53049330890E+02 -0.36852764493E+03  0.37526299439E+03  0.00000000000E+00 0. -1.
</event>
<event>
 7    1  0.2670433E-009  0.7481073E+02  0.7561462E-02  0.1344458E+00
          2   -1    0    0  501    0  0.00000000000E+00  0.00000000000E+00  0.73183239564E+03  0.73183239564E+03  0.00000000000E+00 0. -1.
         -2   -1    0    0    0  501 -0.00000000000E+00 -0.00000000000E+00 -0.26270355518E+02  0.26270355518E+02  0.00000000000E+00 0.  1.
         25    2    1    2    0    0 -0.28012105485E+02 -0.37000701582E+02  0.58326075104E+03  0.59832657688E+03  0.12509140228E+03 0.  0.
          5    1    3    3  502    0 -0.22306799924E+02 -0.19990278071E+02  0.57851222253E+03  0.57930222558E+03  0.41800000000E+01 0.  1.
         -5    1    3    3    0  502 -0.57053055614E+01 -0.17010423511E+02  0.47485285122E+01  0.19024351306E+02  0.41800000000E+01 0.  1.
        -11    1    1    2    0    0  0.55337480986E+02  0.46236770723E+02  0.72701281852E+02  0.10239898511E+03  0.00000000000E+00 0.  1.
         11    1    1    2    0    0 -0.27325375501E+02 -0.92360691408E+01  0.49600007223E+02  0.57377189161E+02  0.00000000000E+00 0. -1.
</event>
<event>
 7    1  0.2670433E-009  0.2085689E+03  0.7561462E-02  0.1142704E+00
          1   -1    0    0  501    0  0.00000000000E+00  0.00000000000E+00  0.67418101408E+03  0.67418101408E+03  0.00000000000E+00 0. -1.
         -1   -1    0    0    0  501 -0.00000000000E+00 -0.00000000000E+00 -0.72806283979E+02  0.72806283979E+02  0.00000000000E+00 0.  1.
         25    2    1    2    0    0 -0.44792718484E+02 -0.18696200450E+03  0.28223627162E+03  0.36368430824E+03  0.12509110395E+03 0.  0.
          5    1    3    3  502    0 -0.61126655982E+02 -0.17405767669E+03  0.28767193293E+03  0.34176769344E+03  0.41800000000E+01 0. -1.
         -5    1    3    3    0  502  0.16333937498E+02 -0.12904327809E+02 -0.54356613088E+01  0.21916614799E+02  0.41800000000E+01 0. -1.
        -11    1    1    2    0    0  0.71334258038E+02  0.12404815042E+03  0.19886009521E+03  0.24499358656E+03  0.00000000000E+00 0.  1.
         11    1    1    2    0    0 -0.26541539554E+02  0.62913854076E+02  0.12027836328E+03  0.13830940326E+03  0.00000000000E+00 0. -1.
</event>
<event>
 7    1  0.2670433E-009  0.1168938E+03  0.7561462E-02  0.1248311E+00
          2   -1    0    0  501    0  0.00000000000E+00  0.00000000000E+00  0.16675746824E+03  0.16675746824E+03  0.00000000000E+00 0. -1.
         -2   -1    0    0    0  501 -0.00000000000E+00 -0.00000000000E+00 -0.94853795441E+02  0.94853795441E+02  0.00000000000E+00 0.  1.
         25    2    1    2    0    0  0.35334229292E+02 -0.51755031588E+02  0.48043686940E+02  0.14793099585E+03  0.12509313580E+03 0.  0.
          5    1    3    3  502    0 -0.24019098237E+02  0.19777179334E+02  0.44960834126E+02  0.54836145997E+02  0.41800000000E+01 0. -1.
         -5    1    3    3    0  502  0.59353327529E+02 -0.71532210922E+02  0.30828528139E+01  0.93094849856E+02  0.41800000000E+01 0. -1.
        -11    1    1    2    0    0 -0.65415834975E+02  0.41950811468E+02  0.75301340138E+01  0.78075636190E+02  0.00000000000E+00 0. -1.
         11    1    1    2    0    0  0.30081605683E+02  0.98042201201E+01  0.16329851842E+02  0.35604631634E+02  0.00000000000E+00 0.  1.
</event>
<event>
 7    1  0.2670433E-009  0.7697663E+02  0.7561462E-02  0.1337857E+00
         -1   -1    0    0    0  501 -0.00000000000E+00  0.00000000000E+00  0.58776908333E+02  0.58776908333E+02  0.00000000000E+00 0.  1.
          1   -1    0    0  501    0  0.00000000000E+00 -0.00000000000E+00 -0.23538450454E+03  0.23538450454E+03  0.00000000000E+00 0. -1.
         25    2    1    2    0    0  0.33782296292E+01  0.33849145188E+02 -0.14021709240E+03  0.19095859437E+03  0.12508866734E+03 0.  0.
          5    1    3    3  502    0  0.53711924832E+02  0.42456705206E+02 -0.42690512571E+02  0.80792913982E+02  0.41800000000E+01 0. -1.
         -5    1    3    3    0  502 -0.50333695203E+02 -0.86075600179E+01 -0.97526579831E+02  0.11016568039E+03  0.41800000000E+01 0. -1.
        -11    1    1    2    0    0 -0.10699165536E+01 -0.23375971034E+02 -0.66894075823E+02  0.70868879795E+02  0.00000000000E+00 0. -1.
         11    1    1    2    0    0 -0.23083130756E+01 -0.10473174154E+02  0.30503572021E+02  0.32333938704E+02  0.00000000000E+00 0.  1.
</event>
<event>
 7    1  0.2670433E-009  0.1042865E+03  0.7561462E-02  0.1271532E+00
         -1   -1    0    0    0  501 -0.00000000000E+00  0.00000000000E+00  0.45050205765E+02  0.45050205765E+02  0.00000000000E+00 0.  1.
          1   -1    0    0  501    0  0.00000000000E+00 -0.00000000000E+00 -0.77175545741E+03  0.77175545741E+03  0.00000000000E+00 0. -1.
         25    2    1    2    0    0  0.80121368334E+02 -0.24129494347E+02 -0.65906018566E+03  0.67602527730E+03  0.12509268990E+03 0.  0.
          5    1    3    3  502    0  0.37682982218E+02  0.50358178491E+01 -0.41996744238E+02  0.56802865569E+02  0.41800000000E+01 0.  1.
         -5    1    3    3    0  502  0.42438386116E+02 -0.29165312196E+02 -0.61706344142E+03  0.61922241173E+03  0.41800000000E+01 0.  1.
        -11    1    1    2    0    0 -0.45939235264E+02 -0.29839317271E+02 -0.12040227363E+02  0.56087122112E+02  0.00000000000E+00 0.  1.
         11    1    1    2    0    0 -0.34182133070E+02  0.53968811618E+02 -0.55604838626E+02  0.84693263766E+02  0.00000000000E+00 0. -1.
</event>
<event>
 7    1  0.2670433E-009  0.8567900E+02  0.7561462E-02  0.1313666E+00
          2   -1    0    0  501    0  0.00000000000E+00  0.00000000000E+00  0.13805736025E+03  0.13805736025E+03  0.00000000000E+00 0. -1.
         -2   -1    0    0    0  501 -0.00000000000E+00 -0.00000000000E+00 -0.17145260410E+03  0.17145260410E+03  0.00000000000E+00 0.  1.
         25    2    1    2    0    0 -0.79483174211E+02  0.20449763246E+02  0.53074600816E+02  0.15874370772E+03  0.12508750413E+03 0.  0.
          5    1    3    3  502    0 -0.60248616549E+01  0.13470142790E+02  0.78958944192E+02  0.80434637891E+02  0.41800000000E+01 0.  1.
         -5    1    3    3    0  502 -0.73458312556E+02  0.69796204559E+01 -0.25884343376E+02  0.78309069828E+02  0.41800000000E+01 0.  1.
        -11    1    1    2    0    0  0.43197847778E+02 -0.97614981217E+01 -0.10097000560E+03  0.11025553469E+03  0.00000000000E+00 0.  1.
         11    1    1    2    0    0  0.36285326433E+02 -0.10688265124E+02  0.14500160924E+02  0.40510721945E+02  0.00000000000E+00 0. -1.
</event>
<event>
 7    1  0.2670433E-009  0.9331867E+02  0.7561462E-02  0.1295008E+00
         -1   -1    0    0    0  501 -0.00000000000E+00  0.00000000000E+00  0.21783575015E+03  0.21783575015E+03  0.00000000000E+00 0.  1.
          1   -1    0    0  501    0  0.00000000000E+00 -0.00000000000E+00 -0.51571873105E+02  0.51571873105E+02  0.00000000000E+00 0. -1.
         25    2    1    2    0    0  0.44032151117E+01 -0.27855924350E+02  0.15896309710E+03  0.20423512469E+03  0.12508948434E+03 0.  0.
          5    1    3    3  502    0 -0.54602251843E+02  0.36418265943E+01  0.10387684011E+03  0.11748420796E+03  0.41800000000E+01 0. -1.
         -5    1    3    3    0  502  0.59005466954E+02 -0.31497750944E+02  0.55086256985E+02  0.86750916731E+02  0.41800000000E+01 0. -1.
        -11    1    1    2    0    0  0.24127255264E+02 -0.10143688850E+01  0.18565835081E+01  0.24219832640E+02  0.00000000000E+00 0.  1.
         11    1    1    2    0    0 -0.28530470376E+02  0.28870293235E+02  0.54441964324E+01  0.40952665922E+02  0.00000000000E+00 0. -1.
</event>
<event>
 7    1  0.2670433E-009  0.1064189E+03  0.7561462E-02  0.1267349E+00
          2   -1    0    0  501    0  0.00000000000E+00  0.00000000000E+00  0.40912770096E+02  0.40912770096E+02  0.00000000000E+00 0. -1.
         -2   -1    0    0    0  501 -0.00000000000E+00 -0.00000000000E+00 -0.36967598012E+03  0.36967598012E+03  0.00000000000E+00 0.  1.
         25    2    1    2    0    0 -0.41636337937E+02  0.29577611502E+02 -0.22824009865E+03  0.26523436230E+03  0.12508918648E+03 0.  0.
          5    1    3    3  502    0 -0.78336820520E+02 -0.10314455671E+02 -0.11463038667E+03  0.13928619240E+03  0.41800000000E+01 0. -1.
         -5    1    3    3    0  502  0.36700482583E+02  0.39892067173E+02 -0.11360971198E+03  0.12594816990E+03  0.41800000000E+01 0. -1.
        -11    1    1    2    0    0 -0.12793734656E+02 -0.20501349265E+02  0.64285914214E+01  0.25006234339E+02  0.00000000000E+00 0. -1.
         11    1    1    2    0    0  0.54430072593E+02 -0.90762622364E+01 -0.10695170279E+03  0.12034815358E+03  0.00000000000E+00 0.  1.
</event>
<event>
 7    1  0.2670433E-009  0.1049236E+03  0.7561462E-02  0.1270270E+00
          3   -1    0    0  501    0  0.00000000000E+00  0.00000000000E+00  0.16114791997E+03  0.16114791997E+03  0.00000000000E+00 0. -1.
         -3   -1    0    0    0  501 -0.00000000000E+00 -0.00000000000E+00 -0.86998035858E+02  0.86998035858E+02  0.00000000000E+00 0.  1.
         25    2    1    2    0    0 -0.35527035511E+02  0.33146405803E+02  0.46719767767E+02  0.14209265649E+03  0.12508689723E+03 0.  0.
          5    1    3    3  502    0  0.36537382526E+02  0.45073804880E+02  0.35291738865E+02  0.68041218687E+02  0.41800000000E+01 0.  1.
         -5    1    3    3    0  502 -0.72064418037E+02 -0.11927399077E+02  0.11428028902E+02  0.74051437801E+02  0.41800000000E+01 0.  1.
        -11    1    1    2    0    0 -0.82468777641E+01  0.12686636595E+02  0.38815295194E+02  0.41660399445E+02  0.00000000000E+00 0. -1.
         11    1    1    2    0    0  0.43773913275E+02 -0.45833042398E+02 -0.11385178853E+02  0.64392899891E+02  0.00000000000E+00 0.  1.
</event>
<event>
 7    1  0.2670433E-009  0.1174938E+03  0.7561462E-02  0.1247290E+00
          1   -1    0    0  501    0  0.00000000000E+00  0.00000000000E+00  0.44424431252E+02  0.44424431252E+02  0.00000000000E+00 0. -1.
         -1   -1    0    0    0  501 -0.00000000000E+00 -0.00000000000E+00 -0.37514443227E+03  0.37514443227E+03  0.00000000000E+00 0.  1.
         25    2    1    2    0    0  0.34064753443E+02 -0.51803594644E+02 -0.25919798324E+03  0.29440712162E+03  0.12509172195E+03 0.  0.
          5    1    3    3  502    0 -0.22748183922E+01  0.39043151815E+02 -0.10050995477E+03  0.10793176507E+03  0.41800000000E+01 0.  1.
         -5    1    3    3    0  502  0.36339571835E+02 -0.90846746458E+02 -0.15868802847E+03  0.18647535656E+03  0.41800000000E+01 0.  1.
        -11    1    1    2    0    0  0.24351726287E+02  0.17359724226E+02 -0.52911487418E+01  0.30370427283E+02  0.00000000000E+00 0. -1.
         11    1    1    2    0    0 -0.58416479730E+02  0.34443870418E+02 -0.66230869037E+02  0.94791314617E+02  0.00000000000E+00 0.  1.
</event>
<event>
 7    1  0.2670433E-009  0.8945598E+02  0.7561462E-02  0.1304174E+00
         -3   -1    0    0    0  501 -0.00000000000E+00  0.00000000000E+00  0.14156386031E+03  0.14156386031E+03  0.00000000000E+00 0.  1.
          3   -1    0    0  501    0  0.00000000000E+00 -0.00000000000E+00 -0.10142369882E+03  0.10142369882E+03  0.00000000000E+00 0. -1.
         25    2    1    2    0    0  0.26615156866E+02 -0.33153413152E+02  0.17810541506E+02  0.13331158194E+03  0.12508895679E+03 0.  0.
          5    1    3    3  502    0  0.22739742585E+02 -0.80084217382E+02  0.17202023058E+01  0.83372712937E+02  0.41800000000E+01 0.  1.
         -5    1    3    3    0  502  0.38754142816E+01  0.46930804230E+02  0.16090339200E+02  0.49938869001E+02  0.41800000000E+01 0.  1.
        -11    1    1    2    0    0 -0.26043532440E+01  0.21382366173E+02  0.59846162864E+02  0.63604649583E+02  0.00000000000E+00 0.  1.
         11    1    1    2    0    0 -0.24010803622E+02  0.11771046979E+02 -0.37516542882E+02  0.46071327606E+02  0.00000000000E+00 0. -1.
</event>
<event>
 7    1  0.2670433E-009  0.6443557E+02  0.7561462E-02  0.1380107E+00
          2   -1    0    0  501    0  0.00000000000E+00  0.00000000000E+00  0.99650747869E+03  0.99650747869E+03  0.00000000000E+00 0.  1.
         -2   -1    0    0    0  501 -0.00000000000E+00 -0.00000000000E+00 -0.16400951272E+02  0.16400951272E+02  0.00000000000E+00 0. -1.
         25    2    1    2    0    0 -0.29049087790E+02  0.22025004205E+02  0.76442731612E+03  0.77545199342E+03  0.12509085559E+03 0.  0.
          5    1    3    3  502    0 -0.95375113779E+01  0.30295380560E+02  0.74703067985E+03  0.74771724819E+03  0.41800000000E+01 0.  1.
         -5    1    3    3    0  502 -0.19511576412E+02 -0.82703763545E+01  0.17396636270E+02  0.27734745224E+02  0.41800000000E+01 0.  1.
        -11    1    1    2    0    0  0.48251271741E+02 -0.27144906261E+02  0.20943002273E+03  0.21662401894E+03  0.00000000000E+00 0.  1.
         11    1    1    2    0    0 -0.19202183950E+02  0.51199020559E+01  0.62491885662E+01  0.20832417605E+02  0.00000000000E+00 0. -1.
</event>
<event>
 7    1  0.2670433E-009  0.6644110E+02  0.7561462E-02  0.1372631E+00
         -1   -1    0    0    0  501 -0.00000000000E+00  0.00000000000E+00  0.83393192215E+02  0.83393192215E+02  0.00000000000E+00 0.  1.
          1   -1    0    0  501    0  0.00000000000E+00 -0.00000000000E+00 -0.16912211264E+03  0.16912211264E+03  0.00000000000E+00 0. -1.
         25    2    1    2    0    0 -0.23862559537E+01 -0.32026486966E+02 -0.12602135216E+02  0.12975969928E+03  0.12508947063E+03 0.  0.
          5    1    3    3  502    0  0.24196936939E+02  0.94570330293E+01  0.46054648896E+02  0.53041778966E+02  0.41800000000E+01 0.  1.
         -5    1    3    3    0  502 -0.26583192893E+02 -0.41483519995E+02 -0.58656784112E+02  0.76717920318E+02  0.41800000000E+01 0.  1.
        -11    1    1    2    0    0 -0.22100042162E+02  0.10285274280E+02  0.15082174972E+02  0.28664799536E+02  0.00000000000E+00 0.  1.
         11    1    1    2    0    0  0.24486298115E+02  0.21741212686E+02 -0.88208960185E+02  0.94090806040E+02  0.00000000000E+00 0. -1.
</event>
