<event>
 7    1  0.6671761E-006  0.1042295E+03  0.7561462E-02  0.1271645E+00
         -2   -1    0    0    0  501 -0.00000000000E+00  0.00000000000E+00  0.24885508098E+02  0.24885508098E+02  0.00000000000E+00 0.  1.
          2   -1    0    0  501    0  0.00000000000E+00 -0.00000000000E+00 -0.54772414656E+03  0.54772414656E+03  0.00000000000E+00 0. -1.
         23    2    1    2    0    0  0.26976906496E+02 -0.31375585511E+02 -0.28115682690E+03  0.31049726536E+03  0.12508880700E+03 0.  0.
          5    1    3    3  502    0  0.59689163411E+02 -0.44566071727E+02 -0.94050592859E+02  0.12004964554E+03  0.41800000000E+01 0. -1.
         -5    1    3    3    0  502 -0.32712256915E+02  0.13190486216E+02 -0.18710623404E+03  0.19044761982E+03  0.41800000000E+01 0. -1.
        -11    1    1    2    0    0  0.11695437402E+02  0.52828891639E+02 -0.16435492652E+03  0.17303241581E+03  0.00000000000E+00 0. -1.
         11    1    1    2    0    0 -0.38672343898E+02 -0.21453306128E+02 -0.77326885038E+02  0.89079973485E+02  0.00000000000E+00 0.  1.
</event>
<event>
 7    1  0.6671761E-006  0.1779815E+03  0.7561462E-02  0.1169771E+00
          2   -1    0    0  501    0  0.00000000000E+00  0.00000000000E+00  0.78397678915E+03  0.78397678915E+03  0.00000000000E+00 0. -1.
         -2   -1    0    0    0  501 -0.00000000000E+00 -0.00000000000E+00 -0.53952342919E+02  0.53952342919E+02  0.00000000000E+00 0.  1.
         23    2    1    2    0    0  0.11755517242E+03 -0.12678162009E+03  0.38067632899E+03  0.43640978109E+03  0.12508489847E+03 0.  0.
          5    1    3    3  502    0  0.37635779383E+01  0.57053718126E+01  0.13344487555E+03  0.13368516372E+03  0.41800000000E+01 0.  1.
         -5    1    3    3    0  502  0.11379159448E+03 -0.13248699190E+03  0.24723145344E+03  0.30272461738E+03  0.41800000000E+01 0.  1.
        -11    1    1    2    0    0 -0.30117755790E+02  0.39913938917E+02  0.27916630308E+02  0.57267267976E+02  0.00000000000E+00 0.  1.
         11    1    1    2    0    0 -0.87437416627E+02  0.86867681171E+02  0.32143148693E+03  0.34425208299E+03  0.00000000000E+00 0. -1.
</event>
<event>
 7    1  0.6671761E-006  0.7489739E+02  0.7561462E-02  0.1344189E+00
         -1   -1    0    0    0  501 -0.00000000000E+00  0.00000000000E+00  0.30004079328E+03  0.30004079328E+03  0.00000000000E+00 0.  1.
          1   -1    0    0  501    0  0.00000000000E+00 -0.00000000000E+00 -0.50585071913E+02  0.50585071913E+02  0.00000000000E+00 0. -1.
         23    2    1    2    0    0 -0.58151901957E+01 -0.18133643186E+02  0.21669180265E+03  0.25093349097E+03  0.12509849760E+03 0.  0.
          5    1    3    3  502    0  0.17580651243E+01  0.44186414234E+02  0.16064511410E+03  0.16667289845E+03  0.41800000000E+01 0.  1.
         -5    1    3    3    0  502 -0.75732553199E+01 -0.62320057420E+02  0.56046688555E+02  0.84260592515E+02  0.41800000000E+01 0.  1.
        -11    1    1    2    0    0  0.46005513766E+01 -0.11714718441E+02  0.58759496389E+02  0.60092246730E+02  0.00000000000E+00 0.  1.
         11    1    1    2    0    0  0.12146388190E+01  0.29848361627E+02 -0.25995577672E+02  0.39600127497E+02  0.00000000000E+00 0. -1.
</event>
<event>
 7    1  0.6671761E-006  0.1543494E+03  0.7561462E-02  0.1195228E+00
         -1   -1    0    0    0  501 -0.00000000000E+00  0.00000000000E+00  0.47669590853E+03  0.47669590853E+03  0.00000000000E+00 0.  1.
          1   -1    0    0  501    0  0.00000000000E+00 -0.00000000000E+00 -0.60728870369E+02  0.60728870369E+02  0.00000000000E+00 0. -1.
         23    2    1    2    0    0  0.16698945434E+02 -0.12847821336E+03  0.25039451460E+03  0.30843235477E+03  0.12509036111E+03 0.  0.
          5    1    3    3  502    0  0.39982669837E+01 -0.14679000200E+03  0.24410904143E+03  0.28490347020E+03  0.41800000000E+01 0. -1.
         -5    1    3    3    0  502  0.12700678450E+02  0.18311788637E+02  0.62854731679E+01  0.23528884571E+02  0.41800000000E+01 0. -1.
        -11    1    1    2    0    0 -0.25752850046E+02  0.27267962944E+02  0.10309908127E+03  0.10970948750E+03  0.00000000000E+00 0.  1.
         11    1    1    2    0    0  0.90539046122E+01  0.10121025042E+03  0.62473442297E+02  0.11928293663E+03  0.00000000000E+00 0. -1.
</event>
<event>
 7    1  0.6671761E-006  0.1541758E+03  0.7561462E-02  0.1195434E+00
         -1   -1    0    0    0  501 -0.00000000000E+00  0.00000000000E+00  0.47339669890E+02  0.47339669890E+02  0.00000000000E+00 0.  1.
          1   -1    0    0  501    0  0.00000000000E+00 -0.00000000000E+00 -0.68899963960E+03  0.68899963960E+03  0.00000000000E+00 0. -1.
         23    2    1    2    0    0 -0.11027292808E+03  0.90026188666E+02 -0.29485075488E+03  0.35049801166E+03  0.12508818973E+03 0.  0.
          5    1    3    3  502    0  0.11841173961E+02  0.23968152472E+02 -0.13952931313E+03  0.14212877033E+03  0.41800000000E+01 0. -1.
         -5    1    3    3    0  502 -0.12211410204E+03  0.66058036193E+02 -0.15532144175E+03  0.20836924133E+03  0.41800000000E+01 0. -1.
        -11    1    1    2    0    0  0.78198794449E+02 -0.65787592840E+02 -0.32374895929E+03  0.33949439976E+03  0.00000000000E+00 0. -1.
         11    1    1    2    0    0  0.32074133631E+02 -0.24238595826E+02 -0.23060255542E+02  0.46346898078E+02  0.00000000000E+00 0.  1.
</event>
<event>
 7    1  0.6671761E-006  0.5494268E+02  0.7561462E-02  0.1420370E+00
          1   -1    0    0  501    0  0.00000000000E+00  0.00000000000E+00  0.30858761537E+02  0.30858761537E+02  0.00000000000E+00 0. -1.
         -1   -1    0    0    0  501 -0.00000000000E+00 -0.00000000000E+00 -0.25130671124E+03  0.25130671124E+03  0.00000000000E+00 0.  1.
         23    2    1    2    0    0 -0.13192325958E+02 -0.17577300229E+02 -0.22550165983E+03  0.25382529040E+03  0.11442587346E+03 0.  0.
          5    1    3    3  502    0  0.11865173955E+02  0.29836802242E+02 -0.13458889472E+02  0.35066097970E+02  0.41800000000E+01 0. -1.
         -5    1    3    3    0  502 -0.25057499913E+02 -0.47414102471E+02 -0.21204277035E+03  0.21875919243E+03  0.41800000000E+01 0.  1.
        -11    1    1    2    0    0  0.91672269278E+01  0.48614549906E+01  0.97119307541E+01  0.14212437973E+02  0.00000000000E+00 0. -1.
         11    1    1    2    0    0  0.40250990297E+01  0.12715845238E+02 -0.46582206271E+01  0.14127744397E+02  0.00000000000E+00 0.  1.
</event>
<event>
 7    1  0.6671761E-006  0.9622875E+02  0.7561462E-02  0.1288432E+00
         -2   -1    0    0    0  501 -0.00000000000E+00  0.00000000000E+00  0.22135258927E+03  0.22135258927E+03  0.00000000000E+00 0.  1.
          2   -1    0    0  501    0  0.00000000000E+00 -0.00000000000E+00 -0.55761118063E+02  0.55761118063E+02  0.00000000000E+00 0. -1.
         23    2    1    2    0    0 -0.60247909669E+01 -0.36635184609E+01  0.11184266820E+03  0.16794560385E+03  0.12508886420E+03 0.  0.
          5    1    3    3  502    0  0.44201163831E+02  0.36282373476E+02  0.32837911112E+02  0.66075368446E+02  0.41800000000E+01 0. -1.
         -5    1    3    3    0  502 -0.50225954798E+02 -0.39945891937E+02  0.79004757089E+02  0.10187023540E+03  0.41800000000E+01 0. -1.
        -11    1    1    2    0    0  0.36393194761E+02  0.13608398260E+02  0.64630737235E+02  0.75410777238E+02  0.00000000000E+00 0.  1.
         11    1    1    2    0    0 -0.30368403794E+02 -0.99448797995E+01 -0.10881934224E+02  0.33757326252E+02  0.00000000000E+00 0. -1.
</event>
<event>
 6    1  0.6671761E-006  0.1030782E+03  0.7561462E-02  0.1273953E+00
         -2   -1    0    0    0  501 -0.00000000000E+00  0.00000000000E+00  0.62715854435E+02  0.62715854435E+02  0.00000000000E+00 0.  1.
          2   -1    0    0  501    0  0.00000000000E+00 -0.00000000000E+00 -0.26239798985E+03  0.26239798985E+03  0.00000000000E+00 0. -1.
          5    1    1    2  502    0 -0.45393971493E+02  0.61498303442E+02 -0.11224008710E+03  0.13586008805E+03  0.41800000000E+01 0. -1.
         -5    1    1    2    0  502  0.24635870044E+02 -0.24238789312E+02  0.17281475083E+02  0.38866010616E+02  0.41800000000E+01 0.  1.
        -11    1    1    2    0    0  0.48207003073E+02 -0.45339881399E+02 -0.10207641699E+03  0.12165202381E+03  0.00000000000E+00 0.  1.
         11    1    1    2    0    0 -0.27448901625E+02  0.80803672687E+01 -0.26471064094E+01  0.28735721810E+02  0.00000000000E+00 0. -1.
</event>
<event>
 7    1  0.6671761E-006  0.1098605E+03  0.7561462E-02  0.1260828E+00
         -2   -1    0    0    0  501 -0.00000000000E+00  0.00000000000E+00  0.15659316253E+04  0.15659316253E+04  0.00000000000E+00 0.  1.
          2   -1    0    0  501    0  0.00000000000E+00 -0.00000000000E+00 -0.10333953030E+02  0.10333953030E+02  0.00000000000E+00 0. -1.
         23    2    1    2    0    0 -0.24201673281E+02  0.69385739814E+01  0.12453895409E+04  0.12519092910E+04  0.12509156511E+03 0.  0.
          5    1    3    3  502    0  0.51238811636E+02 -0.17056342909E+01  0.52860986746E+03  0.53110657064E+03  0.41800000000E+01 0.  1.
         -5    1    3    3    0  502 -0.75440484917E+02  0.86442082722E+01  0.71677967341E+03  0.72080272038E+03  0.41800000000E+01 0.  1.
        -11    1    1    2    0    0  0.23986142205E+02 -0.46685600531E+02  0.21220101766E+03  0.21859586503E+03  0.00000000000E+00 0.  1.
         11    1    1    2    0    0  0.21553107553E+00  0.39747026549E+02  0.98007113694E+02  0.10576042222E+03  0.00000000000E+00 0. -1.
</event>
<event>
 7    1  0.6671761E-006  0.1188660E+03  0.7561462E-02  0.1244980E+00
         -1   -1    0    0    0  501 -0.00000000000E+00  0.00000000000E+00  0.88892434984E+03  0.88892434984E+03  0.00000000000E+00 0.  1.
          1   -1    0    0  501    0  0.00000000000E+00 -0.00000000000E+00 -0.19500251371E+02  0.19500251371E+02  0.00000000000E+00 0. -1.
         23    2    1    2    0    0  0.58848332589E+02 -0.90712108967E+00  0.66832268171E+03  0.68247081603E+03  0.12508900325E+03 0.  0.
          5    1    3    3  502    0  0.98230488236E+02  0.31059975608E+01  0.46590503403E+03  0.47617627952E+03  0.41800000000E+01 0. -1.
         -5    1    3    3    0  502 -0.39382155647E+02 -0.40131186504E+01  0.20241764767E+03  0.20629453651E+03  0.41800000000E+01 0. -1.
        -11    1    1    2    0    0 -0.76341942146E+02 -0.12704681785E+02  0.17716297981E+03  0.19332931099E+03  0.00000000000E+00 0.  1.
         11    1    1    2    0    0  0.17493609557E+02  0.13611802875E+02  0.23938436949E+02  0.32624474194E+02  0.00000000000E+00 0. -1.
</event>
<event>
 7    1  0.6671761E-006  0.9260290E+02  0.7561462E-02  0.1296668E+00
          2   -1    0    0  501    0  0.00000000000E+00  0.00000000000E+00  0.24429348807E+03  0.24429348807E+03  0.00000000000E+00 0. -1.
         -2   -1    0    0    0  501 -0.00000000000E+00 -0.00000000000E+00 -0.52160146513E+02  0.52160146513E+02  0.00000000000E+00 0.  1.
         23    2    1    2    0    0 -0.18051720559E+02 -0.14570492440E+02  0.79435967912E+02  0.14999396276E+03  0.12509976820E+03 0.  0.
          5    1    3    3  502    0  0.42005343867E+02  0.29516705395E+02  0.42263470336E+02  0.66628508430E+02  0.41800000000E+01 0. -1.
         -5    1    3    3    0  502 -0.60057064425E+02 -0.44087197835E+02  0.37172497576E+02  0.83365454334E+02  0.41800000000E+01 0. -1.
        -11    1    1    2    0    0  0.30373013934E+02  0.27675136183E+02  0.10121676464E+02  0.42318807552E+02  0.00000000000E+00 0.  1.
         11    1    1    2    0    0 -0.12321293375E+02 -0.13104643743E+02  0.10257569718E+03  0.10414086427E+03  0.00000000000E+00 0. -1.
</event>
<event>
 7    1  0.6671761E-006  0.1111034E+03  0.7561462E-02  0.1258540E+00
         -1   -1    0    0    0  501 -0.00000000000E+00  0.00000000000E+00  0.90442738738E+02  0.90442738738E+02  0.00000000000E+00 0.  1.
          1   -1    0    0  501    0  0.00000000000E+00 -0.00000000000E+00 -0.15439662651E+03  0.15439662651E+03  0.00000000000E+00 0. -1.
         23    2    1    2    0    0  0.20210278471E+02  0.41551312943E+02 -0.25786606567E+02  0.13582341533E+03  0.12509230236E+03 0.  0.
          5    1    3    3  502    0 -0.27320307550E+02  0.70281033051E+02 -0.26754204383E+02  0.80119177875E+02  0.41800000000E+01 0. -1.
         -5    1    3    3    0  502  0.47530586021E+02 -0.28729720108E+02  0.96759781525E+00  0.55704237455E+02  0.41800000000E+01 0. -1.
        -11    1    1    2    0    0 -0.74283062804E+00  0.23284062706E+02 -0.33970600265E+02  0.41191031255E+02  0.00000000000E+00 0.  1.
         11    1    1    2    0    0 -0.19467447843E+02 -0.64835375649E+02 -0.41966809419E+01  0.67824918665E+02  0.00000000000E+00 0. -1.
</event>
<event>
 7    1  0.6671761E-006  0.9138439E+02  0.7561462E-02  0.1299533E+00
         -1   -1    0    0    0  501 -0.00000000000E+00  0.00000000000E+00  0.17075098903E+04  0.17075098903E+04  0.00000000000E+00 0.  1.
          1   -1    0    0  501    0  0.00000000000E+00 -0.00000000000E+00 -0.10613440092E+02  0.10613440092E+02  0.00000000000E+00 0. -1.
         23    2    1    2    0    0 -0.32667603149E+02 -0.32703177377E+02  0.13500003010E+04  0.13565710346E+04  0.12508992370E+03 0.  0.
          5    1    3    3  502    0  0.24404539349E+02 -0.57152174382E+01  0.61832578129E+02  0.66850470225E+02  0.41800000000E+01 0.  1.
         -5    1    3    3    0  502 -0.57072142498E+02 -0.26987959939E+02  0.12881677229E+04  0.12897205644E+04  0.41800000000E+01 0.  1.
        -11    1    1    2    0    0 -0.10719361706E+02  0.47154654179E+02  0.24696083738E+03  0.25165079242E+03  0.00000000000E+00 0.  1.
         11    1    1    2    0    0  0.43386964854E+02 -0.14451476802E+02  0.99935311814E+02  0.10990150339E+03  0.00000000000E+00 0. -1.
</event>
<event>
 7    1  0.6671761E-006  0.1324349E+03  0.7561462E-02  0.1223887E+00
          2   -1    0    0  501    0  0.00000000000E+00  0.00000000000E+00  0.40217314560E+03  0.40217314560E+03  0.00000000000E+00 0. -1.
         -2   -1    0    0    0  501 -0.00000000000E+00 -0.00000000000E+00 -0.46053843020E+02  0.46053843020E+02  0.00000000000E+00 0.  1.
         23    2    1    2    0    0 -0.76438811262E+01 -0.78804733290E+02  0.18022969544E+03  0.23323816173E+03  0.12509469238E+03 0.  0.
          5    1    3    3  502    0 -0.54670383319E+02 -0.60522055672E+01  0.39192719013E+02  0.67668468492E+02  0.41800000000E+01 0. -1.
         -5    1    3    3    0  502  0.47026502193E+02 -0.72752527723E+02  0.14103697643E+03  0.16556969324E+03  0.41800000000E+01 0. -1.
        -11    1    1    2    0    0 -0.18113389379E+01 -0.21827478397E+02  0.23483783051E+02  0.32112424827E+02  0.00000000000E+00 0.  1.
         11    1    1    2    0    0  0.94552200640E+01  0.10063221169E+03  0.15240582409E+03  0.18287640206E+03  0.00000000000E+00 0. -1.
</event>
<event>
 7    1  0.6671761E-006  0.1280774E+03  0.7561462E-02  0.1230337E+00
         -2   -1    0    0    0  501 -0.00000000000E+00  0.00000000000E+00  0.49650613021E+02  0.49650613021E+02  0.00000000000E+00 0.  1.
          2   -1    0    0  501    0  0.00000000000E+00 -0.00000000000E+00 -0.40065983153E+03  0.40065983153E+03  0.00000000000E+00 0. -1.
         23    2    1    2    0    0 -0.38460485500E+02 -0.69207724247E+02 -0.13049327479E+03  0.19958224215E+03  0.12859105169E+03 0.  0.
          5    1    3    3  502    0  0.21968116113E+02  0.19370273202E+02  0.13168923115E+01  0.29614392022E+02  0.41800000000E+01 0. -1.
         -5    1    3    3    0  502 -0.60428601613E+02 -0.88577997449E+02 -0.13181016710E+03  0.16996785012E+03  0.41800000000E+01 0.  1.
        -11    1    1    2    0    0 -0.14979794599E+02  0.63814768739E+02 -0.12512341543E+03  0.14125363020E+03  0.00000000000E+00 0. -1.
         11    1    1    2    0    0  0.53440280098E+02  0.53929555083E+01 -0.95392528286E+02  0.10947457220E+03  0.00000000000E+00 0.  1.
</event>
<event>
 7    1  0.6671761E-006  0.1450163E+03  0.7561462E-02  0.1206734E+00
         -2   -1    0    0    0  501 -0.00000000000E+00  0.00000000000E+00  0.21746574282E+02  0.21746574282E+02  0.00000000000E+00 0.  1.
          2   -1    0    0  501    0  0.00000000000E+00 -0.00000000000E+00 -0.11979876192E+04  0.11979876192E+04  0.00000000000E+00 0. -1.
         23    2    1    2    0    0 -0.11725880506E+03  0.93382978953E+01 -0.56277874022E+03  0.58839120594E+03  0.12508984616E+03 0.  0.
          5    1    3    3  502    0  0.11007599859E+01 -0.27956331090E+02 -0.29593932015E+02  0.40939483786E+02  0.41800000000E+01 0.  1.
         -5    1    3    3    0  502 -0.11835956504E+03  0.37294628986E+02 -0.53318480821E+03  0.54745172216E+03  0.41800000000E+01 0.  1.
        -11    1    1    2    0    0 -0.14527642662E+01  0.16104639360E+02 -0.20657311613E+02  0.26233460618E+02  0.00000000000E+00 0.  1.
         11    1    1    2    0    0  0.11871156932E+03 -0.25442937255E+02 -0.59280499308E+03  0.60510952691E+03  0.00000000000E+00 0. -1.
</event>
<event>
 7    1  0.6671761E-006  0.1046397E+03  0.7561462E-02  0.1270831E+00
         -2   -1    0    0    0  501 -0.00000000000E+00  0.00000000000E+00  0.13424004805E+02  0.13424004805E+02  0.00000000000E+00 0.  1.
          2   -1    0    0  501    0  0.00000000000E+00 -0.00000000000E+00 -0.96508017236E+03  0.96508017236E+03  0.00000000000E+00 0. -1.
         23    2    1    2    0    0  0.18605328224E+02  0.17479229673E+02 -0.45246216725E+03  0.47012761033E+03  0.12508507303E+03 0.  0.
          5    1    3    3  502    0  0.19353077840E+02  0.63694168953E+02 -0.36569831356E+03  0.37173137844E+03  0.41800000000E+01 0.  1.
         -5    1    3    3    0  502 -0.74774961648E+00 -0.46214939280E+02 -0.86763853691E+02  0.98396231887E+02  0.41800000000E+01 0.  1.
        -11    1    1    2    0    0  0.56690024693E+01 -0.52914328702E+02 -0.27127986531E+03  0.27645040983E+03  0.00000000000E+00 0.  1.
         11    1    1    2    0    0 -0.24274330693E+02  0.35435099029E+02 -0.22791413499E+03  0.23192615701E+03  0.00000000000E+00 0. -1.
</event>
<event>
 7    1  0.6671761E-006  0.1977957E+03  0.7561462E-02  0.1151612E+00
          2   -1    0    0  501    0  0.00000000000E+00  0.00000000000E+00  0.18126629275E+03  0.18126629275E+03  0.00000000000E+00 0.  1.
         -2   -1    0    0    0  501 -0.00000000000E+00 -0.00000000000E+00 -0.26437273811E+03  0.26437273811E+03  0.00000000000E+00 0. -1.
         23    2    1    2    0    0  0.26263922175E+02  0.17943308121E+03 -0.99941345801E+02  0.24191017602E+03  0.12508491683E+03 0.  0.
          5    1    3    3  502    0 -0.19223034140E+02  0.31985894654E+01 -0.48940957671E+02  0.52843597095E+02  0.41800000000E+01 0. -1.
         -5    1    3    3    0  502  0.45486956316E+02  0.17623449175E+03 -0.51000388129E+02  0.18906657892E+03  0.41800000000E+01 0. -1.
        -11    1    1    2    0    0 -0.46277112627E+02 -0.82198936409E+02 -0.22451407917E+02  0.96965468169E+02  0.00000000000E+00 0.  1.
         11    1    1    2    0    0  0.20013190452E+02 -0.97234144805E+02  0.39286308357E+02  0.10676338667E+03  0.00000000000E+00 0. -1.
</event>
<event>
 7    1  0.6671761E-006  0.1166579E+03  0.7561462E-02  0.1248715E+00
         -2   -1    0    0    0  501 -0.00000000000E+00  0.00000000000E+00  0.38018738191E+02  0.38018738191E+02  0.00000000000E+00 0.  1.
          2   -1    0    0  501    0  0.00000000000E+00 -0.00000000000E+00 -0.57497475724E+03  0.57497475724E+03  0.00000000000E+00 0. -1.
         23    2    1    2    0    0 -0.21113257337E+02  0.97681653247E+02 -0.29911201323E+03  0.33926709777E+03  0.12508673854E+03 0.  0.
          5    1    3    3  502    0 -0.72023029472E+01  0.93422418161E+02 -0.91259100170E+02  0.13086373503E+03  0.41800000000E+01 0. -1.
         -5    1    3    3    0  502 -0.13910954390E+02  0.42592350867E+01 -0.20785291306E+03  0.20840336274E+03  0.41800000000E+01 0. -1.
        -11    1    1    2    0    0  0.48151383964E+02 -0.74835284302E+02 -0.11227788058E+03  0.14326617892E+03  0.00000000000E+00 0.  1.
         11    1    1    2    0    0 -0.27038126627E+02 -0.22846368946E+02 -0.12556612524E+03  0.13046021874E+03  0.00000000000E+00 0. -1.
</event>
<event>
 7    1  0.6671761E-006  0.1230841E+03  0.7561462E-02  0.1238094E+00
          1   -1    0    0  501    0  0.00000000000E+00  0.00000000000E+00  0.81918032633E+02  0.81918032633E+02  0.00000000000E+00 0. -1.
         -1   -1    0    0    0  501 -0.00000000000E+00 -0.00000000000E+00 -0.25609508377E+03  0.25609508377E+03  0.00000000000E+00 0.  1.
         23    2    1    2    0    0  0.84006972504E+02 -0.39280812651E+02 -0.11828047137E+03  0.19554688263E+03  0.12509260462E+03 0.  0.
          5    1    3    3  502    0  0.38262538878E+02 -0.81735621491E+02 -0.51265741373E+02  0.10387676516E+03  0.41800000000E+01 0. -1.
         -5    1    3    3    0  502  0.45744433625E+02  0.42454808840E+02 -0.67014729994E+02  0.91670117473E+02  0.41800000000E+01 0. -1.
        -11    1    1    2    0    0 -0.45788148471E+02  0.26871309532E+02  0.19883196404E+02  0.56691827590E+02  0.00000000000E+00 0. -1.
         11    1    1    2    0    0 -0.38218824033E+02  0.12409503119E+02 -0.75779776174E+02  0.85774406178E+02  0.00000000000E+00 0.  1.
</event>
<event>
 7    1  0.6671761E-006  0.1056644E+03  0.7561462E-02  0.1268816E+00
          1   -1    0    0  501    0  0.00000000000E+00  0.00000000000E+00  0.61024291703E+02  0.61024291703E+02  0.00000000000E+00 0. -1.
         -1   -1    0    0    0  501 -0.00000000000E+00 -0.00000000000E+00 -0.23308265023E+03  0.23308265023E+03  0.00000000000E+00 0.  1.
         23    2    1    2    0    0  0.42045034119E+02 -0.67001101507E+01 -0.14017928061E+03  0.19264128298E+03  0.12509099419E+03 0.  0.
          5    1    3    3  502    0 -0.41076911166E+02 -0.22402961140E+02 -0.42396308799E+02  0.63278153407E+02  0.41800000000E+01 0. -1.
         -5    1    3    3    0  502  0.83121945285E+02  0.15702850989E+02 -0.97782971808E+02  0.12936312957E+03  0.41800000000E+01 0. -1.
        -11    1    1    2    0    0 -0.57067563057E+02  0.19099953805E+02  0.43457532094E+01  0.60335732030E+02  0.00000000000E+00 0. -1.
         11    1    1    2    0    0  0.15022528938E+02 -0.12399843654E+02 -0.36224831130E+02  0.41129926924E+02  0.00000000000E+00 0.  1.
</event>
<event>
 7    1  0.6671761E-006  0.1460223E+03  0.7561462E-02  0.1205448E+00
          3   -1    0    0  501    0  0.00000000000E+00  0.00000000000E+00  0.17076241118E+03  0.17076241118E+03  0.00000000000E+00 0. -1.
         -3   -1    0    0    0  501 -0.00000000000E+00 -0.00000000000E+00 -0.24683198930E+03  0.24683198930E+03  0.00000000000E+00 0.  1.
         23    2    1    2    0    0 -0.12014024959E+03 -0.11452056754E+02 -0.17315286768E+03  0.23857266582E+03  0.11122127545E+03 0.  0.
          5    1    3    3  502    0 -0.28900650643E+02  0.40647862068E+02 -0.22552070800E+02  0.54895943344E+02  0.41800000000E+01 0. -1.
         -5    1    3    3    0  502 -0.91239598950E+02 -0.52099918822E+02 -0.15060079688E+03  0.18367672247E+03  0.41800000000E+01 0.  1.
        -11    1    1    2    0    0  0.75433817370E+02 -0.24673919418E+02  0.91723485769E+02  0.12129410927E+03  0.00000000000E+00 0. -1.
         11    1    1    2    0    0  0.44706432222E+02  0.36125976172E+02  0.53598037923E+01  0.57727625390E+02  0.00000000000E+00 0.  1.
</event>
<event>
 7    1  0.6671761E-006  0.7083248E+02  0.7561462E-02  0.1357285E+00
         -2   -1    0    0    0  501 -0.00000000000E+00  0.00000000000E+00  0.12168925450E+03  0.12168925450E+03  0.00000000000E+00 0.  1.
          2   -1    0    0  501    0  0.00000000000E+00 -0.00000000000E+00 -0.12791070778E+03  0.12791070778E+03  0.00000000000E+00 0. -1.
         23    2    1    2    0    0  0.48428515151E+02 -0.30503924288E+02  0.13776974242E+02  0.13825101543E+03  0.12509087805E+03 0.  0.
          5    1    3    3  502    0  0.45152391327E+02 -0.64168938644E+01 -0.51233463857E+02  0.68718666956E+02  0.41800000000E+01 0. -1.
         -5    1    3    3    0  502  0.32761238245E+01 -0.24087030424E+02  0.65010438099E+02  0.69532348470E+02  0.41800000000E+01 0. -1.
        -11    1    1    2    0    0 -0.28147451747E+02 -0.66056478875E+01  0.32785853320E+02  0.43712993512E+02  0.00000000000E+00 0.  1.
         11    1    1    2    0    0 -0.20281063404E+02  0.37109572176E+02 -0.52784280841E+02  0.67635953337E+02  0.00000000000E+00 0. -1.
</event>
<event>
 7    1  0.6671761E-006  0.1743304E+03  0.7561462E-02  0.1173406E+00
         -2   -1    0    0    0  501 -0.00000000000E+00  0.00000000000E+00  0.19499363809E+03  0.19499363809E+03  0.00000000000E+00 0. -1.
          2   -1    0    0  501    0  0.00000000000E+00 -0.00000000000E+00 -0.29193416757E+03  0.29193416757E+03  0.00000000000E+00 0.  1.
         23    2    1    2    0    0 -0.16206518112E+03 -0.22803481360E+02  0.86078916479E+02  0.22325606224E+03  0.12509423556E+03 0.  0.
          5    1    3    3  502    0 -0.28483720652E+01 -0.25185494662E+02 -0.19415751476E+02  0.32200406366E+02  0.41800000000E+01 0. -1.
         -5    1    3    3    0  502 -0.15921680906E+03  0.23820133013E+01  0.10549466796E+03  0.19105565587E+03  0.41800000000E+01 0. -1.
        -11    1    1    2    0    0  0.13273284480E+03  0.19700323122E+02 -0.19071196657E+03  0.23318911856E+03  0.00000000000E+00 0.  1.
         11    1    1    2    0    0  0.29332336317E+02  0.31031582380E+01  0.76925206128E+01  0.30482624858E+02  0.00000000000E+00 0. -1.
</event>
<event>
 7    1  0.6671761E-006  0.1403975E+03  0.7561462E-02  0.1212795E+00
          2   -1    0    0  501    0  0.00000000000E+00  0.00000000000E+00  0.23939119795E+03  0.23939119795E+03  0.00000000000E+00 0. -1.
         -2   -1    0    0    0  501 -0.00000000000E+00 -0.00000000000E+00 -0.93606919959E+02  0.93606919959E+02  0.00000000000E+00 0.  1.
         23    2    1    2    0    0  0.89668656499E+02  0.24795164927E+02  0.35451283447E+02  0.15987078772E+03  0.12508639857E+03 0.  0.
          5    1    3    3  502    0 -0.27869094746E+02  0.83381449394E+01  0.28455271812E+02  0.40907040921E+02  0.41800000000E+01 0. -1.
         -5    1    3    3    0  502  0.11753775125E+03  0.16457019987E+02  0.69960116356E+01  0.11896374680E+03  0.41800000000E+01 0. -1.
        -11    1    1    2    0    0 -0.75735447365E+02  0.25924785068E+02  0.57382104911E+02  0.98491920646E+02  0.00000000000E+00 0.  1.
         11    1    1    2    0    0 -0.13933209134E+02 -0.50719949995E+02  0.52950889638E+02  0.74635409543E+02  0.00000000000E+00 0. -1.
</event>
<event>
 7    1  0.6671761E-006  0.9726589E+02  0.7561462E-02  0.1286153E+00
         -1   -1    0    0    0  501 -0.00000000000E+00  0.00000000000E+00  0.67979501746E+02  0.67979501746E+02  0.00000000000E+00 0.  1.
          1   -1    0    0  501    0  0.00000000000E+00 -0.00000000000E+00 -0.22354611418E+03  0.22354611418E+03  0.00000000000E+00 0. -1.
         23    2    1    2    0    0 -0.12804482607E+02  0.23684967403E+02 -0.26222984733E+02  0.13061332079E+03  0.12508901704E+03 0.  0.
          5    1    3    3  502    0  0.10243303976E+01 -0.47885207564E+02 -0.31388150317E+02  0.57417164128E+02  0.41800000000E+01 0. -1.
         -5    1    3    3    0  502 -0.13828813004E+02  0.71570174968E+02  0.51651655841E+01  0.73196156658E+02  0.41800000000E+01 0. -1.
        -11    1    1    2    0    0 -0.32213806084E+01 -0.45919190317E+02 -0.12494364460E+03  0.13315353415E+03  0.00000000000E+00 0. -1.
         11    1    1    2    0    0  0.16025863215E+02  0.22234222913E+02 -0.43999831082E+01  0.27758760990E+02  0.00000000000E+00 0.  1.
</event>
<event>
 7    1  0.6671761E-006  0.1101309E+03  0.7561462E-02  0.1260328E+00
          1   -1    0    0  501    0  0.00000000000E+00  0.00000000000E+00  0.72470657443E+03  0.72470657443E+03  0.00000000000E+00 0. -1.
         -1   -1    0    0    0  501 -0.00000000000E+00 -0.00000000000E+00 -0.17255037717E+02  0.17255037717E+02  0.00000000000E+00 0.  1.
         23    2    1    2    0    0 -0.17569431765E+02  0.15720236248E+02  0.36114904823E+03  0.38293006764E+03  0.12510392044E+03 0.  0.
          5    1    3    3  502    0  0.53885098799E+02  0.15399825643E+00  0.15109373507E+03  0.16046936395E+03  0.41800000000E+01 0. -1.
         -5    1    3    3    0  502 -0.71454530563E+02  0.15566237992E+02  0.21005531315E+03  0.22246070369E+03  0.41800000000E+01 0. -1.
        -11    1    1    2    0    0  0.17318209165E+02 -0.52962351862E+02  0.17223270088E+03  0.18102219294E+03  0.00000000000E+00 0.  1.
         11    1    1    2    0    0  0.25122259965E+00  0.37242115614E+02  0.17406978760E+03  0.17800935156E+03  0.00000000000E+00 0. -1.
</event>
<event>
 7    1  0.6671761E-006  0.1055774E+03  0.7561462E-02  0.1268986E+00
         -2   -1    0    0    0  501 -0.00000000000E+00  0.00000000000E+00  0.58441152945E+02  0.58441152945E+02  0.00000000000E+00 0.  1.
          2   -1    0    0  501    0  0.00000000000E+00 -0.00000000000E+00 -0.30786462348E+03  0.30786462348E+03  0.00000000000E+00 0. -1.
         23    2    1    2    0    0 -0.27056674029E+02  0.73559997141E+02 -0.13457421450E+03  0.19975312036E+03  0.12509177868E+03 0.  0.
          5    1    3    3  502    0 -0.49423901106E+02  0.56018372293E+01 -0.11514638220E+03  0.12550005703E+03  0.41800000000E+01 0.  1.
         -5    1    3    3    0  502  0.22367227077E+02  0.67958159911E+02 -0.19427832305E+02  0.74253063329E+02  0.41800000000E+01 0.  1.
        -11    1    1    2    0    0 -0.10773725925E+02 -0.30014472823E+02  0.61775636230E+01  0.32482365084E+02  0.00000000000E+00 0.  1.
         11    1    1    2    0    0  0.37830399953E+02 -0.43545524317E+02 -0.12102681966E+03  0.13407029099E+03  0.00000000000E+00 0. -1.
</event>
<event>
 7    1  0.6671761E-006  0.1269125E+03  0.7561462E-02  0.1232110E+00
          1   -1    0    0  501    0  0.00000000000E+00  0.00000000000E+00  0.95158080564E+03  0.95158080564E+03  0.00000000000E+00 0. -1.
         -1   -1    0    0    0  501 -0.00000000000E+00 -0.00000000000E+00 -0.24144699170E+02  0.24144699170E+02  0.00000000000E+00 0.  1.
         23    2    1    2    0    0  0.10163786453E+03  0.26318357211E+02  0.46396809396E+03  0.49187217832E+03  0.12509570803E+03 0.  0.
          5    1    3    3  502    0  0.58608454478E+02 -0.85530459259E+01  0.61119131186E+02  0.85212241655E+02  0.41800000000E+01 0.  1.
         -5    1    3    3    0  502  0.43029410052E+02  0.34871403137E+02  0.40284896277E+03  0.40665993667E+03  0.41800000000E+01 0.  1.
        -11    1    1    2    0    0  0.13079120476E+02 -0.20150134369E+02  0.74897468119E+02  0.78655718407E+02  0.00000000000E+00 0.  1.
         11    1    1    2    0    0 -0.11471698501E+03 -0.61682228426E+01  0.38857054439E+03  0.40519760808E+03  0.00000000000E+00 0. -1.
</event>
<event>
 7    1  0.6671761E-006  0.1169215E+03  0.7561462E-02  0.1248264E+00
          2   -1    0    0  501    0  0.00000000000E+00  0.00000000000E+00  0.71638904591E+02  0.71638904591E+02  0.00000000000E+00 0. -1.
         -2   -1    0    0    0  501 -0.00000000000E+00 -0.00000000000E+00 -0.21387250724E+03  0.21387250724E+03  0.00000000000E+00 0.  1.
         23    2    1    2    0    0 -0.50813393585E+02  0.31927699066E+02 -0.83196180050E+02  0.16177715516E+03  0.12509542206E+03 0.  0.
          5    1    3    3  502    0  0.40056309321E+02 -0.46511014418E+01 -0.20854797610E+02  0.45590960117E+02  0.41800000000E+01 0.  1.
         -5    1    3    3    0  502 -0.90869702906E+02  0.36578800508E+02 -0.62341382440E+02  0.11618619504E+03  0.41800000000E+01 0.  1.
        -11    1    1    2    0    0 -0.18099043172E+02  0.24176741736E+01  0.95611471069E+01  0.20611551279E+02  0.00000000000E+00 0. -1.
         11    1    1    2    0    0  0.68912436757E+02 -0.34345373240E+02 -0.68598569707E+02  0.10312270540E+03  0.00000000000E+00 0.  1.
</event>
<event>
 7    1  0.6702129E-006  0.1169991E+03  0.7561462E-02  0.1248131E+00
          1   -1    0    0  501    0  0.00000000000E+00  0.00000000000E+00  0.20319606827E+03  0.20319606827E+03  0.00000000000E+00 0. -1.
         -1   -1    0    0    0  501 -0.00000000000E+00 -0.00000000000E+00 -0.14569097774E+03  0.14569097774E+03  0.00000000000E+00 0.  1.
         23    2    1    2    0    0  0.42057284864E+02 -0.75682539762E+02 -0.71935702431E+02  0.16828341090E+03  0.12509156272E+03 0.  0.
          5    1    3    3  502    0  0.44167024493E+02 -0.10488136777E+03 -0.78086094030E+02  0.13807873782E+03  0.41800000000E+01 0. -1.
         -5    1    3    3    0  502 -0.21097396294E+01  0.29198828011E+02  0.61503915988E+01  0.30204673071E+02  0.41800000000E+01 0. -1.
        -11    1    1    2    0    0 -0.20244360627E+02  0.12707493381E+02  0.10797090761E+03  0.11058495113E+03  0.00000000000E+00 0. -1.
         11    1    1    2    0    0 -0.21812924237E+02  0.62975046381E+02  0.21469885341E+02  0.70018683985E+02  0.00000000000E+00 0.  1.
</event>
<event>
 7    1  0.6671761E-006  0.1145158E+03  0.7561462E-02  0.1252429E+00
          2   -1    0    0  501    0  0.00000000000E+00  0.00000000000E+00  0.19389665459E+03  0.19389665459E+03  0.00000000000E+00 0. -1.
         -2   -1    0    0    0  501 -0.00000000000E+00 -0.00000000000E+00 -0.71792457646E+02  0.71792457646E+02  0.00000000000E+00 0.  1.
         23    2    1    2    0    0 -0.35658517333E+02 -0.39991250578E+02  0.73041921922E+02  0.15449171613E+03  0.12514686578E+03 0.  0.
          5    1    3    3  502    0 -0.36793272308E+02  0.40540070545E+02  0.22648861362E+02  0.59394322354E+02  0.41800000000E+01 0.  1.
         -5    1    3    3    0  502  0.11347549751E+01 -0.80531321123E+02  0.50393060560E+02  0.95097393777E+02  0.41800000000E+01 0.  1.
        -11    1    1    2    0    0 -0.24369789589E+02  0.13552747181E+02 -0.21683131533E+01  0.27969003963E+02  0.00000000000E+00 0.  1.
         11    1    1    2    0    0  0.60028306921E+02  0.26438503397E+02  0.51230588173E+02  0.83228392140E+02  0.00000000000E+00 0. -1.
</event>
<event>
 7    1  0.6671761E-006  0.9985796E+02  0.7561462E-02  0.1280595E+00
         -1   -1    0    0    0  501 -0.00000000000E+00  0.00000000000E+00  0.10538473216E+03  0.10538473216E+03  0.00000000000E+00 0.  1.
          1   -1    0    0  501    0  0.00000000000E+00 -0.00000000000E+00 -0.17508821398E+03  0.17508821398E+03  0.00000000000E+00 0. -1.
         23    2    1    2    0    0  0.24618594609E+02 -0.52415301711E+02  0.22490824774E+02  0.13966504571E+03  0.12508816387E+03 0.  0.
          5    1    3    3  502    0  0.61653189000E+02 -0.38472877310E+02  0.52563900199E+02  0.89787048100E+02  0.41800000000E+01 0.  1.
         -5    1    3    3    0  502 -0.37034594392E+02 -0.13942424401E+02 -0.30073075426E+02  0.49877997609E+02  0.41800000000E+01 0.  1.
        -11    1    1    2    0    0 -0.46685395984E+02  0.29015056302E+02 -0.14692562344E+02  0.56897021703E+02  0.00000000000E+00 0.  1.
         11    1    1    2    0    0  0.22066801375E+02  0.23400245409E+02 -0.77501744250E+02  0.83910878734E+02  0.00000000000E+00 0. -1.
</event>
<event>
 7    1  0.6671761E-006  0.3227672E+03  0.7561462E-02  0.1074383E+00
         -1   -1    0    0    0  501 -0.00000000000E+00  0.00000000000E+00  0.71178291437E+03  0.71178291437E+03  0.00000000000E+00 0.  1.
          1   -1    0    0  501    0  0.00000000000E+00 -0.00000000000E+00 -0.16680441171E+03  0.16680441171E+03  0.00000000000E+00 0. -1.
         23    2    1    2    0    0 -0.30992944114E+03  0.58432383510E+02  0.38729387651E+03  0.51489416236E+03  0.12509536250E+03 0.  0.
          5    1    3    3  502    0 -0.77236898094E+01 -0.11331183150E+02 -0.46409198591E+01  0.15068564397E+02  0.41800000000E+01 0. -1.
         -5    1    3    3    0  502 -0.30220575134E+03  0.69763566660E+02  0.39193479637E+03  0.49982559796E+03  0.41800000000E+01 0. -1.
        -11    1    1    2    0    0  0.15715496094E+03  0.81206210422E+00  0.11387890788E+03  0.19407922829E+03  0.00000000000E+00 0. -1.
         11    1    1    2    0    0  0.15277448020E+03 -0.59244445614E+02  0.43805718267E+02  0.16961393543E+03  0.00000000000E+00 0.  1.
</event>
<event>
 7    1  0.6671761E-006  0.1002423E+03  0.7561462E-02  0.1279787E+00
          2   -1    0    0  501    0  0.00000000000E+00  0.00000000000E+00  0.60743755045E+02  0.60743755045E+02  0.00000000000E+00 0.  1.
         -2   -1    0    0    0  501 -0.00000000000E+00 -0.00000000000E+00 -0.22084797408E+03  0.22084797408E+03  0.00000000000E+00 0. -1.
         23    2    1    2    0    0  0.10480477904E+02  0.34099837480E+02 -0.87354224365E+02  0.15668060363E+03  0.12508162017E+03 0.  0.
          5    1    3    3  502    0  0.45777659880E+02 -0.14628171755E+02 -0.83263298460E+02  0.96227993970E+02  0.41800000000E+01 0. -1.
         -5    1    3    3    0  502 -0.35297181976E+02  0.48728009235E+02 -0.40909259049E+01  0.60452609656E+02  0.41800000000E+01 0. -1.
        -11    1    1    2    0    0  0.19023251526E+02 -0.53392041076E+02 -0.69247221196E+02  0.89486154193E+02  0.00000000000E+00 0. -1.
         11    1    1    2    0    0 -0.29503729430E+02  0.19292203596E+02 -0.35027734721E+01  0.35424971304E+02  0.00000000000E+00 0.  1.
</event>
<event>
 7    1  0.6671761E-006  0.8400198E+02  0.7561462E-02  0.1318063E+00
          2   -1    0    0  501    0  0.00000000000E+00  0.00000000000E+00  0.34601767539E+03  0.34601767539E+03  0.00000000000E+00 0. -1.
         -2   -1    0    0    0  501 -0.00000000000E+00 -0.00000000000E+00 -0.86004358845E+02  0.86004358845E+02  0.00000000000E+00 0.  1.
         23    2    1    2    0    0  0.20021242267E+02 -0.11844630920E+02 -0.36055786357E+02  0.12094089398E+03  0.11307313865E+03 0.  0.
          5    1    3    3  502    0  0.18569857558E+02  0.27803803370E+02  0.29113263549E+02  0.44530277408E+02  0.41800000000E+01 0. -1.
         -5    1    3    3    0  502  0.14513847092E+01 -0.39648434290E+02 -0.65169049906E+02  0.76410616572E+02  0.41800000000E+01 0.  1.
        -11    1    1    2    0    0  0.34360830524E+02  0.19480301637E+02  0.14716126005E+03  0.15236989626E+03  0.00000000000E+00 0.  1.
         11    1    1    2    0    0 -0.54382072790E+02 -0.76356707167E+01  0.14890784285E+03  0.15871124399E+03  0.00000000000E+00 0. -1.
</event>
<event>
 7    1  0.6671761E-006  0.9837932E+02  0.7561462E-02  0.1283741E+00
         -1   -1    0    0    0  501 -0.00000000000E+00  0.00000000000E+00  0.12643445609E+03  0.12643445609E+03  0.00000000000E+00 0.  1.
          1   -1    0    0  501    0  0.00000000000E+00 -0.00000000000E+00 -0.11149452123E+03  0.11149452123E+03  0.00000000000E+00 0. -1.
         23    2    1    2    0    0 -0.21705216873E+02 -0.12109980722E+01  0.27266719500E+02  0.12985977657E+03  0.12508998610E+03 0.  0.
          5    1    3    3  502    0  0.81564508595E+01  0.47978995978E+02  0.48065348781E+02  0.68529277678E+02  0.41800000000E+01 0.  1.
         -5    1    3    3    0  502 -0.29861667732E+02 -0.49189994050E+02 -0.20798629281E+02  0.61330498893E+02  0.41800000000E+01 0.  1.
        -11    1    1    2    0    0  0.37519818204E+02  0.36002242131E+02 -0.35880679021E+02  0.63176904985E+02  0.00000000000E+00 0. -1.
         11    1    1    2    0    0 -0.15814601331E+02 -0.34791244059E+02  0.23553894386E+02  0.44892295766E+02  0.00000000000E+00 0.  1.
</event>
<event>
 7    1  0.6671761E-006  0.1045324E+03  0.7561462E-02  0.1271044E+00
          3   -1    0    0  501    0  0.00000000000E+00  0.00000000000E+00  0.72486464941E+02  0.72486464941E+02  0.00000000000E+00 0. -1.
         -3   -1    0    0    0  501 -0.00000000000E+00 -0.00000000000E+00 -0.21684545015E+03  0.21684545015E+03  0.00000000000E+00 0.  1.
         23    2    1    2    0    0 -0.15183861244E+02 -0.27597259647E+01 -0.12735575628E+03  0.17917985695E+03  0.12509103385E+03 0.  0.
          5    1    3    3  502    0  0.24832614736E+02  0.52132921958E+02 -0.55278918159E+02  0.80048307286E+02  0.41800000000E+01 0. -1.
         -5    1    3    3    0  502 -0.40016475980E+02 -0.54892647923E+02 -0.72076838118E+02  0.99131549665E+02  0.41800000000E+01 0. -1.
        -11    1    1    2    0    0  0.15328005439E+02 -0.38712876850E+02 -0.44069903558E+02  0.60628301843E+02  0.00000000000E+00 0.  1.
         11    1    1    2    0    0 -0.14414419549E+00  0.41472602815E+02  0.27066674631E+02  0.49523756293E+02  0.00000000000E+00 0. -1.
</event>
<event>
 6    1  0.6671761E-006  0.1191060E+03  0.7561462E-02  0.1244579E+00
         -1   -1    0    0    0  501 -0.00000000000E+00  0.00000000000E+00  0.66450915006E+02  0.66450915006E+02  0.00000000000E+00 0.  1.
          1   -1    0    0  501    0  0.00000000000E+00 -0.00000000000E+00 -0.42440217734E+03  0.42440217734E+03  0.00000000000E+00 0. -1.
          5    1    1    2  502    0 -0.51837426039E+02 -0.38952720083E+02 -0.44786910878E+02  0.78916239939E+02  0.41800000000E+01 0. -1.
         -5    1    1    2    0  502  0.78079249107E+02  0.19619721980E+02  0.30233329632E+01  0.80671652852E+02  0.41800000000E+01 0.  1.
        -11    1    1    2    0    0 -0.29665124825E+02  0.51950718063E+02 -0.14316485506E+03  0.15516144000E+03  0.00000000000E+00 0.  1.
         11    1    1    2    0    0  0.34233017575E+01 -0.32617719960E+02 -0.17302282936E+03  0.17610375956E+03  0.00000000000E+00 0. -1.
</event>
<event>
 7    1  0.6671761E-006  0.8395727E+02  0.7561462E-02  0.1318182E+00
          1   -1    0    0  501    0  0.00000000000E+00  0.00000000000E+00  0.69566374142E+03  0.69566374142E+03  0.00000000000E+00 0. -1.
         -1   -1    0    0    0  501 -0.00000000000E+00 -0.00000000000E+00 -0.20686839561E+02  0.20686839561E+02  0.00000000000E+00 0.  1.
         23    2    1    2    0    0 -0.24586823433E+02 -0.49635138888E+02  0.38788047992E+03  0.41003183008E+03  0.12085808238E+03 0.  0.
          5    1    3    3  502    0  0.89499398628E+01 -0.39230814715E+02  0.36646462277E+03  0.36869086019E+03  0.41800000000E+01 0. -1.
         -5    1    3    3    0  502 -0.33536763296E+02 -0.10404324173E+02  0.21415857151E+02  0.41340969889E+02  0.41800000000E+01 0.  1.
        -11    1    1    2    0    0 -0.13980263515E+02 -0.12640114936E+02  0.13755567909E+02  0.23333150710E+02  0.00000000000E+00 0.  1.
         11    1    1    2    0    0  0.38567086948E+02  0.62275253824E+02  0.27334085403E+03  0.28298560019E+03  0.00000000000E+00 0. -1.
</event>
<event>
 7    1  0.6671761E-006  0.1072030E+03  0.7561462E-02  0.1265839E+00
         -1   -1    0    0    0  501 -0.00000000000E+00  0.00000000000E+00  0.13537850686E+03  0.13537850686E+03  0.00000000000E+00 0.  1.
          1   -1    0    0  501    0  0.00000000000E+00 -0.00000000000E+00 -0.14980763920E+03  0.14980763920E+03  0.00000000000E+00 0. -1.
         23    2    1    2    0    0 -0.75212645550E+02  0.52034040116E+02 -0.70182157760E+01  0.15511434648E+03  0.12508685682E+03 0.  0.
          5    1    3    3  502    0 -0.51526932584E+02  0.42437444698E+02  0.55840996135E+02  0.87130079441E+02  0.41800000000E+01 0.  1.
         -5    1    3    3    0  502 -0.23685712966E+02  0.95965954179E+01 -0.62859211911E+02  0.67984267036E+02  0.41800000000E+01 0.  1.
        -11    1    1    2    0    0  0.33681632996E+02  0.19493801794E+02 -0.23989390211E+02  0.45715987930E+02  0.00000000000E+00 0. -1.
         11    1    1    2    0    0  0.41531012554E+02 -0.71527841911E+02  0.16578473645E+02  0.84355811658E+02  0.00000000000E+00 0.  1.
</event>
<event>
 7    1  0.6671761E-006  0.1208939E+03  0.7561462E-02  0.1241630E+00
         -1   -1    0    0    0  501 -0.00000000000E+00  0.00000000000E+00  0.27184796761E+03  0.27184796761E+03  0.00000000000E+00 0.  1.
          1   -1    0    0  501    0  0.00000000000E+00 -0.00000000000E+00 -0.93542427506E+02  0.93542427506E+02  0.00000000000E+00 0. -1.
         23    2    1    2    0    0 -0.10481807834E+03  0.67222326002E-01  0.15380354923E+03  0.22425709363E+03  0.12509547642E+03 0.  0.
          5    1    3    3  502    0  0.82549027481E+01  0.71574809725E+01 -0.16160976966E+02  0.19950501992E+02  0.41800000000E+01 0. -1.
         -5    1    3    3    0  502 -0.11307298108E+03 -0.70902586465E+01  0.16996452620E+03  0.20430659163E+03  0.41800000000E+01 0. -1.
        -11    1    1    2    0    0  0.90815704188E+02  0.19275205248E+02  0.50622143620E+02  0.10574321297E+03  0.00000000000E+00 0.  1.
         11    1    1    2    0    0  0.14002374148E+02 -0.19342427574E+02 -0.26120152745E+02  0.35390088523E+02  0.00000000000E+00 0. -1.
</event>
<event>
 7    1  0.6671761E-006  0.1278447E+03  0.7561462E-02  0.1230689E+00
          1   -1    0    0  501    0  0.00000000000E+00  0.00000000000E+00  0.59537495338E+03  0.59537495338E+03  0.00000000000E+00 0. -1.
         -1   -1    0    0    0  501 -0.00000000000E+00 -0.00000000000E+00 -0.29407326815E+02  0.29407326815E+02  0.00000000000E+00 0.  1.
         23    2    1    2    0    0 -0.23707429522E+02 -0.71011152304E+02  0.30466100912E+03  0.33774541570E+03  0.12509600065E+03 0.  0.
          5    1    3    3  502    0  0.17173453597E+02 -0.95877181868E+02  0.19440148943E+03  0.21747821271E+03  0.41800000000E+01 0.  1.
         -5    1    3    3    0  502 -0.40880883118E+02  0.24866029564E+02  0.11025951969E+03  0.12026720299E+03  0.41800000000E+01 0.  1.
        -11    1    1    2    0    0  0.53526343971E+02  0.37778107517E+02  0.20476939288E+03  0.21499478870E+03  0.00000000000E+00 0. -1.
         11    1    1    2    0    0 -0.29818914449E+02  0.33233044787E+02  0.56537224562E+02  0.72042075802E+02  0.00000000000E+00 0.  1.
</event>
<event>
 7    1  0.6671761E-006  0.9659546E+02  0.7561462E-02  0.1287623E+00
         -2   -1    0    0    0  501 -0.00000000000E+00  0.00000000000E+00  0.10558634724E+03  0.10558634724E+03  0.00000000000E+00 0.  1.
          2   -1    0    0  501    0  0.00000000000E+00 -0.00000000000E+00 -0.16489517313E+03  0.16489517313E+03  0.00000000000E+00 0. -1.
         23    2    1    2    0    0  0.52574702182E+02  0.40514819177E+02  0.14115546334E+01  0.14161437085E+03  0.12508831945E+03 0.  0.
          5    1    3    3  502    0  0.76951098954E+02  0.19157187017E+02 -0.39957283171E+02  0.88896154715E+02  0.41800000000E+01 0.  1.
         -5    1    3    3    0  502 -0.24376396772E+02  0.21357632160E+02  0.41368837805E+02  0.52718216134E+02  0.41800000000E+01 0.  1.
        -11    1    1    2    0    0 -0.82268796653E+00 -0.27800084308E+02  0.18490793400E+02  0.33398067962E+02  0.00000000000E+00 0.  1.
         11    1    1    2    0    0 -0.51752014216E+02 -0.12714734869E+02 -0.79211173927E+02  0.95469081555E+02  0.00000000000E+00 0. -1.
</event>
<event>
 7    1  0.6671761E-006  0.7678189E+02  0.7561462E-02  0.1338440E+00
         -1   -1    0    0    0  501 -0.00000000000E+00  0.00000000000E+00  0.66715171671E+02  0.66715171671E+02  0.00000000000E+00 0.  1.
          1   -1    0    0  501    0  0.00000000000E+00 -0.00000000000E+00 -0.23488567525E+03  0.23488567525E+03  0.00000000000E+00 0. -1.
         23    2    1    2    0    0 -0.44678312692E+02 -0.39612416255E+02 -0.75673112892E+02  0.15791850666E+03  0.12508612866E+03 0.  0.
          5    1    3    3  502    0 -0.16557317837E+02 -0.47528463073E+02  0.22585777198E+02  0.55323496886E+02  0.41800000000E+01 0. -1.
         -5    1    3    3    0  502 -0.28120994855E+02  0.79160468173E+01 -0.98258890090E+02  0.10259500977E+03  0.41800000000E+01 0. -1.
        -11    1    1    2    0    0  0.48071861222E+02  0.17469529582E+02 -0.10588078357E+03  0.11758753605E+03  0.00000000000E+00 0. -1.
         11    1    1    2    0    0 -0.33935485306E+01  0.22142886674E+02  0.13383392881E+02  0.26094804212E+02  0.00000000000E+00 0.  1.
</event>
<event>
 7    1  0.6671761E-006  0.1020292E+03  0.7561462E-02  0.1276086E+00
          1   -1    0    0  501    0  0.00000000000E+00  0.00000000000E+00  0.14011892050E+03  0.14011892050E+03  0.00000000000E+00 0. -1.
         -1   -1    0    0    0  501 -0.00000000000E+00 -0.00000000000E+00 -0.14555764407E+03  0.14555764407E+03  0.00000000000E+00 0.  1.
         23    2    1    2    0    0 -0.16149546139E+02  0.24978324752E+02 -0.91943565205E+02  0.15806633321E+03  0.12508645796E+03 0.  0.
          5    1    3    3  502    0 -0.23588512879E+02 -0.47269849415E+02 -0.55358912716E+02  0.76635097838E+02  0.41800000000E+01 0.  1.
         -5    1    3    3    0  502  0.74389667407E+01  0.72248174167E+02 -0.36584652489E+02  0.81431235373E+02  0.41800000000E+01 0.  1.
        -11    1    1    2    0    0 -0.14016506441E+02 -0.41581986770E+02  0.11936170927E+02  0.45475226804E+02  0.00000000000E+00 0.  1.
         11    1    1    2    0    0  0.30166052580E+02  0.16603662017E+02  0.74568670708E+02  0.82135004546E+02  0.00000000000E+00 0. -1.
</event>
<event>
 7    1  0.6671761E-006  0.1065331E+03  0.7561462E-02  0.1267128E+00
         -3   -1    0    0    0  501 -0.00000000000E+00  0.00000000000E+00  0.39370355259E+03  0.39370355259E+03  0.00000000000E+00 0.  1.
          3   -1    0    0  501    0  0.00000000000E+00 -0.00000000000E+00 -0.41512120029E+02  0.41512120029E+02  0.00000000000E+00 0. -1.
         23    2    1    2    0    0  0.13112667311E+01  0.54353309208E+02  0.26660539045E+03  0.29947008424E+03  0.12509154846E+03 0.  0.
          5    1    3    3  502    0 -0.43628180253E+01 -0.26665128141E+02  0.81618458924E+01  0.28533337839E+02  0.41800000000E+01 0. -1.
         -5    1    3    3    0  502  0.56740847565E+01  0.81018437349E+02  0.25844354456E+03  0.27093674640E+03  0.41800000000E+01 0. -1.
        -11    1    1    2    0    0  0.25662466760E+02 -0.69063011154E+02  0.51709723374E+02  0.90011983653E+02  0.00000000000E+00 0.  1.
         11    1    1    2    0    0 -0.26973733491E+02  0.14709701946E+02  0.33876318739E+02  0.45733604724E+02  0.00000000000E+00 0. -1.
</event>
<event>
 7    1  0.6671761E-006  0.1052910E+03  0.7561462E-02  0.1269547E+00
          2   -1    0    0  501    0  0.00000000000E+00  0.00000000000E+00  0.17663882513E+03  0.17663882513E+03  0.00000000000E+00 0. -1.
         -2   -1    0    0    0  501 -0.00000000000E+00 -0.00000000000E+00 -0.99732159411E+02  0.99732159411E+02  0.00000000000E+00 0.  1.
         23    2    1    2    0    0  0.31152763601E+02 -0.66211139687E+02  0.24995050983E+02  0.14705451888E+03  0.12508344915E+03 0.  0.
          5    1    3    3  502    0  0.26449044435E+02 -0.98808143980E+02  0.40902885648E+02  0.11024118887E+03  0.41800000000E+01 0.  1.
         -5    1    3    3    0  502  0.47037191666E+01  0.32597004294E+02 -0.15907834665E+02  0.36813330013E+02  0.41800000000E+01 0.  1.
        -11    1    1    2    0    0 -0.31609001019E+02  0.52421997796E+02  0.78389865017E+02  0.99459367260E+02  0.00000000000E+00 0. -1.
         11    1    1    2    0    0  0.45623741731E+00  0.13789141891E+02 -0.26478250285E+02  0.29857098399E+02  0.00000000000E+00 0.  1.
</event>
<event>
 7    1  0.6671761E-006  0.1265510E+03  0.7561462E-02  0.1232665E+00
         -1   -1    0    0    0  501 -0.00000000000E+00  0.00000000000E+00  0.21339776782E+03  0.21339776782E+03  0.00000000000E+00 0.  1.
          1   -1    0    0  501    0  0.00000000000E+00 -0.00000000000E+00 -0.78299762181E+02  0.78299762181E+02  0.00000000000E+00 0. -1.
         23    2    1    2    0    0  0.28979081728E+02 -0.61726691402E+02  0.99362248358E+02  0.17368959010E+03  0.12508095659E+03 0.  0.
          5    1    3    3  502    0  0.44909049048E+02 -0.94591228605E+02  0.64659498429E+02  0.12313669783E+03  0.41800000000E+01 0. -1.
         -5    1    3    3    0  502 -0.15929967320E+02  0.32864537203E+02  0.34702749928E+02  0.50552892271E+02  0.41800000000E+01 0. -1.
        -11    1    1    2    0    0  0.13848141235E+02  0.66982627121E+02  0.14510020501E+02  0.69921270345E+02  0.00000000000E+00 0.  1.
         11    1    1    2    0    0 -0.42827222964E+02 -0.52559357194E+01  0.21225736781E+02  0.48086669555E+02  0.00000000000E+00 0. -1.
</event>
<event>
 7    1  0.6671761E-006  0.1697845E+03  0.7561462E-02  0.1178073E+00
         -1   -1    0    0    0  501 -0.00000000000E+00  0.00000000000E+00  0.56959264188E+03  0.56959264188E+03  0.00000000000E+00 0.  1.
          1   -1    0    0  501    0  0.00000000000E+00 -0.00000000000E+00 -0.63909180256E+02  0.63909180256E+02  0.00000000000E+00 0. -1.
         23    2    1    2    0    0  0.11856985365E+01  0.14572933285E+03  0.34601938755E+03  0.39574644189E+03  0.12508950946E+03 0.  0.
          5    1    3    3  502    0 -0.47970677333E+02  0.61232069655E+02  0.23594398563E+03  0.24847049924E+03  0.41800000000E+01 0. -1.
         -5    1    3    3    0  502  0.49156375870E+02  0.84497263193E+02  0.11007540192E+03  0.14727594265E+03  0.41800000000E+01 0. -1.
        -11    1    1    2    0    0  0.29288755605E+02 -0.22634061945E+02  0.79596195023E+02  0.87782038180E+02  0.00000000000E+00 0.  1.
         11    1    1    2    0    0 -0.30474454141E+02 -0.12309527090E+03  0.80067879051E+02  0.14997334206E+03  0.00000000000E+00 0. -1.
</event>
<event>
 7    1  0.6671761E-006  0.1111729E+03  0.7561462E-02  0.1258413E+00
          4   -1    0    0  501    0  0.00000000000E+00  0.00000000000E+00  0.10400840291E+03  0.10400840291E+03  0.00000000000E+00 0. -1.
         -4   -1    0    0    0  501 -0.00000000000E+00 -0.00000000000E+00 -0.22058961325E+03  0.22058961325E+03  0.00000000000E+00 0.  1.
         23    2    1    2    0    0 -0.29069327923E+02  0.63300061622E+02 -0.15182069888E+03  0.20867900510E+03  0.12508188891E+03 0.  0.
          5    1    3    3  502    0  0.31162251609E+02  0.27824956414E+02 -0.55374444470E+00  0.41989202871E+02  0.41800000000E+01 0. -1.
         -5    1    3    3    0  502 -0.60231579532E+02  0.35475105208E+02 -0.15126695443E+03  0.16668980223E+03  0.41800000000E+01 0. -1.
        -11    1    1    2    0    0 -0.24638766263E+02 -0.48854958889E+02  0.19938626997E+02  0.58235939569E+02  0.00000000000E+00 0. -1.
         11    1    1    2    0    0  0.53708094185E+02 -0.14445102733E+02  0.15300861541E+02  0.57683071502E+02  0.00000000000E+00 0.  1.
</event>
<event>
 7    1  0.6671761E-006  0.1229215E+03  0.7561462E-02  0.1238354E+00
         -1   -1    0    0    0  501 -0.00000000000E+00  0.00000000000E+00  0.29304025971E+02  0.29304025971E+02  0.00000000000E+00 0.  1.
          1   -1    0    0  501    0  0.00000000000E+00 -0.00000000000E+00 -0.56368459545E+03  0.56368459545E+03  0.00000000000E+00 0. -1.
         23    2    1    2    0    0  0.47930992458E+02 -0.36857866604E+02 -0.22930160290E+03  0.26811062265E+03  0.12509275965E+03 0.  0.
          5    1    3    3  502    0  0.51639991463E+02  0.35061758292E+02 -0.74183192390E+02  0.97039342774E+02  0.41800000000E+01 0.  1.
         -5    1    3    3    0  502 -0.37089990052E+01 -0.71919624896E+02 -0.15511841051E+03  0.17107127988E+03  0.41800000000E+01 0.  1.
        -11    1    1    2    0    0 -0.43073532400E+02  0.67528175609E+02 -0.20498122918E+03  0.22007427840E+03  0.00000000000E+00 0.  1.
         11    1    1    2    0    0 -0.48574600583E+01 -0.30670309004E+02 -0.10009773740E+03  0.10480372038E+03  0.00000000000E+00 0. -1.
</event>
<event>
 7    1  0.6671761E-006  0.2495313E+03  0.7561462E-02  0.1113601E+00
         -2   -1    0    0    0  501 -0.00000000000E+00  0.00000000000E+00  0.10077997873E+03  0.10077997873E+03  0.00000000000E+00 0. -1.
          2   -1    0    0  501    0  0.00000000000E+00 -0.00000000000E+00 -0.64993945533E+03  0.64993945533E+03  0.00000000000E+00 0.  1.
         23    2    1    2    0    0 -0.58528997343E+02 -0.22309640567E+03 -0.25355905173E+03  0.36488076670E+03  0.12509249154E+03 0.  0.
          5    1    3    3  502    0 -0.77280154396E+02 -0.94319371357E+02 -0.17326249910E+03  0.21190972623E+03  0.41800000000E+01 0. -1.
         -5    1    3    3    0  502  0.18751157052E+02 -0.12877703432E+03 -0.80296552629E+02  0.15297104047E+03  0.41800000000E+01 0. -1.
        -11    1    1    2    0    0  0.81006143728E+02  0.19282132698E+03 -0.23627128329E+03  0.31554108888E+03  0.00000000000E+00 0.  1.
         11    1    1    2    0    0 -0.22477146385E+02  0.30275078689E+02 -0.59329141584E+02  0.70297578481E+02  0.00000000000E+00 0. -1.
</event>
<event>
 7    1  0.6671761E-006  0.1404971E+03  0.7561462E-02  0.1212662E+00
         -1   -1    0    0    0  501 -0.00000000000E+00  0.00000000000E+00  0.30671709734E+02  0.30671709734E+02  0.00000000000E+00 0.  1.
          1   -1    0    0  501    0  0.00000000000E+00 -0.00000000000E+00 -0.64916527730E+03  0.64916527730E+03  0.00000000000E+00 0. -1.
         23    2    1    2    0    0  0.53888629396E+02 -0.72343377577E+02 -0.33877672049E+03  0.37223026960E+03  0.12509260012E+03 0.  0.
          5    1    3    3  502    0  0.75456588730E+02 -0.95620712746E+02 -0.25784605013E+03  0.28520006217E+03  0.41800000000E+01 0. -1.
         -5    1    3    3    0  502 -0.21567959335E+02  0.23277335169E+02 -0.80930670352E+02  0.87030207435E+02  0.41800000000E+01 0. -1.
        -11    1    1    2    0    0  0.16693160872E+02  0.50554565914E+02 -0.99719701247E+02  0.11304178241E+03  0.00000000000E+00 0.  1.
         11    1    1    2    0    0 -0.70581790268E+02  0.21788811663E+02 -0.17999714583E+03  0.19456493502E+03  0.00000000000E+00 0. -1.
</event>
<event>
 6    1  0.6671761E-006  0.9808684E+02  0.7561462E-02  0.1284371E+00
          2   -1    0    0  501    0  0.00000000000E+00  0.00000000000E+00  0.62277538195E+02  0.62277538195E+02  0.00000000000E+00 0. -1.
         -2   -1    0    0    0  501 -0.00000000000E+00 -0.00000000000E+00 -0.28190769860E+03  0.28190769860E+03  0.00000000000E+00 0.  1.
          5    1    1    2  502    0 -0.70439780081E+01 -0.42019104380E+02 -0.21151203345E+02  0.47750063476E+02  0.41800000000E+01 0. -1.
         -5    1    1    2    0  502  0.13400590107E+02  0.61964663824E+02 -0.19063917043E+03  0.20094765756E+03  0.41800000000E+01 0.  1.
        -11    1    1    2    0    0  0.31188330046E+02 -0.37170109826E+02 -0.19917877556E+02  0.52450460835E+02  0.00000000000E+00 0. -1.
         11    1    1    2    0    0 -0.37544942145E+02  0.17224550381E+02  0.12078090918E+02  0.43037054927E+02  0.00000000000E+00 0.  1.
</event>
<event>
 6    1  0.6671761E-006  0.1237493E+03  0.7561462E-02  0.1237037E+00
         -1   -1    0    0    0  501 -0.00000000000E+00  0.00000000000E+00  0.44607054979E+03  0.44607054979E+03  0.00000000000E+00 0.  1.
          1   -1    0    0  501    0  0.00000000000E+00 -0.00000000000E+00 -0.10375324731E+03  0.10375324731E+03  0.00000000000E+00 0. -1.
          5    1    1    2  502    0 -0.37315864628E+02  0.23864912494E+02  0.43117039480E+02  0.61956107809E+02  0.41800000000E+01 0. -1.
         -5    1    1    2    0  502  0.76204928330E+02  0.43789194496E+02  0.34593411722E+03  0.35694897466E+03  0.41800000000E+01 0.  1.
        -11    1    1    2    0    0  0.15453644622E+01 -0.74062572305E+02 -0.50731384933E+02  0.89784888400E+02  0.00000000000E+00 0. -1.
         11    1    1    2    0    0 -0.40434428164E+02  0.64084653161E+01  0.39975307188E+01  0.41133826232E+02  0.00000000000E+00 0.  1.
</event>
<event>
 7    1  0.6671761E-006  0.9217618E+02  0.7561462E-02  0.1297666E+00
          1   -1    0    0  501    0  0.00000000000E+00  0.00000000000E+00  0.96274825052E+02  0.96274825052E+02  0.00000000000E+00 0. -1.
         -1   -1    0    0    0  501 -0.00000000000E+00 -0.00000000000E+00 -0.14896358259E+03  0.14896358259E+03  0.00000000000E+00 0.  1.
         23    2    1    2    0    0  0.35719333772E+02  0.18209847833E+02 -0.60903595459E+02  0.14478619176E+03  0.12508526700E+03 0.  0.
          5    1    3    3  502    0 -0.31341060930E+02 -0.69803989919E+01 -0.65307358499E+02  0.72893837493E+02  0.41800000000E+01 0.  1.
         -5    1    3    3    0  502  0.67060394702E+02  0.25190246825E+02  0.44037630399E+01  0.71892354264E+02  0.41800000000E+01 0.  1.
        -11    1    1    2    0    0 -0.89096160366E+00  0.24831489416E+02 -0.25518866709E+02  0.35617541146E+02  0.00000000000E+00 0.  1.
         11    1    1    2    0    0 -0.34828372168E+02 -0.43041337249E+02  0.33733704632E+02  0.64834674737E+02  0.00000000000E+00 0. -1.
</event>
<event>
 7    1  0.6671761E-006  0.1097413E+03  0.7561462E-02  0.1261050E+00
         -1   -1    0    0    0  501 -0.00000000000E+00  0.00000000000E+00  0.81916183100E+02  0.81916183100E+02  0.00000000000E+00 0.  1.
          1   -1    0    0  501    0  0.00000000000E+00 -0.00000000000E+00 -0.18633027751E+03  0.18633027751E+03  0.00000000000E+00 0. -1.
         23    2    1    2    0    0 -0.41954499197E+02  0.84105816152E+00 -0.12275648241E+02  0.13250754002E+03  0.12508664693E+03 0.  0.
          5    1    3    3  502    0 -0.50515095872E+02 -0.49758705002E+02 -0.31295415864E+02  0.77618162104E+02  0.41800000000E+01 0.  1.
         -5    1    3    3    0  502  0.85605966744E+01  0.50599763163E+02  0.19019767623E+02  0.54889377916E+02  0.41800000000E+01 0.  1.
        -11    1    1    2    0    0  0.46375959002E+02 -0.37746053240E+02 -0.40926107962E+02  0.72459922864E+02  0.00000000000E+00 0.  1.
         11    1    1    2    0    0 -0.44214598046E+01  0.36904995078E+02 -0.51212338202E+02  0.63278997722E+02  0.00000000000E+00 0. -1.
</event>
<event>
 7    1  0.6671761E-006  0.1137058E+03  0.7561462E-02  0.1253857E+00
          3   -1    0    0  501    0  0.00000000000E+00  0.00000000000E+00  0.38883766587E+02  0.38883766587E+02  0.00000000000E+00 0. -1.
         -3   -1    0    0    0  501 -0.00000000000E+00 -0.00000000000E+00 -0.40309260661E+03  0.40309260661E+03  0.00000000000E+00 0.  1.
         23    2    1    2    0    0 -0.57778497349E+02 -0.19500762292E+02 -0.26432566892E+03  0.29872157235E+03  0.12509150271E+03 0.  0.
          5    1    3    3  502    0  0.12113717862E+02 -0.52199117979E+02 -0.16073081100E+03  0.16947966274E+03  0.41800000000E+01 0. -1.
         -5    1    3    3    0  502 -0.69892215211E+02  0.32698355687E+02 -0.10359485793E+03  0.12924190962E+03  0.41800000000E+01 0. -1.
        -11    1    1    2    0    0  0.12547652479E+02  0.43436684114E+02 -0.22552877825E+02  0.50525453068E+02  0.00000000000E+00 0. -1.
         11    1    1    2    0    0  0.45230844870E+02 -0.23935921822E+02 -0.77330293270E+02  0.92729347772E+02  0.00000000000E+00 0.  1.
</event>
<event>
 7    1  0.6671761E-006  0.2011340E+03  0.7561462E-02  0.1148786E+00
          1   -1    0    0  501    0  0.00000000000E+00  0.00000000000E+00  0.13595944084E+03  0.13595944084E+03  0.00000000000E+00 0. -1.
         -1   -1    0    0    0  501 -0.00000000000E+00 -0.00000000000E+00 -0.41103197161E+03  0.41103197161E+03  0.00000000000E+00 0.  1.
         23    2    1    2    0    0 -0.53089129219E+02 -0.17799461422E+03 -0.25409213707E+03  0.33868995060E+03  0.12509008826E+03 0.  0.
          5    1    3    3  502    0  0.24549184087E+02 -0.91275917461E+02 -0.17163850078E+03  0.19598776211E+03  0.41800000000E+01 0.  1.
         -5    1    3    3    0  502 -0.77638313307E+02 -0.86718696757E+02 -0.82453636288E+02  0.14270218848E+03  0.41800000000E+01 0.  1.
        -11    1    1    2    0    0  0.58837331775E+01  0.98904990741E+02 -0.50989022525E+02  0.11143022897E+03  0.00000000000E+00 0.  1.
         11    1    1    2    0    0  0.47205396042E+02  0.79089623478E+02  0.30008628826E+02  0.96871232888E+02  0.00000000000E+00 0. -1.
</event>
<event>
 7    1  0.6671761E-006  0.2265513E+03  0.7561462E-02  0.1129091E+00
          2   -1    0    0  501    0  0.00000000000E+00  0.00000000000E+00  0.84420338599E+03  0.84420338599E+03  0.00000000000E+00 0. -1.
         -2   -1    0    0    0  501 -0.00000000000E+00 -0.00000000000E+00 -0.73413934979E+02  0.73413934979E+02  0.00000000000E+00 0.  1.
         23    2    1    2    0    0 -0.14247693791E+03  0.15282146108E+03  0.25076343578E+03  0.34954845748E+03  0.12509095331E+03 0.  0.
          5    1    3    3  502    0 -0.84681209822E+02  0.13270421435E+02  0.53744984279E+02  0.10125713366E+03  0.41800000000E+01 0. -1.
         -5    1    3    3    0  502 -0.57795728084E+02  0.13955103965E+03  0.19701845151E+03  0.24829132382E+03  0.41800000000E+01 0. -1.
        -11    1    1    2    0    0  0.75234202707E+02 -0.40948788303E+02  0.12109548059E+03  0.14832769107E+03  0.00000000000E+00 0.  1.
         11    1    1    2    0    0  0.67242735199E+02 -0.11187267278E+03  0.39893053464E+03  0.41974117242E+03  0.00000000000E+00 0. -1.
</event>
<event>
 7    1  0.6671761E-006  0.1078419E+03  0.7561462E-02  0.1264619E+00
         -1   -1    0    0    0  501 -0.00000000000E+00  0.00000000000E+00  0.51984533727E+02  0.51984533727E+02  0.00000000000E+00 0.  1.
          1   -1    0    0  501    0  0.00000000000E+00 -0.00000000000E+00 -0.30654299172E+03  0.30654299172E+03  0.00000000000E+00 0. -1.
         23    2    1    2    0    0  0.22107204082E+02  0.53177124801E+02 -0.79709859106E+02  0.15534281915E+03  0.12025470780E+03 0.  0.
          5    1    3    3  502    0  0.87360474781E+01 -0.28549415607E+02 -0.64283332598E+02  0.71001457076E+02  0.41800000000E+01 0. -1.
         -5    1    3    3    0  502  0.13371156604E+02  0.81726540409E+02 -0.15426526508E+02  0.84341362072E+02  0.41800000000E+01 0.  1.
        -11    1    1    2    0    0 -0.45060308178E+02 -0.63161429715E+02 -0.12004700024E+03  0.14293732837E+03  0.00000000000E+00 0. -1.
         11    1    1    2    0    0  0.22953104095E+02  0.99843049136E+01 -0.54801598651E+02  0.60247377926E+02  0.00000000000E+00 0.  1.
</event>
<event>
 6    1  0.6671761E-006  0.8535733E+02  0.7561462E-02  0.1314501E+00
         -1   -1    0    0    0  501 -0.00000000000E+00  0.00000000000E+00  0.48526834033E+02  0.48526834033E+02  0.00000000000E+00 0.  1.
          1   -1    0    0  501    0  0.00000000000E+00 -0.00000000000E+00 -0.51206840267E+03  0.51206840267E+03  0.00000000000E+00 0. -1.
          5    1    1    2  502    0  0.10367447487E+02  0.45807610347E+02 -0.23916397039E+03  0.24376771375E+03  0.41800000000E+01 0. -1.
         -5    1    1    2    0  502 -0.34936568845E+02  0.95691717584E-02  0.25514583684E+02  0.43462976368E+02  0.41800000000E+01 0.  1.
        -11    1    1    2    0    0  0.49739458024E+02 -0.35815411466E+02 -0.23414584935E+03  0.24203519610E+03  0.00000000000E+00 0. -1.
         11    1    1    2    0    0 -0.25170336666E+02 -0.10001768053E+02 -0.15746332576E+02  0.31329350483E+02  0.00000000000E+00 0.  1.
</event>
<event>
 7    1  0.6671761E-006  0.1345028E+03  0.7561462E-02  0.1220923E+00
         -2   -1    0    0    0  501 -0.00000000000E+00  0.00000000000E+00  0.21121040878E+02  0.21121040878E+02  0.00000000000E+00 0.  1.
          2   -1    0    0  501    0  0.00000000000E+00 -0.00000000000E+00 -0.97573930405E+03  0.97573930405E+03  0.00000000000E+00 0. -1.
         23    2    1    2    0    0 -0.53933531057E+02  0.72538817551E+02 -0.43227578932E+03  0.45900106510E+03  0.12509561905E+03 0.  0.
          5    1    3    3  502    0 -0.51817724906E+02 -0.19671127843E+02 -0.10318064589E+03  0.11719960739E+03  0.41800000000E+01 0. -1.
         -5    1    3    3    0  502 -0.21158061503E+01  0.92209945394E+02 -0.32909514343E+03  0.34180145771E+03  0.41800000000E+01 0. -1.
        -11    1    1    2    0    0 -0.21130177995E+02 -0.99324730252E+01 -0.45939028736E+02  0.51531862025E+02  0.00000000000E+00 0.  1.
         11    1    1    2    0    0  0.75063709052E+02 -0.62606344526E+02 -0.47640344511E+03  0.48632741780E+03  0.00000000000E+00 0. -1.
</event>
<event>
 7    1  0.6671761E-006  0.1099194E+03  0.7561462E-02  0.1260719E+00
          2   -1    0    0  501    0  0.00000000000E+00  0.00000000000E+00  0.81496738011E+02  0.81496738011E+02  0.00000000000E+00 0. -1.
         -2   -1    0    0    0  501 -0.00000000000E+00 -0.00000000000E+00 -0.15086410300E+03  0.15086410300E+03  0.00000000000E+00 0.  1.
         23    2    1    2    0    0  0.16648545941E+02 -0.12900121323E+02 -0.44507051136E+02  0.13443347218E+03  0.12509154100E+03 0.  0.
          5    1    3    3  502    0  0.32852093540E+02  0.50889774657E+02 -0.24985641911E+02  0.65656560344E+02  0.41800000000E+01 0.  1.
         -5    1    3    3    0  502 -0.16203547598E+02 -0.63789895979E+02 -0.19521409226E+02  0.68776911838E+02  0.41800000000E+01 0.  1.
        -11    1    1    2    0    0  0.34715912332E+02 -0.11143425032E+02 -0.12107481819E+01  0.36480630499E+02  0.00000000000E+00 0. -1.
         11    1    1    2    0    0 -0.51364458273E+02  0.24043546355E+02 -0.23649565670E+02  0.61446738330E+02  0.00000000000E+00 0.  1.
</event>
<event>
 7    1  0.6671761E-006  0.9524781E+02  0.7561462E-02  0.1290619E+00
         -2   -1    0    0    0  501 -0.00000000000E+00  0.00000000000E+00  0.32566570420E+03  0.32566570420E+03  0.00000000000E+00 0. -1.
          2   -1    0    0  501    0  0.00000000000E+00 -0.00000000000E+00 -0.49589970757E+02  0.49589970757E+02  0.00000000000E+00 0.  1.
         23    2    1    2    0    0  0.11601183902E+02 -0.64033709673E+02  0.16876336423E+03  0.21991977577E+03  0.12509488889E+03 0.  0.
          5    1    3    3  502    0  0.47544864321E+02 -0.28169587925E+02  0.14250383582E+02  0.57223995311E+02  0.41800000000E+01 0.  1.
         -5    1    3    3    0  502 -0.35943680418E+02 -0.35864121748E+02  0.15451298064E+03  0.16269578046E+03  0.41800000000E+01 0.  1.
        -11    1    1    2    0    0 -0.24275570236E+02  0.63849254582E+01  0.90566745098E+02  0.93980880508E+02  0.00000000000E+00 0. -1.
         11    1    1    2    0    0  0.12674386334E+02  0.57648784215E+02  0.16745624120E+02  0.61355018683E+02  0.00000000000E+00 0.  1.
</event>
<event>
 7    1  0.6671761E-006  0.8756271E+02  0.7561462E-02  0.1308864E+00
          1   -1    0    0  501    0  0.00000000000E+00  0.00000000000E+00  0.58338046001E+02  0.58338046001E+02  0.00000000000E+00 0. -1.
         -1   -1    0    0    0  501 -0.00000000000E+00 -0.00000000000E+00 -0.86249495393E+03  0.86249495393E+03  0.00000000000E+00 0.  1.
         23    2    1    2    0    0  0.78040496812E+01  0.47552127085E+01 -0.81561690849E+03  0.82430793071E+03  0.11903406231E+03 0.  0.
          5    1    3    3  502    0 -0.21908556200E+02  0.37411100793E+02 -0.68469454801E+03  0.68607847348E+03  0.41800000000E+01 0. -1.
         -5    1    3    3    0  502  0.29712605881E+02 -0.32655888084E+02 -0.13092236048E+03  0.13822945724E+03  0.41800000000E+01 0.  1.
        -11    1    1    2    0    0 -0.45870376901E+02 -0.14170233863E+02  0.26127503613E+02  0.54658333764E+02  0.00000000000E+00 0. -1.
         11    1    1    2    0    0  0.38066327220E+02  0.94150211545E+01 -0.14667503052E+02  0.41866735449E+02  0.00000000000E+00 0.  1.
</event>
<event>
 7    1  0.6671761E-006  0.1238258E+03  0.7561462E-02  0.1236916E+00
         -2   -1    0    0    0  501 -0.00000000000E+00  0.00000000000E+00  0.36373186130E+02  0.36373186130E+02  0.00000000000E+00 0. -1.
          2   -1    0    0  501    0  0.00000000000E+00 -0.00000000000E+00 -0.60795210882E+03  0.60795210882E+03  0.00000000000E+00 0.  1.
         23    2    1    2    0    0  0.56247950127E+02  0.42831559314E+02 -0.15221787846E+03  0.20932362881E+03  0.12509086573E+03 0.  0.
          5    1    3    3  502    0  0.48615238618E+02  0.85806667727E+02 -0.92832804477E+02  0.13550508344E+03  0.41800000000E+01 0.  1.
         -5    1    3    3    0  502  0.76327115084E+01 -0.42975108414E+02 -0.59385073984E+02  0.73818545368E+02  0.41800000000E+01 0.  1.
        -11    1    1    2    0    0  0.30325250743E+01  0.19114330111E+02 -0.26043658382E+02  0.32447279791E+02  0.00000000000E+00 0. -1.
         11    1    1    2    0    0 -0.59280475201E+02 -0.61945889424E+02 -0.39331738585E+03  0.40255438635E+03  0.00000000000E+00 0.  1.
</event>
<event>
 7    1  0.6671761E-006  0.1269000E+03  0.7561462E-02  0.1232129E+00
          2   -1    0    0  501    0  0.00000000000E+00  0.00000000000E+00  0.46395104982E+03  0.46395104982E+03  0.00000000000E+00 0. -1.
         -2   -1    0    0    0  501 -0.00000000000E+00 -0.00000000000E+00 -0.50220809374E+02  0.50220809374E+02  0.00000000000E+00 0.  1.
         23    2    1    2    0    0 -0.53154764011E+01 -0.10537298274E+03  0.21659462744E+03  0.27146063225E+03  0.12508366178E+03 0.  0.
          5    1    3    3  502    0 -0.15043460913E+02 -0.98486571163E+02  0.23141714109E+03  0.25198665839E+03  0.41800000000E+01 0. -1.
         -5    1    3    3    0  502  0.97279845118E+01 -0.68864115791E+01 -0.14822513649E+02  0.19473973862E+02  0.41800000000E+01 0. -1.
        -11    1    1    2    0    0 -0.53586412851E+01 -0.17405362833E+02  0.22005145140E+02  0.28563755083E+02  0.00000000000E+00 0.  1.
         11    1    1    2    0    0  0.10674117686E+02  0.12277834557E+03  0.17513046787E+03  0.21414747187E+03  0.00000000000E+00 0. -1.
</event>
<event>
 7    1  0.6671761E-006  0.9552630E+02  0.7561462E-02  0.1289995E+00
          1   -1    0    0  501    0  0.00000000000E+00  0.00000000000E+00  0.22146136149E+03  0.22146136149E+03  0.00000000000E+00 0. -1.
         -1   -1    0    0    0  501 -0.00000000000E+00 -0.00000000000E+00 -0.64567448705E+02  0.64567448705E+02  0.00000000000E+00 0.  1.
         23    2    1    2    0    0  0.20977812994E+02 -0.73012117780E+01  0.18042296368E+02  0.11858591795E+03  0.11508135882E+03 0.  0.
          5    1    3    3  502    0 -0.24800834909E+02  0.38418463050E+02 -0.11502450077E+02  0.47337495424E+02  0.41800000000E+01 0. -1.
         -5    1    3    3    0  502  0.45778647903E+02 -0.45719674828E+02  0.29544746445E+02  0.71248422528E+02  0.41800000000E+01 0.  1.
        -11    1    1    2    0    0 -0.19260426336E+02  0.41660700389E+02  0.11941007778E+03  0.12792710680E+03  0.00000000000E+00 0. -1.
         11    1    1    2    0    0 -0.17173866587E+01 -0.34359488611E+02  0.19441538643E+02  0.39515785446E+02  0.00000000000E+00 0.  1.
</event>
<event>
 7    1  0.6671761E-006  0.6960106E+02  0.7561462E-02  0.1361455E+00
          2   -1    0    0  501    0  0.00000000000E+00  0.00000000000E+00  0.24755875636E+03  0.24755875636E+03  0.00000000000E+00 0. -1.
         -2   -1    0    0    0  501 -0.00000000000E+00 -0.00000000000E+00 -0.62456266761E+02  0.62456266761E+02  0.00000000000E+00 0.  1.
         23    2    1    2    0    0 -0.32247549951E+01  0.33082937862E+02  0.40351428082E+02  0.13557560485E+03  0.12509047550E+03 0.  0.
          5    1    3    3  502    0  0.28525707829E+02  0.51944606653E+02  0.67223008307E+02  0.89712671420E+02  0.41800000000E+01 0. -1.
         -5    1    3    3    0  502 -0.31750462824E+02 -0.18861668791E+02 -0.26871580226E+02  0.45862933432E+02  0.41800000000E+01 0. -1.
        -11    1    1    2    0    0 -0.10151258011E+02 -0.25038960586E+02  0.15396273196E+03  0.15631545163E+03  0.00000000000E+00 0. -1.
         11    1    1    2    0    0  0.13376013006E+02 -0.80439772760E+01 -0.92116704418E+01  0.18123966638E+02  0.00000000000E+00 0.  1.
</event>
<event>
 7    1  0.6671761E-006  0.1072890E+03  0.7561462E-02  0.1265674E+00
          3   -1    0    0  501    0  0.00000000000E+00  0.00000000000E+00  0.23085517356E+02  0.23085517356E+02  0.00000000000E+00 0. -1.
         -3   -1    0    0    0  501 -0.00000000000E+00 -0.00000000000E+00 -0.90316906830E+03  0.90316906830E+03  0.00000000000E+00 0.  1.
         23    2    1    2    0    0  0.49101318591E+01 -0.10852493024E+02 -0.78482257771E+03  0.79481821712E+03  0.12509050237E+03 0.  0.
          5    1    3    3  502    0 -0.11540220775E+02  0.55667326084E+02 -0.35456542165E+03  0.35911855775E+03  0.41800000000E+01 0. -1.
         -5    1    3    3    0  502  0.16450352634E+02 -0.66519819108E+02 -0.43025715606E+03  0.43569965938E+03  0.41800000000E+01 0. -1.
        -11    1    1    2    0    0  0.32977802349E+02  0.31644278050E+02 -0.61346071771E+02  0.76499910476E+02  0.00000000000E+00 0.  1.
         11    1    1    2    0    0 -0.37887934208E+02 -0.20791785026E+02 -0.33914901464E+02  0.54936458062E+02  0.00000000000E+00 0. -1.
</event>
<event>
 7    1  0.6671761E-006  0.1434537E+03  0.7561462E-02  0.1208756E+00
          1   -1    0    0  501    0  0.00000000000E+00  0.00000000000E+00  0.61212459748E+03  0.61212459748E+03  0.00000000000E+00 0. -1.
         -1   -1    0    0    0  501 -0.00000000000E+00 -0.00000000000E+00 -0.39511962715E+02  0.39511962715E+02  0.00000000000E+00 0.  1.
         23    2    1    2    0    0  0.91453249905E+02 -0.58101088675E+02  0.25463079480E+03  0.30369009725E+03  0.12510555578E+03 0.  0.
          5    1    3    3  502    0  0.67743700226E+02  0.15362947677E+02  0.52176356800E+02  0.86977432077E+02  0.41800000000E+01 0. -1.
         -5    1    3    3    0  502  0.23709549679E+02 -0.73464036352E+02  0.20245443800E+03  0.21671266518E+03  0.41800000000E+01 0. -1.
        -11    1    1    2    0    0 -0.82343060315E+02  0.80914193615E+02  0.27805268186E+03  0.30106607281E+03  0.00000000000E+00 0.  1.
         11    1    1    2    0    0 -0.91101895901E+01 -0.22813104940E+02  0.39929158110E+02  0.46880390130E+02  0.00000000000E+00 0. -1.
</event>
<event>
 7    1  0.6671761E-006  0.9459305E+02  0.7561462E-02  0.1292095E+00
         -3   -1    0    0    0  501 -0.00000000000E+00  0.00000000000E+00  0.84035617794E+02  0.84035617794E+02  0.00000000000E+00 0.  1.
          3   -1    0    0  501    0  0.00000000000E+00 -0.00000000000E+00 -0.18292311161E+03  0.18292311161E+03  0.00000000000E+00 0. -1.
         23    2    1    2    0    0  0.35079338845E+02  0.29228561803E+02 -0.12557055327E+02  0.13374950858E+03  0.12508550103E+03 0.  0.
          5    1    3    3  502    0  0.53980192633E+02  0.18067457849E+01 -0.56618157080E+02  0.78359515301E+02  0.41800000000E+01 0. -1.
         -5    1    3    3    0  502 -0.18900853788E+02  0.27421816018E+02  0.44061101753E+02  0.55389993278E+02  0.41800000000E+01 0. -1.
        -11    1    1    2    0    0 -0.64640795667E+02 -0.31288600352E+02 -0.61152079415E+02  0.94323834704E+02  0.00000000000E+00 0.  1.
         11    1    1    2    0    0  0.29561456821E+02  0.20600385487E+01 -0.25178359076E+02  0.38885386123E+02  0.00000000000E+00 0. -1.
</event>
<event>
 7    1  0.6671761E-006  0.1123834E+03  0.7561462E-02  0.1256219E+00
          1   -1    0    0  501    0  0.00000000000E+00  0.00000000000E+00  0.77128505373E+02  0.77128505373E+02  0.00000000000E+00 0. -1.
         -1   -1    0    0    0  501 -0.00000000000E+00 -0.00000000000E+00 -0.23672999018E+03  0.23672999018E+03  0.00000000000E+00 0.  1.
         23    2    1    2    0    0  0.16733755470E+02 -0.45952477003E+02 -0.15968421305E+03  0.20865717763E+03  0.12508845336E+03 0.  0.
          5    1    3    3  502    0  0.47678386200E+02  0.15815377631E+02 -0.22910985887E+02  0.55369128172E+02  0.41800000000E+01 0. -1.
         -5    1    3    3    0  502 -0.30944630730E+02 -0.61767854634E+02 -0.13677322716E+03  0.15328804946E+03  0.41800000000E+01 0. -1.
        -11    1    1    2    0    0  0.37031310822E+02  0.45922711372E+01 -0.15693966740E+01  0.37347957659E+02  0.00000000000E+00 0.  1.
         11    1    1    2    0    0 -0.53765066291E+02  0.41360205866E+02  0.16521249180E+01  0.67853360265E+02  0.00000000000E+00 0. -1.
</event>
<event>
 6    1  0.6671761E-006  0.1267475E+03  0.7561462E-02  0.1232363E+00
          1   -1    0    0  501    0  0.00000000000E+00  0.00000000000E+00  0.23136488774E+02  0.23136488774E+02  0.00000000000E+00 0. -1.
         -1   -1    0    0    0  501 -0.00000000000E+00 -0.00000000000E+00 -0.80380198287E+03  0.80380198287E+03  0.00000000000E+00 0.  1.
          5    1    1    2  502    0 -0.22363201334E+02  0.61607658884E+02 -0.19544554473E+03  0.20618450418E+03  0.41800000000E+01 0. -1.
         -5    1    1    2    0  502  0.16380892669E+02 -0.10513871324E+03 -0.34264593371E+03  0.35881219454E+03  0.41800000000E+01 0.  1.
        -11    1    1    2    0    0  0.27813833674E+02 -0.48679338228E+01 -0.16823865804E+03  0.17059177056E+03  0.00000000000E+00 0.  1.
         11    1    1    2    0    0 -0.21831525010E+02  0.48398988174E+02 -0.74335357618E+02  0.91350002368E+02  0.00000000000E+00 0. -1.
</event>
<event>
 7    1  0.6671761E-006  0.1910042E+03  0.7561462E-02  0.1157559E+00
          2   -1    0    0  501    0  0.00000000000E+00  0.00000000000E+00  0.20223142071E+03  0.20223142071E+03  0.00000000000E+00 0. -1.
         -2   -1    0    0    0  501 -0.00000000000E+00 -0.00000000000E+00 -0.33169342675E+03  0.33169342675E+03  0.00000000000E+00 0.  1.
         23    2    1    2    0    0 -0.10948093715E+03  0.12187955537E+03 -0.24004398612E+03  0.31640113020E+03  0.12509139981E+03 0.  0.
          5    1    3    3  502    0 -0.12854822792E+03  0.76210005022E+02 -0.21185579777E+03  0.25929319933E+03  0.41800000000E+01 0. -1.
         -5    1    3    3    0  502  0.19067290779E+02  0.45669550347E+02 -0.28188188347E+02  0.57107930875E+02  0.41800000000E+01 0. -1.
        -11    1    1    2    0    0  0.10456991900E+03 -0.59584560307E+02  0.49485988389E+02  0.13013089884E+03  0.00000000000E+00 0.  1.
         11    1    1    2    0    0  0.49110181492E+01 -0.62294995063E+02  0.61095991688E+02  0.87392818409E+02  0.00000000000E+00 0. -1.
</event>
<event>
 7    1  0.6671761E-006  0.2365824E+03  0.7561462E-02  0.1122091E+00
          2   -1    0    0  501    0  0.00000000000E+00  0.00000000000E+00  0.82010114077E+03  0.82010114077E+03  0.00000000000E+00 0.  1.
         -2   -1    0    0    0  501 -0.00000000000E+00 -0.00000000000E+00 -0.71482069449E+02  0.71482069449E+02  0.00000000000E+00 0. -1.
         23    2    1    2    0    0 -0.19829910164E+03 -0.83616825801E+02  0.41824657274E+03  0.48671496201E+03  0.12508777466E+03 0.  0.
          5    1    3    3  502    0 -0.12490705443E+03 -0.11376628383E+03  0.29806906407E+03  0.34264730983E+03  0.41800000000E+01 0.  1.
         -5    1    3    3    0  502 -0.73392047205E+02  0.30149458031E+02  0.12017750868E+03  0.14406765218E+03  0.41800000000E+01 0.  1.
        -11    1    1    2    0    0  0.17751493558E+03  0.48700278166E+02  0.30709979411E+03  0.35804127275E+03  0.00000000000E+00 0.  1.
         11    1    1    2    0    0  0.20784166057E+02  0.34916547635E+02  0.23272704467E+02  0.46826975459E+02  0.00000000000E+00 0. -1.
</event>
<event>
 7    1  0.6671761E-006  0.1724016E+03  0.7561462E-02  0.1175366E+00
          3   -1    0    0  501    0  0.00000000000E+00  0.00000000000E+00  0.46497949150E+03  0.46497949150E+03  0.00000000000E+00 0. -1.
         -3   -1    0    0    0  501 -0.00000000000E+00 -0.00000000000E+00 -0.88141315300E+02  0.88141315300E+02  0.00000000000E+00 0.  1.
         23    2    1    2    0    0  0.11132041887E+03 -0.10306565463E+03  0.92418216670E+02  0.21726400429E+03  0.12509099075E+03 0.  0.
          5    1    3    3  502    0  0.12607655909E+03 -0.97943427546E+02  0.43180934505E+02  0.16543965442E+03  0.41800000000E+01 0. -1.
         -5    1    3    3    0  502 -0.14756140217E+02 -0.51222270828E+01  0.49237282165E+02  0.51824349870E+02  0.41800000000E+01 0. -1.
        -11    1    1    2    0    0  0.10308325336E+02  0.13940941776E+01  0.18593472815E+00  0.10403828216E+02  0.00000000000E+00 0.  1.
         11    1    1    2    0    0 -0.12162874420E+03  0.10167156045E+03  0.28423402481E+03  0.32545297430E+03  0.00000000000E+00 0. -1.
</event>
<event>
 7    1  0.6671761E-006  0.7255038E+02  0.7561462E-02  0.1351629E+00
         -3   -1    0    0    0  501 -0.00000000000E+00  0.00000000000E+00  0.71526659421E+02  0.71526659421E+02  0.00000000000E+00 0.  1.
          3   -1    0    0  501    0  0.00000000000E+00 -0.00000000000E+00 -0.23845456226E+03  0.23845456226E+03  0.00000000000E+00 0. -1.
         23    2    1    2    0    0  0.47526501530E+02 -0.14797403496E+02 -0.24359019658E+02  0.13105216575E+03  0.11875848101E+03 0.  0.
          5    1    3    3  502    0  0.16918866845E+02 -0.71703992952E+00 -0.71142000976E+02  0.73249019819E+02  0.41800000000E+01 0. -1.
         -5    1    3    3    0  502  0.30607634685E+02 -0.14080363567E+02  0.46782981317E+02  0.57803145936E+02  0.41800000000E+01 0.  1.
        -11    1    1    2    0    0 -0.16998442193E+02  0.46613235543E+02 -0.29874475339E+02  0.57915671813E+02  0.00000000000E+00 0.  1.
         11    1    1    2    0    0 -0.30528059337E+02 -0.31815832046E+02 -0.11269440785E+03  0.12101338412E+03  0.00000000000E+00 0. -1.
</event>
<event>
 7    1  0.6671761E-006  0.2238337E+03  0.7561462E-02  0.1131057E+00
         -1   -1    0    0    0  501 -0.00000000000E+00  0.00000000000E+00  0.46613584092E+03  0.46613584092E+03  0.00000000000E+00 0.  1.
          1   -1    0    0  501    0  0.00000000000E+00 -0.00000000000E+00 -0.12214341768E+03  0.12214341768E+03  0.00000000000E+00 0. -1.
         23    2    1    2    0    0  0.19308063602E+03  0.85744359096E+02  0.20526132352E+03  0.32001884093E+03  0.12509044924E+03 0.  0.
          5    1    3    3  502    0  0.48606069814E+02 -0.43018788485E+01 -0.52482126720E+01  0.49255175572E+02  0.41800000000E+01 0.  1.
         -5    1    3    3    0  502  0.14447456621E+03  0.90046237945E+02  0.21050953620E+03  0.27076366536E+03  0.41800000000E+01 0.  1.
        -11    1    1    2    0    0  0.92819781476E+01 -0.48233946935E+01  0.12875372135E+02  0.16589016315E+02  0.00000000000E+00 0.  1.
         11    1    1    2    0    0 -0.20236261417E+03 -0.80920964403E+02  0.12585572758E+03  0.25167140135E+03  0.00000000000E+00 0. -1.
</event>
<event>
 7    1  0.6671761E-006  0.1392950E+03  0.7561462E-02  0.1214281E+00
         -3   -1    0    0    0  501 -0.00000000000E+00  0.00000000000E+00  0.45501128454E+02  0.45501128454E+02  0.00000000000E+00 0.  1.
          3   -1    0    0  501    0  0.00000000000E+00 -0.00000000000E+00 -0.54016603444E+03  0.54016603444E+03  0.00000000000E+00 0. -1.
         23    2    1    2    0    0  0.82735363160E+02  0.39267374596E+02 -0.14314890786E+03  0.21101452944E+03  0.12509378398E+03 0.  0.
          5    1    3    3  502    0  0.28230845518E+02  0.78707599496E+02 -0.55516708572E+02  0.10045618044E+03  0.41800000000E+01 0. -1.
         -5    1    3    3    0  502  0.54504517642E+02 -0.39440224901E+02 -0.87632199286E+02  0.11055834901E+03  0.41800000000E+01 0. -1.
        -11    1    1    2    0    0 -0.44068441042E+01 -0.48401455985E+02 -0.16851335274E+03  0.17538207225E+03  0.00000000000E+00 0. -1.
         11    1    1    2    0    0 -0.78328519056E+02  0.91340813891E+01 -0.18300264539E+03  0.19927056120E+03  0.00000000000E+00 0.  1.
</event>
<event>
 7    1  0.6671761E-006  0.1330719E+03  0.7561462E-02  0.1222968E+00
          1   -1    0    0  501    0  0.00000000000E+00  0.00000000000E+00  0.69905831856E+02  0.69905831856E+02  0.00000000000E+00 0. -1.
         -1   -1    0    0    0  501 -0.00000000000E+00 -0.00000000000E+00 -0.33525737801E+03  0.33525737801E+03  0.00000000000E+00 0.  1.
         23    2    1    2    0    0  0.10084160796E+03 -0.18414700895E+02 -0.18917414340E+03  0.24888365193E+03  0.12509230418E+03 0.  0.
          5    1    3    3  502    0  0.72418207490E+02 -0.51465871693E+02 -0.47987431035E+02  0.10106136088E+03  0.41800000000E+01 0. -1.
         -5    1    3    3    0  502  0.28423400473E+02  0.33051170798E+02 -0.14118671236E+03  0.14782229106E+03  0.41800000000E+01 0. -1.
        -11    1    1    2    0    0 -0.48174563493E+02 -0.34110390147E+02 -0.50212462066E+02  0.77495797502E+02  0.00000000000E+00 0.  1.
         11    1    1    2    0    0 -0.52667044470E+02  0.52525091041E+02 -0.25964940690E+02  0.78783760428E+02  0.00000000000E+00 0. -1.
</event>
<event>
 7    1  0.6671761E-006  0.1679754E+03  0.7561462E-02  0.1179976E+00
         -1   -1    0    0    0  501 -0.00000000000E+00  0.00000000000E+00  0.36277307234E+03  0.36277307234E+03  0.00000000000E+00 0.  1.
          1   -1    0    0  501    0  0.00000000000E+00 -0.00000000000E+00 -0.85191917792E+02  0.85191917792E+02  0.00000000000E+00 0. -1.
         23    2    1    2    0    0  0.13781918109E+03  0.88917872651E+01  0.14230137201E+03  0.23446012706E+03  0.12509468472E+03 0.  0.
          5    1    3    3  502    0  0.86372656585E+01  0.42286593788E+02  0.70800079643E+02  0.83023382548E+02  0.41800000000E+01 0.  1.
         -5    1    3    3    0  502  0.12918191543E+03 -0.33394806523E+02  0.71501292367E+02  0.15143674451E+03  0.41800000000E+01 0.  1.
        -11    1    1    2    0    0 -0.79009106933E+02  0.34295106212E+02  0.10144498514E+03  0.13307771526E+03  0.00000000000E+00 0.  1.
         11    1    1    2    0    0 -0.58810074157E+02 -0.43186893477E+02  0.33834797392E+02  0.80427147812E+02  0.00000000000E+00 0. -1.
</event>
<event>
 6    1  0.6671761E-006  0.1494555E+03  0.7561462E-02  0.1201144E+00
         -2   -1    0    0    0  501 -0.00000000000E+00  0.00000000000E+00  0.14619775873E+03  0.14619775873E+03  0.00000000000E+00 0.  1.
          2   -1    0    0  501    0  0.00000000000E+00 -0.00000000000E+00 -0.24129956707E+03  0.24129956707E+03  0.00000000000E+00 0. -1.
          5    1    1    2  502    0  0.38965718791E+02  0.12515870864E+03 -0.56182615727E+02  0.14267791805E+03  0.41800000000E+01 0. -1.
         -5    1    1    2    0  502 -0.32552840309E+02 -0.21935768144E+02  0.61598048242E+02  0.73161856753E+02  0.41800000000E+01 0.  1.
        -11    1    1    2    0    0 -0.34560651389E+02 -0.91470471742E+02 -0.43557392572E+02  0.10704453406E+03  0.00000000000E+00 0. -1.
         11    1    1    2    0    0  0.28147772907E+02 -0.11752468752E+02 -0.56959848285E+02  0.64613016939E+02  0.00000000000E+00 0.  1.
</event>
<event>
 7    1  0.6671761E-006  0.5676671E+02  0.7561462E-02  0.1411924E+00
         -1   -1    0    0    0  501 -0.00000000000E+00  0.00000000000E+00  0.14240489847E+03  0.14240489847E+03  0.00000000000E+00 0.  1.
          1   -1    0    0  501    0  0.00000000000E+00 -0.00000000000E+00 -0.11588109260E+03  0.11588109260E+03  0.00000000000E+00 0. -1.
         23    2    1    2    0    0  0.13330647089E+00 -0.35638063180E+02  0.73595381553E+02  0.14944518821E+03  0.12508994674E+03 0.  0.
          5    1    3    3  502    0 -0.20001605958E+01 -0.33627488930E+02 -0.30253801611E+02  0.45470579126E+02  0.41800000000E+01 0. -1.
         -5    1    3    3    0  502  0.21334670667E+01 -0.20105742501E+01  0.10384918316E+03  0.10397460908E+03  0.41800000000E+01 0. -1.
        -11    1    1    2    0    0 -0.64213398572E+01  0.54357417325E+02 -0.63010003839E+02  0.83463902423E+02  0.00000000000E+00 0. -1.
         11    1    1    2    0    0  0.62880333863E+01 -0.18719354145E+02  0.15938428158E+02  0.25376900434E+02  0.00000000000E+00 0.  1.
</event>
<event>
 7    1  0.7636526E-006  0.2221426E+03  0.7561462E-02  0.1132296E+00
          1   -1    0    0  501    0  0.00000000000E+00  0.00000000000E+00  0.14362437803E+04  0.14362437803E+04  0.00000000000E+00 0. -1.
         -1   -1    0    0    0  501 -0.00000000000E+00 -0.00000000000E+00 -0.41725667103E+02  0.41725667103E+02  0.00000000000E+00 0.  1.
         23    2    1    2    0    0  0.16926874925E+03 -0.11926950519E+03  0.50093896135E+03  0.55629484170E+03  0.12508790332E+03 0.  0.
          5    1    3    3  502    0  0.12412834048E+02 -0.42275738182E+02  0.28701819707E+02  0.52750197558E+02  0.41800000000E+01 0.  1.
         -5    1    3    3    0  502  0.15685591521E+03 -0.76993767012E+02  0.47223714164E+03  0.50354464414E+03  0.41800000000E+01 0.  1.
        -11    1    1    2    0    0 -0.13756381878E+03  0.45407382230E+02  0.60591774576E+03  0.62299434124E+03  0.00000000000E+00 0. -1.
         11    1    1    2    0    0 -0.31704930478E+02  0.73862122965E+02  0.28766140607E+03  0.29868026444E+03  0.00000000000E+00 0.  1.
</event>
<event>
 7    1  0.6671761E-006  0.1136105E+03  0.7561462E-02  0.1254026E+00
         -1   -1    0    0    0  501 -0.00000000000E+00  0.00000000000E+00  0.33886760112E+03  0.33886760112E+03  0.00000000000E+00 0.  1.
          1   -1    0    0  501    0  0.00000000000E+00 -0.00000000000E+00 -0.50473596714E+02  0.50473596714E+02  0.00000000000E+00 0. -1.
         23    2    1    2    0    0  0.43032297789E+02 -0.46806108244E+02  0.20991972555E+03  0.25249972962E+03  0.12508889584E+03 0.  0.
          5    1    3    3  502    0  0.10546089363E+02 -0.73521908056E+02  0.56642856288E+02  0.93501746153E+02  0.41800000000E+01 0.  1.
         -5    1    3    3    0  502  0.32486208426E+02  0.26715799812E+02  0.15327686926E+03  0.15899798347E+03  0.41800000000E+01 0.  1.
        -11    1    1    2    0    0 -0.43460607463E+02 -0.17063429801E+02  0.22127224735E+02  0.51668163429E+02  0.00000000000E+00 0.  1.
         11    1    1    2    0    0  0.42830967370E+00  0.63869538045E+02  0.56347054120E+02  0.85173304781E+02  0.00000000000E+00 0. -1.
</event>
<event>
 7    1  0.6671761E-006  0.1693093E+03  0.7561462E-02  0.1178570E+00
         -2   -1    0    0    0  501 -0.00000000000E+00  0.00000000000E+00  0.46782899117E+03  0.46782899117E+03  0.00000000000E+00 0.  1.
          2   -1    0    0  501    0  0.00000000000E+00 -0.00000000000E+00 -0.14585431393E+03  0.14585431393E+03  0.00000000000E+00 0. -1.
         23    2    1    2    0    0  0.13821252593E+03 -0.66128204422E+02  0.38006010147E+03  0.42844971450E+03  0.12509130818E+03 0.  0.
          5    1    3    3  502    0  0.88658731337E+01  0.16596173082E+02  0.15366781256E+03  0.15487190089E+03  0.41800000000E+01 0.  1.
         -5    1    3    3    0  502  0.12934665279E+03 -0.82724377504E+02  0.22639228890E+03  0.27357781360E+03  0.41800000000E+01 0.  1.
        -11    1    1    2    0    0 -0.98819836579E+02  0.76550240770E+02 -0.14945099084E+02  0.12589144312E+03  0.00000000000E+00 0.  1.
         11    1    1    2    0    0 -0.39392689349E+02 -0.10422036348E+02 -0.43140325143E+02  0.59342147495E+02  0.00000000000E+00 0. -1.
</event>
<event>
 7    1  0.6671761E-006  0.9787466E+02  0.7561462E-02  0.1284830E+00
         -2   -1    0    0    0  501 -0.00000000000E+00  0.00000000000E+00  0.80583763955E+02  0.80583763955E+02  0.00000000000E+00 0.  1.
          2   -1    0    0  501    0  0.00000000000E+00 -0.00000000000E+00 -0.17116592226E+03  0.17116592226E+03  0.00000000000E+00 0. -1.
         23    2    1    2    0    0  0.42544537082E+02  0.99712512603E+01 -0.46452816234E+02  0.14040785494E+03  0.12508812137E+03 0.  0.
          5    1    3    3  502    0  0.44086583100E+02 -0.37307907705E+02  0.17737515188E+02  0.60560702042E+02  0.41800000000E+01 0. -1.
         -5    1    3    3    0  502 -0.15420460183E+01  0.47279158965E+02 -0.64190331422E+02  0.79847152902E+02  0.41800000000E+01 0. -1.
        -11    1    1    2    0    0 -0.55491615399E+02  0.18974854612E+02 -0.52319036033E+02  0.78591640895E+02  0.00000000000E+00 0. -1.
         11    1    1    2    0    0  0.12947078317E+02 -0.28946105872E+02  0.81896939665E+01  0.32750190372E+02  0.00000000000E+00 0.  1.
</event>
<event>
 7    1  0.6671761E-006  0.1387850E+03  0.7561462E-02  0.1214973E+00
         -2   -1    0    0    0  501 -0.00000000000E+00  0.00000000000E+00  0.79470097626E+03  0.79470097626E+03  0.00000000000E+00 0.  1.
          2   -1    0    0  501    0  0.00000000000E+00 -0.00000000000E+00 -0.24334544114E+02  0.24334544114E+02  0.00000000000E+00 0. -1.
         23    2    1    2    0    0  0.15829792546E+02 -0.85371765820E+02  0.43634616126E+03  0.46215029744E+03  0.12508398876E+03 0.  0.
          5    1    3    3  502    0  0.70584274430E+02 -0.47032658544E+02  0.22781667905E+03  0.24312984683E+03  0.41800000000E+01 0. -1.
         -5    1    3    3    0  502 -0.54754481884E+02 -0.38339107276E+02  0.20852948221E+03  0.21902045061E+03  0.41800000000E+01 0. -1.
        -11    1    1    2    0    0 -0.53074925157E+02  0.37336402728E+02  0.16989099802E+03  0.18186232666E+03  0.00000000000E+00 0. -1.
         11    1    1    2    0    0  0.37245132610E+02  0.48035363092E+02  0.16412927287E+03  0.17502289628E+03  0.00000000000E+00 0.  1.
</event>
<event>
 7    1  0.6671761E-006  0.1057472E+03  0.7561462E-02  0.1268654E+00
         -1   -1    0    0    0  501 -0.00000000000E+00  0.00000000000E+00  0.10982972211E+03  0.10982972211E+03  0.00000000000E+00 0.  1.
          1   -1    0    0  501    0  0.00000000000E+00 -0.00000000000E+00 -0.14878947274E+03  0.14878947274E+03  0.00000000000E+00 0. -1.
         23    2    1    2    0    0  0.31063423948E+02  0.55740744345E+02 -0.32375020918E+02  0.14410992009E+03  0.12509020825E+03 0.  0.
          5    1    3    3  502    0  0.38165272143E+02 -0.66722218573E+01  0.34656746614E+02  0.52150446097E+02  0.41800000000E+01 0. -1.
         -5    1    3    3    0  502 -0.71018481948E+01  0.62412966202E+02 -0.67031767533E+02  0.91959473990E+02  0.41800000000E+01 0. -1.
        -11    1    1    2    0    0 -0.27265085045E+02  0.19950253229E+02 -0.17321616096E+02  0.37966246201E+02  0.00000000000E+00 0.  1.
         11    1    1    2    0    0 -0.37983389026E+01 -0.75690997573E+02  0.10736886390E+02  0.76543028562E+02  0.00000000000E+00 0. -1.
</event>
<event>
 7    1  0.6671761E-006  0.1068737E+03  0.7561462E-02  0.1266471E+00
         -1   -1    0    0    0  501 -0.00000000000E+00  0.00000000000E+00  0.33182914867E+02  0.33182914867E+02  0.00000000000E+00 0.  1.
          1   -1    0    0  501    0  0.00000000000E+00 -0.00000000000E+00 -0.47548412295E+03  0.47548412295E+03  0.00000000000E+00 0. -1.
         23    2    1    2    0    0 -0.46652858156E+02 -0.19889874187E+02 -0.16763615623E+03  0.21522260954E+03  0.12508714768E+03 0.  0.
          5    1    3    3  502    0 -0.32126675912E+02  0.45847347272E+02 -0.12049089801E+03  0.13292716600E+03  0.41800000000E+01 0. -1.
         -5    1    3    3    0  502 -0.14526182244E+02 -0.65737221459E+02 -0.47145258225E+02  0.82295443549E+02  0.41800000000E+01 0. -1.
        -11    1    1    2    0    0  0.14397986842E+02  0.46288080986E+02 -0.73773990774E+02  0.88275082448E+02  0.00000000000E+00 0.  1.
         11    1    1    2    0    0  0.32254871314E+02 -0.26398206798E+02 -0.20089106108E+03  0.20516934583E+03  0.00000000000E+00 0. -1.
</event>
<event>
 7    1  0.6671761E-006  0.1009883E+03  0.7561462E-02  0.1278231E+00
          2   -1    0    0  501    0  0.00000000000E+00  0.00000000000E+00  0.90116643783E+02  0.90116643783E+02  0.00000000000E+00 0. -1.
         -2   -1    0    0    0  501 -0.00000000000E+00 -0.00000000000E+00 -0.14010794978E+03  0.14010794978E+03  0.00000000000E+00 0.  1.
         23    2    1    2    0    0 -0.26602312955E+02 -0.16617853387E+02 -0.39803190004E+02  0.13496650318E+03  0.12509127444E+03 0.  0.
          5    1    3    3  502    0 -0.45479574235E+02 -0.63305715686E+02 -0.29128701810E+02  0.83318419213E+02  0.41800000000E+01 0. -1.
         -5    1    3    3    0  502  0.18877261280E+02  0.46687862299E+02 -0.10674488194E+02  0.51648083969E+02  0.41800000000E+01 0. -1.
        -11    1    1    2    0    0  0.20775778275E+02 -0.24346590513E+02  0.25259970473E+02  0.40773220879E+02  0.00000000000E+00 0. -1.
         11    1    1    2    0    0  0.58265346794E+01  0.40964443900E+02 -0.35448086462E+02  0.54484869498E+02  0.00000000000E+00 0.  1.
</event>
<event>
 7    1  0.6671761E-006  0.1547636E+03  0.7561462E-02  0.1194739E+00
          1   -1    0    0  501    0  0.00000000000E+00  0.00000000000E+00  0.14156920150E+03  0.14156920150E+03  0.00000000000E+00 0. -1.
         -1   -1    0    0    0  501 -0.00000000000E+00 -0.00000000000E+00 -0.19732767243E+03  0.19732767243E+03  0.00000000000E+00 0.  1.
         23    2    1    2    0    0  0.66603120254E+02  0.98173720332E+02 -0.82137404371E+02  0.19096660003E+03  0.12509050378E+03 0.  0.
          5    1    3    3  502    0  0.41241928365E+02 -0.20589394038E+02 -0.39081067330E+01  0.46449601724E+02  0.41800000000E+01 0. -1.
         -5    1    3    3    0  502  0.25361191889E+02  0.11876311437E+03 -0.78229297638E+02  0.14451699830E+03  0.41800000000E+01 0. -1.
        -11    1    1    2    0    0 -0.10449498508E+02 -0.82872322219E+02  0.32022078784E+02  0.89456287307E+02  0.00000000000E+00 0. -1.
         11    1    1    2    0    0 -0.56153621746E+02 -0.15301398113E+02 -0.56431453330E+01  0.58473986598E+02  0.00000000000E+00 0.  1.
</event>
<event>
 7    1  0.6671761E-006  0.1252246E+03  0.7561462E-02  0.1234719E+00
          2   -1    0    0  501    0  0.00000000000E+00  0.00000000000E+00  0.63768501303E+02  0.63768501303E+02  0.00000000000E+00 0. -1.
         -2   -1    0    0    0  501 -0.00000000000E+00 -0.00000000000E+00 -0.26552406910E+03  0.26552406910E+03  0.00000000000E+00 0.  1.
         23    2    1    2    0    0  0.64383023540E+02 -0.32971448112E+01 -0.15546421043E+03  0.20969565564E+03  0.12508837829E+03 0.  0.
          5    1    3    3  502    0 -0.14714606787E+02  0.44916540122E+02 -0.61554284601E+02  0.77720123406E+02  0.41800000000E+01 0.  1.
         -5    1    3    3    0  502  0.79097630327E+02 -0.48213684934E+02 -0.93909925827E+02  0.13197553223E+03  0.41800000000E+01 0.  1.
        -11    1    1    2    0    0  0.86395706704E+01  0.30991834975E+02 -0.13086922832E+02  0.34733320683E+02  0.00000000000E+00 0. -1.
         11    1    1    2    0    0 -0.73022594210E+02 -0.27694690164E+02 -0.33204434542E+02  0.84863594089E+02  0.00000000000E+00 0.  1.
</event>
<event>
 7    1  0.6671761E-006  0.2015314E+03  0.7561462E-02  0.1148453E+00
         -3   -1    0    0    0  501 -0.00000000000E+00  0.00000000000E+00  0.96617404756E+02  0.96617404756E+02  0.00000000000E+00 0.  1.
          3   -1    0    0  501    0  0.00000000000E+00 -0.00000000000E+00 -0.49439140747E+03  0.49439140747E+03  0.00000000000E+00 0. -1.
         23    2    1    2    0    0  0.67570491239E+02 -0.16770775110E+03 -0.13026675521E+03  0.25555390361E+03  0.12508680614E+03 0.  0.
          5    1    3    3  502    0 -0.11680089335E+02  0.12683336393E+02  0.25159042095E+01  0.17919087112E+02  0.41800000000E+01 0. -1.
         -5    1    3    3    0  502  0.79250580575E+02 -0.18039108750E+03 -0.13278265942E+03  0.23763481650E+03  0.41800000000E+01 0. -1.
        -11    1    1    2    0    0 -0.33704543305E+02  0.14139969101E+03 -0.24989052838E+03  0.28909366135E+03  0.00000000000E+00 0. -1.
         11    1    1    2    0    0 -0.33865947934E+02  0.26308060092E+02 -0.17616719119E+02  0.46361247263E+02  0.00000000000E+00 0.  1.
</event>
<event>
 7    1  0.6671761E-006  0.1533071E+03  0.7561462E-02  0.1196467E+00
         -1   -1    0    0    0  501 -0.00000000000E+00  0.00000000000E+00  0.37333683366E+02  0.37333683366E+02  0.00000000000E+00 0.  1.
          1   -1    0    0  501    0  0.00000000000E+00 -0.00000000000E+00 -0.11181247922E+04  0.11181247922E+04  0.00000000000E+00 0. -1.
         23    2    1    2    0    0  0.11447118834E+03  0.59690286355E+02 -0.24075958340E+03  0.30046401294E+03  0.12508742073E+03 0.  0.
          5    1    3    3  502    0  0.22067345629E+02 -0.22108635866E+02 -0.18964622293E+01  0.31572590833E+02  0.41800000000E+01 0.  1.
         -5    1    3    3    0  502  0.92403842713E+02  0.81798922221E+02 -0.23886312117E+03  0.26889142210E+03  0.41800000000E+01 0.  1.
        -11    1    1    2    0    0  0.77122151193E+01  0.86775456017E+01 -0.20242758079E+02  0.23335537585E+02  0.00000000000E+00 0.  1.
         11    1    1    2    0    0 -0.12218340346E+03 -0.68367831957E+02 -0.81978876739E+03  0.83165892508E+03  0.00000000000E+00 0. -1.
</event>
<event>
 7    1  0.6671761E-006  0.1098024E+03  0.7561462E-02  0.1260936E+00
         -1   -1    0    0    0  501 -0.00000000000E+00  0.00000000000E+00  0.60858747994E+02  0.60858747994E+02  0.00000000000E+00 0.  1.
          1   -1    0    0  501    0  0.00000000000E+00 -0.00000000000E+00 -0.20348936307E+03  0.20348936307E+03  0.00000000000E+00 0. -1.
         23    2    1    2    0    0 -0.63364478324E+01  0.11205611434E+00 -0.67159958677E+02  0.14211988216E+03  0.12508971871E+03 0.  0.
          5    1    3    3  502    0 -0.64609409000E+02 -0.49455804207E+01 -0.46815083834E+02  0.80049728116E+02  0.41800000000E+01 0. -1.
         -5    1    3    3    0  502  0.58272961167E+02  0.50576365350E+01 -0.20344874842E+02  0.62070154043E+02  0.41800000000E+01 0. -1.
        -11    1    1    2    0    0  0.32676443331E+02  0.37736931700E+02 -0.36243430109E+02  0.61688023060E+02  0.00000000000E+00 0.  1.
         11    1    1    2    0    0 -0.26339995498E+02 -0.37848987815E+02 -0.39227226291E+02  0.60540205847E+02  0.00000000000E+00 0. -1.
</event>
<event>
 7    1  0.6671761E-006  0.1147089E+03  0.7561462E-02  0.1252090E+00
         -1   -1    0    0    0  501 -0.00000000000E+00  0.00000000000E+00  0.31790566635E+03  0.31790566635E+03  0.00000000000E+00 0.  1.
          1   -1    0    0  501    0  0.00000000000E+00 -0.00000000000E+00 -0.56394903380E+02  0.56394903380E+02  0.00000000000E+00 0. -1.
         23    2    1    2    0    0  0.61533757672E+02 -0.12201327751E+02  0.18819561119E+03  0.23452743328E+03  0.12510097185E+03 0.  0.
          5    1    3    3  502    0  0.66593669990E+02 -0.58859077425E+02  0.95380923241E+02  0.13043811098E+03  0.41800000000E+01 0. -1.
         -5    1    3    3    0  502 -0.50599123182E+01  0.46657749674E+02  0.92814687949E+02  0.10408932230E+03  0.41800000000E+01 0. -1.
        -11    1    1    2    0    0 -0.68234138175E+02 -0.11054330336E+02  0.73559544075E+01  0.69514069777E+02  0.00000000000E+00 0. -1.
         11    1    1    2    0    0  0.67003805037E+01  0.23255658087E+02  0.65959197371E+02  0.70259066673E+02  0.00000000000E+00 0.  1.
</event>
<event>
 7    1  0.6671761E-006  0.1298001E+03  0.7561462E-02  0.1227753E+00
          2   -1    0    0  501    0  0.00000000000E+00  0.00000000000E+00  0.51093119163E+03  0.51093119163E+03  0.00000000000E+00 0. -1.
         -2   -1    0    0    0  501 -0.00000000000E+00 -0.00000000000E+00 -0.40003831427E+02  0.40003831427E+02  0.00000000000E+00 0.  1.
         23    2    1    2    0    0  0.81342559773E+02  0.36522608519E+02  0.23690904892E+03  0.28235550828E+03  0.12509285605E+03 0.  0.
          5    1    3    3  502    0  0.12108046337E+02  0.70538744774E+02  0.79761017012E+02  0.10724556651E+03  0.41800000000E+01 0.  1.
         -5    1    3    3    0  502  0.69234513436E+02 -0.34016136255E+02  0.15714803191E+03  0.17510994177E+03  0.41800000000E+01 0.  1.
        -11    1    1    2    0    0 -0.45947289632E+02  0.14834066283E+02  0.17903781919E+03  0.18543393338E+03  0.00000000000E+00 0. -1.
         11    1    1    2    0    0 -0.35395270142E+02 -0.51356674802E+02  0.54980492087E+02  0.83145581393E+02  0.00000000000E+00 0.  1.
</event>
<event>
 7    1  0.6671761E-006  0.1088809E+03  0.7561462E-02  0.1262656E+00
          2   -1    0    0  501    0  0.00000000000E+00  0.00000000000E+00  0.63739179197E+03  0.63739179197E+03  0.00000000000E+00 0.  1.
         -2   -1    0    0    0  501 -0.00000000000E+00 -0.00000000000E+00 -0.32435962213E+02  0.32435962213E+02  0.00000000000E+00 0. -1.
         23    2    1    2    0    0 -0.47090609564E+02 -0.70955117239E+02  0.23657523553E+03  0.28083383221E+03  0.12509054752E+03 0.  0.
          5    1    3    3  502    0 -0.57189382929E+02 -0.35186230220E+02  0.35035187283E+02  0.75852706378E+02  0.41800000000E+01 0.  1.
         -5    1    3    3    0  502  0.10098773366E+02 -0.35768887019E+02  0.20154004825E+03  0.20498112584E+03  0.41800000000E+01 0.  1.
        -11    1    1    2    0    0  0.75805612506E+01  0.73122248198E+02  0.30908941371E+03  0.31771149453E+03  0.00000000000E+00 0.  1.
         11    1    1    2    0    0  0.39510048313E+02 -0.21671309586E+01  0.59291180527E+02  0.71282427446E+02  0.00000000000E+00 0. -1.
</event>
<event>
 7    1  0.6671761E-006  0.1577353E+03  0.7561462E-02  0.1191278E+00
          1   -1    0    0  501    0  0.00000000000E+00  0.00000000000E+00  0.67756177028E+03  0.67756177028E+03  0.00000000000E+00 0. -1.
         -1   -1    0    0    0  501 -0.00000000000E+00 -0.00000000000E+00 -0.45679823960E+02  0.45679823960E+02  0.00000000000E+00 0.  1.
         23    2    1    2    0    0  0.10889618351E+03  0.72196225669E+02  0.25282855812E+03  0.31087216691E+03  0.12509416683E+03 0.  0.
          5    1    3    3  502    0  0.10459724755E+03  0.55046652997E+01  0.19914410491E+03  0.22504828917E+03  0.41800000000E+01 0.  1.
         -5    1    3    3    0  502  0.42989359617E+01  0.66691560369E+02  0.53684453204E+02  0.85823877742E+02  0.41800000000E+01 0.  1.
        -11    1    1    2    0    0 -0.86227970493E+02 -0.22580000092E+02  0.13140272841E+03  0.15878222927E+03  0.00000000000E+00 0.  1.
         11    1    1    2    0    0 -0.22668213021E+02 -0.49616225577E+02  0.24765065979E+03  0.25358719806E+03  0.00000000000E+00 0. -1.
</event>
<event>
 7    1  0.6671761E-006  0.1164787E+03  0.7561462E-02  0.1249022E+00
         -1   -1    0    0    0  501 -0.00000000000E+00  0.00000000000E+00  0.43574830135E+02  0.43574830135E+02  0.00000000000E+00 0.  1.
          1   -1    0    0  501    0  0.00000000000E+00 -0.00000000000E+00 -0.37034372388E+03  0.37034372388E+03  0.00000000000E+00 0. -1.
         23    2    1    2    0    0 -0.49232130819E+02 -0.26321965545E+02 -0.12413947341E+03  0.18486599020E+03  0.12509267324E+03 0.  0.
          5    1    3    3  502    0 -0.12633072415E+02 -0.69118401845E+02 -0.10261519797E+03  0.12443592426E+03  0.41800000000E+01 0. -1.
         -5    1    3    3    0  502 -0.36599058403E+02  0.42796436300E+02 -0.21524275435E+02  0.60430065936E+02  0.41800000000E+01 0. -1.
        -11    1    1    2    0    0 -0.20633895875E+02 -0.14468527511E+02 -0.59971111099E+02  0.65050980882E+02  0.00000000000E+00 0.  1.
         11    1    1    2    0    0  0.69866026694E+02  0.40790493056E+02 -0.14265830924E+03  0.16400158293E+03  0.00000000000E+00 0. -1.
</event>
<event>
 7    1  0.6671761E-006  0.1007516E+03  0.7561462E-02  0.1278723E+00
          2   -1    0    0  501    0  0.00000000000E+00  0.00000000000E+00  0.60429260004E+02  0.60429260004E+02  0.00000000000E+00 0. -1.
         -2   -1    0    0    0  501 -0.00000000000E+00 -0.00000000000E+00 -0.25416220419E+03  0.25416220419E+03  0.00000000000E+00 0.  1.
         23    2    1    2    0    0  0.49177499108E+02 -0.71975307493E+01 -0.15080160400E+03  0.20213969959E+03  0.12509637691E+03 0.  0.
          5    1    3    3  502    0  0.47162201557E+02  0.54677007923E+02 -0.87061797897E+02  0.11318603052E+03  0.41800000000E+01 0.  1.
         -5    1    3    3    0  502  0.20152975510E+01 -0.61874538672E+02 -0.63739806101E+02  0.88953669075E+02  0.41800000000E+01 0.  1.
        -11    1    1    2    0    0 -0.54397413424E+01 -0.16505869460E+02 -0.57939149596E+02  0.60489499655E+02  0.00000000000E+00 0.  1.
         11    1    1    2    0    0 -0.43737757765E+02  0.23703400209E+02  0.15007809404E+02  0.51962264952E+02  0.00000000000E+00 0. -1.
</event>
<event>
 6    1  0.6671761E-006  0.1154826E+03  0.7561462E-02  0.1250741E+00
          1   -1    0    0  501    0  0.00000000000E+00  0.00000000000E+00  0.44711085752E+03  0.44711085752E+03  0.00000000000E+00 0. -1.
         -1   -1    0    0    0  501 -0.00000000000E+00 -0.00000000000E+00 -0.43173382737E+02  0.43173382737E+02  0.00000000000E+00 0.  1.
          5    1    1    2  502    0  0.77253782893E+02 -0.96782756615E+01  0.80403814047E+02  0.11200027547E+03  0.41800000000E+01 0. -1.
         -5    1    1    2    0  502 -0.76387593638E+02  0.45165836036E+02  0.98337784128E+02  0.13252475012E+03  0.41800000000E+01 0.  1.
        -11    1    1    2    0    0  0.20715100060E+02 -0.37124076782E+02  0.21922282732E+03  0.22330687510E+03  0.00000000000E+00 0. -1.
         11    1    1    2    0    0 -0.21581289315E+02  0.16365164076E+01  0.59730492824E+01  0.22452339571E+02  0.00000000000E+00 0.  1.
</event>
<event>
 6    1  0.6671761E-006  0.1036161E+03  0.7561462E-02  0.1272870E+00
         -2   -1    0    0    0  501 -0.00000000000E+00  0.00000000000E+00  0.19558085305E+03  0.19558085305E+03  0.00000000000E+00 0.  1.
          2   -1    0    0  501    0  0.00000000000E+00 -0.00000000000E+00 -0.16384002621E+03  0.16384002621E+03  0.00000000000E+00 0. -1.
          5    1    1    2  502    0  0.39517894665E+02 -0.29336641839E+02 -0.90709336816E+02  0.10328581093E+03  0.41800000000E+01 0. -1.
         -5    1    1    2    0  502  0.32343755240E+02 -0.10660560842E+02  0.12791172038E+03  0.13243355569E+03  0.41800000000E+01 0.  1.
        -11    1    1    2    0    0 -0.84315155810E+02  0.28665498431E+01 -0.54239963343E+01  0.84538052636E+02  0.00000000000E+00 0. -1.
         11    1    1    2    0    0  0.12453505905E+02  0.37130652838E+02 -0.37560390480E-01  0.39163460014E+02  0.00000000000E+00 0.  1.
</event>
<event>
 7    1  0.6671761E-006  0.1114697E+03  0.7561462E-02  0.1257872E+00
          1   -1    0    0  501    0  0.00000000000E+00  0.00000000000E+00  0.37650758235E+03  0.37650758235E+03  0.00000000000E+00 0. -1.
         -1   -1    0    0    0  501 -0.00000000000E+00 -0.00000000000E+00 -0.51146277043E+02  0.51146277043E+02  0.00000000000E+00 0.  1.
         23    2    1    2    0    0 -0.40611515949E+02 -0.40379950162E+02  0.78544050375E+02  0.15841643272E+03  0.12508702052E+03 0.  0.
          5    1    3    3  502    0  0.31466332552E+02  0.24091481537E+02  0.14759466341E+02  0.42495221068E+02  0.41800000000E+01 0. -1.
         -5    1    3    3    0  502 -0.72077848501E+02 -0.64471431699E+02  0.63784584034E+02  0.11592121165E+03  0.41800000000E+01 0. -1.
        -11    1    1    2    0    0 -0.60601595983E+01  0.39140328122E+02  0.36701739756E+02  0.53997301052E+02  0.00000000000E+00 0.  1.
         11    1    1    2    0    0  0.46671675547E+02  0.12396220406E+01  0.21011551517E+03  0.21524012562E+03  0.00000000000E+00 0. -1.
</event>
<event>
 7    1  0.6671761E-006  0.1015277E+03  0.7561462E-02  0.1277116E+00
          3   -1    0    0  501    0  0.00000000000E+00  0.00000000000E+00  0.11228209520E+03  0.11228209520E+03  0.00000000000E+00 0. -1.
         -3   -1    0    0    0  501 -0.00000000000E+00 -0.00000000000E+00 -0.13282214337E+03  0.13282214337E+03  0.00000000000E+00 0.  1.
         23    2    1    2    0    0  0.41832209535E+02  0.36465539142E+02 -0.30586128340E+02  0.14022656764E+03  0.12509320416E+03 0.  0.
          5    1    3    3  502    0  0.55941673419E+02 -0.11641857035E+02  0.27358883938E+02  0.63490035363E+02  0.41800000000E+01 0. -1.
         -5    1    3    3    0  502 -0.14109463884E+02  0.48107396177E+02 -0.57945012278E+02  0.76736532277E+02  0.41800000000E+01 0. -1.
        -11    1    1    2    0    0 -0.31229201194E+02  0.20600584731E+02 -0.16698837470E+02  0.40969479754E+02  0.00000000000E+00 0.  1.
         11    1    1    2    0    0 -0.10603008341E+02 -0.57066123873E+02  0.26744917635E+02  0.63908191173E+02  0.00000000000E+00 0. -1.
</event>
<event>
 7    1  0.6671761E-006  0.1057948E+03  0.7561462E-02  0.1268561E+00
          2   -1    0    0  501    0  0.00000000000E+00  0.00000000000E+00  0.20992188343E+03  0.20992188343E+03  0.00000000000E+00 0.  1.
         -2   -1    0    0    0  501 -0.00000000000E+00 -0.00000000000E+00 -0.78721710367E+02  0.78721710367E+02  0.00000000000E+00 0. -1.
         23    2    1    2    0    0  0.33517520971E+02 -0.36138915198E+02  0.11742066441E+02  0.13496293603E+03  0.12509065742E+03 0.  0.
          5    1    3    3  502    0  0.42913857723E+02  0.33157597334E+02  0.30606533636E+02  0.62412000023E+02  0.41800000000E+01 0.  1.
         -5    1    3    3    0  502 -0.93963367523E+01 -0.69296512532E+02 -0.18864467195E+02  0.72550936011E+02  0.41800000000E+01 0.  1.
        -11    1    1    2    0    0 -0.35653313729E+02  0.56424208708E+02  0.11474607967E+03  0.13274604668E+03  0.00000000000E+00 0.  1.
         11    1    1    2    0    0  0.21357927586E+01 -0.20285293510E+02  0.47120269547E+01  0.20934611090E+02  0.00000000000E+00 0. -1.
</event>
<event>
 7    1  0.6671761E-006  0.9460028E+02  0.7561462E-02  0.1292079E+00
         -4   -1    0    0    0  501 -0.00000000000E+00  0.00000000000E+00  0.24031862984E+03  0.24031862984E+03  0.00000000000E+00 0.  1.
          4   -1    0    0  501    0  0.00000000000E+00 -0.00000000000E+00 -0.71316431999E+02  0.71316431999E+02  0.00000000000E+00 0. -1.
         23    2    1    2    0    0 -0.30852036133E+02 -0.64700166135E+02  0.11327268270E+03  0.18334783460E+03  0.12509103955E+03 0.  0.
          5    1    3    3  502    0  0.21578990486E+01 -0.57511748681E+01  0.11538462504E+03  0.11562359896E+03  0.41800000000E+01 0. -1.
         -5    1    3    3    0  502 -0.33009935181E+02 -0.58948991267E+02 -0.21119423446E+01  0.67724235637E+02  0.41800000000E+01 0. -1.
        -11    1    1    2    0    0  0.62132776351E+02  0.48699069906E+02  0.47734819731E+02  0.92253424443E+02  0.00000000000E+00 0.  1.
         11    1    1    2    0    0 -0.31280740218E+02  0.16001096230E+02  0.79946954088E+01  0.36033802794E+02  0.00000000000E+00 0. -1.
</event>
<event>
 7    1  0.6671761E-006  0.1356315E+03  0.7561462E-02  0.1219331E+00
          1   -1    0    0  501    0  0.00000000000E+00  0.00000000000E+00  0.30210985192E+02  0.30210985192E+02  0.00000000000E+00 0. -1.
         -1   -1    0    0    0  501 -0.00000000000E+00 -0.00000000000E+00 -0.71460561132E+03  0.71460561132E+03  0.00000000000E+00 0.  1.
         23    2    1    2    0    0  0.10087677360E+03  0.12073131538E+02 -0.40803872034E+03  0.43870621450E+03  0.12508261824E+03 0.  0.
          5    1    3    3  502    0  0.10209227669E+03 -0.37785021621E+02 -0.31087323896E+03  0.32940884007E+03  0.41800000000E+01 0.  1.
         -5    1    3    3    0  502 -0.12155030882E+01  0.49858153159E+02 -0.97165481387E+02  0.10929737443E+03  0.41800000000E+01 0.  1.
        -11    1    1    2    0    0 -0.81144640465E+02  0.11031229207E+02 -0.11073610993E+03  0.13772663772E+03  0.00000000000E+00 0. -1.
         11    1    1    2    0    0 -0.19732133136E+02 -0.23104360745E+02 -0.16561979585E+03  0.16838374429E+03  0.00000000000E+00 0.  1.
</event>
<event>
 7    1  0.6671761E-006  0.7584149E+02  0.7561462E-02  0.1341285E+00
          3   -1    0    0  501    0  0.00000000000E+00  0.00000000000E+00  0.20489158681E+03  0.20489158681E+03  0.00000000000E+00 0. -1.
         -3   -1    0    0    0  501 -0.00000000000E+00 -0.00000000000E+00 -0.64073895707E+02  0.64073895707E+02  0.00000000000E+00 0.  1.
         23    2    1    2    0    0  0.27249316896E+02  0.25133503716E+02  0.61579556429E+02  0.14427081739E+03  0.12509120153E+03 0.  0.
          5    1    3    3  502    0  0.47930881000E+02 -0.17479281520E+02 -0.15692062203E+02  0.53540712099E+02  0.41800000000E+01 0. -1.
         -5    1    3    3    0  502 -0.20681564104E+02  0.42612785236E+02  0.77271618633E+02  0.90730105288E+02  0.41800000000E+01 0. -1.
        -11    1    1    2    0    0  0.95713224389E+01 -0.32387657763E+01 -0.16760932901E+02  0.19571118739E+02  0.00000000000E+00 0.  1.
         11    1    1    2    0    0 -0.36820639335E+02 -0.21894737940E+02  0.95999067575E+02  0.10512354639E+03  0.00000000000E+00 0. -1.
</event>
<event>
 7    1  0.6671761E-006  0.1117684E+03  0.7561462E-02  0.1257330E+00
         -2   -1    0    0    0  501 -0.00000000000E+00  0.00000000000E+00  0.29937659118E+03  0.29937659118E+03  0.00000000000E+00 0.  1.
          2   -1    0    0  501    0  0.00000000000E+00 -0.00000000000E+00 -0.47691094049E+02  0.47691094049E+02  0.00000000000E+00 0. -1.
         23    2    1    2    0    0 -0.27251861119E+02  0.15934445757E+02  0.20148077549E+03  0.23924738920E+03  0.12509292486E+03 0.  0.
          5    1    3    3  502    0  0.49271870999E+02 -0.17742266351E+01  0.91675847231E+02  0.10417676573E+03  0.41800000000E+01 0.  1.
         -5    1    3    3    0  502 -0.76523732118E+02  0.17708672392E+02  0.10980492826E+03  0.13507062347E+03  0.41800000000E+01 0.  1.
        -11    1    1    2    0    0 -0.22227598460E+02 -0.35751966542E+02  0.21069130739E+02  0.47076294618E+02  0.00000000000E+00 0.  1.
         11    1    1    2    0    0  0.49479459578E+02  0.19817520785E+02  0.29135590900E+02  0.60744001410E+02  0.00000000000E+00 0. -1.
</event>
<event>
 7    1  0.6671761E-006  0.1269212E+03  0.7561462E-02  0.1232097E+00
         -2   -1    0    0    0  501 -0.00000000000E+00  0.00000000000E+00  0.86521450034E+03  0.86521450034E+03  0.00000000000E+00 0.  1.
          2   -1    0    0  501    0  0.00000000000E+00 -0.00000000000E+00 -0.24113453814E+02  0.24113453814E+02  0.00000000000E+00 0. -1.
         23    2    1    2    0    0 -0.52540605337E+02  0.69252790403E+02  0.67455829074E+03  0.69154364151E+03  0.12508899357E+03 0.  0.
          5    1    3    3  502    0  0.14889991125E+02 -0.26095707471E+02  0.22543331477E+03  0.22746505136E+03  0.41800000000E+01 0.  1.
         -5    1    3    3    0  502 -0.67430596463E+02  0.95348497874E+02  0.44912497597E+03  0.46407859014E+03  0.41800000000E+01 0.  1.
        -11    1    1    2    0    0 -0.10031076992E+02 -0.32656635756E+02  0.55789134789E+02  0.65417932748E+02  0.00000000000E+00 0. -1.
         11    1    1    2    0    0  0.62571682329E+02 -0.36596154647E+02  0.11075362100E+03  0.13236637990E+03  0.00000000000E+00 0.  1.
</event>
<event>
 7    1  0.6671761E-006  0.1226179E+03  0.7561462E-02  0.1238840E+00
          2   -1    0    0  501    0  0.00000000000E+00  0.00000000000E+00  0.50908149784E+03  0.50908149784E+03  0.00000000000E+00 0. -1.
         -2   -1    0    0    0  501 -0.00000000000E+00 -0.00000000000E+00 -0.61864955847E+02  0.61864955847E+02  0.00000000000E+00 0.  1.
         23    2    1    2    0    0 -0.83230248864E+02 -0.63047804431E+02  0.86982629186E+02  0.18470392318E+03  0.12508901426E+03 0.  0.
          5    1    3    3  502    0 -0.66473515866E+02 -0.57776527693E+02 -0.75194756648E+01  0.88492205183E+02  0.41800000000E+01 0.  1.
         -5    1    3    3    0  502 -0.16756732998E+02 -0.52712767375E+01  0.94502104851E+02  0.96211717999E+02  0.41800000000E+01 0.  1.
        -11    1    1    2    0    0  0.79045312591E+02  0.85341286202E+02  0.31071536192E+03  0.33177602793E+03  0.00000000000E+00 0. -1.
         11    1    1    2    0    0  0.41849362727E+01 -0.22293481771E+02  0.49518550887E+02  0.54466502577E+02  0.00000000000E+00 0.  1.
</event>
<event>
 7    1  0.6671761E-006  0.2045500E+03  0.7561462E-02  0.1145956E+00
         -2   -1    0    0    0  501 -0.00000000000E+00  0.00000000000E+00  0.17470900613E+03  0.17470900613E+03  0.00000000000E+00 0.  1.
          2   -1    0    0  501    0  0.00000000000E+00 -0.00000000000E+00 -0.36191926855E+03  0.36191926855E+03  0.00000000000E+00 0. -1.
         23    2    1    2    0    0  0.15013081629E+03  0.12085872305E+03  0.34486552401E+02  0.23234565628E+03  0.12509631793E+03 0.  0.
          5    1    3    3  502    0  0.11833690702E+03  0.41647286586E+02  0.65316057655E+02  0.14149833861E+03  0.41800000000E+01 0.  1.
         -5    1    3    3    0  502  0.31793909271E+02  0.79211436465E+02 -0.30829505254E+02  0.90847317670E+02  0.41800000000E+01 0.  1.
        -11    1    1    2    0    0 -0.77817224690E+02 -0.91397746568E+02 -0.85796905716E+02  0.14754720454E+03  0.00000000000E+00 0.  1.
         11    1    1    2    0    0 -0.72313591599E+02 -0.29460976483E+02 -0.13589990910E+03  0.15673541386E+03  0.00000000000E+00 0. -1.
</event>
<event>
 7    1  0.6671761E-006  0.1738713E+03  0.7561462E-02  0.1173870E+00
         -2   -1    0    0    0  501 -0.00000000000E+00  0.00000000000E+00  0.16869783733E+03  0.16869783733E+03  0.00000000000E+00 0.  1.
          2   -1    0    0  501    0  0.00000000000E+00 -0.00000000000E+00 -0.36264011152E+03  0.36264011152E+03  0.00000000000E+00 0. -1.
         23    2    1    2    0    0  0.11511568764E+03  0.12663332206E+03  0.51394448667E+02  0.21811899243E+03  0.12508751221E+03 0.  0.
          5    1    3    3  502    0  0.33773964890E+02  0.65253494728E+02 -0.37706779739E+02  0.82692036599E+02  0.41800000000E+01 0. -1.
         -5    1    3    3    0  502  0.81341722752E+02  0.61379827332E+02  0.89101228406E+02  0.13542695584E+03  0.41800000000E+01 0. -1.
        -11    1    1    2    0    0 -0.77672063099E+02 -0.71880711899E+02 -0.21631734289E+03  0.24081731450E+03  0.00000000000E+00 0. -1.
         11    1    1    2    0    0 -0.37443624543E+02 -0.54752610160E+02 -0.29019379976E+02  0.72401641918E+02  0.00000000000E+00 0.  1.
</event>
<event>
 7    1  0.6671761E-006  0.1919885E+03  0.7561462E-02  0.1156680E+00
         -2   -1    0    0    0  501 -0.00000000000E+00  0.00000000000E+00  0.59697182146E+03  0.59697182146E+03  0.00000000000E+00 0.  1.
          2   -1    0    0  501    0  0.00000000000E+00 -0.00000000000E+00 -0.88232670596E+02  0.88232670596E+02  0.00000000000E+00 0. -1.
         23    2    1    2    0    0  0.15616896671E+03 -0.66826067053E+02  0.42530913036E+03  0.47475181478E+03  0.12508780865E+03 0.  0.
          5    1    3    3  502    0  0.13560787545E+03  0.53360105955E+01  0.27019629917E+03  0.30239292547E+03  0.41800000000E+01 0.  1.
         -5    1    3    3    0  502  0.20561091262E+02 -0.72162077648E+02  0.15511283119E+03  0.17235888931E+03  0.41800000000E+01 0.  1.
        -11    1    1    2    0    0 -0.81684986692E+02  0.52778620741E+02  0.92373143585E+02  0.13412985318E+03  0.00000000000E+00 0.  1.
         11    1    1    2    0    0 -0.74483980017E+02  0.14047446312E+02 -0.89431230788E+01  0.76322824093E+02  0.00000000000E+00 0. -1.
</event>
<event>
 7    1  0.6671761E-006  0.1060140E+03  0.7561462E-02  0.1268135E+00
          2   -1    0    0  501    0  0.00000000000E+00  0.00000000000E+00  0.39193719218E+03  0.39193719218E+03  0.00000000000E+00 0. -1.
         -2   -1    0    0    0  501 -0.00000000000E+00 -0.00000000000E+00 -0.45911505528E+02  0.45911505528E+02  0.00000000000E+00 0.  1.
         23    2    1    2    0    0  0.75315052643E+02  0.12940484802E+02  0.15432185583E+03  0.21284475078E+03  0.12509132443E+03 0.  0.
          5    1    3    3  502    0  0.94600459428E+02  0.24420618243E+01  0.16327774618E+03  0.18876521233E+03  0.41800000000E+01 0.  1.
         -5    1    3    3    0  502 -0.19285406785E+02  0.10498422978E+02 -0.89558903506E+01  0.24079538448E+02  0.41800000000E+01 0.  1.
        -11    1    1    2    0    0 -0.54067760547E+02  0.18378064701E+02  0.42796671317E+02  0.71362672796E+02  0.00000000000E+00 0.  1.
         11    1    1    2    0    0 -0.21247292096E+02 -0.31318549503E+02  0.14890715950E+03  0.15364127413E+03  0.00000000000E+00 0. -1.
</event>
<event>
 7    1  0.6671761E-006  0.1361441E+03  0.7561462E-02  0.1218614E+00
          2   -1    0    0  501    0  0.00000000000E+00  0.00000000000E+00  0.68517249683E+02  0.68517249683E+02  0.00000000000E+00 0.  1.
         -2   -1    0    0    0  501 -0.00000000000E+00 -0.00000000000E+00 -0.59219557610E+03  0.59219557610E+03  0.00000000000E+00 0. -1.
         23    2    1    2    0    0 -0.44279782839E+02  0.10306871304E+03 -0.48101194697E+03  0.50951255482E+03  0.12508673635E+03 0.  0.
          5    1    3    3  502    0 -0.47354787317E+02  0.12028854627E+03 -0.47199090197E+03  0.48939216809E+03  0.41800000000E+01 0. -1.
         -5    1    3    3    0  502  0.30750044781E+01 -0.17219833236E+02 -0.90210450079E+01  0.20120386732E+02  0.41800000000E+01 0. -1.
        -11    1    1    2    0    0 -0.12882190579E+02 -0.13123492398E+02  0.20320474049E+02  0.27406177267E+02  0.00000000000E+00 0.  1.
         11    1    1    2    0    0  0.57161973418E+02 -0.89945220640E+02 -0.62986853488E+02  0.12379409369E+03  0.00000000000E+00 0. -1.
</event>
<event>
 7    1  0.7544774E-006  0.9944635E+02  0.7561462E-02  0.1281465E+00
         -1   -1    0    0    0  501 -0.00000000000E+00  0.00000000000E+00  0.82033908484E+02  0.82033908484E+02  0.00000000000E+00 0.  1.
          1   -1    0    0  501    0  0.00000000000E+00 -0.00000000000E+00 -0.21742951397E+03  0.21742951397E+03  0.00000000000E+00 0. -1.
         23    2    1    2    0    0 -0.73000289124E+02  0.17017401220E+02 -0.49780327314E+02  0.15409185289E+03  0.12509030332E+03 0.  0.
          5    1    3    3  502    0 -0.70738139580E+02  0.26700846282E+02  0.24069503681E+02  0.79458372692E+02  0.41800000000E+01 0.  1.
         -5    1    3    3    0  502 -0.22621495441E+01 -0.96834450616E+01 -0.73849830995E+02  0.74633480200E+02  0.41800000000E+01 0.  1.
        -11    1    1    2    0    0  0.49460616964E+02  0.31370902064E+02 -0.65643058919E+02  0.87974412820E+02  0.00000000000E+00 0. -1.
         11    1    1    2    0    0  0.23539672160E+02 -0.48388303284E+02 -0.19972219253E+02  0.57397156742E+02  0.00000000000E+00 0.  1.
</event>
<event>
 7    1  0.6671761E-006  0.2359678E+03  0.7561462E-02  0.1122508E+00
          1   -1    0    0  501    0  0.00000000000E+00  0.00000000000E+00  0.51738190562E+02  0.51738190562E+02  0.00000000000E+00 0. -1.
         -1   -1    0    0    0  501 -0.00000000000E+00 -0.00000000000E+00 -0.12714537364E+04  0.12714537364E+04  0.00000000000E+00 0.  1.
         23    2    1    2    0    0 -0.15506780733E+03 -0.16740930006E+03 -0.74098890830E+03  0.78535640186E+03  0.12509283394E+03 0.  0.
          5    1    3    3  502    0 -0.11810556925E+03 -0.14297916662E+03 -0.70230871158E+03  0.72639312107E+03  0.41800000000E+01 0. -1.
         -5    1    3    3    0  502 -0.36962238074E+02 -0.24430133444E+02 -0.38680196723E+02  0.58963280794E+02  0.41800000000E+01 0. -1.
        -11    1    1    2    0    0  0.18139262629E+02 -0.76484517216E+01 -0.68505737669E+02  0.71278101518E+02  0.00000000000E+00 0.  1.
         11    1    1    2    0    0  0.13692854470E+03  0.17505775178E+03 -0.41022089987E+03  0.46655742358E+03  0.00000000000E+00 0. -1.
</event>
<event>
 6    1  0.6671761E-006  0.1787231E+03  0.7561462E-02  0.1169045E+00
          2   -1    0    0  501    0  0.00000000000E+00  0.00000000000E+00  0.76479127646E+03  0.76479127646E+03  0.00000000000E+00 0. -1.
         -2   -1    0    0    0  501 -0.00000000000E+00 -0.00000000000E+00 -0.10516919653E+03  0.10516919653E+03  0.00000000000E+00 0.  1.
          5    1    1    2  502    0  0.23482315751E+01  0.16287135198E+03  0.50985163872E+03  0.53525578689E+03  0.41800000000E+01 0. -1.
         -5    1    1    2    0  502 -0.18591965146E+02 -0.24094170428E+02 -0.59022387578E+02  0.66537995551E+02  0.41800000000E+01 0.  1.
        -11    1    1    2    0    0 -0.18582231526E+02  0.20692413078E+01  0.77545537990E+01  0.20241397992E+02  0.00000000000E+00 0.  1.
         11    1    1    2    0    0  0.34825965096E+02 -0.14084642286E+03  0.20103827499E+03  0.24792529256E+03  0.00000000000E+00 0. -1.
</event>
<event>
 7    1  0.6671761E-006  0.1508765E+03  0.7561462E-02  0.1199400E+00
          3   -1    0    0  501    0  0.00000000000E+00  0.00000000000E+00  0.20851239901E+02  0.20851239901E+02  0.00000000000E+00 0. -1.
         -3   -1    0    0    0  501 -0.00000000000E+00 -0.00000000000E+00 -0.14176367047E+04  0.14176367047E+04  0.00000000000E+00 0.  1.
         23    2    1    2    0    0  0.86567531200E+02  0.10041724833E+03 -0.79139419897E+03  0.81211409076E+03  0.12508779728E+03 0.  0.
          5    1    3    3  502    0  0.95016456506E+02  0.74696055669E+02 -0.76349790556E+03  0.77301626887E+03  0.41800000000E+01 0. -1.
         -5    1    3    3    0  502 -0.84489253061E+01  0.25721192658E+02 -0.27896293405E+02  0.39097821887E+02  0.41800000000E+01 0. -1.
        -11    1    1    2    0    0 -0.85314860009E+02 -0.42177348913E+02 -0.27797219423E+03  0.29381302705E+03  0.00000000000E+00 0. -1.
         11    1    1    2    0    0 -0.12526711907E+01 -0.58239899414E+02 -0.32741907161E+03  0.33256082681E+03  0.00000000000E+00 0.  1.
</event>
<event>
 6    1  0.6671761E-006  0.1071994E+03  0.7561462E-02  0.1265846E+00
         -2   -1    0    0    0  501 -0.00000000000E+00  0.00000000000E+00  0.43887147589E+02  0.43887147589E+02  0.00000000000E+00 0.  1.
          2   -1    0    0  501    0  0.00000000000E+00 -0.00000000000E+00 -0.32087902963E+03  0.32087902963E+03  0.00000000000E+00 0. -1.
          5    1    1    2  502    0 -0.23254900994E+02  0.47535612070E+02 -0.79046938214E+02  0.95217202627E+02  0.41800000000E+01 0. -1.
         -5    1    1    2    0  502  0.47212654377E+02 -0.53610663190E+02 -0.33234682948E+02  0.78899648236E+02  0.41800000000E+01 0.  1.
        -11    1    1    2    0    0  0.22208007804E+02 -0.25508196605E+02 -0.97548443111E+02  0.10324515707E+03  0.00000000000E+00 0.  1.
         11    1    1    2    0    0 -0.46165761188E+02  0.31583247725E+02 -0.67161817766E+02  0.87404169286E+02  0.00000000000E+00 0. -1.
</event>
<event>
 7    1  0.6671761E-006  0.9730948E+02  0.7561462E-02  0.1286058E+00
          4   -1    0    0  501    0  0.00000000000E+00  0.00000000000E+00  0.13324141619E+03  0.13324141619E+03  0.00000000000E+00 0. -1.
         -4   -1    0    0    0  501 -0.00000000000E+00 -0.00000000000E+00 -0.97686943677E+02  0.97686943677E+02  0.00000000000E+00 0.  1.
         23    2    1    2    0    0  0.22904762442E+02  0.39408105218E+02  0.14874259698E+02  0.13396419673E+03  0.12509010954E+03 0.  0.
          5    1    3    3  502    0  0.56996229660E+02  0.20408085044E+02 -0.35343676152E+02  0.70226120315E+02  0.41800000000E+01 0. -1.
         -5    1    3    3    0  502 -0.34091467218E+02  0.19000020174E+02  0.50217935849E+02  0.63738076411E+02  0.41800000000E+01 0. -1.
        -11    1    1    2    0    0 -0.50292057306E+02 -0.44110029569E+02  0.13173705123E+02  0.68180145522E+02  0.00000000000E+00 0. -1.
         11    1    1    2    0    0  0.27387294864E+02  0.47019243512E+01  0.75065076923E+01  0.28784017619E+02  0.00000000000E+00 0.  1.
</event>
<event>
 7    1  0.6671761E-006  0.1050748E+03  0.7561462E-02  0.1269972E+00
         -1   -1    0    0    0  501 -0.00000000000E+00  0.00000000000E+00  0.89232657024E+02  0.89232657024E+02  0.00000000000E+00 0.  1.
          1   -1    0    0  501    0  0.00000000000E+00 -0.00000000000E+00 -0.14335245781E+03  0.14335245781E+03  0.00000000000E+00 0. -1.
         23    2    1    2    0    0 -0.91079698328E+01  0.28621165606E+02 -0.19244441250E+02  0.13006971299E+03  0.12508259465E+03 0.  0.
          5    1    3    3  502    0 -0.12765917945E+01 -0.48184971151E+02 -0.20973107378E+02  0.52732957101E+02  0.41800000000E+01 0. -1.
         -5    1    3    3    0  502 -0.78313780383E+01  0.76806136757E+02  0.17286661287E+01  0.77336755893E+02  0.41800000000E+01 0. -1.
        -11    1    1    2    0    0  0.42576311733E+01 -0.56243505355E+02 -0.45557652872E+02  0.72504889856E+02  0.00000000000E+00 0. -1.
         11    1    1    2    0    0  0.48503386595E+01  0.27622339750E+02  0.10682293339E+02  0.30010511981E+02  0.00000000000E+00 0.  1.
</event>
<event>
 7    1  0.6671761E-006  0.8752283E+02  0.7561462E-02  0.1308964E+00
         -1   -1    0    0    0  501 -0.00000000000E+00  0.00000000000E+00  0.10771976027E+03  0.10771976027E+03  0.00000000000E+00 0.  1.
          1   -1    0    0  501    0  0.00000000000E+00 -0.00000000000E+00 -0.22551197939E+03  0.22551197939E+03  0.00000000000E+00 0. -1.
         23    2    1    2    0    0  0.22648228288E+02  0.28458317971E+02  0.49355310291E+02  0.13931509111E+03  0.12509967966E+03 0.  0.
          5    1    3    3  502    0  0.31917558765E+02 -0.27953646556E+02  0.66934596172E+02  0.79358991160E+02  0.41800000000E+01 0. -1.
         -5    1    3    3    0  502 -0.92693304771E+01  0.56411964527E+02 -0.17579285880E+02  0.59956099951E+02  0.41800000000E+01 0. -1.
        -11    1    1    2    0    0  0.19464784615E+02 -0.26568565286E+02 -0.13989378303E+03  0.14371860364E+03  0.00000000000E+00 0. -1.
         11    1    1    2    0    0 -0.42113012903E+02 -0.18897526849E+01 -0.27253746379E+02  0.50198044909E+02  0.00000000000E+00 0.  1.
</event>
<event>
 7    1  0.6671761E-006  0.1013566E+03  0.7561462E-02  0.1277469E+00
          2   -1    0    0  501    0  0.00000000000E+00  0.00000000000E+00  0.50899809199E+02  0.50899809199E+02  0.00000000000E+00 0. -1.
         -2   -1    0    0    0  501 -0.00000000000E+00 -0.00000000000E+00 -0.31401861320E+03  0.31401861320E+03  0.00000000000E+00 0.  1.
         23    2    1    2    0    0 -0.35966072713E+02 -0.50622485524E+02 -0.18005477659E+03  0.22786880849E+03  0.12509307288E+03 0.  0.
          5    1    3    3  502    0 -0.69208160235E+02  0.10318580886E+02 -0.88615272784E+02  0.11298841323E+03  0.41800000000E+01 0. -1.
         -5    1    3    3    0  502  0.33242087522E+02 -0.60941066409E+02 -0.91439503808E+02  0.11488039526E+03  0.41800000000E+01 0. -1.
        -11    1    1    2    0    0  0.12551924782E+02  0.94664506802E+01  0.18926009412E+02  0.24604030899E+02  0.00000000000E+00 0. -1.
         11    1    1    2    0    0  0.23414147930E+02  0.41156034843E+02 -0.10199003682E+03  0.11244558301E+03  0.00000000000E+00 0.  1.
</event>
<event>
 7    1  0.6671761E-006  0.1417203E+03  0.7561462E-02  0.1211033E+00
          1   -1    0    0  501    0  0.00000000000E+00  0.00000000000E+00  0.64024497793E+02  0.64024497793E+02  0.00000000000E+00 0. -1.
         -1   -1    0    0    0  501 -0.00000000000E+00 -0.00000000000E+00 -0.54299599897E+03  0.54299599897E+03  0.00000000000E+00 0.  1.
         23    2    1    2    0    0  0.12937161515E+03  0.12220101687E+02 -0.38208929330E+03  0.42252244418E+03  0.12508653840E+03 0.  0.
          5    1    3    3  502    0  0.20902042366E+02 -0.25661738741E+02 -0.12768429269E+02  0.35720097932E+02  0.41800000000E+01 0.  1.
         -5    1    3    3    0  502  0.10846957278E+03  0.37881840429E+02 -0.36932086403E+03  0.38680234625E+03  0.41800000000E+01 0.  1.
        -11    1    1    2    0    0 -0.85824470462E+02  0.96759742587E+01 -0.10405710284E+03  0.13523070975E+03  0.00000000000E+00 0.  1.
         11    1    1    2    0    0 -0.43547144688E+02 -0.21896075946E+02  0.71748949613E+01  0.49267342835E+02  0.00000000000E+00 0. -1.
</event>
<event>
 7    1  0.6671761E-006  0.1174327E+03  0.7561462E-02  0.1247393E+00
          1   -1    0    0  501    0  0.00000000000E+00  0.00000000000E+00  0.93603530334E+02  0.93603530334E+02  0.00000000000E+00 0. -1.
         -1   -1    0    0    0  501 -0.00000000000E+00 -0.00000000000E+00 -0.16106859632E+03  0.16106859632E+03  0.00000000000E+00 0.  1.
         23    2    1    2    0    0 -0.43039136896E+02  0.13721776206E+02 -0.72036159118E+02  0.15125188370E+03  0.12508904691E+03 0.  0.
          5    1    3    3  502    0  0.43690551086E+02  0.13984128170E+02 -0.27793621474E+02  0.53799422762E+02  0.41800000000E+01 0.  1.
         -5    1    3    3    0  502 -0.86729687982E+02 -0.26235196353E+00 -0.44242537644E+02  0.97452460939E+02  0.41800000000E+01 0.  1.
        -11    1    1    2    0    0  0.54095498086E+02  0.26513763484E+02  0.10882250824E+02  0.61218673216E+02  0.00000000000E+00 0. -1.
         11    1    1    2    0    0 -0.11056361190E+02 -0.40235539691E+02 -0.63111576927E+01  0.42201569738E+02  0.00000000000E+00 0.  1.
</event>
<event>
 7    1  0.6671761E-006  0.9206362E+02  0.7561462E-02  0.1297930E+00
         -2   -1    0    0    0  501 -0.00000000000E+00  0.00000000000E+00  0.86681118744E+02  0.86681118744E+02  0.00000000000E+00 0.  1.
          2   -1    0    0  501    0  0.00000000000E+00 -0.00000000000E+00 -0.16586666179E+03  0.16586666179E+03  0.00000000000E+00 0. -1.
         23    2    1    2    0    0 -0.52020271932E+01  0.95266201949E+01  0.81068538730E+01  0.12582070401E+03  0.12508921176E+03 0.  0.
          5    1    3    3  502    0  0.50567842447E+02 -0.27710867382E+02  0.96494772423E+01  0.58613852218E+02  0.41800000000E+01 0.  1.
         -5    1    3    3    0  502 -0.55769869640E+02  0.37237487577E+02 -0.15426233692E+01  0.67206851790E+02  0.41800000000E+01 0.  1.
        -11    1    1    2    0    0 -0.33677518777E+01  0.24145097862E+02  0.77111308121E+01  0.25569298814E+02  0.00000000000E+00 0.  1.
         11    1    1    2    0    0  0.85697790709E+01 -0.33671718057E+02 -0.95003527736E+02  0.10115777772E+03  0.00000000000E+00 0. -1.
</event>
<event>
 7    1  0.6671761E-006  0.1127023E+03  0.7561462E-02  0.1255646E+00
          2   -1    0    0  501    0  0.00000000000E+00  0.00000000000E+00  0.58605333870E+03  0.58605333870E+03  0.00000000000E+00 0. -1.
         -2   -1    0    0    0  501 -0.00000000000E+00 -0.00000000000E+00 -0.35052337745E+02  0.35052337745E+02  0.00000000000E+00 0.  1.
         23    2    1    2    0    0  0.64405718300E+02  0.22507168914E+02  0.17117658485E+03  0.22271778259E+03  0.12508844182E+03 0.  0.
          5    1    3    3  502    0 -0.10866088123E+02  0.31300973152E+02  0.13419598707E+03  0.13828903839E+03  0.41800000000E+01 0.  1.
         -5    1    3    3    0  502  0.75271806422E+02 -0.87938042380E+01  0.36980597780E+02  0.84428744200E+02  0.41800000000E+01 0.  1.
        -11    1    1    2    0    0 -0.75824360750E+02  0.14659554525E+02  0.19965616902E+03  0.21407200202E+03  0.00000000000E+00 0.  1.
         11    1    1    2    0    0  0.11418642450E+02 -0.37166723439E+02  0.18016824708E+03  0.18431589183E+03  0.00000000000E+00 0. -1.
</event>
<event>
 7    1  0.6671761E-006  0.1782712E+03  0.7561462E-02  0.1169487E+00
          1   -1    0    0  501    0  0.00000000000E+00  0.00000000000E+00  0.45193989043E+02  0.45193989043E+02  0.00000000000E+00 0. -1.
         -1   -1    0    0    0  501 -0.00000000000E+00 -0.00000000000E+00 -0.83812673371E+03  0.83812673371E+03  0.00000000000E+00 0.  1.
         23    2    1    2    0    0  0.89447225019E+02  0.12797009677E+03 -0.51019793363E+03  0.54802023531E+03  0.12508834917E+03 0.  0.
          5    1    3    3  502    0  0.70219094182E+02  0.15276374797E+03 -0.43851184577E+03  0.46965689089E+03  0.41800000000E+01 0.  1.
         -5    1    3    3    0  502  0.19228130837E+02 -0.24793651205E+02 -0.71686087860E+02  0.78363344417E+02  0.41800000000E+01 0.  1.
        -11    1    1    2    0    0 -0.49497714026E+02 -0.82230192870E+02 -0.84173596688E+02  0.12765979278E+03  0.00000000000E+00 0. -1.
         11    1    1    2    0    0 -0.39949510992E+02 -0.45739903897E+02 -0.19856121435E+03  0.20764069467E+03  0.00000000000E+00 0.  1.
</event>
<event>
 7    1  0.6671761E-006  0.1588078E+03  0.7561462E-02  0.1190049E+00
          2   -1    0    0  501    0  0.00000000000E+00  0.00000000000E+00  0.14729278583E+03  0.14729278583E+03  0.00000000000E+00 0.  1.
         -2   -1    0    0    0  501 -0.00000000000E+00 -0.00000000000E+00 -0.31049716574E+03  0.31049716574E+03  0.00000000000E+00 0. -1.
         23    2    1    2    0    0 -0.11255243681E+03  0.92990034079E+02 -0.20417008896E+03  0.28045114060E+03  0.12510883089E+03 0.  0.
          5    1    3    3  502    0 -0.41166672918E+02 -0.76941762260E+01 -0.29274101272E+00  0.42088637471E+02  0.41800000000E+01 0.  1.
         -5    1    3    3    0  502 -0.71385763894E+02  0.10068421030E+03 -0.20387734794E+03  0.23836250312E+03  0.41800000000E+01 0.  1.
        -11    1    1    2    0    0  0.91795450237E+02 -0.93823836620E+02  0.64244018882E+02  0.14613901247E+03  0.00000000000E+00 0.  1.
         11    1    1    2    0    0  0.20756986575E+02  0.83380254144E+00 -0.23278309831E+02  0.31199798508E+02  0.00000000000E+00 0. -1.
</event>
<event>
 7    1  0.6671761E-006  0.1208825E+03  0.7561462E-02  0.1241648E+00
         -1   -1    0    0    0  501 -0.00000000000E+00  0.00000000000E+00  0.74834497135E+02  0.74834497135E+02  0.00000000000E+00 0.  1.
          1   -1    0    0  501    0  0.00000000000E+00 -0.00000000000E+00 -0.21844460182E+03  0.21844460182E+03  0.00000000000E+00 0. -1.
         23    2    1    2    0    0 -0.57450375127E+02 -0.21958951893E+02 -0.50579467321E+02  0.14828553651E+03  0.12509027402E+03 0.  0.
          5    1    3    3  502    0 -0.93356033534E+02 -0.35798295585E+02 -0.42616544677E+02  0.10876814444E+03  0.41800000000E+01 0. -1.
         -5    1    3    3    0  502  0.35905658407E+02  0.13839343691E+02 -0.79629226434E+01  0.39517392076E+02  0.41800000000E+01 0. -1.
        -11    1    1    2    0    0 -0.15054933467E+02 -0.15302814731E+02 -0.46288307882E+02  0.51023863113E+02  0.00000000000E+00 0. -1.
         11    1    1    2    0    0  0.72505308594E+02  0.37261766625E+02 -0.46742329480E+02  0.93969699327E+02  0.00000000000E+00 0.  1.
</event>
<event>
 7    1  0.6671761E-006  0.1750831E+03  0.7561462E-02  0.1172648E+00
         -1   -1    0    0    0  501 -0.00000000000E+00  0.00000000000E+00  0.17793702987E+03  0.17793702987E+03  0.00000000000E+00 0.  1.
          1   -1    0    0  501    0  0.00000000000E+00 -0.00000000000E+00 -0.22801395539E+03  0.22801395539E+03  0.00000000000E+00 0. -1.
         23    2    1    2    0    0 -0.88851918307E+02  0.11099777768E+03  0.66561813159E+02  0.20073078648E+03  0.12508878299E+03 0.  0.
          5    1    3    3  502    0 -0.86816948221E+02  0.13649935781E+03  0.66106146234E+02  0.17480489739E+03  0.41800000000E+01 0. -1.
         -5    1    3    3    0  502 -0.20349700860E+01 -0.25501580131E+02  0.45566692438E+00  0.25925889084E+02  0.41800000000E+01 0. -1.
        -11    1    1    2    0    0  0.44685576510E+02 -0.19040792870E+01 -0.87834960990E+01  0.45580435163E+02  0.00000000000E+00 0.  1.
         11    1    1    2    0    0  0.44166341797E+02 -0.10909369840E+03 -0.10785524258E+03  0.15963976362E+03  0.00000000000E+00 0. -1.
</event>
<event>
 7    1  0.6671761E-006  0.1987339E+03  0.7561462E-02  0.1150812E+00
          1   -1    0    0  501    0  0.00000000000E+00  0.00000000000E+00  0.20815426251E+03  0.20815426251E+03  0.00000000000E+00 0. -1.
         -1   -1    0    0    0  501 -0.00000000000E+00 -0.00000000000E+00 -0.21451192961E+03  0.21451192961E+03  0.00000000000E+00 0.  1.
         23    2    1    2    0    0 -0.11223495817E+03 -0.13878914873E+03 -0.35071139699E+02  0.22076449527E+03  0.12509142213E+03 0.  0.
          5    1    3    3  502    0 -0.46592241217E+02 -0.14418700097E+03 -0.18429052258E+02  0.15270176999E+03  0.41800000000E+01 0. -1.
         -5    1    3    3    0  502 -0.65642716957E+02  0.53978522429E+01 -0.16642087441E+02  0.68062725282E+02  0.41800000000E+01 0. -1.
        -11    1    1    2    0    0  0.81171757118E+02  0.11498851927E+03 -0.16944018025E+02  0.14176852071E+03  0.00000000000E+00 0.  1.
         11    1    1    2    0    0  0.31063201056E+02  0.23800629460E+02  0.45657490625E+02  0.60133176140E+02  0.00000000000E+00 0. -1.
</event>
<event>
 7    1  0.6671761E-006  0.1126351E+03  0.7561462E-02  0.1255767E+00
          2   -1    0    0  501    0  0.00000000000E+00  0.00000000000E+00  0.17775455671E+03  0.17775455671E+03  0.00000000000E+00 0. -1.
         -2   -1    0    0    0  501 -0.00000000000E+00 -0.00000000000E+00 -0.82553275306E+02  0.82553275306E+02  0.00000000000E+00 0.  1.
         23    2    1    2    0    0 -0.32577707619E+02 -0.10811564234E+02  0.10036560799E+02  0.13010239078E+03  0.12509077736E+03 0.  0.
          5    1    3    3  502    0 -0.27258335081E+02  0.56003841352E+02  0.18995912992E+01  0.62454206621E+02  0.41800000000E+01 0. -1.
         -5    1    3    3    0  502 -0.53193725374E+01 -0.66815405585E+02  0.81369694997E+01  0.67648184162E+02  0.41800000000E+01 0. -1.
        -11    1    1    2    0    0  0.41574920982E+02  0.44452424580E+02  0.38648613449E+02  0.72098595182E+02  0.00000000000E+00 0. -1.
         11    1    1    2    0    0 -0.89972133632E+01 -0.33640860347E+02  0.46516107160E+02  0.58106846055E+02  0.00000000000E+00 0.  1.
</event>
<event>
 7    1  0.6671761E-006  0.8156071E+02  0.7561462E-02  0.1324680E+00
          1   -1    0    0  501    0  0.00000000000E+00  0.00000000000E+00  0.11511892876E+03  0.11511892876E+03  0.00000000000E+00 0. -1.
         -1   -1    0    0    0  501 -0.00000000000E+00 -0.00000000000E+00 -0.12731295177E+03  0.12731295177E+03  0.00000000000E+00 0.  1.
         23    2    1    2    0    0 -0.31193774171E+02  0.23633389860E+02 -0.42421609534E+02  0.13776158779E+03  0.12508826264E+03 0.  0.
          5    1    3    3  502    0  0.30426314618E+02  0.11788688633E+02  0.28106061896E+02  0.43268428631E+02  0.41800000000E+01 0.  1.
         -5    1    3    3    0  502 -0.61620088790E+02  0.11844701227E+02 -0.70527671430E+02  0.94493159154E+02  0.41800000000E+01 0.  1.
        -11    1    1    2    0    0  0.26319446304E+02  0.13710624541E+02 -0.24331016421E+02  0.38375680308E+02  0.00000000000E+00 0.  1.
         11    1    1    2    0    0  0.48743278671E+01 -0.37344014401E+02  0.54558602941E+02  0.66294612440E+02  0.00000000000E+00 0. -1.
</event>
<event>
 7    1  0.6671761E-006  0.1831278E+03  0.7561462E-02  0.1164810E+00
          1   -1    0    0  501    0  0.00000000000E+00  0.00000000000E+00  0.10195790430E+03  0.10195790430E+03  0.00000000000E+00 0. -1.
         -1   -1    0    0    0  501 -0.00000000000E+00 -0.00000000000E+00 -0.57593611012E+03  0.57593611012E+03  0.00000000000E+00 0.  1.
         23    2    1    2    0    0  0.15873512504E+03 -0.16477973320E+02 -0.44701807261E+03  0.49085773082E+03  0.12509113136E+03 0.  0.
          5    1    3    3  502    0 -0.18026891016E+02  0.59430809460E+01 -0.18845004568E+02  0.27072044769E+02  0.41800000000E+01 0.  1.
         -5    1    3    3    0  502  0.17676201605E+03 -0.22421054266E+02 -0.42817306804E+03  0.46378568605E+03  0.41800000000E+01 0.  1.
        -11    1    1    2    0    0 -0.10039881957E+03 -0.16245260452E+02  0.22109271523E+02  0.10408002376E+03  0.00000000000E+00 0. -1.
         11    1    1    2    0    0 -0.58336305472E+02  0.32723233773E+02 -0.49069404739E+02  0.82956259837E+02  0.00000000000E+00 0.  1.
</event>
<event>
 6    1  0.6671761E-006  0.2860059E+03  0.7561462E-02  0.1092453E+00
          1   -1    0    0  501    0  0.00000000000E+00  0.00000000000E+00  0.59094735193E+03  0.59094735193E+03  0.00000000000E+00 0. -1.
         -1   -1    0    0    0  501 -0.00000000000E+00 -0.00000000000E+00 -0.15593309756E+03  0.15593309756E+03  0.00000000000E+00 0.  1.
          5    1    1    2  502    0  0.16119722565E+03  0.14040384666E+02  0.45693919972E+02  0.16818764723E+03  0.41800000000E+01 0. -1.
         -5    1    1    2    0  502  0.94521048628E+02 -0.10255453914E+03  0.96454695403E+02  0.16962500640E+03  0.41800000000E+01 0.  1.
        -11    1    1    2    0    0 -0.96532186293E+02  0.31983106763E+02  0.50235759810E+02  0.11342404363E+03  0.00000000000E+00 0. -1.
         11    1    1    2    0    0 -0.15918608799E+03  0.56531047708E+02  0.24262987919E+03  0.29564375224E+03  0.00000000000E+00 0.  1.
</event>
<event>
 7    1  0.6671761E-006  0.2520666E+03  0.7561462E-02  0.1112006E+00
         -2   -1    0    0    0  501 -0.00000000000E+00  0.00000000000E+00  0.23754919527E+03  0.23754919527E+03  0.00000000000E+00 0.  1.
          2   -1    0    0  501    0  0.00000000000E+00 -0.00000000000E+00 -0.60795348340E+03  0.60795348340E+03  0.00000000000E+00 0. -1.
         23    2    1    2    0    0  0.18846246376E+03  0.15305137667E+03  0.11466690524E+03  0.29620439131E+03  0.12508284505E+03 0.  0.
          5    1    3    3  502    0  0.42892069994E+02  0.89747962605E+02 -0.13101378344E+01  0.99567139766E+02  0.41800000000E+01 0.  1.
         -5    1    3    3    0  502  0.14557039376E+03  0.63303414066E+02  0.11597704308E+03  0.19663725154E+03  0.41800000000E+01 0.  1.
        -11    1    1    2    0    0 -0.15975818498E+03 -0.10973044367E+03 -0.43887825864E+03  0.47976825014E+03  0.00000000000E+00 0. -1.
         11    1    1    2    0    0 -0.28704278776E+02 -0.43320932997E+02 -0.46192934739E+02  0.69530037218E+02  0.00000000000E+00 0.  1.
</event>
<event>
 7    1  0.6671761E-006  0.3634383E+03  0.7561462E-02  0.1057231E+00
          1   -1    0    0  501    0  0.00000000000E+00  0.00000000000E+00  0.53870376962E+03  0.53870376962E+03  0.00000000000E+00 0. -1.
         -1   -1    0    0    0  501 -0.00000000000E+00 -0.00000000000E+00 -0.25924028628E+03  0.25924028628E+03  0.00000000000E+00 0.  1.
         23    2    1    2    0    0 -0.32411306676E+03 -0.12820847742E+03  0.58386886773E+02  0.37489490583E+03  0.12510183110E+03 0.  0.
          5    1    3    3  502    0 -0.27258518931E+03 -0.55190445621E+02  0.63423065357E+02  0.28528692283E+03  0.41800000000E+01 0.  1.
         -5    1    3    3    0  502 -0.51527877448E+02 -0.73018031803E+02 -0.50361785840E+01  0.89607983000E+02  0.41800000000E+01 0.  1.
        -11    1    1    2    0    0  0.17798536661E+03  0.11637923127E+03  0.11223220598E+03  0.24045578441E+03  0.00000000000E+00 0.  1.
         11    1    1    2    0    0  0.14612770015E+03  0.11829246149E+02  0.10884439059E+03  0.18259336565E+03  0.00000000000E+00 0. -1.
</event>
<event>
 7    1  0.6671761E-006  0.1217326E+03  0.7561462E-02  0.1240266E+00
         -1   -1    0    0    0  501 -0.00000000000E+00  0.00000000000E+00  0.34546643060E+02  0.34546643060E+02  0.00000000000E+00 0.  1.
          1   -1    0    0  501    0  0.00000000000E+00 -0.00000000000E+00 -0.49800292214E+03  0.49800292214E+03  0.00000000000E+00 0. -1.
         23    2    1    2    0    0  0.37555787599E+02 -0.45463595269E+02 -0.16432073343E+03  0.21476324291E+03  0.12507826107E+03 0.  0.
          5    1    3    3  502    0  0.77523319351E+02 -0.20897398086E+01 -0.10863223391E+03  0.13353900816E+03  0.41800000000E+01 0.  1.
         -5    1    3    3    0  502 -0.39967531752E+02 -0.43373855461E+02 -0.55688499521E+02  0.81224234750E+02  0.41800000000E+01 0.  1.
        -11    1    1    2    0    0 -0.45619500351E+02 -0.13173691820E+02 -0.14993083321E+03  0.15727027601E+03  0.00000000000E+00 0. -1.
         11    1    1    2    0    0  0.80637127517E+01  0.58637287089E+02 -0.14920471243E+03  0.16051604627E+03  0.00000000000E+00 0.  1.
</event>
<event>
 7    1  0.6671761E-006  0.1081855E+03  0.7561462E-02  0.1263967E+00
          1   -1    0    0  501    0  0.00000000000E+00  0.00000000000E+00  0.25708269728E+02  0.25708269728E+02  0.00000000000E+00 0. -1.
         -1   -1    0    0    0  501 -0.00000000000E+00 -0.00000000000E+00 -0.56255192440E+03  0.56255192440E+03  0.00000000000E+00 0.  1.
         23    2    1    2    0    0 -0.40294769742E+02 -0.11554102121E+02 -0.37498902591E+03  0.39751871939E+03  0.12508875636E+03 0.  0.
          5    1    3    3  502    0  0.32009518028E+02  0.18311897210E+02 -0.44863050609E+02  0.58224569846E+02  0.41800000000E+01 0.  1.
         -5    1    3    3    0  502 -0.72304287770E+02 -0.29865999331E+02 -0.33012597530E+03  0.33929414954E+03  0.41800000000E+01 0.  1.
        -11    1    1    2    0    0  0.43797401564E+02 -0.33864618513E+02 -0.89865121969E+02  0.10554982197E+03  0.00000000000E+00 0.  1.
         11    1    1    2    0    0 -0.35026318217E+01  0.45418720633E+02 -0.71989506792E+02  0.85191652771E+02  0.00000000000E+00 0. -1.
</event>
<event>
 7    1  0.6671761E-006  0.1037063E+03  0.7561462E-02  0.1272690E+00
         -2   -1    0    0    0  501 -0.00000000000E+00  0.00000000000E+00  0.20298117741E+03  0.20298117741E+03  0.00000000000E+00 0.  1.
          2   -1    0    0  501    0  0.00000000000E+00 -0.00000000000E+00 -0.60953948160E+02  0.60953948160E+02  0.00000000000E+00 0. -1.
         23    2    1    2    0    0  0.18669482460E+01 -0.22851462333E+02  0.84601510708E+02  0.15274432735E+03  0.12509092332E+03 0.  0.
          5    1    3    3  502    0 -0.56422369049E+02 -0.95134683072E+00  0.13565640620E+02  0.58188381962E+02  0.41800000000E+01 0. -1.
         -5    1    3    3    0  502  0.58289317295E+02 -0.21900115503E+02  0.71035870088E+02  0.94555945391E+02  0.41800000000E+01 0. -1.
        -11    1    1    2    0    0 -0.11986271125E+02  0.54183881654E+02  0.14996234397E+02  0.57484352416E+02  0.00000000000E+00 0. -1.
         11    1    1    2    0    0  0.10119322879E+02 -0.31332419320E+02  0.42429484147E+02  0.53706445805E+02  0.00000000000E+00 0.  1.
</event>
<event>
 7    1  0.6671761E-006  0.1182331E+03  0.7561462E-02  0.1246041E+00
          1   -1    0    0  501    0  0.00000000000E+00  0.00000000000E+00  0.50218418056E+03  0.50218418056E+03  0.00000000000E+00 0. -1.
         -1   -1    0    0    0  501 -0.00000000000E+00 -0.00000000000E+00 -0.52347519242E+02  0.52347519242E+02  0.00000000000E+00 0.  1.
         23    2    1    2    0    0  0.63953635566E+01 -0.31259929407E+02  0.55219837535E+02  0.14042575320E+03  0.12510826449E+03 0.  0.
          5    1    3    3  502    0  0.35195541078E+02 -0.60470886134E+02  0.67594610049E+02  0.97375345387E+02  0.41800000000E+01 0.  1.
         -5    1    3    3    0  502 -0.28800177522E+02  0.29210956727E+02 -0.12374772514E+02  0.43050407814E+02  0.41800000000E+01 0.  1.
        -11    1    1    2    0    0 -0.62158720215E+02  0.30809383962E+02  0.23512068306E+03  0.24514212253E+03  0.00000000000E+00 0. -1.
         11    1    1    2    0    0  0.55763356658E+02  0.45054544471E+00  0.15949614072E+03  0.16896382406E+03  0.00000000000E+00 0.  1.
</event>
<event>
 7    1  0.6671761E-006  0.1246165E+03  0.7561462E-02  0.1235670E+00
          2   -1    0    0  501    0  0.00000000000E+00  0.00000000000E+00  0.60711083828E+02  0.60711083828E+02  0.00000000000E+00 0. -1.
         -2   -1    0    0    0  501 -0.00000000000E+00 -0.00000000000E+00 -0.29166909864E+03  0.29166909864E+03  0.00000000000E+00 0.  1.
         23    2    1    2    0    0 -0.49896202077E+02 -0.41361516284E+02 -0.18256378716E+03  0.23060334788E+03  0.12509181293E+03 0.  0.
          5    1    3    3  502    0  0.66296036295E+01 -0.74350259575E+02 -0.87135816369E+02  0.11481304646E+03  0.41800000000E+01 0. -1.
         -5    1    3    3    0  502 -0.56525805706E+02  0.32988743291E+02 -0.95427970790E+02  0.11579030142E+03  0.41800000000E+01 0. -1.
        -11    1    1    2    0    0 -0.10786976815E+02  0.46740006288E+02 -0.35055089648E+02  0.59412510188E+02  0.00000000000E+00 0.  1.
         11    1    1    2    0    0  0.60683178891E+02 -0.53784900037E+01 -0.13339138007E+02  0.62364324400E+02  0.00000000000E+00 0. -1.
</event>
<event>
 7    1  0.6671761E-006  0.1218296E+03  0.7561462E-02  0.1240109E+00
         -1   -1    0    0    0  501 -0.00000000000E+00  0.00000000000E+00  0.31090267067E+03  0.31090267067E+03  0.00000000000E+00 0.  1.
          1   -1    0    0  501    0  0.00000000000E+00 -0.00000000000E+00 -0.63301101213E+02  0.63301101213E+02  0.00000000000E+00 0. -1.
         23    2    1    2    0    0 -0.75051840585E+02  0.22984855798E+02  0.19079010786E+03  0.24126533190E+03  0.12508802000E+03 0.  0.
          5    1    3    3  502    0 -0.10565135365E+03  0.15785900497E+02  0.17679163932E+03  0.20660145042E+03  0.41800000000E+01 0.  1.
         -5    1    3    3    0  502  0.30599513066E+02  0.71989553004E+01  0.13998468537E+02  0.34663881472E+02  0.41800000000E+01 0.  1.
        -11    1    1    2    0    0  0.37302412011E+02  0.24313001125E+02  0.57117432595E+02  0.72422324402E+02  0.00000000000E+00 0.  1.
         11    1    1    2    0    0  0.37749428574E+02 -0.47297856922E+02 -0.30597099895E+00  0.60516115584E+02  0.00000000000E+00 0. -1.
</event>
<event>
 7    1  0.6671761E-006  0.7734707E+02  0.7561462E-02  0.1336753E+00
         -4   -1    0    0    0  501 -0.00000000000E+00  0.00000000000E+00  0.17450224210E+03  0.17450224210E+03  0.00000000000E+00 0.  1.
          4   -1    0    0  501    0  0.00000000000E+00 -0.00000000000E+00 -0.76182823343E+02  0.76182823343E+02  0.00000000000E+00 0. -1.
         23    2    1    2    0    0 -0.35999927155E+02  0.13910581059E+02  0.51881981260E+02  0.14081473234E+03  0.12509016686E+03 0.  0.
          5    1    3    3  502    0 -0.29265780243E+02  0.29456265992E+02  0.89827925345E+02  0.99048907471E+02  0.41800000000E+01 0. -1.
         -5    1    3    3    0  502 -0.67341469125E+01 -0.15545684933E+02 -0.37945944085E+02  0.41765824871E+02  0.41800000000E+01 0. -1.
        -11    1    1    2    0    0 -0.19082912608E+02 -0.32235669634E+02  0.33809473748E+02  0.50461633599E+02  0.00000000000E+00 0.  1.
         11    1    1    2    0    0  0.55082839764E+02  0.18325088574E+02  0.12627963746E+02  0.59408699498E+02  0.00000000000E+00 0. -1.
</event>
<event>
 7    1  0.6671761E-006  0.1747419E+03  0.7561462E-02  0.1172991E+00
          2   -1    0    0  501    0  0.00000000000E+00  0.00000000000E+00  0.87323699979E+02  0.87323699979E+02  0.00000000000E+00 0. -1.
         -2   -1    0    0    0  501 -0.00000000000E+00 -0.00000000000E+00 -0.57004755957E+03  0.57004755957E+03  0.00000000000E+00 0.  1.
         23    2    1    2    0    0 -0.11990435029E+03 -0.76557195169E+02 -0.44720029895E+03  0.48566843922E+03  0.12509063967E+03 0.  0.
          5    1    3    3  502    0  0.18878297634E+02 -0.34691372058E+02 -0.57705416160E+02  0.70051901266E+02  0.41800000000E+01 0. -1.
         -5    1    3    3    0  502 -0.13878264792E+03 -0.41865823111E+02 -0.38949488279E+03  0.41561653796E+03  0.41800000000E+01 0. -1.
        -11    1    1    2    0    0  0.10152464037E+03  0.17659701219E+02 -0.38313495737E+02  0.10994108243E+03  0.00000000000E+00 0.  1.
         11    1    1    2    0    0  0.18379709916E+02  0.58897493950E+02  0.27899350955E+01  0.61761737897E+02  0.00000000000E+00 0. -1.
</event>
<event>
 7    1  0.6671761E-006  0.5983348E+02  0.7561462E-02  0.1398532E+00
         -1   -1    0    0    0  501 -0.00000000000E+00  0.00000000000E+00  0.14854195837E+03  0.14854195837E+03  0.00000000000E+00 0.  1.
          1   -1    0    0  501    0  0.00000000000E+00 -0.00000000000E+00 -0.90678909996E+02  0.90678909996E+02  0.00000000000E+00 0. -1.
         23    2    1    2    0    0 -0.42449762089E+02  0.19312241539E+02  0.40052426846E+02  0.13937798628E+03  0.12508829357E+03 0.  0.
          5    1    3    3  502    0 -0.17658382087E+02  0.18848589412E+02  0.84419227040E+02  0.88380801506E+02  0.41800000000E+01 0. -1.
         -5    1    3    3    0  502 -0.24791380002E+02  0.46365212613E+00 -0.44366800194E+02  0.50997184776E+02  0.41800000000E+01 0. -1.
        -11    1    1    2    0    0 -0.11551608274E+02 -0.40429675084E+01  0.38217304252E+02  0.40129136351E+02  0.00000000000E+00 0.  1.
         11    1    1    2    0    0  0.54001370362E+02 -0.15269274030E+02 -0.20406682720E+02  0.59713745738E+02  0.00000000000E+00 0. -1.
</event>
<event>
 7    1  0.6671761E-006  0.5446357E+02  0.7561462E-02  0.1422653E+00
         -2   -1    0    0    0  501 -0.00000000000E+00  0.00000000000E+00  0.98578475082E+02  0.98578475082E+02  0.00000000000E+00 0.  1.
          2   -1    0    0  501    0  0.00000000000E+00 -0.00000000000E+00 -0.13068188435E+03  0.13068188435E+03  0.00000000000E+00 0. -1.
         23    2    1    2    0    0  0.17441517358E+02  0.29915361089E+02 -0.24830215733E+02  0.13214061713E+03  0.12508184410E+03 0.  0.
          5    1    3    3  502    0 -0.78816327816E+01  0.23191225983E+02  0.48316048768E+02  0.54331078274E+02  0.41800000000E+01 0.  1.
         -5    1    3    3    0  502  0.25323150140E+02  0.67241351064E+01 -0.73146264501E+02  0.77809538852E+02  0.41800000000E+01 0.  1.
        -11    1    1    2    0    0 -0.25261319678E+02  0.13707722204E+01 -0.42438153423E+02  0.49406580071E+02  0.00000000000E+00 0. -1.
         11    1    1    2    0    0  0.78198023202E+01 -0.31286133309E+02  0.35164959892E+02  0.47713162230E+02  0.00000000000E+00 0.  1.
</event>
<event>
 7    1  0.6671761E-006  0.8863791E+02  0.7561462E-02  0.1306184E+00
         -1   -1    0    0    0  501 -0.00000000000E+00  0.00000000000E+00  0.22181350227E+03  0.22181350227E+03  0.00000000000E+00 0.  1.
          1   -1    0    0  501    0  0.00000000000E+00 -0.00000000000E+00 -0.61728034677E+02  0.61728034677E+02  0.00000000000E+00 0. -1.
         23    2    1    2    0    0 -0.19765076304E+02  0.25330837520E+02  0.12796707120E+03  0.18180997064E+03  0.12508790725E+03 0.  0.
          5    1    3    3  502    0  0.29774442080E+02  0.37410739867E+01 -0.11323820412E+02  0.32345236813E+02  0.41800000000E+01 0. -1.
         -5    1    3    3    0  502 -0.49539518384E+02  0.21589763533E+02  0.13929089161E+03  0.14946473383E+03  0.41800000000E+01 0. -1.
        -11    1    1    2    0    0 -0.33893564225E+02 -0.11288196975E+01  0.25635536104E+02  0.42511511866E+02  0.00000000000E+00 0.  1.
         11    1    1    2    0    0  0.53658640528E+02 -0.24202017822E+02  0.64828602811E+01  0.59220054436E+02  0.00000000000E+00 0. -1.
</event>
<event>
 7    1  0.6671761E-006  0.2703395E+03  0.7561462E-02  0.1101085E+00
          2   -1    0    0  501    0  0.00000000000E+00  0.00000000000E+00  0.22779631326E+03  0.22779631326E+03  0.00000000000E+00 0. -1.
         -2   -1    0    0    0  501 -0.00000000000E+00 -0.00000000000E+00 -0.38726692699E+03  0.38726692699E+03  0.00000000000E+00 0.  1.
         23    2    1    2    0    0  0.12941097111E+03 -0.22977312935E+03 -0.16789952791E+03  0.33672035320E+03  0.12508978524E+03 0.  0.
          5    1    3    3  502    0  0.77278920371E+02 -0.11327167325E+03 -0.15709254332E+03  0.20856184469E+03  0.41800000000E+01 0.  1.
         -5    1    3    3    0  502  0.52132050735E+02 -0.11650145609E+03 -0.10806984588E+02  0.12815850850E+03  0.41800000000E+01 0.  1.
        -11    1    1    2    0    0 -0.36706104978E+02  0.14699115937E+03  0.22867166111E+02  0.15322090707E+03  0.00000000000E+00 0. -1.
         11    1    1    2    0    0 -0.92704866128E+02  0.82781969974E+02 -0.14438251936E+02  0.12512197999E+03  0.00000000000E+00 0.  1.
</event>
<event>
 7    1  0.6671761E-006  0.1076887E+03  0.7561462E-02  0.1264911E+00
          3   -1    0    0  501    0  0.00000000000E+00  0.00000000000E+00  0.50867609961E+02  0.50867609961E+02  0.00000000000E+00 0. -1.
         -3   -1    0    0    0  501 -0.00000000000E+00 -0.00000000000E+00 -0.26409675885E+03  0.26409675885E+03  0.00000000000E+00 0.  1.
         23    2    1    2    0    0 -0.82179346835E+01  0.10877451800E+02 -0.17322289323E+03  0.21410213470E+03  0.12509076680E+03 0.  0.
          5    1    3    3  502    0  0.15339978639E+01 -0.55718821628E+02 -0.57687477522E+02  0.80325946592E+02  0.41800000000E+01 0. -1.
         -5    1    3    3    0  502 -0.97519325474E+01  0.66596273429E+02 -0.11553541571E+03  0.13377618811E+03  0.41800000000E+01 0. -1.
        -11    1    1    2    0    0  0.42400273020E+02  0.19170874119E+02 -0.14763632199E+02  0.48818750520E+02  0.00000000000E+00 0. -1.
         11    1    1    2    0    0 -0.34182338337E+02 -0.30048325919E+02 -0.25242623462E+02  0.52043483588E+02  0.00000000000E+00 0.  1.
</event>
<event>
 7    1  0.6671761E-006  0.1189899E+03  0.7561462E-02  0.1244773E+00
         -2   -1    0    0    0  501 -0.00000000000E+00  0.00000000000E+00  0.38593998484E+02  0.38593998484E+02  0.00000000000E+00 0.  1.
          2   -1    0    0  501    0  0.00000000000E+00 -0.00000000000E+00 -0.42636681747E+03  0.42636681747E+03  0.00000000000E+00 0. -1.
         23    2    1    2    0    0  0.64716305614E+02 -0.19771198007E+02 -0.22714308453E+03  0.26800071554E+03  0.12510516456E+03 0.  0.
          5    1    3    3  502    0  0.96446692749E+02 -0.22821919282E+02 -0.11766866039E+03  0.15390318574E+03  0.41800000000E+01 0. -1.
         -5    1    3    3    0  502 -0.31730387135E+02  0.30507212747E+01 -0.10947442414E+03  0.11409752981E+03  0.41800000000E+01 0. -1.
        -11    1    1    2    0    0  0.14424961886E+01 -0.26091430836E+02 -0.13899836322E+02  0.29598125077E+02  0.00000000000E+00 0.  1.
         11    1    1    2    0    0 -0.66158801802E+02  0.45862628843E+02 -0.14672989814E+03  0.16736197534E+03  0.00000000000E+00 0. -1.
</event>
<event>
 7    1  0.6671761E-006  0.8331547E+02  0.7561462E-02  0.1319897E+00
         -4   -1    0    0    0  501 -0.00000000000E+00  0.00000000000E+00  0.52010592878E+03  0.52010592878E+03  0.00000000000E+00 0.  1.
          4   -1    0    0  501    0  0.00000000000E+00 -0.00000000000E+00 -0.29612200650E+02  0.29612200650E+02  0.00000000000E+00 0. -1.
         23    2    1    2    0    0  0.40800807965E+02 -0.86246116523E+01  0.38279910849E+03  0.40538111659E+03  0.12672648645E+03 0.  0.
          5    1    3    3  502    0  0.33374125396E+02 -0.35654845153E+02  0.45455072691E+02  0.66848607033E+02  0.41800000000E+01 0. -1.
         -5    1    3    3    0  502  0.74266825690E+01  0.27030233501E+02  0.33734403580E+03  0.33853250955E+03  0.41800000000E+01 0.  1.
        -11    1    1    2    0    0  0.11797370225E+02 -0.24444931415E+02  0.10754863900E+02  0.29195885217E+02  0.00000000000E+00 0.  1.
         11    1    1    2    0    0 -0.52598178190E+02  0.33069543067E+02  0.96939755740E+02  0.11514112762E+03  0.00000000000E+00 0. -1.
</event>
<event>
 7    1  0.6671761E-006  0.1111058E+03  0.7561462E-02  0.1258536E+00
         -2   -1    0    0    0  501 -0.00000000000E+00  0.00000000000E+00  0.16738665042E+02  0.16738665042E+02  0.00000000000E+00 0.  1.
          2   -1    0    0  501    0  0.00000000000E+00 -0.00000000000E+00 -0.80722643361E+03  0.80722643361E+03  0.00000000000E+00 0. -1.
         23    2    1    2    0    0 -0.33662520838E+02 -0.15873544963E+02 -0.37497811672E+03  0.39704150983E+03  0.12509291656E+03 0.  0.
          5    1    3    3  502    0 -0.70104874822E+02  0.21490892191E+02 -0.16454155809E+03  0.18018864742E+03  0.41800000000E+01 0. -1.
         -5    1    3    3    0  502  0.36442353984E+02 -0.37364437154E+02 -0.21043655863E+03  0.21685286241E+03  0.41800000000E+01 0. -1.
        -11    1    1    2    0    0 -0.99765903915E+01  0.43585403426E+02 -0.15429962068E+03  0.16064741731E+03  0.00000000000E+00 0.  1.
         11    1    1    2    0    0  0.43639111230E+02 -0.27711858463E+02 -0.26121003117E+03  0.26627617150E+03  0.00000000000E+00 0. -1.
</event>
<event>
 7    1  0.6671761E-006  0.1174306E+03  0.7561462E-02  0.1247397E+00
         -1   -1    0    0    0  501 -0.00000000000E+00  0.00000000000E+00  0.15129417677E+03  0.15129417677E+03  0.00000000000E+00 0.  1.
          1   -1    0    0  501    0  0.00000000000E+00 -0.00000000000E+00 -0.15288888789E+03  0.15288888789E+03  0.00000000000E+00 0. -1.
         23    2    1    2    0    0  0.85543253163E+02  0.10039468532E+02  0.57045187831E+02  0.16222955797E+03  0.12508331997E+03 0.  0.
          5    1    3    3  502    0  0.51564832730E+02 -0.42337532461E+02 -0.13217130466E+02  0.68143697927E+02  0.41800000000E+01 0.  1.
         -5    1    3    3    0  502  0.33978420433E+02  0.52377000993E+02  0.70262318297E+02  0.94085860046E+02  0.41800000000E+01 0.  1.
        -11    1    1    2    0    0 -0.77260016856E+02  0.15316987710E+02 -0.13696169086E+01  0.78775606424E+02  0.00000000000E+00 0.  1.
         11    1    1    2    0    0 -0.82832363074E+01 -0.25356456243E+02 -0.57270282039E+02  0.63177900264E+02  0.00000000000E+00 0. -1.
</event>
<event>
 7    1  0.6671761E-006  0.1527990E+03  0.7561462E-02  0.1197075E+00
          2   -1    0    0  501    0  0.00000000000E+00  0.00000000000E+00  0.17081138565E+03  0.17081138565E+03  0.00000000000E+00 0. -1.
         -2   -1    0    0    0  501 -0.00000000000E+00 -0.00000000000E+00 -0.23111557068E+03  0.23111557068E+03  0.00000000000E+00 0.  1.
         23    2    1    2    0    0  0.79483727163E+02 -0.12822916336E+03 -0.70665258464E+02  0.20833640826E+03  0.12510035584E+03 0.  0.
          5    1    3    3  502    0  0.12629564343E+02 -0.48513303764E+02  0.33987158105E+02  0.60709520289E+02  0.41800000000E+01 0.  1.
         -5    1    3    3    0  502  0.66854162820E+02 -0.79715859591E+02 -0.10465241657E+03  0.14762688797E+03  0.41800000000E+01 0.  1.
        -11    1    1    2    0    0 -0.53637729862E+02  0.77706173566E+02 -0.53203854546E+02  0.10837852930E+03  0.00000000000E+00 0.  1.
         11    1    1    2    0    0 -0.25845997301E+02  0.50522989790E+02  0.63564927987E+02  0.85212018776E+02  0.00000000000E+00 0. -1.
</event>
<event>
 7    1  0.6671761E-006  0.1302387E+03  0.7561462E-02  0.1227102E+00
         -1   -1    0    0    0  501 -0.00000000000E+00  0.00000000000E+00  0.71090986898E+02  0.71090986898E+02  0.00000000000E+00 0.  1.
          1   -1    0    0  501    0  0.00000000000E+00 -0.00000000000E+00 -0.30092548624E+03  0.30092548624E+03  0.00000000000E+00 0. -1.
         23    2    1    2    0    0 -0.11284303608E+01 -0.97331770950E+02 -0.10398486216E+03  0.18956388710E+03  0.12508744439E+03 0.  0.
          5    1    3    3  502    0  0.13806264500E+02 -0.12316435493E+03 -0.64147463879E+02  0.13961533149E+03  0.41800000000E+01 0. -1.
         -5    1    3    3    0  502 -0.14934694861E+02  0.25832583985E+02 -0.39837398277E+02  0.49948555609E+02  0.41800000000E+01 0. -1.
        -11    1    1    2    0    0 -0.17288143487E+02  0.76962273419E+02 -0.13249627837E+03  0.15419901173E+03  0.00000000000E+00 0. -1.
         11    1    1    2    0    0  0.18416573848E+02  0.20369497531E+02  0.66466411890E+01  0.28253574306E+02  0.00000000000E+00 0.  1.
</event>
<event>
 7    1  0.6671761E-006  0.8259623E+02  0.7561462E-02  0.1321841E+00
          1   -1    0    0  501    0  0.00000000000E+00  0.00000000000E+00  0.75744204575E+02  0.75744204575E+02  0.00000000000E+00 0. -1.
         -1   -1    0    0    0  501 -0.00000000000E+00 -0.00000000000E+00 -0.20965438284E+03  0.20965438284E+03  0.00000000000E+00 0.  1.
         23    2    1    2    0    0  0.36855533794E+02 -0.32520518175E+02 -0.12531874919E+03  0.18291934913E+03  0.12384984827E+03 0.  0.
          5    1    3    3  502    0  0.49808240659E+02 -0.12520894901E+02 -0.14362086354E+03  0.15258459454E+03  0.41800000000E+01 0.  1.
         -5    1    3    3    0  502 -0.12952706865E+02 -0.19999623274E+02  0.18302114356E+02  0.30334754592E+02  0.41800000000E+01 0.  1.
        -11    1    1    2    0    0 -0.57727040778E+02  0.36398992457E+02  0.15895699499E+02  0.70071186313E+02  0.00000000000E+00 0. -1.
         11    1    1    2    0    0  0.20871506983E+02 -0.38784742815E+01 -0.24487128576E+02  0.32408051968E+02  0.00000000000E+00 0.  1.
</event>
<event>
 7    1  0.6671761E-006  0.1270725E+03  0.7561462E-02  0.1231865E+00
          2   -1    0    0  501    0  0.00000000000E+00  0.00000000000E+00  0.25072458075E+03  0.25072458075E+03  0.00000000000E+00 0. -1.
         -2   -1    0    0    0  501 -0.00000000000E+00 -0.00000000000E+00 -0.69006505086E+02  0.69006505086E+02  0.00000000000E+00 0.  1.
         23    2    1    2    0    0  0.71302914484E+02 -0.95427276403E+01  0.77289599902E+02  0.16369599814E+03  0.12509008070E+03 0.  0.
          5    1    3    3  502    0  0.10141872069E+03  0.10113579825E+02  0.34588139039E+02  0.10771189891E+03  0.41800000000E+01 0. -1.
         -5    1    3    3    0  502 -0.30115806210E+02 -0.19656307465E+02  0.42701460863E+02  0.55984099231E+02  0.41800000000E+01 0. -1.
        -11    1    1    2    0    0 -0.21735501241E+02 -0.40206130700E+02  0.40423248188E+02  0.61016423643E+02  0.00000000000E+00 0. -1.
         11    1    1    2    0    0 -0.49567413243E+02  0.49748858341E+02  0.64005227575E+02  0.95018664055E+02  0.00000000000E+00 0.  1.
</event>
<event>
 7    1  0.6671761E-006  0.7924438E+02  0.7561462E-02  0.1331210E+00
         -1   -1    0    0    0  501 -0.00000000000E+00  0.00000000000E+00  0.15931755126E+03  0.15931755126E+03  0.00000000000E+00 0.  1.
          1   -1    0    0  501    0  0.00000000000E+00 -0.00000000000E+00 -0.95071994107E+02  0.95071994107E+02  0.00000000000E+00 0. -1.
         23    2    1    2    0    0 -0.77730097377E+01  0.64385371424E+02  0.46160236259E+02  0.14825485405E+03  0.12507133406E+03 0.  0.
          5    1    3    3  502    0  0.52246060663E+00  0.33199539455E+02  0.88638438022E+02  0.94745593460E+02  0.41800000000E+01 0.  1.
         -5    1    3    3    0  502 -0.82954703443E+01  0.31185831969E+02 -0.42478201763E+02  0.53509260589E+02  0.41800000000E+01 0.  1.
        -11    1    1    2    0    0  0.16057466647E+02  0.91507540546E+01 -0.16200081210E+02  0.24576842069E+02  0.00000000000E+00 0. -1.
         11    1    1    2    0    0 -0.82844569089E+01 -0.73536125478E+02  0.34285402103E+02  0.81557849248E+02  0.00000000000E+00 0.  1.
</event>
<event>
 6    1  0.6671761E-006  0.1615736E+03  0.7561462E-02  0.1186932E+00
         -2   -1    0    0    0  501 -0.00000000000E+00  0.00000000000E+00  0.34671031590E+02  0.34671031590E+02  0.00000000000E+00 0.  1.
          2   -1    0    0  501    0  0.00000000000E+00 -0.00000000000E+00 -0.11414719214E+04  0.11414719214E+04  0.00000000000E+00 0. -1.
          5    1    1    2  502    0 -0.16250421817E+02 -0.19454430716E+02 -0.27630595164E+03  0.27749775205E+03  0.41800000000E+01 0. -1.
         -5    1    1    2    0  502 -0.71779383190E+02 -0.10014383942E+03 -0.14011054024E+03  0.18662664416E+03  0.41800000000E+01 0.  1.
        -11    1    1    2    0    0  0.98069684967E+02  0.62707487606E+02 -0.46486195108E+03  0.47921448817E+03  0.00000000000E+00 0. -1.
         11    1    1    2    0    0 -0.10039879960E+02  0.56890782526E+02 -0.22552244687E+03  0.23280406862E+03  0.00000000000E+00 0.  1.
</event>
<event>
 6    1  0.6671761E-006  0.1078675E+03  0.7561462E-02  0.1264571E+00
          2   -1    0    0  501    0  0.00000000000E+00  0.00000000000E+00  0.30201586057E+03  0.30201586057E+03  0.00000000000E+00 0. -1.
         -2   -1    0    0    0  501 -0.00000000000E+00 -0.00000000000E+00 -0.50664416487E+02  0.50664416487E+02  0.00000000000E+00 0.  1.
          5    1    1    2  502    0  0.33485760061E+02  0.53297177022E+02  0.92746768830E+02  0.11216648668E+03  0.41800000000E+01 0. -1.
         -5    1    1    2    0  502 -0.56182322425E+02 -0.29000445521E+02  0.77235625303E+01  0.63832632811E+02  0.41800000000E+01 0.  1.
        -11    1    1    2    0    0 -0.23541750981E+02 -0.34664512041E+02  0.50085307691E+02  0.65302224164E+02  0.00000000000E+00 0.  1.
         11    1    1    2    0    0  0.46238313345E+02  0.10367780540E+02  0.10079580504E+03  0.11137893341E+03  0.00000000000E+00 0. -1.
</event>
<event>
 7    1  0.6671761E-006  0.1633941E+03  0.7561462E-02  0.1184917E+00
          2   -1    0    0  501    0  0.00000000000E+00  0.00000000000E+00  0.46612086875E+03  0.46612086875E+03  0.00000000000E+00 0. -1.
         -2   -1    0    0    0  501 -0.00000000000E+00 -0.00000000000E+00 -0.71191390920E+02  0.71191390920E+02  0.00000000000E+00 0.  1.
         23    2    1    2    0    0  0.15131650917E+03 -0.68351352289E+01  0.17173741953E+03  0.26093070111E+03  0.12509070507E+03 0.  0.
          5    1    3    3  502    0  0.68513785786E+02  0.29952067834E+02  0.15000388614E+03  0.16766008311E+03  0.41800000000E+01 0.  1.
         -5    1    3    3    0  502  0.82802723383E+02 -0.36787203063E+02  0.21733533382E+02  0.93270618000E+02  0.41800000000E+01 0.  1.
        -11    1    1    2    0    0 -0.98146404538E+02  0.30809269513E+02  0.16153669308E+03  0.19150987187E+03  0.00000000000E+00 0. -1.
         11    1    1    2    0    0 -0.53170104631E+02 -0.23974134285E+02  0.61655365226E+02  0.84871686694E+02  0.00000000000E+00 0.  1.
</event>
<event>
 7    1  0.6671761E-006  0.1503868E+03  0.7561462E-02  0.1199999E+00
          2   -1    0    0  501    0  0.00000000000E+00  0.00000000000E+00  0.49696652074E+03  0.49696652074E+03  0.00000000000E+00 0. -1.
         -2   -1    0    0    0  501 -0.00000000000E+00 -0.00000000000E+00 -0.54944197799E+02  0.54944197799E+02  0.00000000000E+00 0.  1.
         23    2    1    2    0    0 -0.12032871006E+03 -0.73301190547E+01  0.27720831021E+03  0.32714851844E+03  0.12509587027E+03 0.  0.
          5    1    3    3  502    0 -0.82704033663E+02  0.38414351277E+02  0.24074076431E+03  0.25746690578E+03  0.41800000000E+01 0.  1.
         -5    1    3    3    0  502 -0.37624676397E+02 -0.45744470331E+02  0.36467545899E+02  0.69681612666E+02  0.41800000000E+01 0.  1.
        -11    1    1    2    0    0  0.63139988740E+02 -0.40959005803E+02  0.61552411283E+02  0.97226527600E+02  0.00000000000E+00 0.  1.
         11    1    1    2    0    0  0.57188721320E+02  0.48289124858E+02  0.10326160145E+03  0.12753567250E+03  0.00000000000E+00 0. -1.
</event>
<event>
 7    1  0.6671761E-006  0.2515770E+03  0.7561462E-02  0.1112312E+00
         -1   -1    0    0    0  501 -0.00000000000E+00  0.00000000000E+00  0.45469074165E+03  0.45469074165E+03  0.00000000000E+00 0.  1.
          1   -1    0    0  501    0  0.00000000000E+00 -0.00000000000E+00 -0.14308489890E+03  0.14308489890E+03  0.00000000000E+00 0. -1.
         23    2    1    2    0    0  0.21956218236E+03  0.66975783721E+02  0.18622526380E+03  0.32096893735E+03  0.12509157580E+03 0.  0.
          5    1    3    3  502    0  0.99865398982E+02  0.94739769034E+02  0.86165578854E+02  0.16245215028E+03  0.41800000000E+01 0.  1.
         -5    1    3    3    0  502  0.11969678338E+03 -0.27763985313E+02  0.10005968495E+03  0.15851678707E+03  0.41800000000E+01 0.  1.
        -11    1    1    2    0    0 -0.17755433531E+03 -0.84912270078E+02  0.80099096124E+02  0.21248882511E+03  0.00000000000E+00 0.  1.
         11    1    1    2    0    0 -0.42007847047E+02  0.17936486357E+02  0.45281482823E+02  0.64317878098E+02  0.00000000000E+00 0. -1.
</event>
<event>
 7    1  0.6671761E-006  0.1287974E+03  0.7561462E-02  0.1229251E+00
         -3   -1    0    0    0  501 -0.00000000000E+00  0.00000000000E+00  0.18570481292E+03  0.18570481292E+03  0.00000000000E+00 0.  1.
          3   -1    0    0  501    0  0.00000000000E+00 -0.00000000000E+00 -0.15402196185E+03  0.15402196185E+03  0.00000000000E+00 0. -1.
         23    2    1    2    0    0 -0.81268407716E+02 -0.59947072480E+02  0.98068162950E+02  0.18831662304E+03  0.12509028874E+03 0.  0.
          5    1    3    3  502    0 -0.72425100991E+02 -0.53401570470E+01 -0.32395966113E+01  0.72814009071E+02  0.41800000000E+01 0. -1.
         -5    1    3    3    0  502 -0.88433067252E+01 -0.54606915433E+02  0.10130775956E+03  0.11550261397E+03  0.41800000000E+01 0. -1.
        -11    1    1    2    0    0  0.39811267383E+02  0.75293201025E+02 -0.20311681578E+02  0.87558937521E+02  0.00000000000E+00 0.  1.
         11    1    1    2    0    0  0.41457140333E+02 -0.15346128545E+02 -0.46073630310E+02  0.63851214208E+02  0.00000000000E+00 0. -1.
</event>
<event>
 7    1  0.6671761E-006  0.1182457E+03  0.7561462E-02  0.1246019E+00
          1   -1    0    0  501    0  0.00000000000E+00  0.00000000000E+00  0.30181377733E+02  0.30181377733E+02  0.00000000000E+00 0.  1.
         -1   -1    0    0    0  501 -0.00000000000E+00 -0.00000000000E+00 -0.73446617843E+03  0.73446617843E+03  0.00000000000E+00 0. -1.
         23    2    1    2    0    0 -0.49638025718E+02 -0.58459847365E+02 -0.53983022390E+03  0.55941590063E+03  0.12509193375E+03 0.  0.
          5    1    3    3  502    0 -0.70488722767E+02  0.12944178080E+02 -0.24337684988E+03  0.25374391666E+03  0.41800000000E+01 0. -1.
         -5    1    3    3    0  502  0.20850697049E+02 -0.71404025446E+02 -0.29645337402E+03  0.30567198397E+03  0.41800000000E+01 0. -1.
        -11    1    1    2    0    0  0.42802475374E+02  0.13731469702E+02 -0.12461455133E+02  0.46646468488E+02  0.00000000000E+00 0.  1.
         11    1    1    2    0    0  0.68355503438E+01  0.44728377663E+02 -0.15199312167E+03  0.15858518705E+03  0.00000000000E+00 0. -1.
</event>
<event>
 7    1  0.6671761E-006  0.1516845E+03  0.7561462E-02  0.1198418E+00
         -2   -1    0    0    0  501 -0.00000000000E+00  0.00000000000E+00  0.68638205571E+02  0.68638205571E+02  0.00000000000E+00 0. -1.
          2   -1    0    0  501    0  0.00000000000E+00 -0.00000000000E+00 -0.37010283018E+03  0.37010283018E+03  0.00000000000E+00 0.  1.
         23    2    1    2    0    0 -0.83435215681E+02 -0.67835922501E+02 -0.10310383870E+03  0.19453184011E+03  0.12509631355E+03 0.  0.
          5    1    3    3  502    0 -0.89722140570E+02  0.51078224906E+01 -0.42989386488E+02  0.99708134621E+02  0.41800000000E+01 0.  1.
         -5    1    3    3    0  502  0.62869248884E+01 -0.72943744992E+02 -0.60114452215E+02  0.94823705491E+02  0.41800000000E+01 0.  1.
        -11    1    1    2    0    0  0.18369975971E+02  0.72545811935E+02 -0.12791114829E+03  0.14819450969E+03  0.00000000000E+00 0.  1.
         11    1    1    2    0    0  0.65065239710E+02 -0.47098894335E+01 -0.70449637618E+02  0.96014685947E+02  0.00000000000E+00 0. -1.
</event>
<event>
 7    1  0.6671761E-006  0.1689574E+03  0.7561462E-02  0.1178940E+00
          1   -1    0    0  501    0  0.00000000000E+00  0.00000000000E+00  0.60360362255E+03  0.60360362255E+03  0.00000000000E+00 0. -1.
         -1   -1    0    0    0  501 -0.00000000000E+00 -0.00000000000E+00 -0.11677975865E+03  0.11677975865E+03  0.00000000000E+00 0.  1.
         23    2    1    2    0    0 -0.10405018909E+03 -0.10267290749E+03 -0.12171032922E+02  0.19277662255E+03  0.12508606789E+03 0.  0.
          5    1    3    3  502    0 -0.55722894652E+02 -0.11054935601E+03 -0.47060468090E+02  0.13250796640E+03  0.41800000000E+01 0.  1.
         -5    1    3    3    0  502 -0.48327294436E+02  0.78764485175E+01  0.34889435168E+02  0.60268656158E+02  0.41800000000E+01 0.  1.
        -11    1    1    2    0    0  0.83251881179E+02  0.28698421799E+02  0.19349076231E+03  0.21258680635E+03  0.00000000000E+00 0.  1.
         11    1    1    2    0    0  0.20798307908E+02  0.73974485689E+02  0.30550413450E+03  0.31501995229E+03  0.00000000000E+00 0. -1.
</event>
<event>
 7    1  0.6671761E-006  0.1655568E+03  0.7561462E-02  0.1182562E+00
         -1   -1    0    0    0  501 -0.00000000000E+00  0.00000000000E+00  0.15443625174E+03  0.15443625174E+03  0.00000000000E+00 0.  1.
          1   -1    0    0  501    0  0.00000000000E+00 -0.00000000000E+00 -0.27221792179E+03  0.27221792179E+03  0.00000000000E+00 0. -1.
         23    2    1    2    0    0  0.20321752450E+02 -0.13690244974E+03  0.48028189175E+02  0.19244865406E+03  0.12479792917E+03 0.  0.
          5    1    3    3  502    0  0.69477820349E+02 -0.48206401177E+02  0.26281662787E+02  0.88652257917E+02  0.41800000000E+01 0. -1.
         -5    1    3    3    0  502 -0.49156067899E+02 -0.88696048567E+02  0.21746526388E+02  0.10379639615E+03  0.41800000000E+01 0. -1.
        -11    1    1    2    0    0 -0.28549658267E+02  0.49330856961E+02 -0.12471432865E+03  0.13712140681E+03  0.00000000000E+00 0. -1.
         11    1    1    2    0    0  0.82279058171E+01  0.87571592784E+02 -0.41095530574E+02  0.97084112655E+02  0.00000000000E+00 0.  1.
</event>
<event>
 7    1  0.6671761E-006  0.1392824E+03  0.7561462E-02  0.1214298E+00
         -2   -1    0    0    0  501 -0.00000000000E+00  0.00000000000E+00  0.66513362996E+02  0.66513362996E+02  0.00000000000E+00 0.  1.
          2   -1    0    0  501    0  0.00000000000E+00 -0.00000000000E+00 -0.52946302775E+03  0.52946302775E+03  0.00000000000E+00 0. -1.
         23    2    1    2    0    0  0.51848215807E+02  0.89330517493E+02 -0.64610348410E+02  0.17461453103E+03  0.12509020140E+03 0.  0.
          5    1    3    3  502    0  0.11208006065E+02  0.10013850051E+03 -0.80935239938E+02  0.12931095911E+03  0.41800000000E+01 0. -1.
         -5    1    3    3    0  502  0.40640209742E+02 -0.10807983012E+02  0.16324891528E+02  0.45303571913E+02  0.41800000000E+01 0. -1.
        -11    1    1    2    0    0  0.11629104812E+01  0.16789839894E+02 -0.30078978938E+02  0.34467318701E+02  0.00000000000E+00 0.  1.
         11    1    1    2    0    0 -0.53011126288E+02 -0.10612035739E+03 -0.36826033740E+03  0.38689454101E+03  0.00000000000E+00 0. -1.
</event>
<event>
 7    1  0.6671761E-006  0.1234880E+03  0.7561462E-02  0.1237451E+00
         -1   -1    0    0    0  501 -0.00000000000E+00  0.00000000000E+00  0.76654228252E+02  0.76654228252E+02  0.00000000000E+00 0.  1.
          1   -1    0    0  501    0  0.00000000000E+00 -0.00000000000E+00 -0.25732176160E+03  0.25732176160E+03  0.00000000000E+00 0. -1.
         23    2    1    2    0    0 -0.90191558438E+02  0.13301667992E+02 -0.98735274730E+02  0.18359516643E+03  0.12508828513E+03 0.  0.
          5    1    3    3  502    0 -0.21627935992E+02 -0.32289545197E+02 -0.93083922668E+02  0.10095777040E+03  0.41800000000E+01 0.  1.
         -5    1    3    3    0  502 -0.68563622447E+02  0.45591213189E+02 -0.56513520614E+01  0.82637396033E+02  0.41800000000E+01 0.  1.
        -11    1    1    2    0    0  0.64192709607E+02 -0.49370212673E+02 -0.60104225863E+02  0.10084959015E+03  0.00000000000E+00 0.  1.
         11    1    1    2    0    0  0.25998848831E+02  0.36068544681E+02 -0.21828032759E+02  0.49531233278E+02  0.00000000000E+00 0. -1.
</event>
<event>
 7    1  0.6671761E-006  0.8402094E+02  0.7561462E-02  0.1318013E+00
         -1   -1    0    0    0  501 -0.00000000000E+00  0.00000000000E+00  0.18263656947E+03  0.18263656947E+03  0.00000000000E+00 0.  1.
          1   -1    0    0  501    0  0.00000000000E+00 -0.00000000000E+00 -0.12057183346E+03  0.12057183346E+03  0.00000000000E+00 0. -1.
         23    2    1    2    0    0  0.25615640284E+02  0.59969818746E+02  0.11227964705E+03  0.18029438000E+03  0.12508718611E+03 0.  0.
          5    1    3    3  502    0 -0.25677401881E+02  0.71597518599E+01  0.10240207626E+03  0.10589734952E+03  0.41800000000E+01 0. -1.
         -5    1    3    3    0  502  0.51293042166E+02  0.52810066886E+02  0.98775707958E+01  0.74397030478E+02  0.41800000000E+01 0. -1.
        -11    1    1    2    0    0  0.81971501587E+00 -0.15965626254E+02  0.26298017304E+02  0.30775946265E+02  0.00000000000E+00 0.  1.
         11    1    1    2    0    0 -0.26435355300E+02 -0.44004192492E+02 -0.76512928350E+02  0.92138076664E+02  0.00000000000E+00 0. -1.
</event>
<event>
 7    1  0.6671761E-006  0.1370050E+03  0.7561462E-02  0.1217417E+00
          3   -1    0    0  501    0  0.00000000000E+00  0.00000000000E+00  0.99601525616E+02  0.99601525616E+02  0.00000000000E+00 0. -1.
         -3   -1    0    0    0  501 -0.00000000000E+00 -0.00000000000E+00 -0.38247131308E+03  0.38247131308E+03  0.00000000000E+00 0.  1.
         23    2    1    2    0    0  0.10902008480E+03 -0.40852130642E+02 -0.28918558430E+03  0.33363518454E+03  0.11886908230E+03 0.  0.
          5    1    3    3  502    0  0.10145132891E+03 -0.60428055539E+02 -0.14122746915E+03  0.18413742824E+03  0.41800000000E+01 0. -1.
         -5    1    3    3    0  502  0.75687558909E+01  0.19575924897E+02 -0.14795811515E+03  0.14949775630E+03  0.41800000000E+01 0.  1.
        -11    1    1    2    0    0 -0.88656944173E+02  0.59554674532E+02 -0.21800096230E+02  0.10900484945E+03  0.00000000000E+00 0. -1.
         11    1    1    2    0    0 -0.20363140631E+02 -0.18702543890E+02  0.28115893063E+02  0.39432804706E+02  0.00000000000E+00 0.  1.
</event>
<event>
 7    1  0.6671761E-006  0.9134199E+02  0.7561462E-02  0.1299634E+00
         -1   -1    0    0    0  501 -0.00000000000E+00  0.00000000000E+00  0.47016381555E+02  0.47016381555E+02  0.00000000000E+00 0.  1.
          1   -1    0    0  501    0  0.00000000000E+00 -0.00000000000E+00 -0.27245074478E+03  0.27245074478E+03  0.00000000000E+00 0. -1.
         23    2    1    2    0    0  0.80828532306E+01 -0.17163675525E+02 -0.94072894374E+02  0.15765851824E+03  0.12508626881E+03 0.  0.
          5    1    3    3  502    0  0.10524615171E+02 -0.70732382366E+02 -0.63866816410E+02  0.95970204116E+02  0.41800000000E+01 0.  1.
         -5    1    3    3    0  502 -0.24417619404E+01  0.53568706841E+02 -0.30206077964E+02  0.61688314128E+02  0.41800000000E+01 0.  1.
        -11    1    1    2    0    0  0.13359798368E+01 -0.19430794339E+02  0.51645594069E+01  0.20149771330E+02  0.00000000000E+00 0.  1.
         11    1    1    2    0    0 -0.94188330675E+01  0.36594469865E+02 -0.13652602826E+03  0.14165883677E+03  0.00000000000E+00 0. -1.
</event>
<event>
 7    1  0.6671761E-006  0.1064933E+03  0.7561462E-02  0.1267205E+00
         -2   -1    0    0    0  501 -0.00000000000E+00  0.00000000000E+00  0.71322037216E+02  0.71322037216E+02  0.00000000000E+00 0.  1.
          2   -1    0    0  501    0  0.00000000000E+00 -0.00000000000E+00 -0.27078424932E+03  0.27078424932E+03  0.00000000000E+00 0. -1.
         23    2    1    2    0    0 -0.13815135787E+02  0.83516478042E+02 -0.84911753266E+02  0.17327352528E+03  0.12509136117E+03 0.  0.
          5    1    3    3  502    0 -0.36574460845E+02 -0.46025699638E+01 -0.72346905703E+02  0.81304501727E+02  0.41800000000E+01 0. -1.
         -5    1    3    3    0  502  0.22759325058E+02  0.88119048006E+02 -0.12564847563E+02  0.91969023551E+02  0.41800000000E+01 0. -1.
        -11    1    1    2    0    0  0.88872084330E+01 -0.39400360428E+02 -0.11759491453E+03  0.12433798615E+03  0.00000000000E+00 0. -1.
         11    1    1    2    0    0  0.49279273539E+01 -0.44116117614E+02  0.30444556960E+01  0.44494775107E+02  0.00000000000E+00 0.  1.
</event>
<event>
 7    1  0.6671761E-006  0.1005121E+03  0.7561462E-02  0.1279223E+00
          2   -1    0    0  501    0  0.00000000000E+00  0.00000000000E+00  0.72152851968E+02  0.72152851968E+02  0.00000000000E+00 0. -1.
         -2   -1    0    0    0  501 -0.00000000000E+00 -0.00000000000E+00 -0.17837200860E+03  0.17837200860E+03  0.00000000000E+00 0.  1.
         23    2    1    2    0    0 -0.99990709388E+01  0.30297840364E+02 -0.63811681874E+02  0.14400334053E+03  0.12508833195E+03 0.  0.
          5    1    3    3  502    0  0.20681699342E+01 -0.35996818367E+02 -0.67230561572E+02  0.76403331529E+02  0.41800000000E+01 0.  1.
         -5    1    3    3    0  502 -0.12067240873E+02  0.66294658732E+02  0.34188796976E+01  0.67600009002E+02  0.41800000000E+01 0.  1.
        -11    1    1    2    0    0  0.91580703634E+00 -0.63135600859E+02 -0.32632350348E+02  0.71076107713E+02  0.00000000000E+00 0. -1.
         11    1    1    2    0    0  0.90832639025E+01  0.32837760495E+02 -0.97751244063E+01  0.35445412321E+02  0.00000000000E+00 0.  1.
</event>
<event>
 7    1  0.6671761E-006  0.2147782E+03  0.7561462E-02  0.1137837E+00
         -2   -1    0    0    0  501 -0.00000000000E+00  0.00000000000E+00  0.12614066373E+03  0.12614066373E+03  0.00000000000E+00 0.  1.
          2   -1    0    0  501    0  0.00000000000E+00 -0.00000000000E+00 -0.50801028107E+03  0.50801028107E+03  0.00000000000E+00 0. -1.
         23    2    1    2    0    0 -0.17350419383E+02  0.18618147809E+03 -0.32381849731E+02  0.22728993509E+03  0.12509016972E+03 0.  0.
          5    1    3    3  502    0 -0.67342688588E+02  0.12752859417E+03 -0.18498387680E+01  0.14428955035E+03  0.41800000000E+01 0.  1.
         -5    1    3    3    0  502  0.49992269205E+02  0.58652883927E+02 -0.30532010963E+02  0.83000384738E+02  0.41800000000E+01 0.  1.
        -11    1    1    2    0    0  0.52760918140E+02 -0.14195038708E+03 -0.24594450343E+03  0.28882923266E+03  0.00000000000E+00 0. -1.
         11    1    1    2    0    0 -0.35410498757E+02 -0.44231091016E+02 -0.10354326419E+03  0.11803177705E+03  0.00000000000E+00 0.  1.
</event>
<event>
 7    1  0.6671761E-006  0.1262145E+03  0.7561462E-02  0.1233183E+00
         -2   -1    0    0    0  501 -0.00000000000E+00  0.00000000000E+00  0.50068614878E+03  0.50068614878E+03  0.00000000000E+00 0.  1.
          2   -1    0    0  501    0  0.00000000000E+00 -0.00000000000E+00 -0.32883351121E+02  0.32883351121E+02  0.00000000000E+00 0. -1.
         23    2    1    2    0    0  0.14038501902E+02  0.67250465135E+02  0.26081407435E+03  0.29730158647E+03  0.12507816492E+03 0.  0.
          5    1    3    3  502    0  0.24149164385E+02  0.10062893124E+03  0.22189114897E+03  0.24487245320E+03  0.41800000000E+01 0. -1.
         -5    1    3    3    0  502 -0.10110662483E+02 -0.33378466104E+02  0.38922925381E+02  0.52429133271E+02  0.41800000000E+01 0. -1.
        -11    1    1    2    0    0  0.56430549015E+01 -0.86216028654E+02  0.15124990564E+03  0.17418835099E+03  0.00000000000E+00 0.  1.
         11    1    1    2    0    0 -0.19681556804E+02  0.18965563519E+02  0.55738817663E+02  0.62079562436E+02  0.00000000000E+00 0. -1.
</event>
<event>
 7    1  0.6671761E-006  0.1426037E+03  0.7561462E-02  0.1209868E+00
         -2   -1    0    0    0  501 -0.00000000000E+00  0.00000000000E+00  0.46741424903E+02  0.46741424903E+02  0.00000000000E+00 0.  1.
          2   -1    0    0  501    0  0.00000000000E+00 -0.00000000000E+00 -0.55060280883E+03  0.55060280883E+03  0.00000000000E+00 0. -1.
         23    2    1    2    0    0  0.32887932447E+01  0.11022770587E+03 -0.19226191125E+03  0.25450431825E+03  0.12508733824E+03 0.  0.
          5    1    3    3  502    0  0.48375011546E+02  0.10388497373E+03 -0.16606327150E+03  0.20180860252E+03  0.41800000000E+01 0. -1.
         -5    1    3    3    0  502 -0.45086218302E+02  0.63427321359E+01 -0.26198639748E+02  0.52695715730E+02  0.41800000000E+01 0. -1.
        -11    1    1    2    0    0 -0.19210399965E+02 -0.10681711904E+03 -0.30744007234E+03  0.32603425352E+03  0.00000000000E+00 0. -1.
         11    1    1    2    0    0  0.15921606720E+02 -0.34105868312E+01 -0.41594003438E+01  0.16805661972E+02  0.00000000000E+00 0.  1.
</event>
<event>
 7    1  0.6671761E-006  0.1124503E+03  0.7561462E-02  0.1256098E+00
          2   -1    0    0  501    0  0.00000000000E+00  0.00000000000E+00  0.18668821222E+03  0.18668821222E+03  0.00000000000E+00 0. -1.
         -2   -1    0    0    0  501 -0.00000000000E+00 -0.00000000000E+00 -0.87215992257E+02  0.87215992257E+02  0.00000000000E+00 0.  1.
         23    2    1    2    0    0 -0.60631239909E+02 -0.13108589313E+02  0.29219369026E+02  0.14265253510E+03  0.12509193371E+03 0.  0.
          5    1    3    3  502    0 -0.46203695447E+02 -0.67832759700E+02  0.24270440526E+02  0.85688922533E+02  0.41800000000E+01 0. -1.
         -5    1    3    3    0  502 -0.14427544461E+02  0.54724170388E+02  0.49489284999E+01  0.56963612571E+02  0.41800000000E+01 0. -1.
        -11    1    1    2    0    0  0.54573179966E+02  0.33947866767E+02  0.83845384090E+02  0.10564439438E+03  0.00000000000E+00 0. -1.
         11    1    1    2    0    0  0.60580599429E+01 -0.20839277455E+02 -0.13592533156E+02  0.25607274996E+02  0.00000000000E+00 0.  1.
</event>
<event>
 7    1  0.6671761E-006  0.2680409E+03  0.7561462E-02  0.1102406E+00
         -2   -1    0    0    0  501 -0.00000000000E+00  0.00000000000E+00  0.11014301290E+03  0.11014301290E+03  0.00000000000E+00 0.  1.
          2   -1    0    0  501    0  0.00000000000E+00 -0.00000000000E+00 -0.82178152341E+03  0.82178152341E+03  0.00000000000E+00 0. -1.
         23    2    1    2    0    0  0.90096979824E+02 -0.24268438131E+03 -0.19841346978E+03  0.34933954670E+03  0.12512809114E+03 0.  0.
          5    1    3    3  502    0  0.64365629082E+02 -0.20387539105E+03 -0.91382140088E+02  0.23254306528E+03  0.41800000000E+01 0. -1.
         -5    1    3    3    0  502  0.25731350742E+02 -0.38808990263E+02 -0.10703132970E+03  0.11679648142E+03  0.41800000000E+01 0. -1.
        -11    1    1    2    0    0  0.76330900673E+01  0.11224987928E+03 -0.19886960043E+03  0.22848942522E+03  0.00000000000E+00 0.  1.
         11    1    1    2    0    0 -0.97730069891E+02  0.13043450203E+03 -0.31435544029E+03  0.35409556439E+03  0.00000000000E+00 0. -1.
</event>
<event>
 7    1  0.6671761E-006  0.1030791E+03  0.7561462E-02  0.1273951E+00
          2   -1    0    0  501    0  0.00000000000E+00  0.00000000000E+00  0.36503581328E+02  0.36503581328E+02  0.00000000000E+00 0. -1.
         -2   -1    0    0    0  501 -0.00000000000E+00 -0.00000000000E+00 -0.49045836652E+03  0.49045836652E+03  0.00000000000E+00 0.  1.
         23    2    1    2    0    0  0.20727564494E+02 -0.55224025629E+01 -0.39718430191E+03  0.41696787094E+03  0.12508679728E+03 0.  0.
          5    1    3    3  502    0 -0.46207164310E+02 -0.10995645792E+02 -0.25803357356E+03  0.26240198883E+03  0.41800000000E+01 0. -1.
         -5    1    3    3    0  502  0.66934728804E+02  0.54732432289E+01 -0.13915072835E+03  0.15456588211E+03  0.41800000000E+01 0. -1.
        -11    1    1    2    0    0 -0.54997060005E+02  0.12054502444E+02 -0.21173880550E+02  0.60152480048E+02  0.00000000000E+00 0.  1.
         11    1    1    2    0    0  0.34269495511E+02 -0.65320998811E+01 -0.35596602736E+02  0.49841596863E+02  0.00000000000E+00 0. -1.
</event>
<event>
 7    1  0.6671761E-006  0.1149545E+03  0.7561462E-02  0.1251661E+00
          1   -1    0    0  501    0  0.00000000000E+00  0.00000000000E+00  0.35664842111E+03  0.35664842111E+03  0.00000000000E+00 0. -1.
         -1   -1    0    0    0  501 -0.00000000000E+00 -0.00000000000E+00 -0.42151556617E+02  0.42151556617E+02  0.00000000000E+00 0.  1.
         23    2    1    2    0    0 -0.39383678787E+02  0.24992423688E+02  0.13502437409E+03  0.18987875878E+03  0.12508663414E+03 0.  0.
          5    1    3    3  502    0 -0.77853773436E+02  0.19446666863E+01  0.47152633078E+02  0.91136353739E+02  0.41800000000E+01 0. -1.
         -5    1    3    3    0  502  0.38470094649E+02  0.23047757002E+02  0.87871741012E+02  0.98742405042E+02  0.41800000000E+01 0. -1.
        -11    1    1    2    0    0  0.35353695139E+02 -0.61076235609E+02  0.12200918640E+03  0.14094833054E+03  0.00000000000E+00 0.  1.
         11    1    1    2    0    0  0.40299836473E+01  0.36083811921E+02  0.57463304004E+02  0.67972888404E+02  0.00000000000E+00 0. -1.
</event>
<event>
 7    1  0.6671761E-006  0.1020896E+03  0.7561462E-02  0.1275962E+00
         -1   -1    0    0    0  501 -0.00000000000E+00  0.00000000000E+00  0.72963176470E+03  0.72963176470E+03  0.00000000000E+00 0.  1.
          1   -1    0    0  501    0  0.00000000000E+00 -0.00000000000E+00 -0.21023799852E+02  0.21023799852E+02  0.00000000000E+00 0. -1.
         23    2    1    2    0    0  0.34256113543E+02  0.25791704180E+02  0.53616355947E+03  0.55223032237E+03  0.12509305784E+03 0.  0.
          5    1    3    3  502    0  0.52513874918E+02 -0.35750830101E+02  0.19739591617E+03  0.20740889333E+03  0.41800000000E+01 0.  1.
         -5    1    3    3    0  502 -0.18257761375E+02  0.61542534282E+02  0.33876764330E+03  0.34482142903E+03  0.41800000000E+01 0.  1.
        -11    1    1    2    0    0 -0.32868407669E+02  0.14459849768E+02  0.20744496824E+02  0.41469912304E+02  0.00000000000E+00 0. -1.
         11    1    1    2    0    0 -0.13877058739E+01 -0.40251553949E+02  0.15169990856E+03  0.15695532988E+03  0.00000000000E+00 0.  1.
</event>
<event>
 7    1  0.6671761E-006  0.1107445E+03  0.7561462E-02  0.1259197E+00
         -1   -1    0    0    0  501 -0.00000000000E+00  0.00000000000E+00  0.13314998039E+03  0.13314998039E+03  0.00000000000E+00 0.  1.
          1   -1    0    0  501    0  0.00000000000E+00 -0.00000000000E+00 -0.11983403068E+03  0.11983403068E+03  0.00000000000E+00 0. -1.
         23    2    1    2    0    0 -0.16760198714E+02 -0.49233883091E+02  0.41922257694E+02  0.14178128402E+03  0.12505829562E+03 0.  0.
          5    1    3    3  502    0  0.41646239583E+02 -0.39070962516E+02 -0.15314273662E+02  0.59270133804E+02  0.41800000000E+01 0.  1.
         -5    1    3    3    0  502 -0.58406438297E+02 -0.10162920575E+02  0.57236531355E+02  0.82511150221E+02  0.41800000000E+01 0.  1.
        -11    1    1    2    0    0  0.39979428901E+02 -0.99719179519E+01 -0.23421195311E+02  0.47395635587E+02  0.00000000000E+00 0.  1.
         11    1    1    2    0    0 -0.23219230187E+02  0.59205801043E+02 -0.51851126688E+01  0.63807091463E+02  0.00000000000E+00 0. -1.
</event>
<event>
 6    1  0.6671761E-006  0.1129910E+03  0.7561462E-02  0.1255129E+00
          2   -1    0    0  501    0  0.00000000000E+00  0.00000000000E+00  0.10530549910E+03  0.10530549910E+03  0.00000000000E+00 0. -1.
         -2   -1    0    0    0  501 -0.00000000000E+00 -0.00000000000E+00 -0.14411109260E+03  0.14411109260E+03  0.00000000000E+00 0.  1.
          5    1    1    2  502    0  0.44784959427E+02  0.20823352440E+02  0.15239788928E+02  0.51855840214E+02  0.41800000000E+01 0. -1.
         -5    1    1    2    0  502 -0.81883131817E+02  0.78743473011E+01 -0.48991163222E+02  0.95835583660E+02  0.41800000000E+01 0.  1.
        -11    1    1    2    0    0 -0.16811970880E+02 -0.35917681535E+02  0.16849967584E+02  0.43088787629E+02  0.00000000000E+00 0.  1.
         11    1    1    2    0    0  0.53910143270E+02  0.72199817938E+01 -0.21904186789E+02  0.58636380203E+02  0.00000000000E+00 0. -1.
</event>
<event>
 7    1  0.2064618E-005  0.1594785E+03  0.7561462E-02  0.1189287E+00
         -1   -1    0    0    0  501 -0.00000000000E+00  0.00000000000E+00  0.29520642047E+03  0.29520642047E+03  0.00000000000E+00 0.  1.
          1   -1    0    0  501    0  0.00000000000E+00 -0.00000000000E+00 -0.10594241045E+03  0.10594241045E+03  0.00000000000E+00 0. -1.
         23    2    1    2    0    0  0.12032966899E+03 -0.69320515671E+02  0.11611219325E+03  0.22003219823E+03  0.12509022225E+03 0.  0.
          5    1    3    3  502    0 -0.19425642475E+02  0.65736330491E+01 -0.32026228079E+01  0.21173035443E+02  0.41800000000E+01 0.  1.
         -5    1    3    3    0  502  0.13975531146E+03 -0.75894148720E+02  0.11931481606E+03  0.19885916279E+03  0.41800000000E+01 0.  1.
        -11    1    1    2    0    0 -0.66789635480E+02  0.35927218051E+02  0.88123773321E+02  0.11626443923E+03  0.00000000000E+00 0.  1.
         11    1    1    2    0    0 -0.53540033509E+02  0.33393297620E+02 -0.14971956550E+02  0.64852193464E+02  0.00000000000E+00 0. -1.
</event>
<event>
 7    1  0.6671761E-006  0.1377459E+03  0.7561462E-02  0.1216395E+00
          2   -1    0    0  501    0  0.00000000000E+00  0.00000000000E+00  0.10942033307E+04  0.10942033307E+04  0.00000000000E+00 0. -1.
         -2   -1    0    0    0  501 -0.00000000000E+00 -0.00000000000E+00 -0.22480982904E+02  0.22480982904E+02  0.00000000000E+00 0.  1.
         23    2    1    2    0    0 -0.77079058227E+01  0.11216114127E+03  0.59631037615E+03  0.61957209225E+03  0.12507589443E+03 0.  0.
          5    1    3    3  502    0 -0.19786959195E+02  0.13475348195E+03  0.54847128383E+03  0.56514444723E+03  0.41800000000E+01 0.  1.
         -5    1    3    3    0  502  0.12079053372E+02 -0.22592340686E+02  0.47839092324E+02  0.54427645020E+02  0.41800000000E+01 0.  1.
        -11    1    1    2    0    0 -0.39578846148E+01 -0.36928018503E+02  0.38040482521E+02  0.53164101719E+02  0.00000000000E+00 0.  1.
         11    1    1    2    0    0  0.11665790438E+02 -0.75233122765E+02  0.43737148910E+03  0.44394811961E+03  0.00000000000E+00 0. -1.
</event>
<event>
 7    1  0.6671761E-006  0.2169104E+03  0.7561462E-02  0.1136208E+00
          4   -1    0    0  501    0  0.00000000000E+00  0.00000000000E+00  0.66203907697E+02  0.66203907697E+02  0.00000000000E+00 0. -1.
         -4   -1    0    0    0  501 -0.00000000000E+00 -0.00000000000E+00 -0.95739841146E+03  0.95739841146E+03  0.00000000000E+00 0.  1.
         23    2    1    2    0    0  0.13563963542E+03  0.13226799984E+03 -0.71096168614E+03  0.74633713784E+03  0.12513860192E+03 0.  0.
          5    1    3    3  502    0 -0.19466212600E+02  0.34201413979E+02 -0.18735859056E+03  0.19149251684E+03  0.41800000000E+01 0.  1.
         -5    1    3    3    0  502  0.15510584802E+03  0.98066585866E+02 -0.52360309558E+03  0.55484462100E+03  0.41800000000E+01 0.  1.
        -11    1    1    2    0    0 -0.68499958069E+01 -0.65061654176E+02 -0.55305109858E+02  0.85665608403E+02  0.00000000000E+00 0.  1.
         11    1    1    2    0    0 -0.12878963962E+03 -0.67206345669E+02 -0.12492770776E+03  0.19159957290E+03  0.00000000000E+00 0. -1.
</event>
<event>
 7    1  0.6671761E-006  0.1685153E+03  0.7561462E-02  0.1179405E+00
         -2   -1    0    0    0  501 -0.00000000000E+00  0.00000000000E+00  0.86528058265E+02  0.86528058265E+02  0.00000000000E+00 0. -1.
          2   -1    0    0  501    0  0.00000000000E+00 -0.00000000000E+00 -0.34168960129E+03  0.34168960129E+03  0.00000000000E+00 0.  1.
         23    2    1    2    0    0 -0.12771880696E+03  0.32951660963E+02 -0.15169960546E+03  0.23676432325E+03  0.12508664539E+03 0.  0.
          5    1    3    3  502    0 -0.60259974974E+02 -0.44106779558E+02 -0.38737155004E+02  0.84230114357E+02  0.41800000000E+01 0.  1.
         -5    1    3    3    0  502 -0.67458831983E+02  0.77058440521E+02 -0.11296245046E+03  0.15253420889E+03  0.41800000000E+01 0.  1.
        -11    1    1    2    0    0  0.71777505582E+02  0.27963372300E+02 -0.37550907212E+02  0.85697322773E+02  0.00000000000E+00 0. -1.
         11    1    1    2    0    0  0.55941301374E+02 -0.60915033263E+02 -0.65911030345E+02  0.10575601353E+03  0.00000000000E+00 0.  1.
</event>
<event>
 7    1  0.6671761E-006  0.1016057E+03  0.7561462E-02  0.1276955E+00
          1   -1    0    0  501    0  0.00000000000E+00  0.00000000000E+00  0.43095985264E+02  0.43095985264E+02  0.00000000000E+00 0. -1.
         -1   -1    0    0    0  501 -0.00000000000E+00 -0.00000000000E+00 -0.28046443918E+03  0.28046443918E+03  0.00000000000E+00 0.  1.
         23    2    1    2    0    0  0.26943803258E+02  0.26224092971E+02 -0.13917102506E+03  0.18429345465E+03  0.11481215801E+03 0.  0.
          5    1    3    3  502    0 -0.97982155394E+01  0.61988355879E+02 -0.46211005780E+02  0.78048002842E+02  0.41800000000E+01 0. -1.
         -5    1    3    3    0  502  0.36742018798E+02 -0.35764262908E+02 -0.92960019276E+02  0.10624545181E+03  0.41800000000E+01 0.  1.
        -11    1    1    2    0    0  0.26375944545E+02  0.53357044852E+01 -0.61806605898E+02  0.67410805704E+02  0.00000000000E+00 0.  1.
         11    1    1    2    0    0 -0.53319747803E+02 -0.31559797457E+02 -0.36390822960E+02  0.71856164085E+02  0.00000000000E+00 0. -1.
</event>
<event>
 7    1  0.6671761E-006  0.2896876E+03  0.7561462E-02  0.1090512E+00
          2   -1    0    0  501    0  0.00000000000E+00  0.00000000000E+00  0.31790275801E+03  0.31790275801E+03  0.00000000000E+00 0. -1.
         -2   -1    0    0    0  501 -0.00000000000E+00 -0.00000000000E+00 -0.32041034535E+03  0.32041034535E+03  0.00000000000E+00 0.  1.
         23    2    1    2    0    0  0.10240337249E+03 -0.25023334884E+03 -0.13028157922E+03  0.32515171404E+03  0.12508863933E+03 0.  0.
          5    1    3    3  502    0  0.39438041288E+02 -0.21995875844E+03 -0.12210659140E+03  0.25468550523E+03  0.41800000000E+01 0.  1.
         -5    1    3    3    0  502  0.62965331204E+02 -0.30274590402E+02 -0.81749878264E+01  0.70466208807E+02  0.41800000000E+01 0.  1.
        -11    1    1    2    0    0 -0.45266792169E+01  0.13335282580E+03  0.61882674185E+02  0.14708137998E+03  0.00000000000E+00 0.  1.
         11    1    1    2    0    0 -0.97876693276E+02  0.11688052304E+03  0.65891317700E+02  0.16608000933E+03  0.00000000000E+00 0. -1.
</event>
<event>
 7    1  0.6671761E-006  0.1320390E+03  0.7561462E-02  0.1224461E+00
         -2   -1    0    0    0  501 -0.00000000000E+00  0.00000000000E+00  0.75343084907E+02  0.75343084907E+02  0.00000000000E+00 0. -1.
          2   -1    0    0  501    0  0.00000000000E+00 -0.00000000000E+00 -0.25879806402E+03  0.25879806402E+03  0.00000000000E+00 0.  1.
         23    2    1    2    0    0 -0.15207707968E+02  0.76925783082E+02 -0.55005053476E+02  0.15754805605E+03  0.12508790339E+03 0.  0.
          5    1    3    3  502    0 -0.29158508225E+02 -0.26234486638E+02 -0.32149232945E+02  0.50887252529E+02  0.41800000000E+01 0.  1.
         -5    1    3    3    0  502  0.13950800257E+02  0.10316026972E+03 -0.22855820532E+02  0.10666080353E+03  0.41800000000E+01 0.  1.
        -11    1    1    2    0    0  0.47924957485E+02 -0.14669782826E+02 -0.63156022779E+02  0.80626839771E+02  0.00000000000E+00 0.  1.
         11    1    1    2    0    0 -0.32717249518E+02 -0.62256000256E+02 -0.65293902855E+02  0.95966253100E+02  0.00000000000E+00 0. -1.
</event>
<event>
 6    1  0.6671761E-006  0.1138506E+03  0.7561462E-02  0.1253601E+00
         -1   -1    0    0    0  501 -0.00000000000E+00  0.00000000000E+00  0.11675128935E+03  0.11675128935E+03  0.00000000000E+00 0.  1.
          1   -1    0    0  501    0  0.00000000000E+00 -0.00000000000E+00 -0.14455034109E+03  0.14455034109E+03  0.00000000000E+00 0. -1.
          5    1    1    2  502    0  0.38420680542E+01  0.64174785167E+02 -0.10087542844E+02  0.65210393794E+02  0.41800000000E+01 0. -1.
         -5    1    1    2    0  502 -0.63291368366E+02 -0.56466315410E+02  0.15423935824E+01  0.84935819673E+02  0.41800000000E+01 0.  1.
        -11    1    1    2    0    0  0.21235765383E+01 -0.19677712505E+02  0.29112235861E+02  0.35202900783E+02  0.00000000000E+00 0.  1.
         11    1    1    2    0    0  0.57325723773E+02  0.11969242748E+02 -0.48366138333E+02  0.75952516188E+02  0.00000000000E+00 0. -1.
</event>
<event>
 7    1  0.6671761E-006  0.9207876E+02  0.7561462E-02  0.1297894E+00
         -2   -1    0    0    0  501 -0.00000000000E+00  0.00000000000E+00  0.15078637247E+02  0.15078637247E+02  0.00000000000E+00 0.  1.
          2   -1    0    0  501    0  0.00000000000E+00 -0.00000000000E+00 -0.84618448152E+03  0.84618448152E+03  0.00000000000E+00 0. -1.
         23    2    1    2    0    0  0.18465726690E+02 -0.23055436364E+02 -0.49914931851E+03  0.51543207729E+03  0.12509055888E+03 0.  0.
          5    1    3    3  502    0  0.22227925357E+02 -0.52533886258E+02 -0.47042949795E+03  0.47389373789E+03  0.41800000000E+01 0.  1.
         -5    1    3    3    0  502 -0.37621986670E+01  0.29478449894E+02 -0.28719820565E+02  0.41538339402E+02  0.41800000000E+01 0.  1.
        -11    1    1    2    0    0  0.23673179952E+01  0.57040359948E+02 -0.19912101426E+03  0.20714339279E+03  0.00000000000E+00 0. -1.
         11    1    1    2    0    0 -0.20833044685E+02 -0.33984923584E+02 -0.13283551150E+03  0.13868764869E+03  0.00000000000E+00 0.  1.
</event>
<event>
 6    1  0.6671761E-006  0.1330606E+03  0.7561462E-02  0.1222984E+00
          1   -1    0    0  501    0  0.00000000000E+00  0.00000000000E+00  0.16105069460E+03  0.16105069460E+03  0.00000000000E+00 0. -1.
         -1   -1    0    0    0  501 -0.00000000000E+00 -0.00000000000E+00 -0.12017332562E+03  0.12017332562E+03  0.00000000000E+00 0.  1.
          5    1    1    2  502    0 -0.33872504837E+02 -0.17820578042E+02  0.31214373791E+02  0.49565402418E+02  0.41800000000E+01 0. -1.
         -5    1    1    2    0  502  0.11091490959E+03  0.73049802366E+01  0.79888230022E+01  0.11152028335E+03  0.41800000000E+01 0.  1.
        -11    1    1    2    0    0 -0.13209779893E+02  0.42843367290E+02  0.15158414849E+02  0.47326841711E+02  0.00000000000E+00 0. -1.
         11    1    1    2    0    0 -0.63832624857E+02 -0.32327769485E+02 -0.13484242661E+02  0.72811492748E+02  0.00000000000E+00 0.  1.
</event>
<event>
 7    1  0.6671761E-006  0.1789359E+03  0.7561462E-02  0.1168837E+00
         -2   -1    0    0    0  501 -0.00000000000E+00  0.00000000000E+00  0.40028040343E+02  0.40028040343E+02  0.00000000000E+00 0. -1.
          2   -1    0    0  501    0  0.00000000000E+00 -0.00000000000E+00 -0.10343562310E+04  0.10343562310E+04  0.00000000000E+00 0.  1.
         23    2    1    2    0    0 -0.76441395963E+02  0.15150363888E+03 -0.42948347038E+03  0.47843507732E+03  0.12508969690E+03 0.  0.
          5    1    3    3  502    0 -0.15772154758E+02  0.47968129456E+02 -0.28997676048E+03  0.29436999903E+03  0.41800000000E+01 0.  1.
         -5    1    3    3    0  502 -0.60669241205E+02  0.10353550942E+03 -0.13950670990E+03  0.18406507829E+03  0.41800000000E+01 0.  1.
        -11    1    1    2    0    0  0.92190626972E+02 -0.11512309539E+03 -0.39768782897E+03  0.42415568852E+03  0.00000000000E+00 0. -1.
         11    1    1    2    0    0 -0.15749231008E+02 -0.36380543485E+02 -0.16715689132E+03  0.17179350552E+03  0.00000000000E+00 0.  1.
</event>
<event>
 7    1  0.6671761E-006  0.1659380E+03  0.7561462E-02  0.1182151E+00
         -2   -1    0    0    0  501 -0.00000000000E+00  0.00000000000E+00  0.79155720859E+02  0.79155720859E+02  0.00000000000E+00 0.  1.
          2   -1    0    0  501    0  0.00000000000E+00 -0.00000000000E+00 -0.51675123768E+03  0.51675123768E+03  0.00000000000E+00 0. -1.
         23    2    1    2    0    0  0.65983570842E+02 -0.14733213791E+03 -0.30544283521E+03  0.36743406963E+03  0.12510747165E+03 0.  0.
          5    1    3    3  502    0 -0.49612136996E+01 -0.60423550738E+00  0.10240475499E+02  0.12137482456E+02  0.41800000000E+01 0. -1.
         -5    1    3    3    0  502  0.70944784542E+02 -0.14672790240E+03 -0.31568331071E+03  0.35529658718E+03  0.41800000000E+01 0. -1.
        -11    1    1    2    0    0 -0.52807232623E+02  0.98658926839E+02 -0.32074023451E+02  0.11640846465E+03  0.00000000000E+00 0.  1.
         11    1    1    2    0    0 -0.13176338219E+02  0.48673211071E+02 -0.10007865816E+03  0.11206442426E+03  0.00000000000E+00 0. -1.
</event>
<event>
 7    1  0.6671761E-006  0.1223213E+03  0.7561462E-02  0.1239316E+00
          1   -1    0    0  501    0  0.00000000000E+00  0.00000000000E+00  0.32418297357E+03  0.32418297357E+03  0.00000000000E+00 0. -1.
         -1   -1    0    0    0  501 -0.00000000000E+00 -0.00000000000E+00 -0.64236483333E+02  0.64236483333E+02  0.00000000000E+00 0.  1.
         23    2    1    2    0    0 -0.60269663283E+02  0.88494259975E+01  0.44118930565E+02  0.14596403541E+03  0.12509306514E+03 0.  0.
          5    1    3    3  502    0 -0.75485455242E+02 -0.38363330033E+02  0.45397795594E+02  0.96167724779E+02  0.41800000000E+01 0.  1.
         -5    1    3    3    0  502  0.15215791958E+02  0.47212756031E+02 -0.12788650294E+01  0.49796310633E+02  0.41800000000E+01 0.  1.
        -11    1    1    2    0    0  0.84854793160E+02 -0.35136461035E+01  0.17457786137E+03  0.19413941205E+03  0.00000000000E+00 0. -1.
         11    1    1    2    0    0 -0.24585129877E+02 -0.53357798940E+01  0.41249698307E+02  0.48316009443E+02  0.00000000000E+00 0.  1.
</event>
<event>
 7    1  0.6671761E-006  0.9582425E+02  0.7561462E-02  0.1289330E+00
         -1   -1    0    0    0  501 -0.00000000000E+00  0.00000000000E+00  0.38377853009E+02  0.38377853009E+02  0.00000000000E+00 0.  1.
          1   -1    0    0  501    0  0.00000000000E+00 -0.00000000000E+00 -0.46214707945E+03  0.46214707945E+03  0.00000000000E+00 0. -1.
         23    2    1    2    0    0 -0.66376358159E+02 -0.35614041563E+02 -0.20149500967E+03  0.24883398808E+03  0.12507571236E+03 0.  0.
          5    1    3    3  502    0 -0.20387249260E+02 -0.23485769793E+02  0.92766442405E+01  0.32722314153E+02  0.41800000000E+01 0.  1.
         -5    1    3    3    0  502 -0.45989108899E+02 -0.12128271769E+02 -0.21077165392E+03  0.21611167393E+03  0.41800000000E+01 0.  1.
        -11    1    1    2    0    0 -0.19060753864E+02 -0.20157010748E+01 -0.74267721951E+02  0.76701172823E+02  0.00000000000E+00 0. -1.
         11    1    1    2    0    0  0.85437112022E+02  0.37629742637E+02 -0.14800649482E+03  0.17498977156E+03  0.00000000000E+00 0.  1.
</event>
<event>
 7    1  0.6671761E-006  0.5938344E+02  0.7561462E-02  0.1400438E+00
         -3   -1    0    0    0  501 -0.00000000000E+00  0.00000000000E+00  0.71082365085E+02  0.71082365085E+02  0.00000000000E+00 0.  1.
          3   -1    0    0  501    0  0.00000000000E+00 -0.00000000000E+00 -0.39390586656E+03  0.39390586656E+03  0.00000000000E+00 0. -1.
         23    2    1    2    0    0 -0.12426029000E+02  0.14857964726E+02  0.15632512542E+02  0.11379084258E+03  0.11103519754E+03 0.  0.
          5    1    3    3  502    0 -0.56793119110E+01  0.17759817645E+02  0.62918245099E+02  0.65755940210E+02  0.41800000000E+01 0.  1.
         -5    1    3    3    0  502 -0.67467170885E+01 -0.29018529190E+01 -0.47285732557E+02  0.48034902366E+02  0.41800000000E+01 0. -1.
        -11    1    1    2    0    0 -0.13514293576E+02 -0.47573646774E+02 -0.22316013027E+03  0.22857456494E+03  0.00000000000E+00 0.  1.
         11    1    1    2    0    0  0.25940322575E+02  0.32715682048E+02 -0.11529588375E+03  0.12262282413E+03  0.00000000000E+00 0. -1.
</event>
<event>
 7    1  0.6671761E-006  0.5349294E+02  0.7561462E-02  0.1427363E+00
         -1   -1    0    0    0  501 -0.00000000000E+00  0.00000000000E+00  0.36847103598E+03  0.36847103598E+03  0.00000000000E+00 0.  1.
          1   -1    0    0  501    0  0.00000000000E+00 -0.00000000000E+00 -0.56335080380E+02  0.56335080380E+02  0.00000000000E+00 0. -1.
         23    2    1    2    0    0  0.78368105906E+01  0.67734459845E+01  0.30961503277E+03  0.33402735985E+03  0.12492202943E+03 0.  0.
          5    1    3    3  502    0  0.38401607794E+01 -0.40329625894E+01 -0.11086461263E+02  0.13091739586E+02  0.41800000000E+01 0.  1.
         -5    1    3    3    0  502  0.39966498112E+01  0.10806408574E+02  0.32070149404E+03  0.32093562026E+03  0.41800000000E+01 0.  1.
        -11    1    1    2    0    0 -0.25364187183E+02  0.34560746908E+02  0.12762093535E+02  0.44728718399E+02  0.00000000000E+00 0.  1.
         11    1    1    2    0    0  0.17527376592E+02 -0.41334192892E+02 -0.10241170712E+02  0.46050038108E+02  0.00000000000E+00 0. -1.
</event>
<event>
 7    1  0.6671761E-006  0.1130418E+03  0.7561462E-02  0.1255038E+00
         -2   -1    0    0    0  501 -0.00000000000E+00  0.00000000000E+00  0.55218485064E+02  0.55218485064E+02  0.00000000000E+00 0.  1.
          2   -1    0    0  501    0  0.00000000000E+00 -0.00000000000E+00 -0.31101754883E+03  0.31101754883E+03  0.00000000000E+00 0. -1.
         23    2    1    2    0    0 -0.49871116589E+02  0.45781590539E+02 -0.91466036609E+02  0.16910876540E+03  0.12509458973E+03 0.  0.
          5    1    3    3  502    0 -0.69073294017E+02  0.19967011475E+01 -0.98716162529E+02  0.12057138925E+03  0.41800000000E+01 0.  1.
         -5    1    3    3    0  502  0.19202177428E+02  0.43784889392E+02  0.72501259199E+01  0.48537376144E+02  0.41800000000E+01 0.  1.
        -11    1    1    2    0    0  0.74107291798E+02 -0.38749074340E+02 -0.12751010011E+03  0.15248674398E+03  0.00000000000E+00 0. -1.
         11    1    1    2    0    0 -0.24236175209E+02 -0.70325161996E+01 -0.36822927048E+02  0.44640524518E+02  0.00000000000E+00 0.  1.
</event>
<event>
 7    1  0.1029459E-005  0.1569682E+03  0.7561462E-02  0.1192163E+00
          2   -1    0    0  501    0  0.00000000000E+00  0.00000000000E+00  0.77526748865E+03  0.77526748865E+03  0.00000000000E+00 0. -1.
         -2   -1    0    0    0  501 -0.00000000000E+00 -0.00000000000E+00 -0.42832901975E+02  0.42832901975E+02  0.00000000000E+00 0.  1.
         23    2    1    2    0    0 -0.22339230417E+02 -0.13075366317E+03  0.25014231199E+03  0.30953833213E+03  0.12508893301E+03 0.  0.
          5    1    3    3  502    0 -0.71976125669E+02 -0.77048049792E+02  0.11683766395E+03  0.15743403939E+03  0.41800000000E+01 0. -1.
         -5    1    3    3    0  502  0.49636895252E+02 -0.53705613374E+02  0.13330464804E+03  0.15210429273E+03  0.41800000000E+01 0. -1.
        -11    1    1    2    0    0 -0.57395079916E+01  0.31446264709E+02  0.27374479081E+02  0.42085289842E+02  0.00000000000E+00 0.  1.
         11    1    1    2    0    0  0.28078738409E+02  0.99307398456E+02  0.45491779561E+03  0.46647676866E+03  0.00000000000E+00 0. -1.
</event>
<event>
 7    1  0.6671761E-006  0.8939281E+02  0.7561462E-02  0.1304329E+00
         -2   -1    0    0    0  501 -0.00000000000E+00  0.00000000000E+00  0.24019272932E+03  0.24019272932E+03  0.00000000000E+00 0.  1.
          2   -1    0    0  501    0  0.00000000000E+00 -0.00000000000E+00 -0.73962954303E+02  0.73962954303E+02  0.00000000000E+00 0. -1.
         23    2    1    2    0    0  0.23733049295E+02 -0.25647771661E+02  0.17112173682E+03  0.21482478125E+03  0.12508385990E+03 0.  0.
          5    1    3    3  502    0  0.31934482368E+01 -0.68612617656E+02  0.14463934104E+03  0.16017459470E+03  0.41800000000E+01 0. -1.
         -5    1    3    3    0  502  0.20539601058E+02  0.42964845995E+02  0.26482395781E+02  0.54650186544E+02  0.41800000000E+01 0. -1.
        -11    1    1    2    0    0 -0.34310277957E+02 -0.12205439635E+00  0.36078080858E+02  0.49787930156E+02  0.00000000000E+00 0.  1.
         11    1    1    2    0    0  0.10577228663E+02  0.25769826058E+02 -0.40970042657E+02  0.49542972221E+02  0.00000000000E+00 0. -1.
</event>
<event>
 7    1  0.6671761E-006  0.1851527E+03  0.7561462E-02  0.1162907E+00
          2   -1    0    0  501    0  0.00000000000E+00  0.00000000000E+00  0.20627627896E+03  0.20627627896E+03  0.00000000000E+00 0. -1.
         -2   -1    0    0    0  501 -0.00000000000E+00 -0.00000000000E+00 -0.24305432123E+03  0.24305432123E+03  0.00000000000E+00 0.  1.
         23    2    1    2    0    0 -0.35284112056E+02  0.16195112150E+03 -0.12442685079E+03  0.24207804603E+03  0.12508638956E+03 0.  0.
          5    1    3    3  502    0 -0.40473210614E+02  0.17941581147E+03 -0.12650666124E+03  0.22327006499E+03  0.41800000000E+01 0. -1.
         -5    1    3    3    0  502  0.51890985576E+01 -0.17464689965E+02  0.20798104499E+01  0.18807981043E+02  0.41800000000E+01 0. -1.
        -11    1    1    2    0    0  0.12210114813E+02 -0.17381080530E+02  0.52583865093E+02  0.56712006950E+02  0.00000000000E+00 0. -1.
         11    1    1    2    0    0  0.23073997243E+02 -0.14457004097E+03  0.35064943419E+02  0.15054054721E+03  0.00000000000E+00 0.  1.
</event>
<event>
 7    1  0.6671761E-006  0.7989365E+02  0.7561462E-02  0.1329354E+00
          1   -1    0    0  501    0  0.00000000000E+00  0.00000000000E+00  0.60965685136E+02  0.60965685136E+02  0.00000000000E+00 0. -1.
         -1   -1    0    0    0  501 -0.00000000000E+00 -0.00000000000E+00 -0.23004962124E+03  0.23004962124E+03  0.00000000000E+00 0.  1.
         23    2    1    2    0    0  0.41007976604E+02  0.43601859675E+01 -0.12989276719E+03  0.18435170396E+03  0.12414811483E+03 0.  0.
          5    1    3    3  502    0  0.22835322711E+02  0.54542706422E+02 -0.20781922263E+02  0.62814962231E+02  0.41800000000E+01 0. -1.
         -5    1    3    3    0  502  0.18172653893E+02 -0.50182520454E+02 -0.10911084493E+03  0.12153674173E+03  0.41800000000E+01 0. -1.
        -11    1    1    2    0    0 -0.35585350004E+02  0.52200777702E+01 -0.67392826387E+02  0.76389524119E+02  0.00000000000E+00 0.  1.
         11    1    1    2    0    0 -0.54226266000E+01 -0.95802637377E+01  0.28201657474E+02  0.30274078298E+02  0.00000000000E+00 0. -1.
</event>
<event>
 7    1  0.6671761E-006  0.1011036E+03  0.7561462E-02  0.1277992E+00
         -2   -1    0    0    0  501 -0.00000000000E+00  0.00000000000E+00  0.99702393149E+02  0.99702393149E+02  0.00000000000E+00 0. -1.
          2   -1    0    0  501    0  0.00000000000E+00 -0.00000000000E+00 -0.16041418855E+03  0.16041418855E+03  0.00000000000E+00 0.  1.
         23    2    1    2    0    0 -0.31917409084E+02  0.45471337036E+02 -0.57741211801E+00  0.13687562466E+03  0.12509292437E+03 0.  0.
          5    1    3    3  502    0 -0.30606828914E+02  0.69398081114E+02  0.42765549410E+02  0.87173598382E+02  0.41800000000E+01 0.  1.
         -5    1    3    3    0  502 -0.13105801698E+01 -0.23926744078E+02 -0.43342961528E+02  0.49702026282E+02  0.41800000000E+01 0.  1.
        -11    1    1    2    0    0  0.25221605049E+02  0.22391861364E+02 -0.22649731783E+01  0.33803179141E+02  0.00000000000E+00 0. -1.
         11    1    1    2    0    0  0.66958040353E+01 -0.67863198400E+02 -0.57869410105E+02  0.89437777894E+02  0.00000000000E+00 0.  1.
</event>
<event>
 6    1  0.6671761E-006  0.1193556E+03  0.7561462E-02  0.1244164E+00
          3   -1    0    0  501    0  0.00000000000E+00  0.00000000000E+00  0.20831443154E+03  0.20831443154E+03  0.00000000000E+00 0. -1.
         -3   -1    0    0    0  501 -0.00000000000E+00 -0.00000000000E+00 -0.11589802391E+03  0.11589802391E+03  0.00000000000E+00 0.  1.
          5    1    1    2  502    0  0.29301699797E+02  0.20863256332E+02  0.15031977339E+02  0.39208389644E+02  0.41800000000E+01 0. -1.
         -5    1    1    2    0  502 -0.98922897859E+02 -0.33372109375E+02 -0.48199315678E+02  0.11506556321E+03  0.41800000000E+01 0.  1.
        -11    1    1    2    0    0  0.40353530370E+02  0.40745663901E+02  0.11406677608E+03  0.12767085002E+03  0.00000000000E+00 0. -1.
         11    1    1    2    0    0  0.29267667691E+02 -0.28236810858E+02  0.11516969891E+02  0.42267652584E+02  0.00000000000E+00 0.  1.
</event>
<event>
 7    1  0.6671761E-006  0.1080863E+03  0.7561462E-02  0.1264155E+00
         -1   -1    0    0    0  501 -0.00000000000E+00  0.00000000000E+00  0.18792284343E+02  0.18792284343E+02  0.00000000000E+00 0.  1.
          1   -1    0    0  501    0  0.00000000000E+00 -0.00000000000E+00 -0.83271427234E+03  0.83271427234E+03  0.00000000000E+00 0. -1.
         23    2    1    2    0    0  0.83456164583E+01 -0.59902926234E+02 -0.48328644455E+03  0.50286247385E+03  0.12508745033E+03 0.  0.
          5    1    3    3  502    0 -0.99589859435E+01  0.21198782451E+02 -0.30687382891E+03  0.30779471900E+03  0.41800000000E+01 0.  1.
         -5    1    3    3    0  502  0.18304602402E+02 -0.81101708686E+02 -0.17641261564E+03  0.19506775484E+03  0.41800000000E+01 0.  1.
        -11    1    1    2    0    0  0.40275276238E+02  0.15082728396E+02 -0.15889867872E+03  0.16461584575E+03  0.00000000000E+00 0. -1.
         11    1    1    2    0    0 -0.48620892696E+02  0.44820197839E+02 -0.17173686472E+03  0.18402823709E+03  0.00000000000E+00 0.  1.
</event>
<event>
 7    1  0.6671761E-006  0.1153468E+03  0.7561462E-02  0.1250977E+00
          2   -1    0    0  501    0  0.00000000000E+00  0.00000000000E+00  0.57171216240E+02  0.57171216240E+02  0.00000000000E+00 0. -1.
         -2   -1    0    0    0  501 -0.00000000000E+00 -0.00000000000E+00 -0.29288656271E+03  0.29288656271E+03  0.00000000000E+00 0.  1.
         23    2    1    2    0    0 -0.15256871790E+02  0.44370839837E+02 -0.20318899028E+03  0.24317798550E+03  0.12509285870E+03 0.  0.
          5    1    3    3  502    0 -0.51816866008E+02 -0.21372144574E+02 -0.66243080349E+02  0.86875625240E+02  0.41800000000E+01 0.  1.
         -5    1    3    3    0  502  0.36559994218E+02  0.65742984411E+02 -0.13694590993E+03  0.15630236026E+03  0.41800000000E+01 0.  1.
        -11    1    1    2    0    0 -0.27371509820E+02 -0.49142502994E+02 -0.62998003527E+01  0.56602761725E+02  0.00000000000E+00 0.  1.
         11    1    1    2    0    0  0.42628381610E+02  0.47716631576E+01 -0.26226555837E+02  0.50277031725E+02  0.00000000000E+00 0. -1.
</event>
<event>
 7    1  0.6671761E-006  0.1161616E+03  0.7561462E-02  0.1249567E+00
          1   -1    0    0  501    0  0.00000000000E+00  0.00000000000E+00  0.39029862478E+03  0.39029862478E+03  0.00000000000E+00 0. -1.
         -1   -1    0    0    0  501 -0.00000000000E+00 -0.00000000000E+00 -0.52956692288E+02  0.52956692288E+02  0.00000000000E+00 0.  1.
         23    2    1    2    0    0 -0.50203564847E+02 -0.38638753819E+02  0.76960627550E+02  0.15995009261E+03  0.12509093777E+03 0.  0.
          5    1    3    3  502    0  0.24918901369E+02 -0.37820166391E+02 -0.83009978600E+01  0.46235220306E+02  0.41800000000E+01 0.  1.
         -5    1    3    3    0  502 -0.75122466215E+02 -0.81858742744E+00  0.85261625410E+02  0.11371487230E+03  0.41800000000E+01 0.  1.
        -11    1    1    2    0    0  0.11034439186E+02  0.63992827258E+02  0.14759073318E+03  0.16124473730E+03  0.00000000000E+00 0. -1.
         11    1    1    2    0    0  0.39169125660E+02 -0.25354073440E+02  0.11279057177E+03  0.12206048716E+03  0.00000000000E+00 0.  1.
</event>
<event>
 7    1  0.6671761E-006  0.1816922E+03  0.7561462E-02  0.1166175E+00
         -3   -1    0    0    0  501 -0.00000000000E+00  0.00000000000E+00  0.28012158061E+03  0.28012158061E+03  0.00000000000E+00 0.  1.
          3   -1    0    0  501    0  0.00000000000E+00 -0.00000000000E+00 -0.12534458636E+03  0.12534458636E+03  0.00000000000E+00 0. -1.
         23    2    1    2    0    0 -0.34680379893E+02  0.14760009981E+03  0.97521581791E+02  0.21942178922E+03  0.12508774702E+03 0.  0.
          5    1    3    3  502    0  0.41836535468E+02  0.21693283260E+02  0.11228328498E+02  0.48625528269E+02  0.41800000000E+01 0.  1.
         -5    1    3    3    0  502 -0.76516915361E+02  0.12590681655E+03  0.86293253293E+02  0.17079626095E+03  0.41800000000E+01 0.  1.
        -11    1    1    2    0    0 -0.19292034020E+02 -0.79382245857E+02  0.56008178682E+02  0.99048672951E+02  0.00000000000E+00 0.  1.
         11    1    1    2    0    0  0.53972413913E+02 -0.68217853953E+02  0.12472337839E+01  0.86995704800E+02  0.00000000000E+00 0. -1.
</event>
<event>
 7    1  0.6671761E-006  0.9015011E+02  0.7561462E-02  0.1302489E+00
          2   -1    0    0  501    0  0.00000000000E+00  0.00000000000E+00  0.85975427370E+02  0.85975427370E+02  0.00000000000E+00 0. -1.
         -2   -1    0    0    0  501 -0.00000000000E+00 -0.00000000000E+00 -0.13725144907E+03  0.13725144907E+03  0.00000000000E+00 0.  1.
         23    2    1    2    0    0  0.12803474428E+02 -0.63773083592E+01 -0.43477043903E+02  0.13320470011E+03  0.12509452332E+03 0.  0.
          5    1    3    3  502    0  0.48239713340E+02  0.15000737863E+02  0.22299848219E+02  0.55379127026E+02  0.41800000000E+01 0. -1.
         -5    1    3    3    0  502 -0.35436238912E+02 -0.21378046222E+02 -0.65776892121E+02  0.77825573082E+02  0.41800000000E+01 0. -1.
        -11    1    1    2    0    0 -0.49887571065E+02  0.95515734983E+01 -0.13025617470E+02  0.52437286482E+02  0.00000000000E+00 0.  1.
         11    1    1    2    0    0  0.37084096637E+02 -0.31742651391E+01  0.52266396750E+01  0.37584889848E+02  0.00000000000E+00 0. -1.
</event>
<event>
 7    1  0.6671761E-006  0.1345632E+03  0.7561462E-02  0.1220838E+00
         -2   -1    0    0    0  501 -0.00000000000E+00  0.00000000000E+00  0.28328919342E+02  0.28328919342E+02  0.00000000000E+00 0.  1.
          2   -1    0    0  501    0  0.00000000000E+00 -0.00000000000E+00 -0.73038443263E+03  0.73038443263E+03  0.00000000000E+00 0. -1.
         23    2    1    2    0    0  0.87044175110E+02  0.30201636193E+02 -0.43493227130E+03  0.46184692816E+03  0.12509067583E+03 0.  0.
          5    1    3    3  502    0 -0.23841840683E+00  0.59528066514E+02 -0.22074652404E+03  0.22867039123E+03  0.41800000000E+01 0.  1.
         -5    1    3    3    0  502  0.87282593516E+02 -0.29326430321E+02 -0.21418574726E+03  0.23317653693E+03  0.41800000000E+01 0.  1.
        -11    1    1    2    0    0 -0.20918360199E+02 -0.44904739956E+02 -0.54203422251E+02  0.73430405471E+02  0.00000000000E+00 0.  1.
         11    1    1    2    0    0 -0.66125814911E+02  0.14703103763E+02 -0.21291981974E+03  0.22343601835E+03  0.00000000000E+00 0. -1.
</event>
<event>
 7    1  0.1038917E-005  0.4186311E+03  0.7561462E-02  0.1037513E+00
         -1   -1    0    0    0  501 -0.00000000000E+00  0.00000000000E+00  0.56046229465E+03  0.56046229465E+03  0.00000000000E+00 0.  1.
          1   -1    0    0  501    0  0.00000000000E+00 -0.00000000000E+00 -0.32917725211E+03  0.32917725211E+03  0.00000000000E+00 0. -1.
         23    2    1    2    0    0 -0.32120261438E+03 -0.25709210773E+03  0.17737022202E+03  0.46516152997E+03  0.12509029523E+03 0.  0.
          5    1    3    3  502    0 -0.63687200129E+02 -0.11014336977E+02  0.64722997506E+02  0.91563714896E+02  0.41800000000E+01 0. -1.
         -5    1    3    3    0  502 -0.25751541425E+03 -0.24607777075E+03  0.11264722451E+03  0.37359781507E+03  0.41800000000E+01 0. -1.
        -11    1    1    2    0    0  0.45169012289E+02  0.68221426938E+02 -0.14482850578E+02  0.83091249392E+02  0.00000000000E+00 0. -1.
         11    1    1    2    0    0  0.27603360209E+03  0.18887068079E+03  0.68397671096E+02  0.34138676740E+03  0.00000000000E+00 0.  1.
</event>
<event>
 7    1  0.6671761E-006  0.8509904E+02  0.7561462E-02  0.1315174E+00
          1   -1    0    0  501    0  0.00000000000E+00  0.00000000000E+00  0.88095820601E+03  0.88095820601E+03  0.00000000000E+00 0.  1.
         -1   -1    0    0    0  501 -0.00000000000E+00 -0.00000000000E+00 -0.18090505228E+02  0.18090505228E+02  0.00000000000E+00 0. -1.
         23    2    1    2    0    0  0.12810219735E+01 -0.54065722332E+02  0.35546478065E+03  0.38069418430E+03  0.12509239916E+03 0.  0.
          5    1    3    3  502    0 -0.15768161494E+02 -0.35320674667E+02  0.19083526200E+02  0.43334032215E+02  0.41800000000E+01 0.  1.
         -5    1    3    3    0  502  0.17049183467E+02 -0.18745047665E+02  0.33638125445E+03  0.33736015209E+03  0.41800000000E+01 0.  1.
        -11    1    1    2    0    0  0.12170637841E+02 -0.23725726668E+02  0.10998259926E+03  0.11316892980E+03  0.00000000000E+00 0.  1.
         11    1    1    2    0    0 -0.13451659814E+02  0.77791449000E+02  0.39742032087E+03  0.40518559714E+03  0.00000000000E+00 0. -1.
</event>
<event>
 7    1  0.6671761E-006  0.1099427E+03  0.7561462E-02  0.1260676E+00
          2   -1    0    0  501    0  0.00000000000E+00  0.00000000000E+00  0.52186045045E+03  0.52186045045E+03  0.00000000000E+00 0. -1.
         -2   -1    0    0    0  501 -0.00000000000E+00 -0.00000000000E+00 -0.27794921672E+02  0.27794921672E+02  0.00000000000E+00 0.  1.
         23    2    1    2    0    0 -0.43880860287E+02  0.17685670313E+02  0.26292967971E+03  0.29498740181E+03  0.12508892004E+03 0.  0.
          5    1    3    3  502    0  0.29378549859E+02  0.38748999607E+02  0.55245288717E+02  0.73716337998E+02  0.41800000000E+01 0. -1.
         -5    1    3    3    0  502 -0.73259410146E+02 -0.21063329294E+02  0.20768439100E+03  0.22127106381E+03  0.41800000000E+01 0. -1.
        -11    1    1    2    0    0 -0.24533177334E+02 -0.25190584746E+01  0.12551645397E+03  0.12791638935E+03  0.00000000000E+00 0. -1.
         11    1    1    2    0    0  0.68414037621E+02 -0.15166611838E+02  0.10561939510E+03  0.12675158097E+03  0.00000000000E+00 0.  1.
</event>
<event>
 7    1  0.8239130E-006  0.3399373E+03  0.7561462E-02  0.1066823E+00
         -1   -1    0    0    0  501 -0.00000000000E+00  0.00000000000E+00  0.82941444525E+03  0.82941444525E+03  0.00000000000E+00 0.  1.
          1   -1    0    0  501    0  0.00000000000E+00 -0.00000000000E+00 -0.20319389022E+03  0.20319389022E+03  0.00000000000E+00 0. -1.
         23    2    1    2    0    0 -0.16642645303E+03  0.28379942596E+03  0.59301698032E+03  0.68960661136E+03  0.12509300952E+03 0.  0.
          5    1    3    3  502    0 -0.18317969493E+03  0.24984924064E+03  0.55595949595E+03  0.63646514218E+03  0.41800000000E+01 0.  1.
         -5    1    3    3    0  502  0.16753241896E+02  0.33950185327E+02  0.37057484377E+02  0.53141469175E+02  0.41800000000E+01 0.  1.
        -11    1    1    2    0    0  0.53978549787E+02 -0.13538957206E+03  0.54455965914E+02  0.15559393396E+03  0.00000000000E+00 0.  1.
         11    1    1    2    0    0  0.11244790324E+03 -0.14840985390E+03 -0.21252391211E+02  0.18740779016E+03  0.00000000000E+00 0. -1.
</event>
<event>
 7    1  0.6671761E-006  0.2429913E+03  0.7561462E-02  0.1117816E+00
         -3   -1    0    0    0  501 -0.00000000000E+00  0.00000000000E+00  0.52346347408E+03  0.52346347408E+03  0.00000000000E+00 0.  1.
          3   -1    0    0  501    0  0.00000000000E+00 -0.00000000000E+00 -0.11485395197E+03  0.11485395197E+03  0.00000000000E+00 0. -1.
         23    2    1    2    0    0 -0.43622725370E+02 -0.21635547087E+03  0.22720609964E+03  0.34056506395E+03  0.12509723869E+03 0.  0.
          5    1    3    3  502    0  0.40490578098E+02 -0.54986162796E+02  0.39056167213E+02  0.78777037333E+02  0.41800000000E+01 0.  1.
         -5    1    3    3    0  502 -0.84113303468E+02 -0.16136930808E+03  0.18814993243E+03  0.26178802662E+03  0.41800000000E+01 0.  1.
        -11    1    1    2    0    0  0.65927318913E+02  0.18946975400E+03  0.16154297437E+03  0.25756811066E+03  0.00000000000E+00 0. -1.
         11    1    1    2    0    0 -0.22304593543E+02  0.26885716871E+02  0.19860448108E+02  0.40184251441E+02  0.00000000000E+00 0.  1.
</event>
<event>
 7    1  0.6671761E-006  0.1237463E+03  0.7561462E-02  0.1237042E+00
          1   -1    0    0  501    0  0.00000000000E+00  0.00000000000E+00  0.47444518581E+03  0.47444518581E+03  0.00000000000E+00 0. -1.
         -1   -1    0    0    0  501 -0.00000000000E+00 -0.00000000000E+00 -0.33329933471E+02  0.33329933471E+02  0.00000000000E+00 0.  1.
         23    2    1    2    0    0 -0.39334944235E+02  0.61916044252E+02  0.21593099379E+03  0.25970156888E+03  0.12424925121E+03 0.  0.
          5    1    3    3  502    0 -0.56136903824E+02  0.92995434258E+02  0.16354039249E+03  0.19637320372E+03  0.41800000000E+01 0. -1.
         -5    1    3    3    0  502  0.16801959588E+02 -0.31079390005E+02  0.52390601292E+02  0.63328365152E+02  0.41800000000E+01 0.  1.
        -11    1    1    2    0    0 -0.17686271396E+02  0.17134002947E+01  0.52154118737E+02  0.55098022085E+02  0.00000000000E+00 0. -1.
         11    1    1    2    0    0  0.57021215631E+02 -0.63629444547E+02  0.17303013981E+03  0.19297552832E+03  0.00000000000E+00 0.  1.
</event>
<event>
 7    1  0.6671761E-006  0.1443060E+03  0.7561462E-02  0.1207650E+00
         -2   -1    0    0    0  501 -0.00000000000E+00  0.00000000000E+00  0.50169351283E+02  0.50169351283E+02  0.00000000000E+00 0. -1.
          2   -1    0    0  501    0  0.00000000000E+00 -0.00000000000E+00 -0.51365118812E+03  0.51365118812E+03  0.00000000000E+00 0.  1.
         23    2    1    2    0    0 -0.12337589969E+02  0.11034311308E+03 -0.17671248689E+03  0.24331450942E+03  0.12508728448E+03 0.  0.
          5    1    3    3  502    0  0.36940270186E+02  0.65516317297E+01 -0.95109538194E+02  0.10232694706E+03  0.41800000000E+01 0. -1.
         -5    1    3    3    0  502 -0.49277860155E+02  0.10379148135E+03 -0.81602948701E+02  0.14098756235E+03  0.41800000000E+01 0. -1.
        -11    1    1    2    0    0 -0.14688601919E+01  0.12343491332E+02 -0.69551917340E+02  0.70654005790E+02  0.00000000000E+00 0.  1.
         11    1    1    2    0    0  0.13806450160E+02 -0.12268660441E+03 -0.21721743260E+03  0.24985202419E+03  0.00000000000E+00 0. -1.
</event>
<event>
 6    1  0.6671761E-006  0.2846856E+03  0.7561462E-02  0.1093157E+00
          2   -1    0    0  501    0  0.00000000000E+00  0.00000000000E+00  0.15615732399E+04  0.15615732399E+04  0.00000000000E+00 0. -1.
         -2   -1    0    0    0  501 -0.00000000000E+00 -0.00000000000E+00 -0.89062651039E+02  0.89062651039E+02  0.00000000000E+00 0.  1.
          5    1    1    2  502    0 -0.20907434748E+02  0.18499251225E+03  0.28204591261E+03  0.33797443637E+03  0.41800000000E+01 0. -1.
         -5    1    1    2    0  502  0.11973189262E+03  0.47163001650E+02  0.45193913593E+02  0.13645525663E+03  0.41800000000E+01 0.  1.
        -11    1    1    2    0    0 -0.88835280110E+02 -0.22557785162E+03  0.11344859932E+04  0.11601015226E+04  0.00000000000E+00 0. -1.
         11    1    1    2    0    0 -0.99891777616E+01 -0.65776622882E+01  0.10784769460E+02  0.16104675279E+02  0.00000000000E+00 0.  1.
</event>
<event>
 7    1  0.6671761E-006  0.1274558E+03  0.7561462E-02  0.1231280E+00
          2   -1    0    0  501    0  0.00000000000E+00  0.00000000000E+00  0.43917911692E+03  0.43917911692E+03  0.00000000000E+00 0. -1.
         -2   -1    0    0    0  501 -0.00000000000E+00 -0.00000000000E+00 -0.70526554068E+02  0.70526554068E+02  0.00000000000E+00 0.  1.
         23    2    1    2    0    0  0.20643386782E+02  0.11850084511E+03  0.97229193161E+02  0.19892227608E+03  0.12509179113E+03 0.  0.
          5    1    3    3  502    0 -0.89665565993E+01  0.97429662697E+02  0.31501530906E+01  0.97981295026E+02  0.41800000000E+01 0.  1.
         -5    1    3    3    0  502  0.29609943381E+02  0.21071182410E+02  0.94079040071E+02  0.10094098105E+03  0.41800000000E+01 0.  1.
        -11    1    1    2    0    0 -0.16345844213E+02 -0.79540908675E+02  0.75172093389E+02  0.11065616296E+03  0.00000000000E+00 0.  1.
         11    1    1    2    0    0 -0.42975425687E+01 -0.38959936432E+02  0.19625127631E+03  0.20012723196E+03  0.00000000000E+00 0. -1.
</event>
<event>
 7    1  0.6671761E-006  0.1126140E+03  0.7561462E-02  0.1255804E+00
          2   -1    0    0  501    0  0.00000000000E+00  0.00000000000E+00  0.58587883473E+03  0.58587883473E+03  0.00000000000E+00 0. -1.
         -2   -1    0    0    0  501 -0.00000000000E+00 -0.00000000000E+00 -0.34037202424E+02  0.34037202424E+02  0.00000000000E+00 0.  1.
         23    2    1    2    0    0 -0.45929968622E+01 -0.89277205178E+02  0.28186807870E+03  0.32107512471E+03  0.12509239356E+03 0.  0.
          5    1    3    3  502    0 -0.15500930548E+02  0.14809663339E+02  0.16297184652E+01  0.21902816220E+02  0.41800000000E+01 0. -1.
         -5    1    3    3    0  502  0.10907933686E+02 -0.10408686852E+03  0.28023836024E+03  0.29917230849E+03  0.41800000000E+01 0. -1.
        -11    1    1    2    0    0  0.23275438429E+02  0.49831368954E+02  0.23918761878E+03  0.24542947733E+03  0.00000000000E+00 0. -1.
         11    1    1    2    0    0 -0.18682441566E+02  0.39445836224E+02  0.30785934822E+02  0.53411435117E+02  0.00000000000E+00 0.  1.
</event>
<event>
 7    1  0.6671761E-006  0.8388010E+02  0.7561462E-02  0.1318387E+00
         -1   -1    0    0    0  501 -0.00000000000E+00  0.00000000000E+00  0.15797079398E+03  0.15797079398E+03  0.00000000000E+00 0.  1.
          1   -1    0    0  501    0  0.00000000000E+00 -0.00000000000E+00 -0.90660209599E+02  0.90660209599E+02  0.00000000000E+00 0. -1.
         23    2    1    2    0    0 -0.61376694514E+00 -0.41229505796E+02  0.69718091753E+02  0.14902514154E+03  0.12509049379E+03 0.  0.
          5    1    3    3  502    0  0.18922551669E+02  0.12164887012E+02 -0.27836992514E+02  0.36033567543E+02  0.41800000000E+01 0.  1.
         -5    1    3    3    0  502 -0.19536318614E+02 -0.53394392807E+02  0.97555084267E+02  0.11299157400E+03  0.41800000000E+01 0.  1.
        -11    1    1    2    0    0 -0.78920229018E+01 -0.22361160831E+02  0.20637193159E+02  0.31435637113E+02  0.00000000000E+00 0.  1.
         11    1    1    2    0    0  0.85057898469E+01  0.63590666627E+02 -0.23044700536E+02  0.68170224921E+02  0.00000000000E+00 0. -1.
</event>
<event>
 7    1  0.8114686E-006  0.9411575E+02  0.7561462E-02  0.1293180E+00
         -1   -1    0    0    0  501 -0.00000000000E+00  0.00000000000E+00  0.37540049151E+02  0.37540049151E+02  0.00000000000E+00 0.  1.
          1   -1    0    0  501    0  0.00000000000E+00 -0.00000000000E+00 -0.27262861437E+03  0.27262861437E+03  0.00000000000E+00 0. -1.
         23    2    1    2    0    0 -0.12833367125E+02 -0.26388850395E+02 -0.12433361309E+03  0.17879572678E+03  0.12509195751E+03 0.  0.
          5    1    3    3  502    0 -0.63106624065E+02 -0.50779558947E+01 -0.10098417405E+03  0.11926234714E+03  0.41800000000E+01 0.  1.
         -5    1    3    3    0  502  0.50273256940E+02 -0.21310894500E+02 -0.23349439038E+02  0.59533379638E+02  0.41800000000E+01 0.  1.
        -11    1    1    2    0    0  0.17016488395E+02 -0.18384728749E+02 -0.48342479451E+02  0.54447722155E+02  0.00000000000E+00 0. -1.
         11    1    1    2    0    0 -0.41831212697E+01  0.44773579144E+02 -0.62412472676E+02  0.76925214582E+02  0.00000000000E+00 0.  1.
</event>
<event>
 7    1  0.6671761E-006  0.1480796E+03  0.7561462E-02  0.1202853E+00
         -2   -1    0    0    0  501 -0.00000000000E+00  0.00000000000E+00  0.56404512847E+03  0.56404512847E+03  0.00000000000E+00 0.  1.
          2   -1    0    0  501    0  0.00000000000E+00 -0.00000000000E+00 -0.60229408830E+02  0.60229408830E+02  0.00000000000E+00 0. -1.
         23    2    1    2    0    0 -0.39839645560E+02 -0.13632205622E+03  0.34137384582E+03  0.39032450664E+03  0.12508484121E+03 0.  0.
          5    1    3    3  502    0 -0.37961914471E+02 -0.99576632325E+02  0.33647430314E+03  0.35297172937E+03  0.41800000000E+01 0. -1.
         -5    1    3    3    0  502 -0.18777310893E+01 -0.36745423897E+02  0.48995426755E+01  0.37352777271E+02  0.41800000000E+01 0. -1.
        -11    1    1    2    0    0 -0.12278913027E+02  0.51346616971E+02  0.13101367580E+02  0.54395703984E+02  0.00000000000E+00 0. -1.
         11    1    1    2    0    0  0.52118558587E+02  0.84975439251E+02  0.14934050624E+03  0.17955432668E+03  0.00000000000E+00 0.  1.
</event>
<event>
 7    1  0.6671761E-006  0.1307051E+03  0.7561462E-02  0.1226413E+00
          2   -1    0    0  501    0  0.00000000000E+00  0.00000000000E+00  0.84180326386E+02  0.84180326386E+02  0.00000000000E+00 0. -1.
         -2   -1    0    0    0  501 -0.00000000000E+00 -0.00000000000E+00 -0.22711405937E+03  0.22711405937E+03  0.00000000000E+00 0.  1.
         23    2    1    2    0    0 -0.85187972901E+02 -0.50785095830E+01 -0.89309858378E+02  0.17579876727E+03  0.12508466646E+03 0.  0.
          5    1    3    3  502    0 -0.84628366423E+02  0.40558876284E+02 -0.25687689606E+02  0.97387435771E+02  0.41800000000E+01 0.  1.
         -5    1    3    3    0  502 -0.55960647809E+00 -0.45637385867E+02 -0.63622168772E+02  0.78411331499E+02  0.41800000000E+01 0.  1.
        -11    1    1    2    0    0  0.80388253318E+02 -0.30320922736E+02 -0.24323461706E+02  0.89293115168E+02  0.00000000000E+00 0. -1.
         11    1    1    2    0    0  0.47997195831E+01  0.35399432319E+02 -0.29300412900E+02  0.46202503316E+02  0.00000000000E+00 0.  1.
</event>
<event>
 7    1  0.6671761E-006  0.1289985E+03  0.7561462E-02  0.1228949E+00
         -2   -1    0    0    0  501 -0.00000000000E+00  0.00000000000E+00  0.85565608378E+02  0.85565608378E+02  0.00000000000E+00 0.  1.
          2   -1    0    0  501    0  0.00000000000E+00 -0.00000000000E+00 -0.24292800787E+03  0.24292800787E+03  0.00000000000E+00 0. -1.
         23    2    1    2    0    0 -0.54813832514E+02 -0.74485556637E+02 -0.43210081397E+02  0.16145619336E+03  0.12509331260E+03 0.  0.
          5    1    3    3  502    0 -0.75708155564E+02 -0.97403721736E+02 -0.41067817491E+02  0.13008938412E+03  0.41800000000E+01 0.  1.
         -5    1    3    3    0  502  0.20894323051E+02  0.22918165099E+02 -0.21422639064E+01  0.31366809240E+02  0.41800000000E+01 0.  1.
        -11    1    1    2    0    0  0.44546507024E+02  0.21809040618E+02 -0.11066625145E+02  0.50818261804E+02  0.00000000000E+00 0.  1.
         11    1    1    2    0    0  0.10267325490E+02  0.52676516018E+02 -0.10308569295E+03  0.11621916109E+03  0.00000000000E+00 0. -1.
</event>
<event>
 7    1  0.6671761E-006  0.1048052E+03  0.7561462E-02  0.1270504E+00
          2   -1    0    0  501    0  0.00000000000E+00  0.00000000000E+00  0.33374142237E+03  0.33374142237E+03  0.00000000000E+00 0. -1.
         -2   -1    0    0    0  501 -0.00000000000E+00 -0.00000000000E+00 -0.43351860550E+02  0.43351860550E+02  0.00000000000E+00 0.  1.
         23    2    1    2    0    0  0.43323968864E+02  0.15264505816E+02  0.12894136733E+03  0.18542275555E+03  0.12508297506E+03 0.  0.
          5    1    3    3  502    0  0.75702171797E+02  0.43965725551E+02  0.10110756131E+03  0.13380588624E+03  0.41800000000E+01 0. -1.
         -5    1    3    3    0  502 -0.32378202932E+02 -0.28701219735E+02  0.27833806020E+02  0.51616869306E+02  0.41800000000E+01 0. -1.
        -11    1    1    2    0    0 -0.22510099128E+02  0.24712281214E+02  0.13571483290E+03  0.13977094575E+03  0.00000000000E+00 0. -1.
         11    1    1    2    0    0 -0.20813869736E+02 -0.39976787030E+02  0.25733361587E+02  0.51899581628E+02  0.00000000000E+00 0.  1.
</event>
<event>
 7    1  0.6671761E-006  0.1744824E+03  0.7561462E-02  0.1173252E+00
          3   -1    0    0  501    0  0.00000000000E+00  0.00000000000E+00  0.83388289581E+02  0.83388289581E+02  0.00000000000E+00 0. -1.
         -3   -1    0    0    0  501 -0.00000000000E+00 -0.00000000000E+00 -0.48299215668E+03  0.48299215668E+03  0.00000000000E+00 0.  1.
         23    2    1    2    0    0 -0.27745037337E+02 -0.16533073072E+03 -0.23594295175E+03  0.31531005884E+03  0.12508924457E+03 0.  0.
          5    1    3    3  502    0  0.10707304880E+02 -0.26827697720E+02 -0.13864544400E+03  0.14168416738E+03  0.41800000000E+01 0.  1.
         -5    1    3    3    0  502 -0.38452342216E+02 -0.13850303300E+03 -0.97297507746E+02  0.17362589146E+03  0.41800000000E+01 0.  1.
        -11    1    1    2    0    0  0.39166713277E+02  0.72128201592E+02 -0.12496822943E+03  0.14951109411E+03  0.00000000000E+00 0.  1.
         11    1    1    2    0    0 -0.11421675941E+02  0.93202529123E+02 -0.38692685922E+02  0.10155929332E+03  0.00000000000E+00 0. -1.
</event>
<event>
 7    1  0.6671761E-006  0.1777415E+03  0.7561462E-02  0.1170007E+00
         -1   -1    0    0    0  501 -0.00000000000E+00  0.00000000000E+00  0.15596647879E+03  0.15596647879E+03  0.00000000000E+00 0.  1.
          1   -1    0    0  501    0  0.00000000000E+00 -0.00000000000E+00 -0.26987228387E+03  0.26987228387E+03  0.00000000000E+00 0. -1.
         23    2    1    2    0    0 -0.15986992465E+03  0.64146095810E+02 -0.38160218291E+02  0.21628082458E+03  0.12509227956E+03 0.  0.
          5    1    3    3  502    0 -0.63007871128E+02  0.40093615680E+02 -0.78610170602E+02  0.10851046569E+03  0.41800000000E+01 0.  1.
         -5    1    3    3    0  502 -0.96862053524E+02  0.24052480130E+02  0.40449952311E+02  0.10777035889E+03  0.41800000000E+01 0.  1.
        -11    1    1    2    0    0  0.84121015104E+02 -0.42576945451E+01  0.39985850941E+01  0.84323554407E+02  0.00000000000E+00 0.  1.
         11    1    1    2    0    0  0.75748909547E+02 -0.59888401265E+02 -0.79744171890E+02  0.12523438367E+03  0.00000000000E+00 0. -1.
</event>
<event>
 7    1  0.6671761E-006  0.1257212E+03  0.7561462E-02  0.1233946E+00
         -2   -1    0    0    0  501 -0.00000000000E+00  0.00000000000E+00  0.14417127779E+03  0.14417127779E+03  0.00000000000E+00 0.  1.
          2   -1    0    0  501    0  0.00000000000E+00 -0.00000000000E+00 -0.17492304216E+03  0.17492304216E+03  0.00000000000E+00 0. -1.
         23    2    1    2    0    0 -0.18003344847E+02  0.79509913415E+02  0.65564204885E+02  0.16305891852E+03  0.12507437464E+03 0.  0.
          5    1    3    3  502    0  0.11043990183E+02  0.10346773669E+03  0.24095061556E+02  0.10689053581E+03  0.41800000000E+01 0.  1.
         -5    1    3    3    0  502 -0.29047335030E+02 -0.23957823272E+02  0.41469143329E+02  0.56168382714E+02  0.41800000000E+01 0.  1.
        -11    1    1    2    0    0 -0.37485124496E+01  0.13442580864E+02  0.67916284935E+01  0.15520326783E+02  0.00000000000E+00 0.  1.
         11    1    1    2    0    0  0.21751857297E+02 -0.92952494279E+02 -0.10310759775E+03  0.14051507464E+03  0.00000000000E+00 0. -1.
</event>
<event>
 7    1  0.6671761E-006  0.1062571E+03  0.7561462E-02  0.1267662E+00
         -2   -1    0    0    0  501 -0.00000000000E+00  0.00000000000E+00  0.68106134280E+02  0.68106134280E+02  0.00000000000E+00 0.  1.
          2   -1    0    0  501    0  0.00000000000E+00 -0.00000000000E+00 -0.33431283348E+03  0.33431283348E+03  0.00000000000E+00 0. -1.
         23    2    1    2    0    0  0.74113127476E+02 -0.30111126091E+02 -0.54548479988E+02  0.15818337282E+03  0.12508799778E+03 0.  0.
          5    1    3    3  502    0  0.89084714058E+02  0.41640313489E+01  0.31043687545E+01  0.89333839844E+02  0.41800000000E+01 0.  1.
         -5    1    3    3    0  502 -0.14971586582E+02 -0.34275157440E+02 -0.57652848743E+02  0.68849532972E+02  0.41800000000E+01 0.  1.
        -11    1    1    2    0    0 -0.67049538881E+01  0.15125920767E+02  0.46386057396E+01  0.17183321824E+02  0.00000000000E+00 0.  1.
         11    1    1    2    0    0 -0.67408173588E+02  0.14985205325E+02 -0.21629682495E+03  0.22705227312E+03  0.00000000000E+00 0. -1.
</event>
<event>
 7    1  0.6671761E-006  0.2269122E+03  0.7561462E-02  0.1128832E+00
         -4   -1    0    0    0  501 -0.00000000000E+00  0.00000000000E+00  0.29780610128E+03  0.29780610128E+03  0.00000000000E+00 0.  1.
          4   -1    0    0  501    0  0.00000000000E+00 -0.00000000000E+00 -0.18309089360E+03  0.18309089360E+03  0.00000000000E+00 0. -1.
         23    2    1    2    0    0  0.12608443198E+03 -0.16218469590E+03  0.78846950544E+02  0.25311980108E+03  0.12510648470E+03 0.  0.
          5    1    3    3  502    0 -0.13204190416E+02 -0.53038948943E+02  0.49176635345E+02  0.73643021484E+02  0.41800000000E+01 0.  1.
         -5    1    3    3    0  502  0.13928862240E+03 -0.10914574696E+03  0.29670315199E+02  0.17947677959E+03  0.41800000000E+01 0.  1.
        -11    1    1    2    0    0 -0.90923463692E+02  0.48599725807E+02 -0.16041074467E+01  0.10310956677E+03  0.00000000000E+00 0.  1.
         11    1    1    2    0    0 -0.35160968289E+02  0.11358497010E+03  0.37472364589E+02  0.12466762704E+03  0.00000000000E+00 0. -1.
</event>
<event>
 7    1  0.6671761E-006  0.1131495E+03  0.7561462E-02  0.1254846E+00
          2   -1    0    0  501    0  0.00000000000E+00  0.00000000000E+00  0.69305006883E+03  0.69305006883E+03  0.00000000000E+00 0. -1.
         -2   -1    0    0    0  501 -0.00000000000E+00 -0.00000000000E+00 -0.65161404854E+02  0.65161404854E+02  0.00000000000E+00 0.  1.
         23    2    1    2    0    0  0.82977165207E+02 -0.30355103956E+02  0.41901692110E+02  0.15858937522E+03  0.12485269660E+03 0.  0.
          5    1    3    3  502    0  0.14899488159E+02  0.16562551400E+02  0.68087954305E+02  0.71761791907E+02  0.41800000000E+01 0. -1.
         -5    1    3    3    0  502  0.68077677048E+02 -0.46917655356E+02 -0.26186262194E+02  0.86827583314E+02  0.41800000000E+01 0.  1.
        -11    1    1    2    0    0  0.13762675430E+02  0.18974853722E+02  0.55191012464E+02  0.59962523009E+02  0.00000000000E+00 0.  1.
         11    1    1    2    0    0 -0.96739840637E+02  0.11380250234E+02  0.53079595940E+03  0.53965957545E+03  0.00000000000E+00 0. -1.
</event>
<event>
 7    1  0.6671761E-006  0.1032159E+03  0.7561462E-02  0.1273675E+00
          1   -1    0    0  501    0  0.00000000000E+00  0.00000000000E+00  0.27687157462E+03  0.27687157462E+03  0.00000000000E+00 0. -1.
         -1   -1    0    0    0  501 -0.00000000000E+00 -0.00000000000E+00 -0.56979511513E+02  0.56979511513E+02  0.00000000000E+00 0.  1.
         23    2    1    2    0    0  0.52259920631E+02 -0.14570374644E+02  0.80663700790E+02  0.15842565999E+03  0.12509461219E+03 0.  0.
          5    1    3    3  502    0 -0.15526753525E+02 -0.29073138644E+02 -0.17988816694E+02  0.37780913060E+02  0.41800000000E+01 0. -1.
         -5    1    3    3    0  502  0.67786674156E+02  0.14502764000E+02  0.98652517484E+02  0.12064474693E+03  0.41800000000E+01 0. -1.
        -11    1    1    2    0    0  0.85681849565E+01 -0.28153691551E+02  0.59746303338E+02  0.66600787563E+02  0.00000000000E+00 0.  1.
         11    1    1    2    0    0 -0.60828105588E+02  0.42724066195E+02  0.79482058979E+02  0.10882463858E+03  0.00000000000E+00 0. -1.
</event>
<event>
 7    1  0.9287341E-006  0.1533583E+03  0.7561462E-02  0.1196406E+00
         -4   -1    0    0    0  501 -0.00000000000E+00  0.00000000000E+00  0.64692325668E+02  0.64692325668E+02  0.00000000000E+00 0.  1.
          4   -1    0    0  501    0  0.00000000000E+00 -0.00000000000E+00 -0.48162294339E+03  0.48162294339E+03  0.00000000000E+00 0. -1.
         23    2    1    2    0    0  0.72009611243E+02  0.10751818319E+03 -0.15614016215E+03  0.23827056447E+03  0.12509023873E+03 0.  0.
          5    1    3    3  502    0  0.64514178606E+02  0.42376755366E+02 -0.98789342622E+01  0.77929034248E+02  0.41800000000E+01 0.  1.
         -5    1    3    3    0  502  0.74954326366E+01  0.65141427827E+02 -0.14626122789E+03  0.16034153022E+03  0.41800000000E+01 0.  1.
        -11    1    1    2    0    0  0.11687582486E+02 -0.71744299665E+02 -0.10757763295E+03  0.12983370607E+03  0.00000000000E+00 0.  1.
         11    1    1    2    0    0 -0.83697193729E+02 -0.35773883528E+02 -0.15321282262E+03  0.17821099853E+03  0.00000000000E+00 0. -1.
</event>
<event>
 7    1  0.6671761E-006  0.1119486E+03  0.7561462E-02  0.1257003E+00
          3   -1    0    0  501    0  0.00000000000E+00  0.00000000000E+00  0.14834147982E+03  0.14834147982E+03  0.00000000000E+00 0. -1.
         -3   -1    0    0    0  501 -0.00000000000E+00 -0.00000000000E+00 -0.99863833516E+02  0.99863833516E+02  0.00000000000E+00 0.  1.
         23    2    1    2    0    0 -0.52935751064E+02  0.45396125726E+01  0.27879323468E+02  0.13873724044E+03  0.12509181982E+03 0.  0.
          5    1    3    3  502    0  0.14250859000E+02  0.40069892126E+02 -0.21669033443E+02  0.47913491290E+02  0.41800000000E+01 0. -1.
         -5    1    3    3    0  502 -0.67186610063E+02 -0.35530279554E+02  0.49548356911E+02  0.90823749149E+02  0.41800000000E+01 0. -1.
        -11    1    1    2    0    0  0.40603219828E+02  0.41097285635E+02 -0.31986759351E+00  0.57772923262E+02  0.00000000000E+00 0. -1.
         11    1    1    2    0    0  0.12332531235E+02 -0.45636898208E+02  0.20918190428E+02  0.51695149632E+02  0.00000000000E+00 0.  1.
</event>
<event>
 7    1  0.6671761E-006  0.6372118E+02  0.7561462E-02  0.1382847E+00
         -2   -1    0    0    0  501 -0.00000000000E+00  0.00000000000E+00  0.34049762355E+02  0.34049762355E+02  0.00000000000E+00 0.  1.
          2   -1    0    0  501    0  0.00000000000E+00 -0.00000000000E+00 -0.46447511351E+03  0.46447511351E+03  0.00000000000E+00 0. -1.
         23    2    1    2    0    0  0.13680877216E+02  0.21761772661E+02 -0.12355192672E+03  0.17768806465E+03  0.12508888269E+03 0.  0.
          5    1    3    3  502    0  0.15524497985E+02  0.27393449210E+01 -0.14657281777E+03  0.14747737914E+03  0.41800000000E+01 0. -1.
         -5    1    3    3    0  502 -0.18436207687E+01  0.19022427740E+02  0.23020891049E+02  0.30210685516E+02  0.41800000000E+01 0. -1.
        -11    1    1    2    0    0  0.28098139964E+02  0.18425042437E+02 -0.14661966973E+03  0.15042046141E+03  0.00000000000E+00 0. -1.
         11    1    1    2    0    0 -0.41779017180E+02 -0.40186815098E+02 -0.16025375470E+03  0.17041634980E+03  0.00000000000E+00 0.  1.
</event>
<event>
 7    1  0.6671761E-006  0.9797602E+02  0.7561462E-02  0.1284611E+00
         -1   -1    0    0    0  501 -0.00000000000E+00  0.00000000000E+00  0.31658146022E+02  0.31658146022E+02  0.00000000000E+00 0.  1.
          1   -1    0    0  501    0  0.00000000000E+00 -0.00000000000E+00 -0.41351901877E+03  0.41351901877E+03  0.00000000000E+00 0. -1.
         23    2    1    2    0    0  0.26536007949E+02  0.26434593324E+02 -0.20704130276E+03  0.24477730352E+03  0.12508748871E+03 0.  0.
          5    1    3    3  502    0 -0.41919238608E+01 -0.34496259486E+02 -0.15487263949E+03  0.15877837071E+03  0.41800000000E+01 0. -1.
         -5    1    3    3    0  502  0.30727931809E+02  0.60930852810E+02 -0.52168663270E+02  0.85998932812E+02  0.41800000000E+01 0. -1.
        -11    1    1    2    0    0  0.24661219016E+02 -0.32751049674E+02 -0.11106061724E+03  0.11838609581E+03  0.00000000000E+00 0. -1.
         11    1    1    2    0    0 -0.51197226965E+02  0.63164563503E+01 -0.63758952750E+02  0.82013765463E+02  0.00000000000E+00 0.  1.
</event>
<event>
 6    1  0.6671761E-006  0.2217455E+03  0.7561462E-02  0.1132588E+00
          3   -1    0    0  501    0  0.00000000000E+00  0.00000000000E+00  0.80818301695E+02  0.80818301695E+02  0.00000000000E+00 0. -1.
         -3   -1    0    0    0  501 -0.00000000000E+00 -0.00000000000E+00 -0.75349050041E+03  0.75349050041E+03  0.00000000000E+00 0.  1.
          5    1    1    2  502    0 -0.13858927304E+03  0.55225881222E+02 -0.15796506172E+03  0.21731847064E+03  0.41800000000E+01 0. -1.
         -5    1    1    2    0  502  0.17462597668E+03 -0.84717187930E+02 -0.46496651167E+03  0.50386760467E+03  0.41800000000E+01 0.  1.
        -11    1    1    2    0    0 -0.64199419142E+02  0.32190100285E+02 -0.44092019163E+02  0.84272617904E+02  0.00000000000E+00 0. -1.
         11    1    1    2    0    0  0.28162715503E+02 -0.26987935773E+01 -0.56486061686E+01  0.28850108889E+02  0.00000000000E+00 0.  1.
</event>
<event>
 7    1  0.6671761E-006  0.1279761E+03  0.7561462E-02  0.1230490E+00
         -2   -1    0    0    0  501 -0.00000000000E+00  0.00000000000E+00  0.13263303883E+02  0.13263303883E+02  0.00000000000E+00 0.  1.
          2   -1    0    0  501    0  0.00000000000E+00 -0.00000000000E+00 -0.14022863386E+04  0.14022863386E+04  0.00000000000E+00 0. -1.
         23    2    1    2    0    0 -0.46446394302E+02  0.65633380409E+02 -0.84409366124E+03  0.85709221181E+03  0.12509173605E+03 0.  0.
          5    1    3    3  502    0 -0.82516438843E+02  0.38784834032E+02 -0.38005107806E+03  0.39085741692E+03  0.41800000000E+01 0.  1.
         -5    1    3    3    0  502  0.36070044541E+02  0.26848546377E+02 -0.46404258318E+03  0.46623479489E+03  0.41800000000E+01 0.  1.
        -11    1    1    2    0    0  0.49631166719E+02 -0.85790827701E+02 -0.48845178397E+03  0.49840592301E+03  0.00000000000E+00 0. -1.
         11    1    1    2    0    0 -0.31847724175E+01  0.20157447292E+02 -0.56477589541E+02  0.60051507700E+02  0.00000000000E+00 0.  1.
</event>
<event>
 7    1  0.6671761E-006  0.1363908E+03  0.7561462E-02  0.1218270E+00
          2   -1    0    0  501    0  0.00000000000E+00  0.00000000000E+00  0.20942563043E+03  0.20942563043E+03  0.00000000000E+00 0. -1.
         -2   -1    0    0    0  501 -0.00000000000E+00 -0.00000000000E+00 -0.10454874136E+03  0.10454874136E+03  0.00000000000E+00 0.  1.
         23    2    1    2    0    0  0.90992840033E+02  0.27318707073E+02  0.18777772995E+02  0.15819449221E+03  0.12508750502E+03 0.  0.
          5    1    3    3  502    0  0.36371357574E+02 -0.50169346832E+02  0.97741660670E+01  0.62871660831E+02  0.41800000000E+01 0.  1.
         -5    1    3    3    0  502  0.54621482459E+02  0.77488053905E+02  0.90036069283E+01  0.95322831377E+02  0.41800000000E+01 0.  1.
        -11    1    1    2    0    0 -0.98825472043E+02 -0.13296303685E+02  0.40839821716E+02  0.10775507716E+03  0.00000000000E+00 0.  1.
         11    1    1    2    0    0  0.78326320101E+01 -0.14022403388E+02  0.45259294359E+02  0.48024802414E+02  0.00000000000E+00 0. -1.
</event>
<event>
 7    1  0.6671761E-006  0.1895229E+03  0.7561462E-02  0.1158892E+00
         -2   -1    0    0    0  501 -0.00000000000E+00  0.00000000000E+00  0.10140788045E+03  0.10140788045E+03  0.00000000000E+00 0.  1.
          2   -1    0    0  501    0  0.00000000000E+00 -0.00000000000E+00 -0.36728737746E+03  0.36728737746E+03  0.00000000000E+00 0. -1.
         23    2    1    2    0    0  0.10925214342E+03  0.11592444269E+03 -0.13292813467E+03  0.24226465858E+03  0.12509104108E+03 0.  0.
          5    1    3    3  502    0  0.36609188710E+02 -0.23324579096E+02 -0.42958301532E+02  0.61214024198E+02  0.41800000000E+01 0.  1.
         -5    1    3    3    0  502  0.72642954710E+02  0.13924902178E+03 -0.89969833134E+02  0.18105063438E+03  0.41800000000E+01 0.  1.
        -11    1    1    2    0    0 -0.33237373091E+02 -0.93253275499E+02 -0.99441798703E+02  0.14031951999E+03  0.00000000000E+00 0.  1.
         11    1    1    2    0    0 -0.76014770328E+02 -0.22671167190E+02 -0.33509563634E+02  0.86111079338E+02  0.00000000000E+00 0. -1.
</event>
<event>
 7    1  0.6671761E-006  0.1050477E+03  0.7561462E-02  0.1270026E+00
         -1   -1    0    0    0  501 -0.00000000000E+00  0.00000000000E+00  0.39366092688E+03  0.39366092688E+03  0.00000000000E+00 0.  1.
          1   -1    0    0  501    0  0.00000000000E+00 -0.00000000000E+00 -0.39218411776E+02  0.39218411776E+02  0.00000000000E+00 0. -1.
         23    2    1    2    0    0 -0.59194616074E+02  0.47234644662E+01  0.29282746086E+03  0.32391974028E+03  0.12509901127E+03 0.  0.
          5    1    3    3  502    0 -0.68050017958E+02 -0.47833957305E+02  0.15262264830E+03  0.17386787394E+03  0.41800000000E+01 0. -1.
         -5    1    3    3    0  502  0.88554018840E+01  0.52557421772E+02  0.14020481256E+03  0.15005186633E+03  0.41800000000E+01 0. -1.
        -11    1    1    2    0    0  0.12299319410E+02 -0.20469552353E+02 -0.65255442825E+01  0.24755980281E+02  0.00000000000E+00 0. -1.
         11    1    1    2    0    0  0.46895296664E+02  0.15746087887E+02  0.68140598525E+02  0.84203618095E+02  0.00000000000E+00 0.  1.
</event>
<event>
 7    1  0.6671761E-006  0.1082071E+03  0.7561462E-02  0.1263927E+00
          1   -1    0    0  501    0  0.00000000000E+00  0.00000000000E+00  0.46497716496E+03  0.46497716496E+03  0.00000000000E+00 0. -1.
         -1   -1    0    0    0  501 -0.00000000000E+00 -0.00000000000E+00 -0.93927605187E+02  0.93927605187E+02  0.00000000000E+00 0.  1.
         23    2    1    2    0    0 -0.12091786942E+02  0.56778773830E+02 -0.41334743899E+02  0.13285328475E+03  0.11212222682E+03 0.  0.
          5    1    3    3  502    0  0.19307385654E+02 -0.26260446363E+02 -0.27617270928E+02  0.42925193505E+02  0.41800000000E+01 0. -1.
         -5    1    3    3    0  502 -0.31399172596E+02  0.83039220193E+02 -0.13717472971E+02  0.89928091243E+02  0.41800000000E+01 0.  1.
        -11    1    1    2    0    0  0.39396708707E+02 -0.54539760083E+02  0.36638842594E+03  0.37251465039E+03  0.00000000000E+00 0. -1.
         11    1    1    2    0    0 -0.27304921765E+02 -0.22390137473E+01  0.45995877731E+02  0.53536835015E+02  0.00000000000E+00 0.  1.
</event>
<event>
 6    1  0.6671761E-006  0.1222473E+03  0.7561462E-02  0.1239435E+00
          1   -1    0    0  501    0  0.00000000000E+00  0.00000000000E+00  0.19327026517E+03  0.19327026517E+03  0.00000000000E+00 0. -1.
         -1   -1    0    0    0  501 -0.00000000000E+00 -0.00000000000E+00 -0.79518976724E+02  0.79518976724E+02  0.00000000000E+00 0.  1.
          5    1    1    2  502    0  0.80111159968E+02 -0.97492541679E+01  0.28054786860E+02  0.85541740536E+02  0.41800000000E+01 0. -1.
         -5    1    1    2    0  502 -0.57561073269E+02 -0.29304255303E+02  0.37183888603E+02  0.74646704591E+02  0.41800000000E+01 0.  1.
        -11    1    1    2    0    0  0.85751127343E+01  0.60535179589E+02  0.42125109713E+02  0.74246652413E+02  0.00000000000E+00 0. -1.
         11    1    1    2    0    0 -0.31125199433E+02 -0.21481670118E+02  0.63875032671E+01  0.38354144350E+02  0.00000000000E+00 0.  1.
</event>
<event>
 7    1  0.6671761E-006  0.1094703E+03  0.7561462E-02  0.1261554E+00
         -1   -1    0    0    0  501 -0.00000000000E+00  0.00000000000E+00  0.99508371170E+02  0.99508371170E+02  0.00000000000E+00 0.  1.
          1   -1    0    0  501    0  0.00000000000E+00 -0.00000000000E+00 -0.22388378715E+03  0.22388378715E+03  0.00000000000E+00 0. -1.
         23    2    1    2    0    0 -0.72404177604E+02 -0.64489712466E+02 -0.34204165676E+02  0.16192173543E+03  0.12508970984E+03 0.  0.
          5    1    3    3  502    0 -0.32432366051E+02 -0.48630498261E+02 -0.79865446230E+02  0.99059303603E+02  0.41800000000E+01 0.  1.
         -5    1    3    3    0  502 -0.39971811552E+02 -0.15859214204E+02  0.45661280553E+02  0.62862431831E+02  0.41800000000E+01 0.  1.
        -11    1    1    2    0    0 -0.80047080060E+01  0.27467085505E+02 -0.62478267772E+02  0.68717174565E+02  0.00000000000E+00 0. -1.
         11    1    1    2    0    0  0.80408885610E+02  0.37022626960E+02 -0.27692982528E+02  0.92753248317E+02  0.00000000000E+00 0.  1.
</event>
<event>
 7    1  0.8980500E-006  0.1612122E+03  0.7561462E-02  0.1187335E+00
         -1   -1    0    0    0  501 -0.00000000000E+00  0.00000000000E+00  0.79531905799E+02  0.79531905799E+02  0.00000000000E+00 0.  1.
          1   -1    0    0  501    0  0.00000000000E+00 -0.00000000000E+00 -0.43337733570E+03  0.43337733570E+03  0.00000000000E+00 0. -1.
         23    2    1    2    0    0  0.99297048900E+02  0.10648374604E+03 -0.13542300933E+03  0.23491719285E+03  0.12509198196E+03 0.  0.
          5    1    3    3  502    0  0.31256742643E+02  0.50196953608E+01  0.19623876403E+02  0.37479997695E+02  0.41800000000E+01 0.  1.
         -5    1    3    3    0  502  0.68040306257E+02  0.10146405068E+03 -0.15504688573E+03  0.19743719515E+03  0.41800000000E+01 0.  1.
        -11    1    1    2    0    0 -0.80271780874E+02 -0.24257715040E+02 -0.13758169794E+03  0.16112330418E+03  0.00000000000E+00 0. -1.
         11    1    1    2    0    0 -0.19025268026E+02 -0.82226030999E+02 -0.80840722643E+02  0.11686874447E+03  0.00000000000E+00 0.  1.
</event>
<event>
 7    1  0.6671761E-006  0.1156920E+03  0.7561462E-02  0.1250378E+00
         -2   -1    0    0    0  501 -0.00000000000E+00  0.00000000000E+00  0.90729041691E+02  0.90729041691E+02  0.00000000000E+00 0. -1.
          2   -1    0    0  501    0  0.00000000000E+00 -0.00000000000E+00 -0.17115330648E+03  0.17115330648E+03  0.00000000000E+00 0.  1.
         23    2    1    2    0    0 -0.40721554854E+02 -0.65244913411E+02 -0.36263192160E+02  0.15125507651E+03  0.12509170760E+03 0.  0.
          5    1    3    3  502    0  0.44219250137E+02 -0.19416983771E+02 -0.12210067707E+01  0.48490458845E+02  0.41800000000E+01 0.  1.
         -5    1    3    3    0  502 -0.84940804991E+02 -0.45827929641E+02 -0.35042185389E+02  0.10276461767E+03  0.41800000000E+01 0.  1.
        -11    1    1    2    0    0  0.23343175609E+02  0.64846954568E+02 -0.56656911197E+02  0.89219039172E+02  0.00000000000E+00 0.  1.
         11    1    1    2    0    0  0.17378379245E+02  0.39795884325E+00  0.12495838572E+02  0.21408232483E+02  0.00000000000E+00 0. -1.
</event>
<event>
 6    1  0.6671761E-006  0.1424260E+03  0.7561462E-02  0.1210101E+00
          1   -1    0    0  501    0  0.00000000000E+00  0.00000000000E+00  0.17518453115E+03  0.17518453115E+03  0.00000000000E+00 0. -1.
         -1   -1    0    0    0  501 -0.00000000000E+00 -0.00000000000E+00 -0.15726297022E+03  0.15726297022E+03  0.00000000000E+00 0.  1.
          5    1    1    2  502    0 -0.47253915335E+02 -0.70851444244E+02  0.19308345893E+02  0.87425078136E+02  0.41800000000E+01 0. -1.
         -5    1    1    2    0  502  0.34350572356E+02  0.11192198989E+03 -0.57693920211E+02  0.13058542978E+03  0.41800000000E+01 0.  1.
        -11    1    1    2    0    0  0.36356985211E+02 -0.14395869607E+01 -0.60846655094E+01  0.36890729711E+02  0.00000000000E+00 0.  1.
         11    1    1    2    0    0 -0.23453642232E+02 -0.39630958682E+02  0.62391800756E+02  0.77546263750E+02  0.00000000000E+00 0. -1.
</event>
<event>
 7    1  0.6671761E-006  0.1298426E+03  0.7561462E-02  0.1227689E+00
          1   -1    0    0  501    0  0.00000000000E+00  0.00000000000E+00  0.14900308847E+02  0.14900308847E+02  0.00000000000E+00 0. -1.
         -1   -1    0    0    0  501 -0.00000000000E+00 -0.00000000000E+00 -0.13017173193E+04  0.13017173193E+04  0.00000000000E+00 0.  1.
         23    2    1    2    0    0 -0.85784472006E+02  0.24891371601E+02 -0.78977278073E+03  0.80459109144E+03  0.12508886126E+03 0.  0.
          5    1    3    3  502    0  0.22705891400E+02  0.18384706121E+02 -0.61201513795E+02  0.67945953627E+02  0.41800000000E+01 0.  1.
         -5    1    3    3    0  502 -0.10849036341E+03  0.65066654800E+01 -0.72857126694E+03  0.73664513781E+03  0.41800000000E+01 0.  1.
        -11    1    1    2    0    0  0.39166936764E+02 -0.53804550225E+02 -0.31219639988E+03  0.31921085611E+03  0.00000000000E+00 0. -1.
         11    1    1    2    0    0  0.46617535243E+02  0.28913178624E+02 -0.18484782986E+03  0.19281568062E+03  0.00000000000E+00 0.  1.
</event>
<event>
 7    1  0.6671761E-006  0.9580320E+02  0.7561462E-02  0.1289377E+00
         -2   -1    0    0    0  501 -0.00000000000E+00  0.00000000000E+00  0.84859277171E+02  0.84859277171E+02  0.00000000000E+00 0. -1.
          2   -1    0    0  501    0  0.00000000000E+00 -0.00000000000E+00 -0.22901505938E+03  0.22901505938E+03  0.00000000000E+00 0.  1.
         23    2    1    2    0    0  0.10532348368E+02  0.80161887527E+02 -0.43182339445E+02  0.15506983502E+03  0.12508029709E+03 0.  0.
          5    1    3    3  502    0 -0.33586938419E+01  0.30683091473E+02  0.43923760441E+02  0.53847024597E+02  0.41800000000E+01 0. -1.
         -5    1    3    3    0  502  0.13891042210E+02  0.49478796054E+02 -0.87106099886E+02  0.10122281042E+03  0.41800000000E+01 0. -1.
        -11    1    1    2    0    0 -0.39566879630E+02 -0.25705626959E+02 -0.81356142574E+02  0.94048599966E+02  0.00000000000E+00 0. -1.
         11    1    1    2    0    0  0.29034531262E+02 -0.54456260568E+02 -0.19617300190E+02  0.64755901565E+02  0.00000000000E+00 0.  1.
</event>
<event>
 7    1  0.6671761E-006  0.7823639E+02  0.7561462E-02  0.1334132E+00
          2   -1    0    0  501    0  0.00000000000E+00  0.00000000000E+00  0.22813723961E+03  0.22813723961E+03  0.00000000000E+00 0. -1.
         -2   -1    0    0    0  501 -0.00000000000E+00 -0.00000000000E+00 -0.57400623734E+02  0.57400623734E+02  0.00000000000E+00 0.  1.
         23    2    1    2    0    0  0.11255453992E+02  0.31262580703E+02  0.78547797798E+02  0.15139700468E+03  0.12508901747E+03 0.  0.
          5    1    3    3  502    0  0.29696158952E+01 -0.26034625343E+02 -0.22549407716E+02  0.34821954622E+02  0.41800000000E+01 0. -1.
         -5    1    3    3    0  502  0.82858380968E+01  0.57297206047E+02  0.10109720551E+03  0.11657505006E+03  0.41800000000E+01 0. -1.
        -11    1    1    2    0    0  0.22903554956E+02 -0.29958069404E+02  0.92568416231E+02  0.99954841982E+02  0.00000000000E+00 0. -1.
         11    1    1    2    0    0 -0.34159008948E+02 -0.13045112994E+01 -0.37959814940E+00  0.34186016685E+02  0.00000000000E+00 0.  1.
</event>
<event>
 7    1  0.6671761E-006  0.9972590E+02  0.7561462E-02  0.1280873E+00
          1   -1    0    0  501    0  0.00000000000E+00  0.00000000000E+00  0.53346874847E+03  0.53346874847E+03  0.00000000000E+00 0. -1.
         -1   -1    0    0    0  501 -0.00000000000E+00 -0.00000000000E+00 -0.27894080599E+02  0.27894080599E+02  0.00000000000E+00 0.  1.
         23    2    1    2    0    0 -0.16397961245E+02  0.53532312272E+02  0.26400420493E+03  0.29745613081E+03  0.12508927990E+03 0.  0.
          5    1    3    3  502    0  0.26497081956E+02 -0.52416073327E+00  0.24753399945E+01  0.26943826839E+02  0.41800000000E+01 0.  1.
         -5    1    3    3    0  502 -0.42895043201E+02  0.54056473005E+02  0.26152886493E+03  0.27051230397E+03  0.41800000000E+01 0.  1.
        -11    1    1    2    0    0 -0.34625146291E+02 -0.34918489538E+02  0.14499035900E+03  0.15310259916E+03  0.00000000000E+00 0. -1.
         11    1    1    2    0    0  0.51023107536E+02 -0.18613822734E+02  0.96580103944E+02  0.11080409910E+03  0.00000000000E+00 0.  1.
</event>
<event>
 7    1  0.7401353E-006  0.8995036E+02  0.7561462E-02  0.1302972E+00
          1   -1    0    0  501    0  0.00000000000E+00  0.00000000000E+00  0.10189270301E+03  0.10189270301E+03  0.00000000000E+00 0. -1.
         -1   -1    0    0    0  501 -0.00000000000E+00 -0.00000000000E+00 -0.13578048568E+03  0.13578048568E+03  0.00000000000E+00 0.  1.
         23    2    1    2    0    0 -0.57288076055E+01 -0.46158359531E+02 -0.31453277043E+02  0.13711383157E+03  0.12508989080E+03 0.  0.
          5    1    3    3  502    0  0.19511423142E+02 -0.49882036067E+02 -0.71507131227E+02  0.89440792547E+02  0.41800000000E+01 0. -1.
         -5    1    3    3    0  502 -0.25240230748E+02  0.37236765362E+01  0.40053854183E+02  0.47673039027E+02  0.41800000000E+01 0. -1.
        -11    1    1    2    0    0 -0.11060316156E+02  0.70162631489E+02 -0.46613766020E+01  0.71181836747E+02  0.00000000000E+00 0.  1.
         11    1    1    2    0    0  0.16789123762E+02 -0.24004271958E+02  0.22268709799E+01  0.29377520373E+02  0.00000000000E+00 0. -1.
</event>
<event>
 7    1  0.6671761E-006  0.9461994E+02  0.7561462E-02  0.1292034E+00
          4   -1    0    0  501    0  0.00000000000E+00  0.00000000000E+00  0.15364226086E+03  0.15364226086E+03  0.00000000000E+00 0. -1.
         -4   -1    0    0    0  501 -0.00000000000E+00 -0.00000000000E+00 -0.17670743910E+03  0.17670743910E+03  0.00000000000E+00 0.  1.
         23    2    1    2    0    0 -0.46730130286E+02  0.17936247204E+02 -0.12918875743E+03  0.18149364123E+03  0.11723818799E+03 0.  0.
          5    1    3    3  502    0  0.20961952904E+02 -0.20344095374E+02  0.12940188729E+01  0.29536969563E+02  0.41800000000E+01 0. -1.
         -5    1    3    3    0  502 -0.67692083190E+02  0.38280342578E+02 -0.13048277630E+03  0.15195667167E+03  0.41800000000E+01 0.  1.
        -11    1    1    2    0    0  0.22953926419E+02  0.24273045433E+02  0.13618327306E+01  0.33435281680E+02  0.00000000000E+00 0.  1.
         11    1    1    2    0    0  0.23776203867E+02 -0.42209292637E+02  0.10476174645E+03  0.11542077705E+03  0.00000000000E+00 0. -1.
</event>
<event>
 7    1  0.6671761E-006  0.1541120E+03  0.7561462E-02  0.1195509E+00
         -1   -1    0    0    0  501 -0.00000000000E+00  0.00000000000E+00  0.23056583246E+03  0.23056583246E+03  0.00000000000E+00 0.  1.
          1   -1    0    0  501    0  0.00000000000E+00 -0.00000000000E+00 -0.12321018914E+03  0.12321018914E+03  0.00000000000E+00 0. -1.
         23    2    1    2    0    0  0.10326465642E+03  0.52889957160E+02  0.11423757788E+03  0.20544129012E+03  0.12527953804E+03 0.  0.
          5    1    3    3  502    0  0.95722768469E+02 -0.15142029631E+02  0.41600680464E+02  0.10554723341E+03  0.41800000000E+01 0. -1.
         -5    1    3    3    0  502  0.75418879549E+01  0.68031986791E+02  0.72636897419E+02  0.99894056717E+02  0.41800000000E+01 0. -1.
        -11    1    1    2    0    0 -0.73420517598E+02 -0.75416597696E+02  0.12886591975E+02  0.10603914308E+03  0.00000000000E+00 0.  1.
         11    1    1    2    0    0 -0.29844138826E+02  0.22526640536E+02 -0.19768526534E+02  0.42295588392E+02  0.00000000000E+00 0. -1.
</event>
<event>
 7    1  0.6671761E-006  0.1049254E+03  0.7561462E-02  0.1270267E+00
         -2   -1    0    0    0  501 -0.00000000000E+00  0.00000000000E+00  0.36107092279E+03  0.36107092279E+03  0.00000000000E+00 0.  1.
          2   -1    0    0  501    0  0.00000000000E+00 -0.00000000000E+00 -0.52642091310E+02  0.52642091310E+02  0.00000000000E+00 0. -1.
         23    2    1    2    0    0 -0.23299452724E+02 -0.60792433941E+00  0.29802591618E+03  0.32157772991E+03  0.11853082126E+03 0.  0.
          5    1    3    3  502    0  0.48256209010E+02  0.45732778889E+01  0.10964021030E+03  0.11995009251E+03  0.41800000000E+01 0. -1.
         -5    1    3    3    0  502 -0.71555661733E+02 -0.51812022283E+01  0.18838570588E+03  0.20162763740E+03  0.41800000000E+01 0.  1.
        -11    1    1    2    0    0  0.21628940270E+02 -0.41709217909E+02  0.15511814198E+02  0.49478139571E+02  0.00000000000E+00 0. -1.
         11    1    1    2    0    0  0.16705124541E+01  0.42317142248E+02 -0.51088988911E+01  0.42657144628E+02  0.00000000000E+00 0.  1.
</event>
<event>
 7    1  0.6671761E-006  0.1102541E+03  0.7561462E-02  0.1260100E+00
         -2   -1    0    0    0  501 -0.00000000000E+00  0.00000000000E+00  0.20463953617E+03  0.20463953617E+03  0.00000000000E+00 0.  1.
          2   -1    0    0  501    0  0.00000000000E+00 -0.00000000000E+00 -0.61864836451E+02  0.61864836451E+02  0.00000000000E+00 0. -1.
         23    2    1    2    0    0 -0.74963379956E+01  0.30664105127E+02  0.72528670507E+02  0.14800098772E+03  0.12508957548E+03 0.  0.
          5    1    3    3  502    0  0.55523466602E+02  0.18432348773E+01  0.14623297961E+02  0.57598316830E+02  0.41800000000E+01 0. -1.
         -5    1    3    3    0  502 -0.63019804598E+02  0.28820870250E+02  0.57905372547E+02  0.90402670886E+02  0.41800000000E+01 0. -1.
        -11    1    1    2    0    0  0.42242835991E+02 -0.41257952633E+02  0.41355396852E+02  0.72089837681E+02  0.00000000000E+00 0.  1.
         11    1    1    2    0    0 -0.34746497996E+02  0.10593847505E+02  0.28890632363E+02  0.46413547227E+02  0.00000000000E+00 0. -1.
</event>
<event>
 7    1  0.6671761E-006  0.1153589E+03  0.7561462E-02  0.1250956E+00
          2   -1    0    0  501    0  0.00000000000E+00  0.00000000000E+00  0.70675179253E+03  0.70675179253E+03  0.00000000000E+00 0. -1.
         -2   -1    0    0    0  501 -0.00000000000E+00 -0.00000000000E+00 -0.26607304691E+02  0.26607304691E+02  0.00000000000E+00 0.  1.
         23    2    1    2    0    0  0.53053425281E+02 -0.54807711030E+02  0.27327711142E+03  0.31007545464E+03  0.12509139389E+03 0.  0.
          5    1    3    3  502    0 -0.20065563998E+02  0.16916117705E+02  0.11526006007E+02  0.28967276559E+02  0.41800000000E+01 0. -1.
         -5    1    3    3    0  502  0.73118989280E+02 -0.71723828735E+02  0.26175110541E+03  0.28110817808E+03  0.41800000000E+01 0. -1.
        -11    1    1    2    0    0  0.15867887402E+02  0.16012275027E+02  0.26548939077E+02  0.34828565406E+02  0.00000000000E+00 0.  1.
         11    1    1    2    0    0 -0.68921312684E+02  0.38795436003E+02  0.38031843735E+03  0.38845507718E+03  0.00000000000E+00 0. -1.
</event>
<event>
 7    1  0.6671761E-006  0.1302700E+03  0.7561462E-02  0.1227056E+00
         -1   -1    0    0    0  501 -0.00000000000E+00  0.00000000000E+00  0.25045618623E+03  0.25045618623E+03  0.00000000000E+00 0.  1.
          1   -1    0    0  501    0  0.00000000000E+00 -0.00000000000E+00 -0.74323180113E+02  0.74323180113E+02  0.00000000000E+00 0. -1.
         23    2    1    2    0    0  0.66857514672E+02  0.23486487710E+02  0.13672825681E+03  0.19840604574E+03  0.12509516538E+03 0.  0.
          5    1    3    3  502    0  0.95623977550E+02 -0.10751530530E+02  0.75033406609E+02  0.12209432828E+03  0.41800000000E+01 0. -1.
         -5    1    3    3    0  502 -0.28766462878E+02  0.34238018240E+02  0.61694850204E+02  0.76311717456E+02  0.41800000000E+01 0. -1.
        -11    1    1    2    0    0 -0.27421049251E+01 -0.49893364089E+02  0.23565605951E+02  0.55246761927E+02  0.00000000000E+00 0.  1.
         11    1    1    2    0    0 -0.64115409747E+02  0.26406876379E+02  0.15839143351E+02  0.71126558677E+02  0.00000000000E+00 0. -1.
</event>
<event>
 7    1  0.6671761E-006  0.1034203E+03  0.7561462E-02  0.1273264E+00
          2   -1    0    0  501    0  0.00000000000E+00  0.00000000000E+00  0.58264146096E+03  0.58264146096E+03  0.00000000000E+00 0. -1.
         -2   -1    0    0    0  501 -0.00000000000E+00 -0.00000000000E+00 -0.25585913237E+02  0.25585913237E+02  0.00000000000E+00 0.  1.
         23    2    1    2    0    0 -0.21329599190E+02  0.51503950722E+02  0.34402511040E+03  0.37028118765E+03  0.12508905870E+03 0.  0.
          5    1    3    3  502    0 -0.62274153908E+02  0.19267815901E+02  0.28052372303E+03  0.28802838499E+03  0.41800000000E+01 0.  1.
         -5    1    3    3    0  502  0.40944554718E+02  0.32236134821E+02  0.63501387363E+02  0.82252802665E+02  0.41800000000E+01 0.  1.
        -11    1    1    2    0    0 -0.21713805518E+02 -0.38628261280E+02  0.41790171926E+02  0.60910182968E+02  0.00000000000E+00 0.  1.
         11    1    1    2    0    0  0.43043404708E+02 -0.12875689442E+02  0.17124026540E+03  0.17703600358E+03  0.00000000000E+00 0. -1.
</event>
<event>
 7    1  0.8655161E-006  0.2257981E+03  0.7561462E-02  0.1129633E+00
         -1   -1    0    0    0  501 -0.00000000000E+00  0.00000000000E+00  0.14992467820E+03  0.14992467820E+03  0.00000000000E+00 0.  1.
          1   -1    0    0  501    0  0.00000000000E+00 -0.00000000000E+00 -0.34161009910E+03  0.34161009910E+03  0.00000000000E+00 0. -1.
         23    2    1    2    0    0 -0.94264777513E+01 -0.19819545407E+03 -0.95930500290E+02  0.25341729582E+03  0.12508944175E+03 0.  0.
          5    1    3    3  502    0  0.41726634378E+02 -0.17022615997E+03 -0.80808676990E+02  0.19304292847E+03  0.41800000000E+01 0.  1.
         -5    1    3    3    0  502 -0.51153112129E+02 -0.27969294101E+02 -0.15121823300E+02  0.60374367350E+02  0.41800000000E+01 0.  1.
        -11    1    1    2    0    0  0.49817875420E+02  0.11609890912E+03 -0.60363919220E+02  0.14001635674E+03  0.00000000000E+00 0. -1.
         11    1    1    2    0    0 -0.40391397669E+02  0.82096544944E+02 -0.35391001383E+02  0.98101124745E+02  0.00000000000E+00 0.  1.
</event>
<event>
 7    1  0.6671761E-006  0.1177607E+03  0.7561462E-02  0.1246838E+00
          2   -1    0    0  501    0  0.00000000000E+00  0.00000000000E+00  0.78626517157E+03  0.78626517157E+03  0.00000000000E+00 0. -1.
         -2   -1    0    0    0  501 -0.00000000000E+00 -0.00000000000E+00 -0.20293655640E+02  0.20293655640E+02  0.00000000000E+00 0.  1.
         23    2    1    2    0    0 -0.30616981038E+02  0.34966539532E+02  0.33453931745E+03  0.36017159334E+03  0.12508782241E+03 0.  0.
          5    1    3    3  502    0 -0.63136709799E+02  0.63646136163E+02  0.23271014497E+03  0.24941643640E+03  0.41800000000E+01 0. -1.
         -5    1    3    3    0  502  0.32519728761E+02 -0.28679596630E+02  0.10182917248E+03  0.11075515694E+03  0.41800000000E+01 0. -1.
        -11    1    1    2    0    0  0.62602020161E+02 -0.14558414999E+02  0.35809019372E+03  0.36381251657E+03  0.00000000000E+00 0.  1.
         11    1    1    2    0    0 -0.31985039123E+02 -0.20408124533E+02  0.73342004754E+02  0.82574717293E+02  0.00000000000E+00 0. -1.
</event>
<event>
 7    1  0.6671761E-006  0.9325454E+02  0.7561462E-02  0.1295156E+00
          1   -1    0    0  501    0  0.00000000000E+00  0.00000000000E+00  0.14502295666E+03  0.14502295666E+03  0.00000000000E+00 0. -1.
         -1   -1    0    0    0  501 -0.00000000000E+00 -0.00000000000E+00 -0.10215466405E+03  0.10215466405E+03  0.00000000000E+00 0.  1.
         23    2    1    2    0    0  0.29830335396E+02  0.24822078375E+02 -0.22548464025E+02  0.13289780281E+03  0.12508960099E+03 0.  0.
          5    1    3    3  502    0 -0.28055798088E+02  0.50404457770E+02  0.14254506519E+02  0.59568452435E+02  0.41800000000E+01 0.  1.
         -5    1    3    3    0  502  0.57886133484E+02 -0.25582379394E+02 -0.36802970543E+02  0.73329350372E+02  0.41800000000E+01 0.  1.
        -11    1    1    2    0    0 -0.25450607061E+02  0.12018923885E+02 -0.10292644107E+02  0.29968757963E+02  0.00000000000E+00 0.  1.
         11    1    1    2    0    0 -0.43797283352E+01 -0.36841002260E+02  0.75709400736E+02  0.84311059937E+02  0.00000000000E+00 0. -1.
</event>
<event>
 7    1  0.6671761E-006  0.1536223E+03  0.7561462E-02  0.1196091E+00
         -1   -1    0    0    0  501 -0.00000000000E+00  0.00000000000E+00  0.41253555195E+03  0.41253555195E+03  0.00000000000E+00 0. -1.
          1   -1    0    0  501    0  0.00000000000E+00 -0.00000000000E+00 -0.11477572074E+03  0.11477572074E+03  0.00000000000E+00 0.  1.
         23    2    1    2    0    0 -0.11338452129E+03  0.32563501050E+01  0.33705151547E+03  0.37698596896E+03  0.12509213897E+03 0.  0.
          5    1    3    3  502    0 -0.14606921176E+02 -0.50142262153E+02  0.14874202302E+03  0.15769993789E+03  0.41800000000E+01 0.  1.
         -5    1    3    3    0  502 -0.98777600117E+02  0.53398612258E+02  0.18830949245E+03  0.21928603107E+03  0.41800000000E+01 0.  1.
        -11    1    1    2    0    0 -0.32950081913E+01 -0.23786904832E+02  0.36930014026E+01  0.24296340873E+02  0.00000000000E+00 0. -1.
         11    1    1    2    0    0  0.11667952948E+03  0.20530554727E+02 -0.42984685650E+02  0.12602896286E+03  0.00000000000E+00 0.  1.
</event>
<event>
 7    1  0.6671761E-006  0.1342769E+03  0.7561462E-02  0.1221244E+00
          1   -1    0    0  501    0  0.00000000000E+00  0.00000000000E+00  0.37127273173E+03  0.37127273173E+03  0.00000000000E+00 0. -1.
         -1   -1    0    0    0  501 -0.00000000000E+00 -0.00000000000E+00 -0.82940288797E+02  0.82940288797E+02  0.00000000000E+00 0.  1.
         23    2    1    2    0    0 -0.63769764372E+02 -0.79181438733E+02  0.32589448261E+02  0.16445665010E+03  0.12509050539E+03 0.  0.
          5    1    3    3  502    0 -0.31334290099E+02 -0.10524346153E+03 -0.24247789022E+01  0.10991531232E+03  0.41800000000E+01 0.  1.
         -5    1    3    3    0  502 -0.32435474273E+02  0.26062022793E+02  0.35014227163E+02  0.54541337784E+02  0.41800000000E+01 0.  1.
        -11    1    1    2    0    0  0.14339523470E+02  0.63336373443E+02  0.21248434637E+03  0.22218621827E+03  0.00000000000E+00 0. -1.
         11    1    1    2    0    0  0.49430240902E+02  0.15845065290E+02  0.43258648301E+02  0.67570152157E+02  0.00000000000E+00 0.  1.
</event>
<event>
 7    1  0.6671761E-006  0.8712273E+02  0.7561462E-02  0.1309973E+00
          2   -1    0    0  501    0  0.00000000000E+00  0.00000000000E+00  0.10281880362E+03  0.10281880362E+03  0.00000000000E+00 0. -1.
         -2   -1    0    0    0  501 -0.00000000000E+00 -0.00000000000E+00 -0.13926347617E+03  0.13926347617E+03  0.00000000000E+00 0.  1.
         23    2    1    2    0    0 -0.19715026624E+02 -0.48414517927E+02 -0.36329193553E+02  0.14036005023E+03  0.12509390702E+03 0.  0.
          5    1    3    3  502    0 -0.52510364822E+02 -0.50974135738E+02 -0.63893663544E+02  0.97239773596E+02  0.41800000000E+01 0.  1.
         -5    1    3    3    0  502  0.32795338197E+02  0.25596178110E+01  0.27564469992E+02  0.43120276631E+02  0.41800000000E+01 0.  1.
        -11    1    1    2    0    0  0.31684899058E+02  0.21395448860E+02  0.37724066818E+02  0.53710364713E+02  0.00000000000E+00 0. -1.
         11    1    1    2    0    0 -0.11969872434E+02  0.27019069066E+02 -0.37839545818E+02  0.48011864856E+02  0.00000000000E+00 0.  1.
</event>
<event>
 6    1  0.6671761E-006  0.2264663E+03  0.7561462E-02  0.1129152E+00
          4   -1    0    0  501    0  0.00000000000E+00  0.00000000000E+00  0.85532562991E+03  0.85532562991E+03  0.00000000000E+00 0. -1.
         -4   -1    0    0    0  501 -0.00000000000E+00 -0.00000000000E+00 -0.12357005743E+03  0.12357005743E+03  0.00000000000E+00 0.  1.
          5    1    1    2  502    0 -0.54080498563E+01  0.19295958176E+03  0.57870936900E+03  0.61006938406E+03  0.41800000000E+01 0. -1.
         -5    1    1    2    0  502 -0.24202726906E+02 -0.17000544715E+03 -0.17169188509E+02  0.17262641016E+03  0.41800000000E+01 0.  1.
        -11    1    1    2    0    0 -0.20954866757E+02 -0.30449749337E+02  0.32198987329E+02  0.49021102196E+02  0.00000000000E+00 0.  1.
         11    1    1    2    0    0  0.50565643520E+02  0.74956147269E+01  0.13801640466E+03  0.14717879093E+03  0.00000000000E+00 0. -1.
</event>
<event>
 7    1  0.6671761E-006  0.1217244E+03  0.7561462E-02  0.1240279E+00
          2   -1    0    0  501    0  0.00000000000E+00  0.00000000000E+00  0.31735672705E+03  0.31735672705E+03  0.00000000000E+00 0. -1.
         -2   -1    0    0    0  501 -0.00000000000E+00 -0.00000000000E+00 -0.63925751047E+02  0.63925751047E+02  0.00000000000E+00 0.  1.
         23    2    1    2    0    0  0.12134267042E+02  0.62451748054E+02  0.48878202415E+02  0.14860723983E+03  0.12509025456E+03 0.  0.
          5    1    3    3  502    0 -0.30168149547E+02  0.83653885220E+02  0.15045905323E+02  0.90288102353E+02  0.41800000000E+01 0. -1.
         -5    1    3    3    0  502  0.42302416588E+02 -0.21202137166E+02  0.33832297092E+02  0.58319137477E+02  0.41800000000E+01 0. -1.
        -11    1    1    2    0    0  0.21242983969E+02  0.12658235804E+02  0.77544208143E+02  0.81391642803E+02  0.00000000000E+00 0. -1.
         11    1    1    2    0    0 -0.33377251011E+02 -0.75109983858E+02  0.12700856545E+03  0.15128359547E+03  0.00000000000E+00 0.  1.
</event>
<event>
 7    1  0.6671761E-006  0.1428774E+03  0.7561462E-02  0.1209509E+00
          2   -1    0    0  501    0  0.00000000000E+00  0.00000000000E+00  0.33130219258E+02  0.33130219258E+02  0.00000000000E+00 0. -1.
         -2   -1    0    0    0  501 -0.00000000000E+00 -0.00000000000E+00 -0.70475678405E+03  0.70475678405E+03  0.00000000000E+00 0.  1.
         23    2    1    2    0    0  0.42891688940E+01  0.10370336846E+03 -0.41334631967E+03  0.44415731011E+03  0.12509096907E+03 0.  0.
          5    1    3    3  502    0 -0.50715103614E+02  0.17964871972E+02 -0.20811868768E+03  0.21500143934E+03  0.41800000000E+01 0.  1.
         -5    1    3    3    0  502  0.55004272508E+02  0.85738496491E+02 -0.20522763199E+03  0.22915587077E+03  0.41800000000E+01 0.  1.
        -11    1    1    2    0    0 -0.22192094442E+02  0.23212293670E+01 -0.12778417243E+02  0.25713131056E+02  0.00000000000E+00 0. -1.
         11    1    1    2    0    0  0.17902925548E+02 -0.10602459783E+03 -0.24550182788E+03  0.26801656214E+03  0.00000000000E+00 0.  1.
</event>
<event>
 7    1  0.6671761E-006  0.1284889E+03  0.7561462E-02  0.1229715E+00
          1   -1    0    0  501    0  0.00000000000E+00  0.00000000000E+00  0.12988338773E+03  0.12988338773E+03  0.00000000000E+00 0. -1.
         -1   -1    0    0    0  501 -0.00000000000E+00 -0.00000000000E+00 -0.14738769106E+03  0.14738769106E+03  0.00000000000E+00 0.  1.
         23    2    1    2    0    0  0.49977515042E+02 -0.76359400896E+02 -0.94353702489E+01  0.15512890285E+03  0.12508972849E+03 0.  0.
          5    1    3    3  502    0  0.46494633525E+02  0.20970079687E+02 -0.24072186905E+02  0.56554732526E+02  0.41800000000E+01 0.  1.
         -5    1    3    3    0  502  0.34828815170E+01 -0.97329480583E+02  0.14636816656E+02  0.98574170329E+02  0.41800000000E+01 0.  1.
        -11    1    1    2    0    0 -0.39833370260E+02  0.98381974188E+01 -0.30595198297E+02  0.51181575528E+02  0.00000000000E+00 0.  1.
         11    1    1    2    0    0 -0.10144144782E+02  0.66521203477E+02  0.22526265213E+02  0.70960600405E+02  0.00000000000E+00 0. -1.
</event>
<event>
 7    1  0.6671761E-006  0.1280589E+03  0.7561462E-02  0.1230365E+00
         -1   -1    0    0    0  501 -0.00000000000E+00  0.00000000000E+00  0.16117559509E+03  0.16117559509E+03  0.00000000000E+00 0.  1.
          1   -1    0    0  501    0  0.00000000000E+00 -0.00000000000E+00 -0.12123407882E+03  0.12123407882E+03  0.00000000000E+00 0. -1.
         23    2    1    2    0    0 -0.30233326784E+02 -0.84044449932E+02  0.28590453109E+02  0.15633671667E+03  0.12508489659E+03 0.  0.
          5    1    3    3  502    0  0.13162178647E+02 -0.10263142905E+03  0.57212735837E+01  0.10371431216E+03  0.41800000000E+01 0. -1.
         -5    1    3    3    0  502 -0.43395505431E+02  0.18586979114E+02  0.22869179526E+02  0.52622404509E+02  0.41800000000E+01 0. -1.
        -11    1    1    2    0    0  0.36797541622E+02  0.22198184387E+02 -0.29083317429E+02  0.51890825896E+02  0.00000000000E+00 0. -1.
         11    1    1    2    0    0 -0.65642148382E+01  0.61846265546E+02  0.40434380592E+02  0.74182131354E+02  0.00000000000E+00 0.  1.
</event>
<event>
 7    1  0.6671761E-006  0.1283258E+03  0.7561462E-02  0.1229961E+00
          1   -1    0    0  501    0  0.00000000000E+00  0.00000000000E+00  0.69612568326E+02  0.69612568326E+02  0.00000000000E+00 0. -1.
         -1   -1    0    0    0  501 -0.00000000000E+00 -0.00000000000E+00 -0.29655243333E+03  0.29655243333E+03  0.00000000000E+00 0.  1.
         23    2    1    2    0    0  0.16968903166E+02 -0.74329555302E+02 -0.19340565955E+03  0.24262350815E+03  0.12509033173E+03 0.  0.
          5    1    3    3  502    0 -0.42419266778E+02  0.28344864527E+01 -0.94801722749E+02  0.10398205395E+03  0.41800000000E+01 0.  1.
         -5    1    3    3    0  502  0.59388169944E+02 -0.77164041754E+02 -0.98603936803E+02  0.13864145420E+03  0.41800000000E+01 0.  1.
        -11    1    1    2    0    0 -0.46420126804E+02  0.12636864415E+02 -0.17225457355E+01  0.48140270861E+02  0.00000000000E+00 0.  1.
         11    1    1    2    0    0  0.29451223638E+02  0.61692690886E+02 -0.31811659714E+02  0.75401222645E+02  0.00000000000E+00 0. -1.
</event>
<event>
 6    1  0.6671761E-006  0.1298795E+03  0.7561462E-02  0.1227635E+00
         -2   -1    0    0    0  501 -0.00000000000E+00  0.00000000000E+00  0.25279855716E+02  0.25279855716E+02  0.00000000000E+00 0.  1.
          2   -1    0    0  501    0  0.00000000000E+00 -0.00000000000E+00 -0.12490898602E+04  0.12490898602E+04  0.00000000000E+00 0. -1.
          5    1    1    2  502    0  0.20978717133E+02  0.79316243143E+02 -0.86572229430E+03  0.86961125582E+03  0.41800000000E+01 0. -1.
         -5    1    1    2    0  502 -0.46479368641E+02 -0.74461145969E+02 -0.12080111530E+03  0.14938264901E+03  0.41800000000E+01 0.  1.
        -11    1    1    2    0    0 -0.31606595661E+02  0.42937334197E+01 -0.49518547639E+02  0.58902458321E+02  0.00000000000E+00 0. -1.
         11    1    1    2    0    0  0.57107247168E+02 -0.91488305941E+01 -0.18776804728E+03  0.19647335280E+03  0.00000000000E+00 0.  1.
</event>
<event>
 7    1  0.6671761E-006  0.8219819E+02  0.7561462E-02  0.1322927E+00
         -1   -1    0    0    0  501 -0.00000000000E+00  0.00000000000E+00  0.15958194085E+03  0.15958194085E+03  0.00000000000E+00 0.  1.
          1   -1    0    0  501    0  0.00000000000E+00 -0.00000000000E+00 -0.77237007634E+02  0.77237007634E+02  0.00000000000E+00 0. -1.
         23    2    1    2    0    0 -0.18345908263E+02 -0.86984118472E+00  0.56472579158E+02  0.13846107319E+03  0.12507992492E+03 0.  0.
          5    1    3    3  502    0 -0.70356036971E+02 -0.15567393515E+02  0.33837854434E+02  0.79716927135E+02  0.41800000000E+01 0.  1.
         -5    1    3    3    0  502  0.52010128708E+02  0.14697552330E+02  0.22634724725E+02  0.58744146058E+02  0.41800000000E+01 0.  1.
        -11    1    1    2    0    0 -0.84550955144E+01 -0.59685563988E+01 -0.32314519067E+02  0.33931407990E+02  0.00000000000E+00 0. -1.
         11    1    1    2    0    0  0.26801003777E+02  0.68383975836E+01  0.58186873125E+02  0.64426467303E+02  0.00000000000E+00 0.  1.
</event>
<event>
 7    1  0.6671761E-006  0.2058526E+03  0.7561462E-02  0.1144893E+00
          2   -1    0    0  501    0  0.00000000000E+00  0.00000000000E+00  0.27783945825E+03  0.27783945825E+03  0.00000000000E+00 0. -1.
         -2   -1    0    0    0  501 -0.00000000000E+00 -0.00000000000E+00 -0.27912324926E+03  0.27912324926E+03  0.00000000000E+00 0.  1.
         23    2    1    2    0    0  0.17548221059E+03  0.76119418220E+01 -0.18720846617E+03  0.28556116984E+03  0.12508486727E+03 0.  0.
          5    1    3    3  502    0  0.15570888460E+03  0.53725455088E+02 -0.13478380153E+03  0.21287514374E+03  0.41800000000E+01 0.  1.
         -5    1    3    3    0  502  0.19773325986E+02 -0.46113513266E+02 -0.52424664645E+02  0.72686026095E+02  0.41800000000E+01 0.  1.
        -11    1    1    2    0    0 -0.97724445584E+02  0.39796251792E+02  0.11414434712E+03  0.15544369045E+03  0.00000000000E+00 0. -1.
         11    1    1    2    0    0 -0.77757765003E+02 -0.47408193614E+02  0.71780328038E+02  0.11595784723E+03  0.00000000000E+00 0.  1.
</event>
<event>
 7    1  0.6671761E-006  0.1377195E+03  0.7561462E-02  0.1216431E+00
          1   -1    0    0  501    0  0.00000000000E+00  0.00000000000E+00  0.45753670736E+03  0.45753670736E+03  0.00000000000E+00 0. -1.
         -1   -1    0    0    0  501 -0.00000000000E+00 -0.00000000000E+00 -0.47393798506E+02  0.47393798506E+02  0.00000000000E+00 0.  1.
         23    2    1    2    0    0  0.62028449459E+02  0.69198276538E+02  0.15996348109E+03  0.22332048262E+03  0.12509113740E+03 0.  0.
          5    1    3    3  502    0  0.17976746599E+02 -0.34665119803E+02  0.64295991971E+02  0.75341097236E+02  0.41800000000E+01 0. -1.
         -5    1    3    3    0  502  0.44051702860E+02  0.10386339634E+03  0.95667489119E+02  0.14797938538E+03  0.41800000000E+01 0. -1.
        -11    1    1    2    0    0  0.14985620845E+02 -0.36771704206E+02  0.44702798095E+02  0.59791865833E+02  0.00000000000E+00 0.  1.
         11    1    1    2    0    0 -0.77014070304E+02 -0.32426572332E+02  0.20547662967E+03  0.22181815741E+03  0.00000000000E+00 0. -1.
</event>
<event>
 6    1  0.6671761E-006  0.7312777E+02  0.7561462E-02  0.1349769E+00
         -1   -1    0    0    0  501 -0.00000000000E+00  0.00000000000E+00  0.38978920445E+02  0.38978920445E+02  0.00000000000E+00 0.  1.
          1   -1    0    0  501    0  0.00000000000E+00 -0.00000000000E+00 -0.42225639967E+03  0.42225639967E+03  0.00000000000E+00 0. -1.
          5    1    1    2  502    0 -0.45186807858E+02 -0.48143566608E+02 -0.16843057165E+02  0.68270136845E+02  0.41800000000E+01 0. -1.
         -5    1    1    2    0  502  0.18734139209E+02  0.34171769326E+02 -0.27149333414E+03  0.27430782102E+03  0.41800000000E+01 0.  1.
        -11    1    1    2    0    0  0.21039643259E+02 -0.46176804250E+01 -0.96836450279E+02  0.99203264380E+02  0.00000000000E+00 0. -1.
         11    1    1    2    0    0  0.54130253906E+01  0.18589477708E+02  0.18953623623E+01  0.19454097867E+02  0.00000000000E+00 0.  1.
</event>
<event>
 7    1  0.6671761E-006  0.1303883E+03  0.7561462E-02  0.1226881E+00
         -1   -1    0    0    0  501 -0.00000000000E+00  0.00000000000E+00  0.10241108504E+03  0.10241108504E+03  0.00000000000E+00 0.  1.
          1   -1    0    0  501    0  0.00000000000E+00 -0.00000000000E+00 -0.22717331792E+03  0.22717331792E+03  0.00000000000E+00 0. -1.
         23    2    1    2    0    0 -0.27258324460E+02  0.69607992048E+02 -0.89519188317E+01  0.14599940363E+03  0.12508956872E+03 0.  0.
          5    1    3    3  502    0 -0.20071285080E+02 -0.34785405938E+02  0.35425018651E+01  0.40532735788E+02  0.41800000000E+01 0. -1.
         -5    1    3    3    0  502 -0.71870393795E+01  0.10439339799E+03 -0.12494420697E+02  0.10546666785E+03  0.41800000000E+01 0. -1.
        -11    1    1    2    0    0  0.26084996499E+01  0.21312844620E+02 -0.79956873792E+02  0.82789753489E+02  0.00000000000E+00 0. -1.
         11    1    1    2    0    0  0.24649824810E+02 -0.90920836669E+02 -0.35853440259E+02  0.10079524583E+03  0.00000000000E+00 0.  1.
</event>
<event>
 7    1  0.6671761E-006  0.1084506E+03  0.7561462E-02  0.1263466E+00
         -1   -1    0    0    0  501 -0.00000000000E+00  0.00000000000E+00  0.49958471334E+03  0.49958471334E+03  0.00000000000E+00 0.  1.
          1   -1    0    0  501    0  0.00000000000E+00 -0.00000000000E+00 -0.26787423634E+02  0.26787423634E+02  0.00000000000E+00 0. -1.
         23    2    1    2    0    0 -0.21332446690E+02  0.29285869738E+02  0.31621749048E+03  0.34198583108E+03  0.12509225367E+03 0.  0.
          5    1    3    3  502    0 -0.47114405987E+02 -0.33905012120E+02  0.10595899833E+03  0.12088878701E+03  0.41800000000E+01 0. -1.
         -5    1    3    3    0  502  0.25781959298E+02  0.63190881858E+02  0.21025849215E+03  0.22109704407E+03  0.41800000000E+01 0. -1.
        -11    1    1    2    0    0  0.48585384832E+02 -0.38038940870E+02  0.13533966861E+03  0.14874248398E+03  0.00000000000E+00 0. -1.
         11    1    1    2    0    0 -0.27252938142E+02  0.87530711320E+01  0.21240130613E+02  0.35643821906E+02  0.00000000000E+00 0.  1.
</event>
<event>
 7    1  0.6671761E-006  0.1189579E+03  0.7561462E-02  0.1244826E+00
         -3   -1    0    0    0  501 -0.00000000000E+00  0.00000000000E+00  0.51059301432E+02  0.51059301432E+02  0.00000000000E+00 0.  1.
          3   -1    0    0  501    0  0.00000000000E+00 -0.00000000000E+00 -0.35115555084E+03  0.35115555084E+03  0.00000000000E+00 0. -1.
         23    2    1    2    0    0  0.83811993441E+01 -0.64811506228E+02 -0.97816867192E+02  0.17171530532E+03  0.12508889132E+03 0.  0.
          5    1    3    3  502    0 -0.20326562329E+02  0.29626494365E+02 -0.50650334983E+02  0.62240076625E+02  0.41800000000E+01 0. -1.
         -5    1    3    3    0  502  0.28707761673E+02 -0.94438000593E+02 -0.47166532210E+02  0.10947522869E+03  0.41800000000E+01 0. -1.
        -11    1    1    2    0    0  0.23969049089E+02  0.66367657931E+02 -0.17300665103E+03  0.18684347094E+03  0.00000000000E+00 0. -1.
         11    1    1    2    0    0 -0.32350248433E+02 -0.15561517031E+01 -0.29272731186E+02  0.43656076013E+02  0.00000000000E+00 0.  1.
</event>
<event>
 7    1  0.6671761E-006  0.9398004E+02  0.7561462E-02  0.1293490E+00
         -2   -1    0    0    0  501 -0.00000000000E+00  0.00000000000E+00  0.17929987165E+02  0.17929987165E+02  0.00000000000E+00 0.  1.
          2   -1    0    0  501    0  0.00000000000E+00 -0.00000000000E+00 -0.82936978001E+03  0.82936978001E+03  0.00000000000E+00 0. -1.
         23    2    1    2    0    0  0.13260588508E+02  0.13558107578E+02 -0.31947230689E+03  0.34361427825E+03  0.12509417195E+03 0.  0.
          5    1    3    3  502    0  0.48123574144E+02  0.26482701806E+01 -0.29614459895E+03  0.30006997119E+03  0.41800000000E+01 0. -1.
         -5    1    3    3    0  502 -0.34862985635E+02  0.10909837398E+02 -0.23327707949E+02  0.43544307063E+02  0.41800000000E+01 0. -1.
        -11    1    1    2    0    0 -0.31097236689E+02 -0.51913200685E+02 -0.36156175786E+03  0.36659094817E+03  0.00000000000E+00 0. -1.
         11    1    1    2    0    0  0.17836648181E+02  0.38355093107E+02 -0.13040572809E+03  0.13709454075E+03  0.00000000000E+00 0.  1.
</event>
<event>
 7    1  0.6671761E-006  0.8924433E+02  0.7561462E-02  0.1304692E+00
          2   -1    0    0  501    0  0.00000000000E+00  0.00000000000E+00  0.18638845428E+03  0.18638845428E+03  0.00000000000E+00 0. -1.
         -2   -1    0    0    0  501 -0.00000000000E+00 -0.00000000000E+00 -0.57753201972E+02  0.57753201972E+02  0.00000000000E+00 0.  1.
         23    2    1    2    0    0  0.12843575011E+02 -0.10065606556E+02  0.54353331129E+02  0.12516010468E+03  0.11155488938E+03 0.  0.
          5    1    3    3  502    0 -0.74825477666E+01 -0.47907408622E+02  0.64523414182E+02  0.80819871935E+02  0.41800000000E+01 0. -1.
         -5    1    3    3    0  502  0.20326122777E+02  0.37841802067E+02 -0.10170083053E+02  0.44340232748E+02  0.41800000000E+01 0.  1.
        -11    1    1    2    0    0 -0.32858044731E+02 -0.28316146270E+02  0.58675175304E+02  0.72967331320E+02  0.00000000000E+00 0. -1.
         11    1    1    2    0    0  0.20014469720E+02  0.38381752825E+02  0.15606745873E+02  0.46014220246E+02  0.00000000000E+00 0.  1.
</event>
<event>
 7    1  0.6671761E-006  0.1004843E+03  0.7561462E-02  0.1279281E+00
         -2   -1    0    0    0  501 -0.00000000000E+00  0.00000000000E+00  0.26006908703E+02  0.26006908703E+02  0.00000000000E+00 0.  1.
          2   -1    0    0  501    0  0.00000000000E+00 -0.00000000000E+00 -0.48300253352E+03  0.48300253352E+03  0.00000000000E+00 0. -1.
         23    2    1    2    0    0 -0.16555222882E+02 -0.17100044978E+02 -0.20778469615E+03  0.24369585201E+03  0.12508677545E+03 0.  0.
          5    1    3    3  502    0 -0.54636301035E+02 -0.51770903263E+02 -0.11530378774E+03  0.13775989141E+03  0.41800000000E+01 0.  1.
         -5    1    3    3    0  502  0.38081078154E+02  0.34670858285E+02 -0.92480908414E+02  0.10593596060E+03  0.41800000000E+01 0.  1.
        -11    1    1    2    0    0  0.17006718582E+02 -0.25860748249E+02 -0.34512107628E+02  0.46358304001E+02  0.00000000000E+00 0.  1.
         11    1    1    2    0    0 -0.45149570070E+00  0.42960793227E+02 -0.21469882103E+03  0.21895528620E+03  0.00000000000E+00 0. -1.
</event>
<event>
 7    1  0.6671761E-006  0.1002512E+03  0.7561462E-02  0.1279769E+00
         -1   -1    0    0    0  501 -0.00000000000E+00  0.00000000000E+00  0.92624352007E+02  0.92624352007E+02  0.00000000000E+00 0.  1.
          1   -1    0    0  501    0  0.00000000000E+00 -0.00000000000E+00 -0.20676101147E+03  0.20676101147E+03  0.00000000000E+00 0. -1.
         23    2    1    2    0    0 -0.67076263953E+02  0.48356739042E+02 -0.35244092368E+02  0.15404063076E+03  0.12509504579E+03 0.  0.
          5    1    3    3  502    0 -0.32762493674E+02 -0.61143323262E+01 -0.72243406063E+02  0.79670246461E+02  0.41800000000E+01 0. -1.
         -5    1    3    3    0  502 -0.34313770280E+02  0.54471071368E+02  0.36999313695E+02  0.74370384298E+02  0.41800000000E+01 0. -1.
        -11    1    1    2    0    0  0.89001778728E+01 -0.43074136550E+02 -0.74815962187E+02  0.86787226040E+02  0.00000000000E+00 0.  1.
         11    1    1    2    0    0  0.58176086080E+02 -0.52826024916E+01 -0.40766049083E+01  0.58557506678E+02  0.00000000000E+00 0. -1.
</event>
<event>
 7    1  0.6671761E-006  0.1352228E+03  0.7561462E-02  0.1219906E+00
          2   -1    0    0  501    0  0.00000000000E+00  0.00000000000E+00  0.14169922843E+03  0.14169922843E+03  0.00000000000E+00 0. -1.
         -2   -1    0    0    0  501 -0.00000000000E+00 -0.00000000000E+00 -0.19067537279E+03  0.19067537279E+03  0.00000000000E+00 0.  1.
         23    2    1    2    0    0  0.11282223726E+03 -0.26596328674E+02 -0.67791211879E+02  0.18352282543E+03  0.12509499241E+03 0.  0.
          5    1    3    3  502    0  0.10527386628E+02  0.89332735653E+01  0.32693712728E+02  0.35734863897E+02  0.41800000000E+01 0. -1.
         -5    1    3    3    0  502  0.10229485063E+03 -0.35529602239E+02 -0.10048492461E+03  0.14778796153E+03  0.41800000000E+01 0. -1.
        -11    1    1    2    0    0 -0.57648291449E+02 -0.33007612381E+02  0.92404440320E+01  0.67068724365E+02  0.00000000000E+00 0.  1.
         11    1    1    2    0    0 -0.55173945807E+02  0.59603941055E+02  0.95746234824E+01  0.81783051423E+02  0.00000000000E+00 0. -1.
</event>
<event>
 7    1  0.6671761E-006  0.8525621E+02  0.7561462E-02  0.1314764E+00
          2   -1    0    0  501    0  0.00000000000E+00  0.00000000000E+00  0.23042442741E+03  0.23042442741E+03  0.00000000000E+00 0.  1.
         -2   -1    0    0    0  501 -0.00000000000E+00 -0.00000000000E+00 -0.61732675018E+02  0.61732675018E+02  0.00000000000E+00 0. -1.
         23    2    1    2    0    0 -0.25924040593E+02 -0.27202680717E+02  0.72348580296E+02  0.14931178770E+03  0.12509057181E+03 0.  0.
          5    1    3    3  502    0  0.28368695681E+02  0.19870147799E+02 -0.13387117256E+02  0.37367003849E+02  0.41800000000E+01 0. -1.
         -5    1    3    3    0  502 -0.54292736274E+02 -0.47072828516E+02  0.85735697552E+02  0.11194478385E+03  0.41800000000E+01 0. -1.
        -11    1    1    2    0    0 -0.14633082158E+02  0.15760217961E+02  0.98333690668E+02  0.10065796682E+03  0.00000000000E+00 0.  1.
         11    1    1    2    0    0  0.40557122751E+02  0.11442462756E+02 -0.19905185690E+01  0.42187347913E+02  0.00000000000E+00 0. -1.
</event>
<event>
 7    1  0.6671761E-006  0.1671064E+03  0.7561462E-02  0.1180899E+00
          2   -1    0    0  501    0  0.00000000000E+00  0.00000000000E+00  0.21298310768E+03  0.21298310768E+03  0.00000000000E+00 0. -1.
         -2   -1    0    0    0  501 -0.00000000000E+00 -0.00000000000E+00 -0.16356922870E+03  0.16356922870E+03  0.00000000000E+00 0.  1.
         23    2    1    2    0    0 -0.72862696901E+02 -0.13222295827E+03  0.31040582543E+02  0.19849906928E+03  0.12508588829E+03 0.  0.
          5    1    3    3  502    0 -0.64998839462E+02 -0.72235942320E+02  0.75645144674E+02  0.12321745334E+03  0.41800000000E+01 0.  1.
         -5    1    3    3    0  502 -0.78638574393E+01 -0.59987015952E+02 -0.44604562131E+02  0.75281615946E+02  0.41800000000E+01 0.  1.
        -11    1    1    2    0    0  0.91005976626E+02  0.80532836292E+02  0.20456432193E+02  0.12323185920E+03  0.00000000000E+00 0. -1.
         11    1    1    2    0    0 -0.18143279724E+02  0.51690121980E+02 -0.20831357602E+01  0.54821407899E+02  0.00000000000E+00 0.  1.
</event>
<event>
 7    1  0.6671761E-006  0.1038089E+03  0.7561462E-02  0.1272484E+00
         -1   -1    0    0    0  501 -0.00000000000E+00  0.00000000000E+00  0.79950624207E+02  0.79950624207E+02  0.00000000000E+00 0.  1.
          1   -1    0    0  501    0  0.00000000000E+00 -0.00000000000E+00 -0.16498156434E+03  0.16498156434E+03  0.00000000000E+00 0. -1.
         23    2    1    2    0    0  0.13333500354E+02  0.20809587210E+02 -0.26622378396E+02  0.13353634984E+03  0.12850052352E+03 0.  0.
          5    1    3    3  502    0  0.23012723171E+02  0.70181511750E+02  0.46972762528E+01  0.74125345352E+02  0.41800000000E+01 0. -1.
         -5    1    3    3    0  502 -0.96792228169E+01 -0.49371924541E+02 -0.31319654649E+02  0.59411004490E+02  0.41800000000E+01 0.  1.
        -11    1    1    2    0    0  0.14438801890E+02 -0.44417785249E+02 -0.58611282903E+02  0.74944653778E+02  0.00000000000E+00 0. -1.
         11    1    1    2    0    0 -0.27772302244E+02  0.23608198039E+02  0.20272116743E+00  0.36451184925E+02  0.00000000000E+00 0.  1.
</event>
<event>
 7    1  0.6671761E-006  0.1394835E+03  0.7561462E-02  0.1214026E+00
         -1   -1    0    0    0  501 -0.00000000000E+00  0.00000000000E+00  0.38706366492E+03  0.38706366492E+03  0.00000000000E+00 0.  1.
          1   -1    0    0  501    0  0.00000000000E+00 -0.00000000000E+00 -0.61765248386E+02  0.61765248386E+02  0.00000000000E+00 0. -1.
         23    2    1    2    0    0 -0.10794795808E+03 -0.98598338329E+01  0.18778034907E+03  0.25031741442E+03  0.12508944996E+03 0.  0.
          5    1    3    3  502    0 -0.10042547268E+03  0.22392171182E+02  0.19078512724E+03  0.21680203428E+03  0.41800000000E+01 0.  1.
         -5    1    3    3    0  502 -0.75224854041E+01 -0.32252005014E+02 -0.30047781763E+01  0.33515380141E+02  0.41800000000E+01 0.  1.
        -11    1    1    2    0    0  0.10732483577E+03 -0.22985696075E+02  0.98204373868E+02  0.14727885674E+03  0.00000000000E+00 0.  1.
         11    1    1    2    0    0  0.62312231634E+00  0.32845529908E+02  0.39313693600E+02  0.51232642141E+02  0.00000000000E+00 0. -1.
</event>
<event>
 7    1  0.6671761E-006  0.1546113E+03  0.7561462E-02  0.1194918E+00
          3   -1    0    0  501    0  0.00000000000E+00  0.00000000000E+00  0.13018472507E+03  0.13018472507E+03  0.00000000000E+00 0. -1.
         -3   -1    0    0    0  501 -0.00000000000E+00 -0.00000000000E+00 -0.19362124013E+03  0.19362124013E+03  0.00000000000E+00 0.  1.
         23    2    1    2    0    0  0.14682878677E+02  0.11413601568E+03 -0.22420222101E+02  0.17144697054E+03  0.12509508523E+03 0.  0.
          5    1    3    3  502    0  0.56267500618E+02  0.17826909020E+02 -0.29701999556E+02  0.66208092320E+02  0.41800000000E+01 0.  1.
         -5    1    3    3    0  502 -0.41584621941E+02  0.96309106657E+02  0.72817774548E+01  0.10523887822E+03  0.41800000000E+01 0.  1.
        -11    1    1    2    0    0 -0.30684000489E+02 -0.12300164708E+03 -0.27779272229E+02  0.12977904698E+03  0.00000000000E+00 0.  1.
         11    1    1    2    0    0  0.16001121812E+02  0.88656314019E+01 -0.13237020730E+02  0.22579947679E+02  0.00000000000E+00 0. -1.
</event>
<event>
 7    1  0.6671761E-006  0.3435096E+03  0.7561462E-02  0.1065311E+00
         -2   -1    0    0    0  501 -0.00000000000E+00  0.00000000000E+00  0.13252367423E+03  0.13252367423E+03  0.00000000000E+00 0.  1.
          2   -1    0    0  501    0  0.00000000000E+00 -0.00000000000E+00 -0.93652202115E+03  0.93652202115E+03  0.00000000000E+00 0. -1.
         23    2    1    2    0    0 -0.14659003148E+03 -0.29912039354E+03 -0.35571241767E+03  0.50313125484E+03  0.12509231930E+03 0.  0.
          5    1    3    3  502    0 -0.76658574741E+02 -0.43362209268E+02 -0.11566965385E+03  0.14544332056E+03  0.41800000000E+01 0. -1.
         -5    1    3    3    0  502 -0.69931456736E+02 -0.25575818427E+03 -0.24004276382E+03  0.35768793428E+03  0.41800000000E+01 0. -1.
        -11    1    1    2    0    0  0.11367411026E+03  0.21230703799E+03 -0.38297420273E+03  0.45239951556E+03  0.00000000000E+00 0.  1.
         11    1    1    2    0    0  0.32915921218E+02  0.86813355551E+02 -0.65311726513E+02  0.11351492497E+03  0.00000000000E+00 0. -1.
</event>
<event>
 7    1  0.6671761E-006  0.1223426E+03  0.7561462E-02  0.1239282E+00
          2   -1    0    0  501    0  0.00000000000E+00  0.00000000000E+00  0.13537242561E+03  0.13537242561E+03  0.00000000000E+00 0. -1.
         -2   -1    0    0    0  501 -0.00000000000E+00 -0.00000000000E+00 -0.11198906397E+03  0.11198906397E+03  0.00000000000E+00 0.  1.
         23    2    1    2    0    0  0.48763865856E+02 -0.33019314160E+02  0.10059662621E+02  0.13862753190E+03  0.12509278983E+03 0.  0.
          5    1    3    3  502    0 -0.29475429358E+02 -0.49206394112E+02  0.11307452510E+02  0.58612294270E+02  0.41800000000E+01 0.  1.
         -5    1    3    3    0  502  0.78239295214E+02  0.16187079952E+02 -0.12477898884E+01  0.80015237628E+02  0.41800000000E+01 0.  1.
        -11    1    1    2    0    0  0.13535843878E+02  0.42089080409E+02 -0.77191079368E+00  0.44218837676E+02  0.00000000000E+00 0.  1.
         11    1    1    2    0    0 -0.62299709734E+02 -0.90697662494E+01  0.14095609817E+02  0.64515120002E+02  0.00000000000E+00 0. -1.
</event>
<event>
 6    1  0.6671761E-006  0.1809360E+03  0.7561462E-02  0.1166900E+00
          2   -1    0    0  501    0  0.00000000000E+00  0.00000000000E+00  0.28492896126E+03  0.28492896126E+03  0.00000000000E+00 0. -1.
         -2   -1    0    0    0  501 -0.00000000000E+00 -0.00000000000E+00 -0.19201559699E+03  0.19201559699E+03  0.00000000000E+00 0.  1.
          5    1    1    2  502    0  0.39378599636E+02 -0.16474877606E+03  0.11784986470E+02  0.16985049788E+03  0.41800000000E+01 0. -1.
         -5    1    1    2    0  502 -0.17138523276E+01  0.21550846313E+02 -0.71920106133E+02  0.75215359687E+02  0.41800000000E+01 0.  1.
        -11    1    1    2    0    0 -0.60372258123E+02  0.13187543782E+03  0.11048653930E+03  0.18232722237E+03  0.00000000000E+00 0.  1.
         11    1    1    2    0    0  0.22707510814E+02  0.11322491929E+02  0.42561944635E+02  0.49551478303E+02  0.00000000000E+00 0. -1.
</event>
<event>
 7    1  0.6671761E-006  0.7087181E+02  0.7561462E-02  0.1357153E+00
          2   -1    0    0  501    0  0.00000000000E+00  0.00000000000E+00  0.14071316811E+03  0.14071316811E+03  0.00000000000E+00 0.  1.
         -2   -1    0    0    0  501 -0.00000000000E+00 -0.00000000000E+00 -0.81361993908E+02  0.81361993908E+02  0.00000000000E+00 0. -1.
         23    2    1    2    0    0  0.11828813870E+02 -0.11396728384E+02  0.52757753804E+01  0.12627356108E+03  0.12508945666E+03 0.  0.
          5    1    3    3  502    0  0.32757422934E+02 -0.22838040922E+02 -0.51059036909E+02  0.64954772885E+02  0.41800000000E+01 0. -1.
         -5    1    3    3    0  502 -0.20928609064E+02  0.11441312538E+02  0.56334812290E+02  0.61318788195E+02  0.41800000000E+01 0. -1.
        -11    1    1    2    0    0 -0.42868243583E+02  0.16475332361E+02  0.22157374083E+02  0.50990902233E+02  0.00000000000E+00 0. -1.
         11    1    1    2    0    0  0.31039429713E+02 -0.50786039767E+01  0.31918024738E+02  0.44810698705E+02  0.00000000000E+00 0.  1.
</event>
<event>
 7    1  0.9039485E-006  0.2309014E+03  0.7561462E-02  0.1126007E+00
         -1   -1    0    0    0  501 -0.00000000000E+00  0.00000000000E+00  0.13874858074E+03  0.13874858074E+03  0.00000000000E+00 0.  1.
          1   -1    0    0  501    0  0.00000000000E+00 -0.00000000000E+00 -0.41505079881E+03  0.41505079881E+03  0.00000000000E+00 0. -1.
         23    2    1    2    0    0 -0.82968018260E+02  0.19688581102E+03 -0.14546546706E+03  0.28715085451E+03  0.12509075306E+03 0.  0.
          5    1    3    3  502    0 -0.10168699720E+03  0.84130052093E+02 -0.64053241033E+02  0.14675967141E+03  0.41800000000E+01 0.  1.
         -5    1    3    3    0  502  0.18718978943E+02  0.11275575893E+03 -0.81412226023E+02  0.14039118310E+03  0.41800000000E+01 0.  1.
        -11    1    1    2    0    0  0.48098075113E+02 -0.14582269483E+03 -0.13529879247E+03  0.20465445610E+03  0.00000000000E+00 0.  1.
         11    1    1    2    0    0  0.34869943147E+02 -0.51063116197E+02  0.44620414610E+01  0.61994068949E+02  0.00000000000E+00 0. -1.
</event>
<event>
 7    1  0.1440727E-005  0.7264665E+02  0.7561462E-02  0.1351317E+00
         -3   -1    0    0    0  501 -0.00000000000E+00  0.00000000000E+00  0.37864305016E+03  0.37864305016E+03  0.00000000000E+00 0.  1.
          3   -1    0    0  501    0  0.00000000000E+00 -0.00000000000E+00 -0.25557902143E+02  0.25557902143E+02  0.00000000000E+00 0. -1.
         23    2    1    2    0    0 -0.69309768401E+01 -0.27270738940E+01  0.24579226235E+03  0.27589282421E+03  0.12509012289E+03 0.  0.
          5    1    3    3  502    0  0.28514971996E+02 -0.20420047971E+02  0.99298991718E+01  0.36690016144E+02  0.41800000000E+01 0.  1.
         -5    1    3    3    0  502 -0.35445948836E+02  0.17692974077E+02  0.23586236318E+03  0.23920280806E+03  0.41800000000E+01 0.  1.
        -11    1    1    2    0    0 -0.29343293549E+01 -0.32970390733E+02  0.55814970206E+02  0.64891970635E+02  0.00000000000E+00 0. -1.
         11    1    1    2    0    0  0.98653061950E+01  0.35697464627E+02  0.51477915459E+02  0.63416157460E+02  0.00000000000E+00 0.  1.
</event>
<event>
 6    1  0.6671761E-006  0.1322607E+03  0.7561462E-02  0.1224139E+00
          2   -1    0    0  501    0  0.00000000000E+00  0.00000000000E+00  0.88933700227E+02  0.88933700227E+02  0.00000000000E+00 0. -1.
         -2   -1    0    0    0  501 -0.00000000000E+00 -0.00000000000E+00 -0.33654134117E+03  0.33654134117E+03  0.00000000000E+00 0.  1.
          5    1    1    2  502    0 -0.72799641188E+02  0.65416717012E+02 -0.16874230075E+03  0.19511681395E+03  0.41800000000E+01 0. -1.
         -5    1    1    2    0  502  0.68804072896E+02 -0.32456830687E+02 -0.10759013107E+03  0.13183533293E+03  0.41800000000E+01 0.  1.
        -11    1    1    2    0    0 -0.26187633928E+02  0.17552519936E+02 -0.30071127873E+01  0.31669004629E+02  0.00000000000E+00 0. -1.
         11    1    1    2    0    0  0.30183202221E+02 -0.50512406261E+02  0.31731903669E+02  0.66853889887E+02  0.00000000000E+00 0.  1.
</event>
<event>
 7    1  0.6671761E-006  0.2686897E+03  0.7561462E-02  0.1102032E+00
          2   -1    0    0  501    0  0.00000000000E+00  0.00000000000E+00  0.18616189168E+03  0.18616189168E+03  0.00000000000E+00 0. -1.
         -2   -1    0    0    0  501 -0.00000000000E+00 -0.00000000000E+00 -0.42858725264E+03  0.42858725264E+03  0.00000000000E+00 0.  1.
         23    2    1    2    0    0  0.25341613503E+03 -0.60524234888E+02 -0.11294960687E+03  0.31030272531E+03  0.12508895689E+03 0.  0.
          5    1    3    3  502    0  0.14757467410E+03  0.10959260274E+02 -0.10646997436E+03  0.18235053513E+03  0.41800000000E+01 0.  1.
         -5    1    3    3    0  502  0.10584146094E+03 -0.71483495162E+02 -0.64796325113E+01  0.12795219018E+03  0.41800000000E+01 0.  1.
        -11    1    1    2    0    0 -0.62478639811E+02  0.25223548051E+02 -0.78978521182E+02  0.10381432761E+03  0.00000000000E+00 0.  1.
         11    1    1    2    0    0 -0.19093749522E+03  0.35300686837E+02 -0.50497232906E+02  0.20063209141E+03  0.00000000000E+00 0. -1.
</event>
<event>
 7    1  0.6671761E-006  0.1114909E+03  0.7561462E-02  0.1257834E+00
         -2   -1    0    0    0  501 -0.00000000000E+00  0.00000000000E+00  0.30887494091E+02  0.30887494091E+02  0.00000000000E+00 0.  1.
          2   -1    0    0  501    0  0.00000000000E+00 -0.00000000000E+00 -0.45795329271E+03  0.45795329271E+03  0.00000000000E+00 0. -1.
         23    2    1    2    0    0  0.36749264295E+02 -0.55594501952E+01 -0.17322782294E+03  0.21687278573E+03  0.12507801820E+03 0.  0.
          5    1    3    3  502    0  0.21437168143E+02 -0.63623321602E+02 -0.68034519731E+02  0.95674696261E+02  0.41800000000E+01 0.  1.
         -5    1    3    3    0  502  0.15312096151E+02  0.58063871406E+02 -0.10519330321E+03  0.12119808947E+03  0.41800000000E+01 0.  1.
        -11    1    1    2    0    0 -0.11672870336E+02 -0.41004109870E+02 -0.85873901848E+02  0.95874501025E+02  0.00000000000E+00 0.  1.
         11    1    1    2    0    0 -0.25076393959E+02  0.46563560065E+02 -0.16796407383E+03  0.17609350004E+03  0.00000000000E+00 0. -1.
</event>
<event>
 7    1  0.6671761E-006  0.1845565E+03  0.7561462E-02  0.1163465E+00
         -2   -1    0    0    0  501 -0.00000000000E+00  0.00000000000E+00  0.11055780068E+03  0.11055780068E+03  0.00000000000E+00 0. -1.
          2   -1    0    0  501    0  0.00000000000E+00 -0.00000000000E+00 -0.39329495462E+03  0.39329495462E+03  0.00000000000E+00 0.  1.
         23    2    1    2    0    0  0.17533587099E+03 -0.25116639247E+02 -0.13539525093E+03  0.25563375969E+03  0.12507290632E+03 0.  0.
          5    1    3    3  502    0  0.30181547938E+02 -0.12278997963E+02  0.23199726640E+02  0.40216903699E+02  0.41800000000E+01 0.  1.
         -5    1    3    3    0  502  0.14515432305E+03 -0.12837641284E+02 -0.15859497757E+03  0.21541685599E+03  0.41800000000E+01 0.  1.
        -11    1    1    2    0    0 -0.85371805566E+02  0.47607312065E+02 -0.38065953256E+02  0.10489908553E+03  0.00000000000E+00 0.  1.
         11    1    1    2    0    0 -0.89964065421E+02 -0.22490672818E+02 -0.10927594975E+03  0.14331991008E+03  0.00000000000E+00 0. -1.
</event>
<event>
 7    1  0.6671761E-006  0.1002405E+03  0.7561462E-02  0.1279791E+00
          1   -1    0    0  501    0  0.00000000000E+00  0.00000000000E+00  0.88916699693E+02  0.88916699693E+02  0.00000000000E+00 0. -1.
         -1   -1    0    0    0  501 -0.00000000000E+00 -0.00000000000E+00 -0.17122720738E+03  0.17122720738E+03  0.00000000000E+00 0.  1.
         23    2    1    2    0    0  0.51762654982E+02 -0.14322446597E+02 -0.76467231800E+02  0.15605435522E+03  0.12498487636E+03 0.  0.
          5    1    3    3  502    0  0.77781583191E+02  0.14063712752E+02 -0.85258079566E+02  0.11633647421E+03  0.41800000000E+01 0.  1.
         -5    1    3    3    0  502 -0.26018928209E+02 -0.28386159350E+02  0.87908477663E+01  0.39717881014E+02  0.41800000000E+01 0.  1.
        -11    1    1    2    0    0 -0.52168016719E+02 -0.14202800262E+02 -0.34111368406E+02  0.63928139018E+02  0.00000000000E+00 0.  1.
         11    1    1    2    0    0  0.40536173704E+00  0.28525246860E+02  0.28268092515E+02  0.40161412836E+02  0.00000000000E+00 0. -1.
</event>
<event>
 7    1  0.6671761E-006  0.8470797E+02  0.7561462E-02  0.1316198E+00
         -2   -1    0    0    0  501 -0.00000000000E+00  0.00000000000E+00  0.12307783627E+03  0.12307783627E+03  0.00000000000E+00 0.  1.
          2   -1    0    0  501    0  0.00000000000E+00 -0.00000000000E+00 -0.13671885483E+03  0.13671885483E+03  0.00000000000E+00 0. -1.
         23    2    1    2    0    0 -0.27311971442E+02 -0.44737095937E+02  0.39872530378E+02  0.14136828859E+03  0.12509125790E+03 0.  0.
          5    1    3    3  502    0  0.21290868881E+02 -0.64748332480E+01 -0.36528518243E+02  0.42977082361E+02  0.41800000000E+01 0.  1.
         -5    1    3    3    0  502 -0.48602840323E+02 -0.38262262688E+02  0.76401048621E+02  0.98391206232E+02  0.41800000000E+01 0.  1.
        -11    1    1    2    0    0 -0.32417823461E+01  0.53019911337E+02  0.34805355262E+01  0.53232830833E+02  0.00000000000E+00 0.  1.
         11    1    1    2    0    0  0.30553753788E+02 -0.82828154001E+01 -0.56994084463E+02  0.65195571670E+02  0.00000000000E+00 0. -1.
</event>
<event>
 7    1  0.6671761E-006  0.1204712E+03  0.7561462E-02  0.1242322E+00
         -1   -1    0    0    0  501 -0.00000000000E+00  0.00000000000E+00  0.11734310610E+04  0.11734310610E+04  0.00000000000E+00 0.  1.
          1   -1    0    0  501    0  0.00000000000E+00 -0.00000000000E+00 -0.16035916514E+02  0.16035916514E+02  0.00000000000E+00 0. -1.
         23    2    1    2    0    0  0.11204015463E+02 -0.52014824819E+02  0.91705591200E+03  0.92706942306E+03  0.12504038338E+03 0.  0.
          5    1    3    3  502    0 -0.23281930138E+02 -0.84797279477E+02  0.61053472033E+03  0.61684904475E+03  0.41800000000E+01 0. -1.
         -5    1    3    3    0  502  0.34485945601E+02  0.32782454658E+02  0.30652119167E+03  0.31022037831E+03  0.41800000000E+01 0. -1.
        -11    1    1    2    0    0 -0.33592257094E+02 -0.13276177028E+02  0.89622971021E+02  0.96628016370E+02  0.00000000000E+00 0. -1.
         11    1    1    2    0    0  0.22388241631E+02  0.65291001847E+02  0.15071626144E+03  0.16576953806E+03  0.00000000000E+00 0.  1.
</event>
<event>
 7    1  0.6671761E-006  0.1604927E+03  0.7561462E-02  0.1188142E+00
         -1   -1    0    0    0  501 -0.00000000000E+00  0.00000000000E+00  0.65386955164E+02  0.65386955164E+02  0.00000000000E+00 0.  1.
          1   -1    0    0  501    0  0.00000000000E+00 -0.00000000000E+00 -0.45890215069E+03  0.45890215069E+03  0.00000000000E+00 0. -1.
         23    2    1    2    0    0 -0.42265164053E+02 -0.13603347233E+03 -0.18311895610E+03  0.26357516234E+03  0.12509142430E+03 0.  0.
          5    1    3    3  502    0  0.33997691476E+02 -0.44519551733E+02 -0.16193700235E+02  0.58459745462E+02  0.41800000000E+01 0. -1.
         -5    1    3    3    0  502 -0.76262855529E+02 -0.91513920598E+02 -0.16692525587E+03  0.20511541688E+03  0.41800000000E+01 0. -1.
        -11    1    1    2    0    0  0.35078264484E+02  0.62017213637E+02 -0.14552345528E+03  0.16202992151E+03  0.00000000000E+00 0. -1.
         11    1    1    2    0    0  0.71868995692E+01  0.74016258694E+02 -0.64872784144E+02  0.98684022005E+02  0.00000000000E+00 0.  1.
</event>
<event>
 7    1  0.6671761E-006  0.1004214E+03  0.7561462E-02  0.1279412E+00
         -2   -1    0    0    0  501 -0.00000000000E+00  0.00000000000E+00  0.23299249383E+03  0.23299249383E+03  0.00000000000E+00 0.  1.
          2   -1    0    0  501    0  0.00000000000E+00 -0.00000000000E+00 -0.61068325905E+02  0.61068325905E+02  0.00000000000E+00 0. -1.
         23    2    1    2    0    0 -0.17796461261E+02  0.42482410602E+02  0.12106408110E+03  0.18005731397E+03  0.12507060140E+03 0.  0.
          5    1    3    3  502    0  0.17620074318E+02 -0.31427809413E+02  0.80968616049E+02  0.88721831633E+02  0.41800000000E+01 0.  1.
         -5    1    3    3    0  502 -0.35416535579E+02  0.73910220015E+02  0.40095465053E+02  0.91335482333E+02  0.41800000000E+01 0.  1.
        -11    1    1    2    0    0  0.28469295881E+02  0.90559612071E+01  0.53531800707E+02  0.61303873681E+02  0.00000000000E+00 0.  1.
         11    1    1    2    0    0 -0.10672834619E+02 -0.51538371809E+02 -0.26717138814E+01  0.52699632092E+02  0.00000000000E+00 0. -1.
</event>
<event>
 6    1  0.6671761E-006  0.1383724E+03  0.7561462E-02  0.1215536E+00
          1   -1    0    0  501    0  0.00000000000E+00  0.00000000000E+00  0.84368217082E+03  0.84368217082E+03  0.00000000000E+00 0. -1.
         -1   -1    0    0    0  501 -0.00000000000E+00 -0.00000000000E+00 -0.29324030359E+02  0.29324030359E+02  0.00000000000E+00 0.  1.
          5    1    1    2  502    0  0.34260923555E+01  0.23826586626E+02  0.66383503908E+01  0.25317670410E+02  0.41800000000E+01 0. -1.
         -5    1    1    2    0  502 -0.58819004933E+02 -0.10751440495E+03  0.31074349083E+03  0.33406288645E+03  0.41800000000E+01 0.  1.
        -11    1    1    2    0    0  0.61915986753E+02  0.19131435355E+02  0.25338506922E+03  0.26154080855E+03  0.00000000000E+00 0.  1.
         11    1    1    2    0    0 -0.65230741757E+01  0.64556382969E+02  0.24359123002E+03  0.25208483576E+03  0.00000000000E+00 0. -1.
</event>
<event>
 7    1  0.6671761E-006  0.1325920E+03  0.7561462E-02  0.1223660E+00
         -2   -1    0    0    0  501 -0.00000000000E+00  0.00000000000E+00  0.43028677701E+02  0.43028677701E+02  0.00000000000E+00 0.  1.
          2   -1    0    0  501    0  0.00000000000E+00 -0.00000000000E+00 -0.58574608172E+03  0.58574608172E+03  0.00000000000E+00 0. -1.
         23    2    1    2    0    0  0.10576660413E+03  0.86453423063E-01 -0.19715245486E+03  0.25632503677E+03  0.12508737743E+03 0.  0.
          5    1    3    3  502    0  0.24008549044E+02 -0.33163871875E+02 -0.97449888430E+00  0.41166428956E+02  0.41800000000E+01 0.  1.
         -5    1    3    3    0  502  0.81758055085E+02  0.33250325298E+02 -0.19617795598E+03  0.21515860781E+03  0.41800000000E+01 0.  1.
        -11    1    1    2    0    0 -0.20330167155E+02 -0.37299707720E+02 -0.14858806149E+03  0.15454124340E+03  0.00000000000E+00 0. -1.
         11    1    1    2    0    0 -0.85436436974E+02  0.37213254297E+02 -0.19697688766E+03  0.21790847926E+03  0.00000000000E+00 0.  1.
</event>
<event>
 7    1  0.6671761E-006  0.1805766E+03  0.7561462E-02  0.1167246E+00
         -2   -1    0    0    0  501 -0.00000000000E+00  0.00000000000E+00  0.96385475151E+03  0.96385475151E+03  0.00000000000E+00 0. -1.
          2   -1    0    0  501    0  0.00000000000E+00 -0.00000000000E+00 -0.36582974677E+02  0.36582974677E+02  0.00000000000E+00 0.  1.
         23    2    1    2    0    0 -0.15268566227E+03 -0.39886015957E+01  0.45286931235E+03  0.49403458627E+03  0.12510290948E+03 0.  0.
          5    1    3    3  502    0 -0.16303456682E+03 -0.32661691424E+02  0.39212948748E+03  0.42594608041E+03  0.41800000000E+01 0.  1.
         -5    1    3    3    0  502  0.10348904548E+02  0.28673089828E+02  0.60739824869E+02  0.68088505864E+02  0.41800000000E+01 0.  1.
        -11    1    1    2    0    0  0.14051014259E+03 -0.15202721902E+02  0.45524529987E+03  0.47667861918E+03  0.00000000000E+00 0. -1.
         11    1    1    2    0    0  0.12175519686E+02  0.19191323498E+02  0.19157164613E+02  0.29724520740E+02  0.00000000000E+00 0.  1.
</event>
<event>
 7    1  0.6671761E-006  0.9923800E+02  0.7561462E-02  0.1281907E+00
         -1   -1    0    0    0  501 -0.00000000000E+00  0.00000000000E+00  0.71891170837E+02  0.71891170837E+02  0.00000000000E+00 0.  1.
          1   -1    0    0  501    0  0.00000000000E+00 -0.00000000000E+00 -0.16678206886E+03  0.16678206886E+03  0.00000000000E+00 0. -1.
         23    2    1    2    0    0 -0.41676249217E+01  0.14388058442E+02 -0.53663111627E+02  0.13693841551E+03  0.12509202521E+03 0.  0.
          5    1    3    3  502    0  0.49781998903E+02 -0.16226319888E+02  0.32828065371E+01  0.52628795261E+02  0.41800000000E+01 0. -1.
         -5    1    3    3    0  502 -0.53949623824E+02  0.30614378330E+02 -0.56945918164E+02  0.84309620251E+02  0.41800000000E+01 0. -1.
        -11    1    1    2    0    0 -0.36296927875E+02  0.85142700543E+01  0.32077000967E+01  0.37419902561E+02  0.00000000000E+00 0.  1.
         11    1    1    2    0    0  0.40464552797E+02 -0.22902328497E+02 -0.44435486492E+02  0.64314921623E+02  0.00000000000E+00 0. -1.
</event>
<event>
 7    1  0.6671761E-006  0.1073055E+03  0.7561462E-02  0.1265643E+00
         -2   -1    0    0    0  501 -0.00000000000E+00  0.00000000000E+00  0.41854549362E+02  0.41854549362E+02  0.00000000000E+00 0. -1.
          2   -1    0    0  501    0  0.00000000000E+00 -0.00000000000E+00 -0.46341863027E+03  0.46341863027E+03  0.00000000000E+00 0.  1.
         23    2    1    2    0    0  0.24381892860E+02 -0.19655897684E+02 -0.86702638290E+02  0.15538912452E+03  0.12509037341E+03 0.  0.
          5    1    3    3  502    0  0.58782426510E+02 -0.53998627307E+02 -0.49264277333E+02  0.93891782594E+02  0.41800000000E+01 0.  1.
         -5    1    3    3    0  502 -0.34400533650E+02  0.34342729623E+02 -0.37438360958E+02  0.61497341931E+02  0.41800000000E+01 0.  1.
        -11    1    1    2    0    0 -0.16123417081E+02 -0.30800568017E+02 -0.52742887923E+02  0.63170022914E+02  0.00000000000E+00 0. -1.
         11    1    1    2    0    0 -0.82584757793E+01  0.50456465701E+02 -0.28211855469E+03  0.28671403219E+03  0.00000000000E+00 0.  1.
</event>
<event>
 7    1  0.6671761E-006  0.1527498E+03  0.7561462E-02  0.1197134E+00
          2   -1    0    0  501    0  0.00000000000E+00  0.00000000000E+00  0.34366324995E+02  0.34366324995E+02  0.00000000000E+00 0. -1.
         -2   -1    0    0    0  501 -0.00000000000E+00 -0.00000000000E+00 -0.10186668384E+04  0.10186668384E+04  0.00000000000E+00 0.  1.
         23    2    1    2    0    0  0.13307185735E+03 -0.45037876196E+02 -0.58178831999E+03  0.61144357579E+03  0.12509623328E+03 0.  0.
          5    1    3    3  502    0  0.61815654731E+02 -0.21220977035E+02 -0.77028135695E+02  0.10110544557E+03  0.41800000000E+01 0.  1.
         -5    1    3    3    0  502  0.71256202620E+02 -0.23816899161E+02 -0.50476018430E+03  0.51033813021E+03  0.41800000000E+01 0.  1.
        -11    1    1    2    0    0 -0.43577148166E+02  0.59866430560E+02 -0.27700302079E+03  0.28672919432E+03  0.00000000000E+00 0.  1.
         11    1    1    2    0    0 -0.89494709185E+02 -0.14828554364E+02 -0.12550917264E+03  0.15486039330E+03  0.00000000000E+00 0. -1.
</event>
<event>
 7    1  0.6671761E-006  0.1004980E+03  0.7561462E-02  0.1279252E+00
         -1   -1    0    0    0  501 -0.00000000000E+00  0.00000000000E+00  0.61837363041E+02  0.61837363041E+02  0.00000000000E+00 0.  1.
          1   -1    0    0  501    0  0.00000000000E+00 -0.00000000000E+00 -0.27818698939E+03  0.27818698939E+03  0.00000000000E+00 0. -1.
         23    2    1    2    0    0  0.13033145877E+02  0.70285653196E+02 -0.12278028240E+03  0.18929072109E+03  0.12508414530E+03 0.  0.
          5    1    3    3  502    0  0.36619278284E+02  0.70146142845E+02 -0.17275715423E+02  0.81101021211E+02  0.41800000000E+01 0. -1.
         -5    1    3    3    0  502 -0.23586132406E+02  0.13951035045E+00 -0.10550456698E+03  0.10818969988E+03  0.41800000000E+01 0. -1.
        -11    1    1    2    0    0 -0.34678851848E+02 -0.13822121044E+02  0.22819862914E+01  0.37401621049E+02  0.00000000000E+00 0.  1.
         11    1    1    2    0    0  0.21645705970E+02 -0.56463532152E+02 -0.95851330238E+02  0.11333201030E+03  0.00000000000E+00 0. -1.
</event>
<event>
 7    1  0.6671761E-006  0.9135701E+02  0.7561462E-02  0.1299598E+00
          2   -1    0    0  501    0  0.00000000000E+00  0.00000000000E+00  0.56447653164E+02  0.56447653164E+02  0.00000000000E+00 0. -1.
         -2   -1    0    0    0  501 -0.00000000000E+00 -0.00000000000E+00 -0.19608696498E+03  0.19608696498E+03  0.00000000000E+00 0.  1.
         23    2    1    2    0    0  0.55949068905E+02 -0.65479207795E+01 -0.95806048619E+02  0.16732538369E+03  0.12508321829E+03 0.  0.
          5    1    3    3  502    0  0.74918598604E+02 -0.28681487317E+02 -0.15528664972E+02  0.81817088480E+02  0.41800000000E+01 0.  1.
         -5    1    3    3    0  502 -0.18969529700E+02  0.22133566537E+02 -0.80277383646E+02  0.85508295210E+02  0.41800000000E+01 0.  1.
        -11    1    1    2    0    0 -0.25546753079E+02 -0.20101323748E+02 -0.22114216308E+02  0.39315879390E+02  0.00000000000E+00 0.  1.
         11    1    1    2    0    0 -0.30402315825E+02  0.26649244528E+02 -0.21719046893E+02  0.45893355068E+02  0.00000000000E+00 0. -1.
</event>
<event>
 7    1  0.6671761E-006  0.1529487E+03  0.7561462E-02  0.1196896E+00
          1   -1    0    0  501    0  0.00000000000E+00  0.00000000000E+00  0.18473001085E+03  0.18473001085E+03  0.00000000000E+00 0. -1.
         -1   -1    0    0    0  501 -0.00000000000E+00 -0.00000000000E+00 -0.13416161001E+03  0.13416161001E+03  0.00000000000E+00 0.  1.
         23    2    1    2    0    0  0.42077660898E+02  0.10371539197E+03 -0.46876828412E+01  0.16792632127E+03  0.12509941218E+03 0.  0.
          5    1    3    3  502    0  0.80800376594E+02  0.35569611488E+02  0.66010522894E+01  0.88628124264E+02  0.41800000000E+01 0. -1.
         -5    1    3    3    0  502 -0.38722715697E+02  0.68145780480E+02 -0.11288735131E+02  0.79298197010E+02  0.41800000000E+01 0. -1.
        -11    1    1    2    0    0 -0.56711123129E+02 -0.30561617425E+02  0.14804214649E+02  0.66100898008E+02  0.00000000000E+00 0.  1.
         11    1    1    2    0    0  0.14633462231E+02 -0.73153774544E+02  0.40451869035E+02  0.84864401579E+02  0.00000000000E+00 0. -1.
</event>
<event>
 7    1  0.8342244E-006  0.1703864E+03  0.7561462E-02  0.1177445E+00
          1   -1    0    0  501    0  0.00000000000E+00  0.00000000000E+00  0.98636364699E+03  0.98636364699E+03  0.00000000000E+00 0. -1.
         -1   -1    0    0    0  501 -0.00000000000E+00 -0.00000000000E+00 -0.41792051212E+02  0.41792051212E+02  0.00000000000E+00 0.  1.
         23    2    1    2    0    0  0.11506113692E+03 -0.12509866693E+03  0.51909259610E+03  0.56035105812E+03  0.12508974104E+03 0.  0.
          5    1    3    3  502    0  0.93442717219E+02 -0.93202521957E+02  0.20479935536E+03  0.24367704007E+03  0.41800000000E+01 0. -1.
         -5    1    3    3    0  502  0.21618419705E+02 -0.31896144975E+02  0.31429324074E+03  0.31667401806E+03  0.41800000000E+01 0. -1.
        -11    1    1    2    0    0 -0.64541813836E+02  0.69374568191E+02  0.11839753070E+03  0.15164581010E+03  0.00000000000E+00 0. -1.
         11    1    1    2    0    0 -0.50519323089E+02  0.55724098741E+02  0.30708146898E+03  0.31615882998E+03  0.00000000000E+00 0.  1.
</event>
<event>
 7    1  0.6671761E-006  0.1050359E+03  0.7561462E-02  0.1270049E+00
         -1   -1    0    0    0  501 -0.00000000000E+00  0.00000000000E+00  0.45704470571E+03  0.45704470571E+03  0.00000000000E+00 0.  1.
          1   -1    0    0  501    0  0.00000000000E+00 -0.00000000000E+00 -0.27283838740E+02  0.27283838740E+02  0.00000000000E+00 0. -1.
         23    2    1    2    0    0 -0.18192870086E+02 -0.18450634737E+02  0.24125258403E+03  0.27298573185E+03  0.12508794525E+03 0.  0.
          5    1    3    3  502    0  0.16412209807E+02 -0.61534818086E+02  0.79177665511E+02  0.10169793303E+03  0.41800000000E+01 0. -1.
         -5    1    3    3    0  502 -0.34605079893E+02  0.43084183349E+02  0.16207491852E+03  0.17128779881E+03  0.41800000000E+01 0. -1.
        -11    1    1    2    0    0 -0.77243279115E+01  0.49663078653E+02  0.70697673589E+02  0.86742421421E+02  0.00000000000E+00 0.  1.
         11    1    1    2    0    0  0.25917197998E+02 -0.31212443916E+02  0.11781060935E+03  0.12460039118E+03  0.00000000000E+00 0. -1.
</event>
<event>
 7    1  0.6671761E-006  0.1286044E+03  0.7561462E-02  0.1229541E+00
          1   -1    0    0  501    0  0.00000000000E+00  0.00000000000E+00  0.18548974151E+03  0.18548974151E+03  0.00000000000E+00 0. -1.
         -1   -1    0    0    0  501 -0.00000000000E+00 -0.00000000000E+00 -0.11396124079E+03  0.11396124079E+03  0.00000000000E+00 0.  1.
         23    2    1    2    0    0  0.54801506789E+02 -0.56662677712E+02 -0.27760478101E+02  0.14037872787E+03  0.11279042026E+03 0.  0.
          5    1    3    3  502    0 -0.10629766080E+02 -0.66009001672E+02 -0.31540219482E+02  0.74043487719E+02  0.41800000000E+01 0. -1.
         -5    1    3    3    0  502  0.65431272869E+02  0.93463239601E+01  0.37797413811E+01  0.66335240150E+02  0.41800000000E+01 0.  1.
        -11    1    1    2    0    0 -0.27875329768E+02  0.82250863859E+02  0.74422445097E+02  0.11437193253E+03  0.00000000000E+00 0.  1.
         11    1    1    2    0    0 -0.26926177022E+02 -0.25588186148E+02  0.24866533720E+02  0.44700321907E+02  0.00000000000E+00 0. -1.
</event>
<event>
 7    1  0.6671761E-006  0.8583191E+02  0.7561462E-02  0.1313271E+00
          1   -1    0    0  501    0  0.00000000000E+00  0.00000000000E+00  0.26813785751E+03  0.26813785751E+03  0.00000000000E+00 0. -1.
         -1   -1    0    0    0  501 -0.00000000000E+00 -0.00000000000E+00 -0.62637949536E+02  0.62637949536E+02  0.00000000000E+00 0.  1.
         23    2    1    2    0    0 -0.60018530723E+02  0.24639125942E+02  0.77206720353E+02  0.16067783498E+03  0.12508868226E+03 0.  0.
          5    1    3    3  502    0 -0.75313582288E+01  0.13255178332E+02 -0.33786930229E+02  0.37302146904E+02  0.41800000000E+01 0.  1.
         -5    1    3    3    0  502 -0.52487172495E+02  0.11383947610E+02  0.11099365058E+03  0.12337568808E+03  0.41800000000E+01 0.  1.
        -11    1    1    2    0    0  0.33329421819E+02 -0.53274557819E+02  0.42692398832E+02  0.75971506420E+02  0.00000000000E+00 0.  1.
         11    1    1    2    0    0  0.26689108904E+02  0.28635431878E+02  0.85600788786E+02  0.94126465639E+02  0.00000000000E+00 0. -1.
</event>
<event>
 7    1  0.6671761E-006  0.1468028E+03  0.7561462E-02  0.1204458E+00
          1   -1    0    0  501    0  0.00000000000E+00  0.00000000000E+00  0.60585564743E+03  0.60585564743E+03  0.00000000000E+00 0. -1.
         -1   -1    0    0    0  501 -0.00000000000E+00 -0.00000000000E+00 -0.44713854948E+02  0.44713854948E+02  0.00000000000E+00 0.  1.
         23    2    1    2    0    0 -0.54561306628E+02 -0.10123132689E+03  0.21065373806E+03  0.27064664127E+03  0.12509951776E+03 0.  0.
          5    1    3    3  502    0 -0.69222556734E+02 -0.68357861176E+01  0.58709628779E+02  0.91119609547E+02  0.41800000000E+01 0. -1.
         -5    1    3    3    0  502  0.14661250106E+02 -0.94395540770E+02  0.15194410928E+03  0.17952703172E+03  0.41800000000E+01 0. -1.
        -11    1    1    2    0    0  0.56393791998E+02  0.45284580634E+02  0.28372477373E+03  0.29279805369E+03  0.00000000000E+00 0. -1.
         11    1    1    2    0    0 -0.18324853702E+01  0.55946746254E+02  0.66763280693E+02  0.87124807419E+02  0.00000000000E+00 0.  1.
</event>
<event>
 6    1  0.6671761E-006  0.1244566E+03  0.7561462E-02  0.1235921E+00
          3   -1    0    0  501    0  0.00000000000E+00  0.00000000000E+00  0.13115703728E+03  0.13115703728E+03  0.00000000000E+00 0. -1.
         -3   -1    0    0    0  501 -0.00000000000E+00 -0.00000000000E+00 -0.19019754549E+03  0.19019754549E+03  0.00000000000E+00 0.  1.
          5    1    1    2  502    0 -0.48448927053E+02 -0.81505453615E+02 -0.10158067794E+03  0.13901994113E+03  0.41800000000E+01 0. -1.
         -5    1    1    2    0  502  0.16533107490E+02  0.60198841009E+02 -0.19829703838E+02  0.65634850929E+02  0.41800000000E+01 0.  1.
        -11    1    1    2    0    0  0.16182783527E+02 -0.31998098998E+02  0.46846508052E+02  0.58994543297E+02  0.00000000000E+00 0. -1.
         11    1    1    2    0    0  0.15733036036E+02  0.53304711604E+02  0.15523365513E+02  0.57705247413E+02  0.00000000000E+00 0.  1.
</event>
<event>
 6    1  0.6671761E-006  0.1332520E+03  0.7561462E-02  0.1222709E+00
          2   -1    0    0  501    0  0.00000000000E+00  0.00000000000E+00  0.17525837772E+04  0.17525837772E+04  0.00000000000E+00 0. -1.
         -2   -1    0    0    0  501 -0.00000000000E+00 -0.00000000000E+00 -0.22185998246E+02  0.22185998246E+02  0.00000000000E+00 0.  1.
          5    1    1    2  502    0 -0.58680343315E+01 -0.33846668052E+02  0.90004376029E+03  0.90070876182E+03  0.41800000000E+01 0. -1.
         -5    1    1    2    0  502  0.62757460603E+02  0.91638912933E+02  0.17251746463E+03  0.20522167826E+03  0.41800000000E+01 0.  1.
        -11    1    1    2    0    0  0.96528540103E+01 -0.53181183019E+02  0.30553427523E+03  0.31027827697E+03  0.00000000000E+00 0.  1.
         11    1    1    2    0    0 -0.66542280282E+02 -0.46110618627E+01  0.35230227881E+03  0.35856105841E+03  0.00000000000E+00 0. -1.
</event>
<event>
 7    1  0.6671761E-006  0.9643936E+02  0.7561462E-02  0.1287967E+00
          2   -1    0    0  501    0  0.00000000000E+00  0.00000000000E+00  0.79249892222E+02  0.79249892222E+02  0.00000000000E+00 0. -1.
         -2   -1    0    0    0  501 -0.00000000000E+00 -0.00000000000E+00 -0.46030925423E+03  0.46030925423E+03  0.00000000000E+00 0.  1.
         23    2    1    2    0    0  0.10523155329E+02 -0.42613933641E+02 -0.41223125310E+03  0.43302568772E+03  0.12509978441E+03 0.  0.
          5    1    3    3  502    0 -0.36970252279E+02  0.19583077764E+02 -0.24195403356E+03  0.24557997321E+03  0.41800000000E+01 0.  1.
         -5    1    3    3    0  502  0.47493407608E+02 -0.62197011405E+02 -0.17027721954E+03  0.18744571451E+03  0.41800000000E+01 0.  1.
        -11    1    1    2    0    0 -0.19834498463E+02 -0.77154361152E+01  0.48120607571E+02  0.52616804889E+02  0.00000000000E+00 0. -1.
         11    1    1    2    0    0  0.93113431335E+01  0.50329369757E+02 -0.16948716483E+02  0.53916653841E+02  0.00000000000E+00 0.  1.
</event>
<event>
 7    1  0.6671761E-006  0.1248518E+03  0.7561462E-02  0.1235301E+00
         -2   -1    0    0    0  501 -0.00000000000E+00  0.00000000000E+00  0.43984193358E+02  0.43984193358E+02  0.00000000000E+00 0.  1.
          2   -1    0    0  501    0  0.00000000000E+00 -0.00000000000E+00 -0.37301570523E+03  0.37301570523E+03  0.00000000000E+00 0. -1.
         23    2    1    2    0    0  0.41126372309E+02 -0.52759892199E+02 -0.20353613744E+03  0.24809192190E+03  0.12509059813E+03 0.  0.
          5    1    3    3  502    0  0.26809016873E+02  0.38121917172E+02 -0.93852129788E+02  0.10486991285E+03  0.41800000000E+01 0.  1.
         -5    1    3    3    0  502  0.14317355437E+02 -0.90881809372E+02 -0.10968400766E+03  0.14322200905E+03  0.41800000000E+01 0.  1.
        -11    1    1    2    0    0 -0.57172027722E+02  0.67892590666E+02 -0.11253746982E+03  0.14332734120E+03  0.00000000000E+00 0.  1.
         11    1    1    2    0    0  0.16045655412E+02 -0.15132698466E+02 -0.12957904610E+02  0.25580635495E+02  0.00000000000E+00 0. -1.
</event>
<event>
 7    1  0.6671761E-006  0.2011241E+03  0.7561462E-02  0.1148794E+00
         -2   -1    0    0    0  501 -0.00000000000E+00  0.00000000000E+00  0.11324283533E+03  0.11324283533E+03  0.00000000000E+00 0.  1.
          2   -1    0    0  501    0  0.00000000000E+00 -0.00000000000E+00 -0.43938598134E+03  0.43938598134E+03  0.00000000000E+00 0. -1.
         23    2    1    2    0    0  0.15628515187E+03 -0.74729533487E+02 -0.58513320494E+02  0.22154193611E+03  0.12508984337E+03 0.  0.
          5    1    3    3  502    0  0.67747582890E+02 -0.10055455219E+03 -0.31275358362E+02  0.12528596647E+03  0.41800000000E+01 0.  1.
         -5    1    3    3    0  502  0.88537568976E+02  0.25825018703E+02 -0.27237962131E+02  0.96255969645E+02  0.41800000000E+01 0.  1.
        -11    1    1    2    0    0 -0.11382361024E+03  0.14253133146E+02 -0.20178587113E+03  0.23211312725E+03  0.00000000000E+00 0.  1.
         11    1    1    2    0    0 -0.42461541630E+02  0.60476400340E+02 -0.65843954383E+02  0.98973753312E+02  0.00000000000E+00 0. -1.
</event>
<event>
 7    1  0.6671761E-006  0.1467280E+03  0.7561462E-02  0.1204552E+00
         -2   -1    0    0    0  501 -0.00000000000E+00  0.00000000000E+00  0.55890655823E+02  0.55890655823E+02  0.00000000000E+00 0.  1.
          2   -1    0    0  501    0  0.00000000000E+00 -0.00000000000E+00 -0.44866474619E+03  0.44866474619E+03  0.00000000000E+00 0. -1.
         23    2    1    2    0    0  0.84591620609E+01 -0.11523964888E+03 -0.22368107645E+03  0.28112790716E+03  0.12509173485E+03 0.  0.
          5    1    3    3  502    0 -0.46118120234E+02 -0.40841683212E+02 -0.15247508880E+03  0.16450242918E+03  0.41800000000E+01 0.  1.
         -5    1    3    3    0  502  0.54577282295E+02 -0.74397965665E+02 -0.71205987645E+02  0.11662547798E+03  0.41800000000E+01 0.  1.
        -11    1    1    2    0    0 -0.36523332846E+02  0.23547616875E+02 -0.24380789937E+02  0.49828375657E+02  0.00000000000E+00 0.  1.
         11    1    1    2    0    0  0.28064170785E+02  0.91692032002E+02 -0.14471222398E+03  0.17359911919E+03  0.00000000000E+00 0. -1.
</event>
<event>
 7    1  0.7290003E-006  0.2165064E+03  0.7561462E-02  0.1136515E+00
         -1   -1    0    0    0  501 -0.00000000000E+00  0.00000000000E+00  0.16269443452E+03  0.16269443452E+03  0.00000000000E+00 0.  1.
          1   -1    0    0  501    0  0.00000000000E+00 -0.00000000000E+00 -0.32718293104E+03  0.32718293104E+03  0.00000000000E+00 0. -1.
         23    2    1    2    0    0  0.11746760722E+03  0.16469290991E+03 -0.95241584075E+02  0.25620455215E+03  0.12508964738E+03 0.  0.
          5    1    3    3  502    0  0.84218556575E+02  0.50969605736E+02 -0.96112425012E+02  0.13764351282E+03  0.41800000000E+01 0. -1.
         -5    1    3    3    0  502  0.33249050647E+02  0.11372330417E+03  0.87084093779E+00  0.11856103932E+03  0.41800000000E+01 0. -1.
        -11    1    1    2    0    0 -0.96109418375E+02 -0.70118566631E+02 -0.67324784943E+02  0.13669769696E+03  0.00000000000E+00 0.  1.
         11    1    1    2    0    0 -0.21358188846E+02 -0.94574343280E+02 -0.19221275092E+01  0.96975116456E+02  0.00000000000E+00 0. -1.
</event>
<event>
 7    1  0.6671761E-006  0.6686616E+02  0.7561462E-02  0.1371086E+00
         -1   -1    0    0    0  501 -0.00000000000E+00  0.00000000000E+00  0.44950357232E+02  0.44950357232E+02  0.00000000000E+00 0.  1.
          1   -1    0    0  501    0  0.00000000000E+00 -0.00000000000E+00 -0.26078757938E+03  0.26078757938E+03  0.00000000000E+00 0. -1.
         23    2    1    2    0    0  0.43663271449E+01  0.10793441510E+02 -0.12265565301E+03  0.17557869132E+03  0.12509158419E+03 0.  0.
          5    1    3    3  502    0  0.39482717655E+02  0.30396625936E+02 -0.12544993445E+03  0.13504813333E+03  0.41800000000E+01 0. -1.
         -5    1    3    3    0  502 -0.35116390510E+02 -0.19603184426E+02  0.27942814368E+01  0.40530557988E+02  0.41800000000E+01 0. -1.
        -11    1    1    2    0    0  0.18752979627E+02 -0.37249915590E+01  0.11774954391E+02  0.22454383935E+02  0.00000000000E+00 0.  1.
         11    1    1    2    0    0 -0.23119306772E+02 -0.70684499514E+01 -0.10495652352E+03  0.10770486136E+03  0.00000000000E+00 0. -1.
</event>
<event>
 7    1  0.6671761E-006  0.1124924E+03  0.7561462E-02  0.1256023E+00
         -1   -1    0    0    0  501 -0.00000000000E+00  0.00000000000E+00  0.73312186516E+02  0.73312186516E+02  0.00000000000E+00 0.  1.
          1   -1    0    0  501    0  0.00000000000E+00 -0.00000000000E+00 -0.21207710483E+03  0.21207710483E+03  0.00000000000E+00 0. -1.
         23    2    1    2    0    0  0.43901491985E+02  0.42235273002E+02 -0.73326900984E+02  0.15727933829E+03  0.12509515003E+03 0.  0.
          5    1    3    3  502    0 -0.30985917732E+02  0.19523657505E+02 -0.69677550326E+02  0.78827239705E+02  0.41800000000E+01 0. -1.
         -5    1    3    3    0  502  0.74887409717E+02  0.22711615497E+02 -0.36493506579E+01  0.78452098588E+02  0.41800000000E+01 0. -1.
        -11    1    1    2    0    0 -0.72594903819E+02 -0.29384888944E+02 -0.51409447421E+02  0.93682565309E+02  0.00000000000E+00 0. -1.
         11    1    1    2    0    0  0.28693411834E+02 -0.12850384058E+02 -0.14028569908E+02  0.34427387743E+02  0.00000000000E+00 0.  1.
</event>
<event>
 7    1  0.6671761E-006  0.7406245E+02  0.7561462E-02  0.1346799E+00
         -2   -1    0    0    0  501 -0.00000000000E+00  0.00000000000E+00  0.15329117449E+03  0.15329117449E+03  0.00000000000E+00 0.  1.
          2   -1    0    0  501    0  0.00000000000E+00 -0.00000000000E+00 -0.12482827051E+03  0.12482827051E+03  0.00000000000E+00 0. -1.
         23    2    1    2    0    0 -0.72354216728E+01  0.33022597928E+02  0.93777046128E+02  0.15995372690E+03  0.12509283380E+03 0.  0.
          5    1    3    3  502    0  0.15029916420E+02 -0.79639165518E+01  0.10924070928E+03  0.11063601276E+03  0.41800000000E+01 0. -1.
         -5    1    3    3    0  502 -0.22265338092E+02  0.40986514479E+02 -0.15463663157E+02  0.49317714138E+02  0.41800000000E+01 0. -1.
        -11    1    1    2    0    0 -0.22975221689E+02 -0.45594918607E+02 -0.73221295519E+01  0.51578784356E+02  0.00000000000E+00 0.  1.
         11    1    1    2    0    0  0.30210643362E+02  0.12572320679E+02 -0.57992012596E+02  0.66586933737E+02  0.00000000000E+00 0. -1.
</event>
<event>
 7    1  0.6671761E-006  0.1141266E+03  0.7561462E-02  0.1253113E+00
          2   -1    0    0  501    0  0.00000000000E+00  0.00000000000E+00  0.13332078360E+03  0.13332078360E+03  0.00000000000E+00 0. -1.
         -2   -1    0    0    0  501 -0.00000000000E+00 -0.00000000000E+00 -0.27912477969E+03  0.27912477969E+03  0.00000000000E+00 0.  1.
         23    2    1    2    0    0  0.96350101353E+02 -0.23009943577E+02 -0.21370385417E+03  0.26233517692E+03  0.11548856319E+03 0.  0.
          5    1    3    3  502    0  0.68278585273E+02 -0.31082098816E+02 -0.38053137289E+02  0.84223368083E+02  0.41800000000E+01 0. -1.
         -5    1    3    3    0  502  0.28071516080E+02  0.80721552391E+01 -0.17565071688E+03  0.17811180883E+03  0.41800000000E+01 0.  1.
        -11    1    1    2    0    0 -0.83420216459E+02  0.47442141794E+02  0.25160116839E+02  0.99210487407E+02  0.00000000000E+00 0.  1.
         11    1    1    2    0    0 -0.12929884894E+02 -0.24432198217E+02  0.42739741243E+02  0.50899898964E+02  0.00000000000E+00 0. -1.
</event>
<event>
 7    1  0.6671761E-006  0.1616713E+03  0.7561462E-02  0.1186823E+00
          1   -1    0    0  501    0  0.00000000000E+00  0.00000000000E+00  0.68956694014E+03  0.68956694014E+03  0.00000000000E+00 0. -1.
         -1   -1    0    0    0  501 -0.00000000000E+00 -0.00000000000E+00 -0.46726589019E+02  0.46726589019E+02  0.00000000000E+00 0.  1.
         23    2    1    2    0    0  0.10685467443E+03 -0.90394766361E+02  0.33590660748E+03  0.38480181639E+03  0.12510017472E+03 0.  0.
          5    1    3    3  502    0  0.10835961040E+03 -0.10053254008E+03  0.34168920163E+03  0.37231381883E+03  0.41800000000E+01 0. -1.
         -5    1    3    3    0  502 -0.15049359677E+01  0.10137773718E+02 -0.57825941421E+01  0.12487997567E+02  0.41800000000E+01 0. -1.
        -11    1    1    2    0    0 -0.77386186905E+02  0.10585415916E+03  0.19713817999E+03  0.23676398997E+03  0.00000000000E+00 0.  1.
         11    1    1    2    0    0 -0.29468487524E+02 -0.15459392798E+02  0.10979556365E+03  0.11472772281E+03  0.00000000000E+00 0. -1.
</event>
<event>
 6    1  0.6671761E-006  0.7130992E+02  0.7561462E-02  0.1355694E+00
         -3   -1    0    0    0  501 -0.00000000000E+00  0.00000000000E+00  0.67025608362E+02  0.67025608362E+02  0.00000000000E+00 0.  1.
          3   -1    0    0  501    0  0.00000000000E+00 -0.00000000000E+00 -0.46024709324E+03  0.46024709324E+03  0.00000000000E+00 0. -1.
          5    1    1    2  502    0 -0.71151540696E+01 -0.28415890703E+02 -0.10754831341E+03  0.11154461161E+03  0.41800000000E+01 0. -1.
         -5    1    1    2    0  502 -0.52485928266E+01 -0.11737006849E+02  0.56882062821E+02  0.58466627465E+02  0.41800000000E+01 0.  1.
        -11    1    1    2    0    0 -0.93129223277E+01  0.65499842701E+02 -0.19273172223E+03  0.20377064722E+03  0.00000000000E+00 0.  1.
         11    1    1    2    0    0  0.21676669224E+02 -0.25346945149E+02 -0.14982351206E+03  0.15349081531E+03  0.00000000000E+00 0. -1.
</event>
<event>
 6    1  0.6671761E-006  0.9174955E+02  0.7561462E-02  0.1298669E+00
         -1   -1    0    0    0  501 -0.00000000000E+00  0.00000000000E+00  0.11439317615E+03  0.11439317615E+03  0.00000000000E+00 0.  1.
          1   -1    0    0  501    0  0.00000000000E+00 -0.00000000000E+00 -0.18401476379E+03  0.18401476379E+03  0.00000000000E+00 0. -1.
          5    1    1    2  502    0  0.42106399771E+02  0.11784353872E+02 -0.79948445240E+02  0.91219768658E+02  0.41800000000E+01 0. -1.
         -5    1    1    2    0  502  0.28116187327E+02 -0.34633728043E+02  0.65307090655E+02  0.79199138870E+02  0.41800000000E+01 0.  1.
        -11    1    1    2    0    0 -0.70027647470E+02  0.37962749437E+02 -0.96896584607E+01  0.80242951317E+02  0.00000000000E+00 0. -1.
         11    1    1    2    0    0 -0.19493962786E+00 -0.15113375266E+02 -0.45290574590E+02  0.47746081097E+02  0.00000000000E+00 0.  1.
</event>
<event>
 7    1  0.6671761E-006  0.1756621E+03  0.7561462E-02  0.1172069E+00
         -3   -1    0    0    0  501 -0.00000000000E+00  0.00000000000E+00  0.35861427577E+02  0.35861427577E+02  0.00000000000E+00 0.  1.
          3   -1    0    0  501    0  0.00000000000E+00 -0.00000000000E+00 -0.96854507995E+03  0.96854507995E+03  0.00000000000E+00 0. -1.
         23    2    1    2    0    0 -0.93689545188E+02 -0.12135515387E+03 -0.46176894129E+03  0.50237741208E+03  0.12509078616E+03 0.  0.
          5    1    3    3  502    0 -0.11744773706E+03 -0.97307501112E+02 -0.29452863211E+03  0.33170364521E+03  0.41800000000E+01 0. -1.
         -5    1    3    3    0  502  0.23758191869E+02 -0.24047652759E+02 -0.16724030918E+03  0.17067376687E+03  0.41800000000E+01 0. -1.
        -11    1    1    2    0    0  0.47377256622E+02  0.10564065440E+03 -0.24634092295E+03  0.27219184894E+03  0.00000000000E+00 0.  1.
         11    1    1    2    0    0  0.46312288566E+02  0.15714499468E+02 -0.22457378814E+03  0.22983724651E+03  0.00000000000E+00 0. -1.
</event>
<event>
 7    1  0.6671761E-006  0.1314768E+03  0.7561462E-02  0.1225281E+00
         -1   -1    0    0    0  501 -0.00000000000E+00  0.00000000000E+00  0.28633449891E+02  0.28633449891E+02  0.00000000000E+00 0.  1.
          1   -1    0    0  501    0  0.00000000000E+00 -0.00000000000E+00 -0.70879882646E+03  0.70879882646E+03  0.00000000000E+00 0. -1.
         23    2    1    2    0    0 -0.71945350494E+02 -0.17216426413E+01 -0.22732110942E+03  0.26926158917E+03  0.12509124311E+03 0.  0.
          5    1    3    3  502    0 -0.78737386746E+02 -0.51242752393E+02 -0.15341003261E+03  0.17993750651E+03  0.41800000000E+01 0.  1.
         -5    1    3    3    0  502  0.67920362515E+01  0.49521109752E+02 -0.73911076807E+02  0.89324082656E+02  0.41800000000E+01 0.  1.
        -11    1    1    2    0    0  0.12162147968E+01  0.38854653118E+02 -0.15482536760E+03  0.15963100482E+03  0.00000000000E+00 0.  1.
         11    1    1    2    0    0  0.70729135698E+02 -0.37133010477E+02 -0.29801889955E+03  0.30853968236E+03  0.00000000000E+00 0. -1.
</event>
<event>
 7    1  0.6671761E-006  0.1212610E+03  0.7561462E-02  0.1241031E+00
         -2   -1    0    0    0  501 -0.00000000000E+00  0.00000000000E+00  0.27644532423E+02  0.27644532423E+02  0.00000000000E+00 0. -1.
          2   -1    0    0  501    0  0.00000000000E+00 -0.00000000000E+00 -0.57593702775E+03  0.57593702775E+03  0.00000000000E+00 0.  1.
         23    2    1    2    0    0  0.39610866000E+02 -0.47051502267E+02 -0.26728775568E+03  0.30144956687E+03  0.12508490102E+03 0.  0.
          5    1    3    3  502    0  0.56116355478E+02  0.26051292654E+02 -0.94079381886E+02  0.11267705045E+03  0.41800000000E+01 0. -1.
         -5    1    3    3    0  502 -0.16505489479E+02 -0.73102794921E+02 -0.17320837379E+03  0.18877251643E+03  0.41800000000E+01 0. -1.
        -11    1    1    2    0    0 -0.66226918611E+02  0.24653881734E+02 -0.22826411054E+03  0.23895255343E+03  0.00000000000E+00 0.  1.
         11    1    1    2    0    0  0.26616052611E+02  0.22397620533E+02 -0.52740629111E+02  0.63179439861E+02  0.00000000000E+00 0. -1.
</event>
<event>
 6    1  0.6671761E-006  0.6262849E+02  0.7561462E-02  0.1387121E+00
         -2   -1    0    0    0  501 -0.00000000000E+00  0.00000000000E+00  0.39940739205E+02  0.39940739205E+02  0.00000000000E+00 0.  1.
          2   -1    0    0  501    0  0.00000000000E+00 -0.00000000000E+00 -0.39979545013E+03  0.39979545013E+03  0.00000000000E+00 0. -1.
          5    1    1    2  502    0 -0.31099052301E+02 -0.31901018199E+02 -0.26512022954E+03  0.26886992120E+03  0.41800000000E+01 0. -1.
         -5    1    1    2    0  502  0.12035229397E+02 -0.12098512976E+02  0.22931499770E+02  0.28888524444E+02  0.41800000000E+01 0.  1.
        -11    1    1    2    0    0 -0.46102040692E+01  0.38317591189E+02 -0.24570811159E+02  0.45751683435E+02  0.00000000000E+00 0. -1.
         11    1    1    2    0    0  0.23674026974E+02  0.56819399857E+01 -0.93095169994E+02  0.96226060250E+02  0.00000000000E+00 0.  1.
</event>
<event>
 7    1  0.6671761E-006  0.1266647E+03  0.7561462E-02  0.1232490E+00
          2   -1    0    0  501    0  0.00000000000E+00  0.00000000000E+00  0.63548795935E+03  0.63548795935E+03  0.00000000000E+00 0. -1.
         -2   -1    0    0    0  501 -0.00000000000E+00 -0.00000000000E+00 -0.48700386098E+02  0.48700386098E+02  0.00000000000E+00 0.  1.
         23    2    1    2    0    0  0.50946389866E+02 -0.66525892176E+02  0.96900050223E+02  0.17904813934E+03  0.12508951793E+03 0.  0.
          5    1    3    3  502    0  0.23298886469E+02  0.25277181214E+02 -0.93541697129E+01  0.35871254395E+02  0.41800000000E+01 0. -1.
         -5    1    3    3    0  502  0.27647503397E+02 -0.91803073391E+02  0.10625421994E+03  0.14317688494E+03  0.41800000000E+01 0. -1.
        -11    1    1    2    0    0  0.93525341810E+01  0.61519090562E+02  0.22649990440E+03  0.23489204988E+03  0.00000000000E+00 0.  1.
         11    1    1    2    0    0 -0.60298924047E+02  0.50068016141E+01  0.26338761863E+03  0.27024815624E+03  0.00000000000E+00 0. -1.
</event>
<event>
 7    1  0.6671761E-006  0.1707831E+03  0.7561462E-02  0.1177034E+00
          1   -1    0    0  501    0  0.00000000000E+00  0.00000000000E+00  0.15045891207E+03  0.15045891207E+03  0.00000000000E+00 0. -1.
         -1   -1    0    0    0  501 -0.00000000000E+00 -0.00000000000E+00 -0.22870790507E+03  0.22870790507E+03  0.00000000000E+00 0.  1.
         23    2    1    2    0    0 -0.79814437136E+02 -0.10585807435E+03 -0.10956481260E+03  0.21267924291E+03  0.12510689799E+03 0.  0.
          5    1    3    3  502    0 -0.19929154286E+02  0.27900346234E+02 -0.11975592490E+02  0.36558004951E+02  0.41800000000E+01 0.  1.
         -5    1    3    3    0  502 -0.59885282850E+02 -0.13375842058E+03 -0.97589220109E+02  0.17612123796E+03  0.41800000000E+01 0.  1.
        -11    1    1    2    0    0  0.52388107586E+02  0.11898510075E+03  0.12215641713E+02  0.13058020493E+03  0.00000000000E+00 0.  1.
         11    1    1    2    0    0  0.27426329551E+02 -0.13127026409E+02  0.19100177879E+02  0.35907369299E+02  0.00000000000E+00 0. -1.
</event>
<event>
 7    1  0.6671761E-006  0.1035792E+03  0.7561462E-02  0.1272944E+00
          1   -1    0    0  501    0  0.00000000000E+00  0.00000000000E+00  0.31827524317E+02  0.31827524317E+02  0.00000000000E+00 0. -1.
         -1   -1    0    0    0  501 -0.00000000000E+00 -0.00000000000E+00 -0.37527936254E+03  0.37527936254E+03  0.00000000000E+00 0.  1.
         23    2    1    2    0    0  0.15880685869E+02 -0.99053504995E+01 -0.20692725106E+03  0.24251851191E+03  0.12508408865E+03 0.  0.
          5    1    3    3  502    0 -0.17655539253E+02  0.51985116311E+02 -0.76579700837E+02  0.94319103921E+02  0.41800000000E+01 0. -1.
         -5    1    3    3    0  502  0.33536225121E+02 -0.61890466810E+02 -0.13034755023E+03  0.14819940799E+03  0.41800000000E+01 0. -1.
        -11    1    1    2    0    0 -0.91386888256E+01  0.44962586579E+02 -0.11266562803E+03  0.12164988108E+03  0.00000000000E+00 0.  1.
         11    1    1    2    0    0 -0.67419970429E+01 -0.35057236080E+02 -0.23858959126E+02  0.42938493875E+02  0.00000000000E+00 0. -1.
</event>
<event>
 7    1  0.6671761E-006  0.1115596E+03  0.7561462E-02  0.1257709E+00
          1   -1    0    0  501    0  0.00000000000E+00  0.00000000000E+00  0.18438402024E+03  0.18438402024E+03  0.00000000000E+00 0. -1.
         -1   -1    0    0    0  501 -0.00000000000E+00 -0.00000000000E+00 -0.75289264717E+02  0.75289264717E+02  0.00000000000E+00 0.  1.
         23    2    1    2    0    0 -0.40787770101E+01 -0.44994619697E+02  0.54171663511E+02  0.14360755450E+03  0.12508960132E+03 0.  0.
          5    1    3    3  502    0  0.33634909972E+02 -0.71866108860E+02  0.11103294134E+02  0.80229672267E+02  0.41800000000E+01 0. -1.
         -5    1    3    3    0  502 -0.37713686983E+02  0.26871489163E+02  0.43068369377E+02  0.63377882234E+02  0.41800000000E+01 0. -1.
        -11    1    1    2    0    0  0.39664488286E+02  0.47028315679E+02  0.16585277266E+02  0.63718172672E+02  0.00000000000E+00 0.  1.
         11    1    1    2    0    0 -0.35585711276E+02 -0.20336959819E+01  0.38337814742E+02  0.52347557780E+02  0.00000000000E+00 0. -1.
</event>
<event>
 7    1  0.6671761E-006  0.3175056E+03  0.7561462E-02  0.1076803E+00
          1   -1    0    0  501    0  0.00000000000E+00  0.00000000000E+00  0.28590991487E+03  0.28590991487E+03  0.00000000000E+00 0.  1.
         -1   -1    0    0    0  501 -0.00000000000E+00 -0.00000000000E+00 -0.39301676976E+03  0.39301676976E+03  0.00000000000E+00 0. -1.
         23    2    1    2    0    0  0.52456355587E+02  0.30520218879E+03 -0.12292061930E+03  0.35589003365E+03  0.12509273409E+03 0.  0.
          5    1    3    3  502    0 -0.15220225978E+02  0.19695111167E+03 -0.11337588371E+03  0.22780026135E+03  0.41800000000E+01 0. -1.
         -5    1    3    3    0  502  0.67676581565E+02  0.10825107712E+03 -0.95447355910E+01  0.12808977230E+03  0.41800000000E+01 0. -1.
        -11    1    1    2    0    0 -0.27669569000E+02 -0.15123417891E+03  0.53162094995E+02  0.16267633590E+03  0.00000000000E+00 0.  1.
         11    1    1    2    0    0 -0.24786786586E+02 -0.15396800988E+03 -0.37348330582E+02  0.16036031508E+03  0.00000000000E+00 0. -1.
</event>
<event>
 7    1  0.6671761E-006  0.1884198E+03  0.7561462E-02  0.1159894E+00
         -1   -1    0    0    0  501 -0.00000000000E+00  0.00000000000E+00  0.94065255631E+02  0.94065255631E+02  0.00000000000E+00 0.  1.
          1   -1    0    0  501    0  0.00000000000E+00 -0.00000000000E+00 -0.53382944263E+03  0.53382944263E+03  0.00000000000E+00 0. -1.
         23    2    1    2    0    0  0.17129059577E+03 -0.16352141270E+02 -0.91677723774E+02  0.23164735231E+03  0.12509128695E+03 0.  0.
          5    1    3    3  502    0  0.21013822915E+02 -0.35201695527E+02  0.17628832809E+02  0.44821738785E+02  0.41800000000E+01 0. -1.
         -5    1    3    3    0  502  0.15027677286E+03  0.18849554258E+02 -0.10930655658E+03  0.18682561352E+03  0.41800000000E+01 0. -1.
        -11    1    1    2    0    0 -0.12250893219E+03 -0.18864507745E+02 -0.18757523634E+03  0.22483055265E+03  0.00000000000E+00 0. -1.
         11    1    1    2    0    0 -0.48781663585E+02  0.35216649015E+02 -0.16051122689E+03  0.17141679330E+03  0.00000000000E+00 0.  1.
</event>
<event>
 7    1  0.6671761E-006  0.1442823E+03  0.7561462E-02  0.1207680E+00
          4   -1    0    0  501    0  0.00000000000E+00  0.00000000000E+00  0.67545326047E+02  0.67545326047E+02  0.00000000000E+00 0. -1.
         -4   -1    0    0    0  501 -0.00000000000E+00 -0.00000000000E+00 -0.33793323891E+03  0.33793323891E+03  0.00000000000E+00 0.  1.
         23    2    1    2    0    0 -0.57045551648E+02  0.84955884276E+02 -0.16990023289E+03  0.23448722821E+03  0.12508586579E+03 0.  0.
          5    1    3    3  502    0 -0.40470088314E+02 -0.23929140038E+02 -0.77113848558E+02  0.90412664105E+02  0.41800000000E+01 0.  1.
         -5    1    3    3    0  502 -0.16575463334E+02  0.10888502431E+03 -0.92786384330E+02  0.14407456410E+03  0.41800000000E+01 0.  1.
        -11    1    1    2    0    0  0.71525452017E+02 -0.90750557769E+02 -0.65828637641E+02  0.13298482453E+03  0.00000000000E+00 0. -1.
         11    1    1    2    0    0 -0.14479900369E+02  0.57946734933E+01 -0.34659042336E+02  0.38006512221E+02  0.00000000000E+00 0.  1.
</event>
<event>
 7    1  0.6671761E-006  0.1322267E+03  0.7561462E-02  0.1224189E+00
          1   -1    0    0  501    0  0.00000000000E+00  0.00000000000E+00  0.29449447139E+03  0.29449447139E+03  0.00000000000E+00 0. -1.
         -1   -1    0    0    0  501 -0.00000000000E+00 -0.00000000000E+00 -0.72780107695E+02  0.72780107695E+02  0.00000000000E+00 0.  1.
         23    2    1    2    0    0  0.97722589881E+02  0.11431940167E+01  0.13127666479E+03  0.20599002013E+03  0.12508922499E+03 0.  0.
          5    1    3    3  502    0 -0.16326230690E+02  0.69645424240E+01  0.77643436487E+02  0.79756042336E+02  0.41800000000E+01 0. -1.
         -5    1    3    3    0  502  0.11404882057E+03 -0.58213484073E+01  0.53633228301E+02  0.12623397779E+03  0.41800000000E+01 0. -1.
        -11    1    1    2    0    0  0.63775687103E+01 -0.24449255323E+02  0.27843816828E+02  0.37599436220E+02  0.00000000000E+00 0.  1.
         11    1    1    2    0    0 -0.10410015859E+03  0.23306061307E+02  0.62593882078E+02  0.12368512273E+03  0.00000000000E+00 0. -1.
</event>
<event>
 7    1  0.6671761E-006  0.1314752E+03  0.7561462E-02  0.1225283E+00
         -1   -1    0    0    0  501 -0.00000000000E+00  0.00000000000E+00  0.31500305660E+03  0.31500305660E+03  0.00000000000E+00 0.  1.
          1   -1    0    0  501    0  0.00000000000E+00 -0.00000000000E+00 -0.85753820428E+02  0.85753820428E+02  0.00000000000E+00 0. -1.
         23    2    1    2    0    0 -0.32026387166E+02  0.11085745644E+03  0.17398650116E+03  0.24337948159E+03  0.12508878586E+03 0.  0.
          5    1    3    3  502    0 -0.19219038078E+02  0.12197007653E+03  0.78648637363E+02  0.14645528858E+03  0.41800000000E+01 0.  1.
         -5    1    3    3    0  502 -0.12807349088E+02 -0.11112620094E+02  0.95337863802E+02  0.96924193009E+02  0.41800000000E+01 0.  1.
        -11    1    1    2    0    0 -0.86055633959E+01 -0.99225833494E+01  0.46385932894E+02  0.48209627172E+02  0.00000000000E+00 0.  1.
         11    1    1    2    0    0  0.40631950562E+02 -0.10093487309E+03  0.88768021110E+01  0.10916776826E+03  0.00000000000E+00 0. -1.
</event>
<event>
 6    1  0.6671761E-006  0.1035631E+03  0.7561462E-02  0.1272977E+00
         -1   -1    0    0    0  501 -0.00000000000E+00  0.00000000000E+00  0.87129594354E+02  0.87129594354E+02  0.00000000000E+00 0.  1.
          1   -1    0    0  501    0  0.00000000000E+00 -0.00000000000E+00 -0.20134297398E+03  0.20134297398E+03  0.00000000000E+00 0. -1.
          5    1    1    2  502    0  0.49345166209E+02 -0.52129337524E+02 -0.38180694812E+02  0.81410387023E+02  0.41800000000E+01 0. -1.
         -5    1    1    2    0  502 -0.14565844634E+02  0.55405270617E+02  0.28553519140E+02  0.64145800310E+02  0.41800000000E+01 0.  1.
        -11    1    1    2    0    0  0.17673538898E+02 -0.15966552982E+02  0.15290850732E+01  0.23866773817E+02  0.00000000000E+00 0. -1.
         11    1    1    2    0    0 -0.52452860474E+02  0.12690619888E+02 -0.10611528902E+03  0.11904960718E+03  0.00000000000E+00 0.  1.
</event>
<event>
 7    1  0.6671761E-006  0.7942138E+02  0.7561462E-02  0.1330702E+00
          2   -1    0    0  501    0  0.00000000000E+00  0.00000000000E+00  0.15738499370E+03  0.15738499370E+03  0.00000000000E+00 0. -1.
         -2   -1    0    0    0  501 -0.00000000000E+00 -0.00000000000E+00 -0.84762193171E+02  0.84762193171E+02  0.00000000000E+00 0.  1.
         23    2    1    2    0    0 -0.32229504908E+02 -0.32517669610E+01  0.67666062835E+02  0.14586232986E+03  0.12509119968E+03 0.  0.
          5    1    3    3  502    0  0.31629060980E+02 -0.28062245536E+02  0.64392943413E+02  0.77147979133E+02  0.41800000000E+01 0. -1.
         -5    1    3    3    0  502 -0.63858565888E+02  0.24810478575E+02  0.32731194223E+01  0.68714350722E+02  0.41800000000E+01 0. -1.
        -11    1    1    2    0    0  0.11590191205E+02 -0.15822494218E+02 -0.39263575332E+02  0.43889773334E+02  0.00000000000E+00 0.  1.
         11    1    1    2    0    0  0.20639313703E+02  0.19074261179E+02  0.44220313023E+02  0.52395083677E+02  0.00000000000E+00 0. -1.
</event>
<event>
 7    1  0.6671761E-006  0.1296923E+03  0.7561462E-02  0.1227913E+00
         -2   -1    0    0    0  501 -0.00000000000E+00  0.00000000000E+00  0.44871528604E+02  0.44871528604E+02  0.00000000000E+00 0.  1.
          2   -1    0    0  501    0  0.00000000000E+00 -0.00000000000E+00 -0.48782451190E+03  0.48782451190E+03  0.00000000000E+00 0. -1.
         23    2    1    2    0    0  0.28054474738E+01  0.70512231158E+02 -0.11319169634E+03  0.18286942061E+03  0.12509604148E+03 0.  0.
          5    1    3    3  502    0  0.45319628731E+02  0.86711354089E+02 -0.76148199776E+02  0.12405139421E+03  0.41800000000E+01 0. -1.
         -5    1    3    3    0  502 -0.42514181257E+02 -0.16199122932E+02 -0.37043496567E+02  0.58818026401E+02  0.41800000000E+01 0. -1.
        -11    1    1    2    0    0  0.35957749144E+02 -0.68001728727E+02 -0.23984379254E+03  0.25187742982E+03  0.00000000000E+00 0.  1.
         11    1    1    2    0    0 -0.38763196618E+02 -0.25105024306E+01 -0.89917494418E+02  0.97949190078E+02  0.00000000000E+00 0. -1.
</event>
<event>
 7    1  0.6671761E-006  0.1007221E+03  0.7561462E-02  0.1278785E+00
          1   -1    0    0  501    0  0.00000000000E+00  0.00000000000E+00  0.52033183357E+02  0.52033183357E+02  0.00000000000E+00 0. -1.
         -1   -1    0    0    0  501 -0.00000000000E+00 -0.00000000000E+00 -0.25201134154E+03  0.25201134154E+03  0.00000000000E+00 0.  1.
         23    2    1    2    0    0 -0.12581616579E+02 -0.14487670628E+02 -0.16379528801E+03  0.20698862687E+03  0.12508879088E+03 0.  0.
          5    1    3    3  502    0 -0.51209019800E+02  0.29094223809E+02 -0.43715238300E+02  0.73466536788E+02  0.41800000000E+01 0.  1.
         -5    1    3    3    0  502  0.38627403221E+02 -0.43581894438E+02 -0.12008004971E+03  0.13352209009E+03  0.41800000000E+01 0.  1.
        -11    1    1    2    0    0  0.10205158740E+02 -0.33984078634E+02 -0.32942814751E+02  0.48417888319E+02  0.00000000000E+00 0.  1.
         11    1    1    2    0    0  0.23764578390E+01  0.48471749263E+02 -0.32400554175E+01  0.48638009700E+02  0.00000000000E+00 0. -1.
</event>
<event>
 7    1  0.6671761E-006  0.1023267E+03  0.7561462E-02  0.1275478E+00
         -2   -1    0    0    0  501 -0.00000000000E+00  0.00000000000E+00  0.83652695982E+02  0.83652695982E+02  0.00000000000E+00 0.  1.
          2   -1    0    0  501    0  0.00000000000E+00 -0.00000000000E+00 -0.18433798643E+03  0.18433798643E+03  0.00000000000E+00 0. -1.
         23    2    1    2    0    0  0.31204812973E+02 -0.32414830873E+02 -0.11440596005E+02  0.13342908993E+03  0.12509185901E+03 0.  0.
          5    1    3    3  502    0  0.23493424851E+02  0.38006006715E+02  0.27350521961E+02  0.52553981858E+02  0.41800000000E+01 0.  1.
         -5    1    3    3    0  502  0.77113881226E+01 -0.70420837588E+02 -0.38791117966E+02  0.80875108076E+02  0.41800000000E+01 0.  1.
        -11    1    1    2    0    0 -0.45252444063E+02 -0.80638369725E+01 -0.14134146508E+02  0.48089325820E+02  0.00000000000E+00 0.  1.
         11    1    1    2    0    0  0.14047631090E+02  0.40478667845E+02 -0.75110547939E+02  0.86472266660E+02  0.00000000000E+00 0. -1.
</event>
<event>
 7    1  0.9080644E-006  0.8692612E+02  0.7561462E-02  0.1310471E+00
         -1   -1    0    0    0  501 -0.00000000000E+00  0.00000000000E+00  0.59423331571E+02  0.59423331571E+02  0.00000000000E+00 0.  1.
          1   -1    0    0  501    0  0.00000000000E+00 -0.00000000000E+00 -0.29591003871E+03  0.29591003871E+03  0.00000000000E+00 0. -1.
         23    2    1    2    0    0  0.31929521785E+02  0.67722956781E+02 -0.11487598623E+03  0.18560727446E+03  0.12509066666E+03 0.  0.
          5    1    3    3  502    0  0.36888421618E+01  0.22499495293E+02 -0.12837373079E+03  0.13044969146E+03  0.41800000000E+01 0. -1.
         -5    1    3    3    0  502  0.28240679623E+02  0.45223461488E+02  0.13497744563E+02  0.55157583003E+02  0.41800000000E+01 0. -1.
        -11    1    1    2    0    0 -0.36605131123E+02 -0.82345299200E+01 -0.38590997477E+01  0.37717844032E+02  0.00000000000E+00 0.  1.
         11    1    1    2    0    0  0.46756093383E+01 -0.59488426861E+02 -0.11775162117E+03  0.13200825179E+03  0.00000000000E+00 0. -1.
</event>
<event>
 7    1  0.6671761E-006  0.9522165E+02  0.7561462E-02  0.1290678E+00
         -1   -1    0    0    0  501 -0.00000000000E+00  0.00000000000E+00  0.15234586328E+03  0.15234586328E+03  0.00000000000E+00 0.  1.
          1   -1    0    0  501    0  0.00000000000E+00 -0.00000000000E+00 -0.11253655537E+03  0.11253655537E+03  0.00000000000E+00 0. -1.
         23    2    1    2    0    0 -0.58715242033E+02 -0.26002132617E+02  0.54922788342E+02  0.15097572950E+03  0.12511421850E+03 0.  0.
          5    1    3    3  502    0 -0.36192255418E+02  0.74845661243E+01 -0.35781445925E+02  0.51610874385E+02  0.41800000000E+01 0. -1.
         -5    1    3    3    0  502 -0.22522986615E+02 -0.33486698741E+02  0.90704234267E+02  0.99364855118E+02  0.41800000000E+01 0. -1.
        -11    1    1    2    0    0  0.38251348353E+02 -0.32817210043E+02 -0.10316073733E+02  0.51444691690E+02  0.00000000000E+00 0.  1.
         11    1    1    2    0    0  0.20463893680E+02  0.58819342660E+02 -0.47974067024E+01  0.62461997459E+02  0.00000000000E+00 0. -1.
</event>
<event>
 7    1  0.6671761E-006  0.1296186E+03  0.7561462E-02  0.1228023E+00
         -2   -1    0    0    0  501 -0.00000000000E+00  0.00000000000E+00  0.14082278145E+03  0.14082278145E+03  0.00000000000E+00 0.  1.
          2   -1    0    0  501    0  0.00000000000E+00 -0.00000000000E+00 -0.25819667571E+03  0.25819667571E+03  0.00000000000E+00 0. -1.
         23    2    1    2    0    0  0.11339045467E+03  0.49555795259E+02  0.45252548581E+02  0.17533999902E+03  0.11568556544E+03 0.  0.
          5    1    3    3  502    0  0.74254136824E+02  0.23885660444E+02 -0.32408420008E+02  0.84569378014E+02  0.41800000000E+01 0. -1.
         -5    1    3    3    0  502  0.39136317846E+02  0.25670134815E+02  0.77660968589E+02  0.90770621008E+02  0.41800000000E+01 0.  1.
        -11    1    1    2    0    0 -0.49359298962E+02  0.55301969488E+01 -0.12173795711E+02  0.51138290686E+02  0.00000000000E+00 0.  1.
         11    1    1    2    0    0 -0.64031155708E+02 -0.55085992208E+02 -0.15045264712E+03  0.17254116745E+03  0.00000000000E+00 0. -1.
</event>
<event>
 7    1  0.6671761E-006  0.2108990E+03  0.7561462E-02  0.1140856E+00
         -1   -1    0    0    0  501 -0.00000000000E+00  0.00000000000E+00  0.20915489534E+03  0.20915489534E+03  0.00000000000E+00 0.  1.
          1   -1    0    0  501    0  0.00000000000E+00 -0.00000000000E+00 -0.45848344633E+03  0.45848344633E+03  0.00000000000E+00 0. -1.
         23    2    1    2    0    0  0.75240584355E+01 -0.20935127618E+03  0.88824529727E+02  0.25965855602E+03  0.12509276693E+03 0.  0.
          5    1    3    3  502    0  0.17500266391E+02 -0.95723098102E+02  0.10631353285E+03  0.14418464031E+03  0.41800000000E+01 0.  1.
         -5    1    3    3    0  502 -0.99762079553E+01 -0.11362817808E+03 -0.17489003124E+02  0.11547391571E+03  0.41800000000E+01 0.  1.
        -11    1    1    2    0    0 -0.11448426997E+02  0.76911703922E+02 -0.54649839059E+02  0.95042525167E+02  0.00000000000E+00 0.  1.
         11    1    1    2    0    0  0.39243685612E+01  0.13243957226E+03 -0.28350324166E+03  0.31293726049E+03  0.00000000000E+00 0. -1.
</event>
<event>
 7    1  0.6671761E-006  0.1144838E+03  0.7561462E-02  0.1252485E+00
          1   -1    0    0  501    0  0.00000000000E+00  0.00000000000E+00  0.43707417988E+03  0.43707417988E+03  0.00000000000E+00 0. -1.
         -1   -1    0    0    0  501 -0.00000000000E+00 -0.00000000000E+00 -0.33679395458E+02  0.33679395458E+02  0.00000000000E+00 0.  1.
         23    2    1    2    0    0  0.27671006368E+02  0.32114134119E+02  0.15282347720E+03  0.20198990765E+03  0.12509158806E+03 0.  0.
          5    1    3    3  502    0  0.36289494186E+02  0.77352292347E+02  0.92668783543E+02  0.12611613839E+03  0.41800000000E+01 0. -1.
         -5    1    3    3    0  502 -0.86184878180E+01 -0.45238158227E+02  0.60154693661E+02  0.75873769259E+02  0.41800000000E+01 0. -1.
        -11    1    1    2    0    0  0.29867810645E+02  0.26033950153E+01  0.79711710172E+02  0.85163492864E+02  0.00000000000E+00 0.  1.
         11    1    1    2    0    0 -0.57538817013E+02 -0.34717529135E+02  0.17085959705E+03  0.18360017483E+03  0.00000000000E+00 0. -1.
</event>
<event>
 7    1  0.6671761E-006  0.1706890E+03  0.7561462E-02  0.1177131E+00
         -1   -1    0    0    0  501 -0.00000000000E+00  0.00000000000E+00  0.17496859547E+03  0.17496859547E+03  0.00000000000E+00 0.  1.
          1   -1    0    0  501    0  0.00000000000E+00 -0.00000000000E+00 -0.25719681243E+03  0.25719681243E+03  0.00000000000E+00 0. -1.
         23    2    1    2    0    0 -0.14389340234E+03  0.61419360096E+02  0.50877912170E+02  0.20666832888E+03  0.12508232163E+03 0.  0.
          5    1    3    3  502    0 -0.89000866604E+02  0.78457251794E+02 -0.14404305673E+02  0.11958951056E+03  0.41800000000E+01 0.  1.
         -5    1    3    3    0  502 -0.54892535734E+02 -0.17037891698E+02  0.65282217843E+02  0.87078818316E+02  0.41800000000E+01 0.  1.
        -11    1    1    2    0    0  0.34731187434E+02  0.80332144906E+01 -0.76251654306E+02  0.84173052101E+02  0.00000000000E+00 0. -1.
         11    1    1    2    0    0  0.10916221490E+03 -0.69452574586E+02 -0.56854474823E+02  0.14132402693E+03  0.00000000000E+00 0.  1.
</event>
<event>
 7    1  0.6671761E-006  0.9346807E+02  0.7561462E-02  0.1294664E+00
         -2   -1    0    0    0  501 -0.00000000000E+00  0.00000000000E+00  0.34702101289E+03  0.34702101289E+03  0.00000000000E+00 0. -1.
          2   -1    0    0  501    0  0.00000000000E+00 -0.00000000000E+00 -0.46676396365E+02  0.46676396365E+02  0.00000000000E+00 0.  1.
         23    2    1    2    0    0 -0.17834335371E+02  0.63586904371E+02  0.14319320900E+03  0.20127773175E+03  0.12508825792E+03 0.  0.
          5    1    3    3  502    0  0.11170192347E+02  0.35225587771E+02  0.15453646651E+03  0.15894844168E+03  0.41800000000E+01 0. -1.
         -5    1    3    3    0  502 -0.29004527718E+02  0.28361316600E+02 -0.11343257506E+02  0.42329290075E+02  0.41800000000E+01 0. -1.
        -11    1    1    2    0    0 -0.35291860425E+02 -0.27510438154E+02  0.46850570007E+02  0.64786692535E+02  0.00000000000E+00 0.  1.
         11    1    1    2    0    0  0.53126195796E+02 -0.36076466217E+02  0.11030083751E+03  0.12763298496E+03  0.00000000000E+00 0. -1.
</event>
<event>
 7    1  0.6671761E-006  0.8153466E+02  0.7561462E-02  0.1324752E+00
         -1   -1    0    0    0  501 -0.00000000000E+00  0.00000000000E+00  0.10103901747E+03  0.10103901747E+03  0.00000000000E+00 0.  1.
          1   -1    0    0  501    0  0.00000000000E+00 -0.00000000000E+00 -0.18171216613E+03  0.18171216613E+03  0.00000000000E+00 0. -1.
         23    2    1    2    0    0 -0.26018154480E+02  0.61074854894E+01  0.33962843757E+02  0.13234417730E+03  0.12508901138E+03 0.  0.
          5    1    3    3  502    0  0.36337927532E+02  0.31367206225E+02  0.42687379845E+02  0.64374151658E+02  0.41800000000E+01 0. -1.
         -5    1    3    3    0  502 -0.62356082012E+02 -0.25259720736E+02 -0.87245360886E+01  0.67970025640E+02  0.41800000000E+01 0. -1.
        -11    1    1    2    0    0  0.37701987099E+01  0.15805472768E+02  0.11857894534E+02  0.20115591727E+02  0.00000000000E+00 0.  1.
         11    1    1    2    0    0  0.22247955771E+02 -0.21912958258E+02 -0.12649388695E+03  0.13029141458E+03  0.00000000000E+00 0. -1.
</event>
<event>
 7    1  0.6671761E-006  0.9618743E+02  0.7561462E-02  0.1288524E+00
          1   -1    0    0  501    0  0.00000000000E+00  0.00000000000E+00  0.70757295011E+02  0.70757295011E+02  0.00000000000E+00 0. -1.
         -1   -1    0    0    0  501 -0.00000000000E+00 -0.00000000000E+00 -0.21424023076E+03  0.21424023076E+03  0.00000000000E+00 0.  1.
         23    2    1    2    0    0 -0.58645092996E+01 -0.57523076318E+02 -0.68281939524E+02  0.15379815770E+03  0.12509257879E+03 0.  0.
          5    1    3    3  502    0  0.42026935700E+01 -0.86134912591E+02 -0.86572398172E+01  0.86771573695E+02  0.41800000000E+01 0.  1.
         -5    1    3    3    0  502 -0.10067202870E+02  0.28611836273E+02 -0.59624699707E+02  0.67026584007E+02  0.41800000000E+01 0.  1.
        -11    1    1    2    0    0 -0.15344682015E+02  0.50955069768E+02 -0.89972303936E+02  0.10453178405E+03  0.00000000000E+00 0.  1.
         11    1    1    2    0    0  0.21209191315E+02  0.65680065504E+01  0.14771307706E+02  0.26667584023E+02  0.00000000000E+00 0. -1.
</event>
<event>
 7    1  0.6671761E-006  0.1100353E+03  0.7561462E-02  0.1260504E+00
          2   -1    0    0  501    0  0.00000000000E+00  0.00000000000E+00  0.43913776605E+03  0.43913776605E+03  0.00000000000E+00 0. -1.
         -2   -1    0    0    0  501 -0.00000000000E+00 -0.00000000000E+00 -0.42422056695E+02  0.42422056695E+02  0.00000000000E+00 0.  1.
         23    2    1    2    0    0  0.27991568781E+02  0.74274794574E+02  0.16902816586E+03  0.22476418683E+03  0.12509254892E+03 0.  0.
          5    1    3    3  502    0 -0.14276864859E+02 -0.99265949655E+01  0.11437443507E+03  0.11576419980E+03  0.41800000000E+01 0.  1.
         -5    1    3    3    0  502  0.42268433640E+02  0.84201389540E+02  0.54653730786E+02  0.10899998703E+03  0.41800000000E+01 0.  1.
        -11    1    1    2    0    0 -0.47531145267E+02 -0.22594702542E+02  0.57897193223E+02  0.78242030498E+02  0.00000000000E+00 0.  1.
         11    1    1    2    0    0  0.19539576486E+02 -0.51680092032E+02  0.16979035027E+03  0.17855360542E+03  0.00000000000E+00 0. -1.
</event>
<event>
 7    1  0.6671761E-006  0.1921331E+03  0.7561462E-02  0.1156551E+00
          1   -1    0    0  501    0  0.00000000000E+00  0.00000000000E+00  0.35441472714E+02  0.35441472714E+02  0.00000000000E+00 0. -1.
         -1   -1    0    0    0  501 -0.00000000000E+00 -0.00000000000E+00 -0.12024813056E+04  0.12024813056E+04  0.00000000000E+00 0.  1.
         23    2    1    2    0    0 -0.94874813347E+02  0.13483008751E+03 -0.78582310637E+03  0.81261690110E+03  0.12509152947E+03 0.  0.
          5    1    3    3  502    0  0.29086029547E+01  0.86392593718E+02 -0.22113228117E+03  0.23746388862E+03  0.41800000000E+01 0.  1.
         -5    1    3    3    0  502 -0.97783416302E+02  0.48437493797E+02 -0.56469082520E+03  0.57515301249E+03  0.41800000000E+01 0.  1.
        -11    1    1    2    0    0  0.47432531089E+02 -0.13282054947E+03 -0.28939193476E+03  0.32192986079E+03  0.00000000000E+00 0.  1.
         11    1    1    2    0    0  0.47442282258E+02 -0.20095380468E+01 -0.91824791747E+02  0.10337601641E+03  0.00000000000E+00 0. -1.
</event>
<event>
 7    1  0.6671761E-006  0.1284090E+03  0.7561462E-02  0.1229836E+00
          2   -1    0    0  501    0  0.00000000000E+00  0.00000000000E+00  0.40025810484E+03  0.40025810484E+03  0.00000000000E+00 0. -1.
         -2   -1    0    0    0  501 -0.00000000000E+00 -0.00000000000E+00 -0.77026547557E+02  0.77026547557E+02  0.00000000000E+00 0.  1.
         23    2    1    2    0    0 -0.10636768715E+03 -0.58460310480E+02  0.84255726094E+02  0.19359328301E+03  0.12509052352E+03 0.  0.
          5    1    3    3  502    0 -0.14396625675E+02 -0.11348302381E+02 -0.32545435228E+02  0.37586228221E+02  0.41800000000E+01 0.  1.
         -5    1    3    3    0  502 -0.91971061477E+02 -0.47112008099E+02  0.11680116132E+03  0.15600705478E+03  0.41800000000E+01 0.  1.
        -11    1    1    2    0    0  0.12785207997E+02 -0.11936968353E+02  0.10196423802E+03  0.10345365432E+03  0.00000000000E+00 0. -1.
         11    1    1    2    0    0  0.93582479154E+02  0.70397278832E+02  0.13701159317E+03  0.18023771507E+03  0.00000000000E+00 0.  1.
</event>
<event>
 7    1  0.6671761E-006  0.1043465E+03  0.7561462E-02  0.1271413E+00
         -1   -1    0    0    0  501 -0.00000000000E+00  0.00000000000E+00  0.15742881123E+02  0.15742881123E+02  0.00000000000E+00 0.  1.
          1   -1    0    0  501    0  0.00000000000E+00 -0.00000000000E+00 -0.80323990817E+03  0.80323990817E+03  0.00000000000E+00 0. -1.
         23    2    1    2    0    0  0.15282034144E+02  0.30277044073E+02 -0.42617711391E+03  0.44544945825E+03  0.12509215589E+03 0.  0.
          5    1    3    3  502    0 -0.17002039342E+02  0.64993791104E+02 -0.13998459142E+03  0.15532681822E+03  0.41800000000E+01 0. -1.
         -5    1    3    3    0  502  0.32284073486E+02 -0.34716747031E+02 -0.28619252249E+03  0.29012264002E+03  0.41800000000E+01 0. -1.
        -11    1    1    2    0    0  0.34973795544E+02 -0.25550442635E+02 -0.14087378633E+03  0.14738186852E+03  0.00000000000E+00 0.  1.
         11    1    1    2    0    0 -0.50255829687E+02 -0.47266014382E+01 -0.22044612681E+03  0.22615146253E+03  0.00000000000E+00 0. -1.
</event>
<event>
 7    1  0.8524275E-006  0.1465848E+03  0.7561462E-02  0.1204733E+00
         -1   -1    0    0    0  501 -0.00000000000E+00  0.00000000000E+00  0.15594012883E+02  0.15594012883E+02  0.00000000000E+00 0.  1.
          1   -1    0    0  501    0  0.00000000000E+00 -0.00000000000E+00 -0.14696761261E+04  0.14696761261E+04  0.00000000000E+00 0. -1.
         23    2    1    2    0    0  0.10490757430E+03 -0.10109869832E+02 -0.73701282748E+03  0.75494567110E+03  0.12508896765E+03 0.  0.
          5    1    3    3  502    0  0.86799801748E+02  0.44030212256E+02 -0.33496964636E+03  0.34884810671E+03  0.41800000000E+01 0. -1.
         -5    1    3    3    0  502  0.18107772549E+02 -0.54140082088E+02 -0.40204318113E+03  0.40609756439E+03  0.41800000000E+01 0. -1.
        -11    1    1    2    0    0 -0.11123364485E+03 -0.15339699290E+02 -0.58249986559E+03  0.59322367075E+03  0.00000000000E+00 0.  1.
         11    1    1    2    0    0  0.63260705542E+01  0.25449569122E+02 -0.13456942019E+03  0.13710079718E+03  0.00000000000E+00 0. -1.
</event>
<event>
 7    1  0.6671761E-006  0.1339682E+03  0.7561462E-02  0.1221684E+00
         -1   -1    0    0    0  501 -0.00000000000E+00  0.00000000000E+00  0.42563193779E+02  0.42563193779E+02  0.00000000000E+00 0.  1.
          1   -1    0    0  501    0  0.00000000000E+00 -0.00000000000E+00 -0.43941377915E+03  0.43941377915E+03  0.00000000000E+00 0. -1.
         23    2    1    2    0    0 -0.18780199903E+02  0.83466201900E+02 -0.23089300067E+03  0.27618378620E+03  0.12508638307E+03 0.  0.
          5    1    3    3  502    0  0.45698500850E+02  0.49099749022E+01 -0.46010971437E+02  0.65168571613E+02  0.41800000000E+01 0. -1.
         -5    1    3    3    0  502 -0.64478700753E+02  0.78556226998E+02 -0.18488202924E+03  0.21101521458E+03  0.41800000000E+01 0. -1.
        -11    1    1    2    0    0 -0.26118523637E+02 -0.67566266207E+02 -0.11606254223E+03  0.13681334480E+03  0.00000000000E+00 0. -1.
         11    1    1    2    0    0  0.44898723541E+02 -0.15899935693E+02 -0.49895042474E+02  0.68979841940E+02  0.00000000000E+00 0.  1.
</event>
<event>
 7    1  0.6671761E-006  0.1727881E+03  0.7561462E-02  0.1174971E+00
         -1   -1    0    0    0  501 -0.00000000000E+00  0.00000000000E+00  0.71857887370E+02  0.71857887370E+02  0.00000000000E+00 0.  1.
          1   -1    0    0  501    0  0.00000000000E+00 -0.00000000000E+00 -0.53989269930E+03  0.53989269930E+03  0.00000000000E+00 0. -1.
         23    2    1    2    0    0  0.10618140518E+03 -0.11934805032E+03 -0.33216264094E+03  0.38922526762E+03  0.12508333622E+03 0.  0.
          5    1    3    3  502    0  0.11558375214E+02 -0.54776131495E+02 -0.25158209106E+02  0.61517708870E+02  0.41800000000E+01 0. -1.
         -5    1    3    3    0  502  0.94623029967E+02 -0.64571918830E+02 -0.30700443183E+03  0.32770755875E+03  0.41800000000E+01 0. -1.
        -11    1    1    2    0    0 -0.98338348756E+02  0.60545193354E+02 -0.10278125169E+03  0.15459669134E+03  0.00000000000E+00 0. -1.
         11    1    1    2    0    0 -0.78430564257E+01  0.58802856971E+02 -0.33090919307E+02  0.67928627710E+02  0.00000000000E+00 0.  1.
</event>
<event>
 7    1  0.6671761E-006  0.1239010E+03  0.7561462E-02  0.1236797E+00
         -1   -1    0    0    0  501 -0.00000000000E+00  0.00000000000E+00  0.27348772442E+02  0.27348772442E+02  0.00000000000E+00 0.  1.
          1   -1    0    0  501    0  0.00000000000E+00 -0.00000000000E+00 -0.59664129464E+03  0.59664129464E+03  0.00000000000E+00 0. -1.
         23    2    1    2    0    0  0.17078313594E+02 -0.54255630374E+02 -0.24119132336E+03  0.27758903809E+03  0.12508827835E+03 0.  0.
          5    1    3    3  502    0 -0.16755627839E+02  0.36248359364E+02 -0.82459126389E+02  0.91715181653E+02  0.41800000000E+01 0.  1.
         -5    1    3    3    0  502  0.33833941433E+02 -0.90503989738E+02 -0.15873219697E+03  0.18587385644E+03  0.41800000000E+01 0.  1.
        -11    1    1    2    0    0  0.26022434676E+02  0.61915986528E+02 -0.20767048873E+03  0.21826082650E+03  0.00000000000E+00 0. -1.
         11    1    1    2    0    0 -0.43100748270E+02 -0.76603561543E+01 -0.12043071010E+03  0.12814020249E+03  0.00000000000E+00 0.  1.
</event>
<event>
 7    1  0.6671761E-006  0.4721297E+02  0.7561462E-02  0.1460981E+00
         -1   -1    0    0    0  501 -0.00000000000E+00  0.00000000000E+00  0.37528942604E+02  0.37528942604E+02  0.00000000000E+00 0.  1.
          1   -1    0    0  501    0  0.00000000000E+00 -0.00000000000E+00 -0.25442641033E+03  0.25442641033E+03  0.00000000000E+00 0. -1.
         23    2    1    2    0    0 -0.13888749562E+02 -0.43621037506E+02 -0.12103337766E+03  0.17998082679E+03  0.12509327410E+03 0.  0.
          5    1    3    3  502    0 -0.34059946890E+01 -0.26444072279E+02  0.22405736553E+02  0.35076761381E+02  0.41800000000E+01 0. -1.
         -5    1    3    3    0  502 -0.10482754873E+02 -0.17176965227E+02 -0.14343911421E+03  0.14490406540E+03  0.41800000000E+01 0. -1.
        -11    1    1    2    0    0  0.10318740500E+02  0.16029327090E+02 -0.74489106911E+02  0.76889809343E+02  0.00000000000E+00 0. -1.
         11    1    1    2    0    0  0.35700090624E+01  0.27591710416E+02 -0.21374983152E+02  0.35084716803E+02  0.00000000000E+00 0.  1.
</event>
<event>
 7    1  0.6671761E-006  0.1002369E+03  0.7561462E-02  0.1279799E+00
         -2   -1    0    0    0  501 -0.00000000000E+00  0.00000000000E+00  0.41491872567E+03  0.41491872567E+03  0.00000000000E+00 0.  1.
          2   -1    0    0  501    0  0.00000000000E+00 -0.00000000000E+00 -0.30026558774E+02  0.30026558774E+02  0.00000000000E+00 0. -1.
         23    2    1    2    0    0 -0.19752285151E+02 -0.18411954263E+01  0.22980825972E+03  0.26239768236E+03  0.12508862739E+03 0.  0.
          5    1    3    3  502    0 -0.70502605074E+02 -0.75652151943E+01  0.98456009414E+02  0.12140390436E+03  0.41800000000E+01 0. -1.
         -5    1    3    3    0  502  0.50750319923E+02  0.57240197680E+01  0.13135225031E+03  0.14099377800E+03  0.41800000000E+01 0. -1.
        -11    1    1    2    0    0  0.79588650062E+00  0.37663367284E+02  0.12891047466E+03  0.13430217105E+03  0.00000000000E+00 0.  1.
         11    1    1    2    0    0  0.18956398651E+02 -0.35822171858E+02  0.26173432510E+02  0.48245431035E+02  0.00000000000E+00 0. -1.
</event>
<event>
 7    1  0.6671761E-006  0.9409202E+02  0.7561462E-02  0.1293234E+00
         -1   -1    0    0    0  501 -0.00000000000E+00  0.00000000000E+00  0.60026051996E+02  0.60026051996E+02  0.00000000000E+00 0.  1.
          1   -1    0    0  501    0  0.00000000000E+00 -0.00000000000E+00 -0.27025256472E+03  0.27025256472E+03  0.00000000000E+00 0. -1.
         23    2    1    2    0    0 -0.43220733769E+02 -0.36375872408E+02 -0.68971639186E+02  0.15361788016E+03  0.12510048031E+03 0.  0.
          5    1    3    3  502    0 -0.67376867196E+02 -0.59212674161E+02 -0.77974468768E+02  0.11892549430E+03  0.41800000000E+01 0.  1.
         -5    1    3    3    0  502  0.24156133427E+02  0.22836801753E+02  0.90028295816E+01  0.34692385864E+02  0.41800000000E+01 0.  1.
        -11    1    1    2    0    0  0.40243358836E+02  0.14452393544E+02 -0.10477082633E+02  0.44024639352E+02  0.00000000000E+00 0.  1.
         11    1    1    2    0    0  0.29773749324E+01  0.21923478863E+02 -0.13077779090E+03  0.13263609720E+03  0.00000000000E+00 0. -1.
</event>
<event>
 7    1  0.6671761E-006  0.3568669E+03  0.7561462E-02  0.1059831E+00
          1   -1    0    0  501    0  0.00000000000E+00  0.00000000000E+00  0.85629632327E+03  0.85629632327E+03  0.00000000000E+00 0. -1.
         -1   -1    0    0    0  501 -0.00000000000E+00 -0.00000000000E+00 -0.15122957436E+03  0.15122957436E+03  0.00000000000E+00 0.  1.
         23    2    1    2    0    0  0.23932869863E+03  0.24360494235E+03  0.30898668718E+03  0.47721940269E+03  0.12507594301E+03 0.  0.
          5    1    3    3  502    0 -0.13185041332E+02  0.25770840475E+01  0.17269604588E+02  0.22275509416E+02  0.41800000000E+01 0.  1.
         -5    1    3    3    0  502  0.25251373996E+03  0.24102785830E+03  0.29171708259E+03  0.45494389327E+03  0.41800000000E+01 0.  1.
        -11    1    1    2    0    0 -0.15208516123E+03 -0.20474837128E+03  0.26154194869E+03  0.36531627767E+03  0.00000000000E+00 0.  1.
         11    1    1    2    0    0 -0.87243537402E+02 -0.38856571075E+02  0.13453811304E+03  0.16499021727E+03  0.00000000000E+00 0. -1.
</event>
<event>
 7    1  0.6671761E-006  0.1147742E+03  0.7561462E-02  0.1251976E+00
         -2   -1    0    0    0  501 -0.00000000000E+00  0.00000000000E+00  0.28241206875E+02  0.28241206875E+02  0.00000000000E+00 0. -1.
          2   -1    0    0  501    0  0.00000000000E+00 -0.00000000000E+00 -0.54592813612E+03  0.54592813612E+03  0.00000000000E+00 0.  1.
         23    2    1    2    0    0 -0.44410485932E+02  0.42559608697E+02 -0.28064962277E+03  0.31335904728E+03  0.12508425238E+03 0.  0.
          5    1    3    3  502    0 -0.86850665941E+02  0.42233930392E+02 -0.19951064822E+03  0.22169509287E+03  0.41800000000E+01 0.  1.
         -5    1    3    3    0  502  0.42440180008E+02  0.32567830453E+00 -0.81138974552E+02  0.91663954404E+02  0.41800000000E+01 0.  1.
        -11    1    1    2    0    0 -0.12026971824E+02 -0.30136116062E+02 -0.24781577318E+02  0.40828422905E+02  0.00000000000E+00 0. -1.
         11    1    1    2    0    0  0.56437457757E+02 -0.12423492635E+02 -0.21225572916E+03  0.21998187281E+03  0.00000000000E+00 0.  1.
</event>
<event>
 7    1  0.6671761E-006  0.1188043E+03  0.7561462E-02  0.1245083E+00
         -2   -1    0    0    0  501 -0.00000000000E+00  0.00000000000E+00  0.40582928938E+02  0.40582928938E+02  0.00000000000E+00 0.  1.
          2   -1    0    0  501    0  0.00000000000E+00 -0.00000000000E+00 -0.38762340241E+03  0.38762340241E+03  0.00000000000E+00 0. -1.
         23    2    1    2    0    0 -0.15924849331E+02 -0.50049984597E+02 -0.14182930024E+03  0.19626815995E+03  0.12508812262E+03 0.  0.
          5    1    3    3  502    0 -0.30261569611E+02 -0.88919710366E+02 -0.97399132664E+02  0.13537555514E+03  0.41800000000E+01 0.  1.
         -5    1    3    3    0  502  0.14336720280E+02  0.38869725769E+02 -0.44430167572E+02  0.60892604807E+02  0.41800000000E+01 0.  1.
        -11    1    1    2    0    0  0.37515710035E+02  0.65441651590E+02 -0.18076788184E+03  0.19587512698E+03  0.00000000000E+00 0. -1.
         11    1    1    2    0    0 -0.21590860704E+02 -0.15391666993E+02 -0.24443291394E+02  0.36063044421E+02  0.00000000000E+00 0.  1.
</event>
<event>
 7    1  0.6671761E-006  0.1004540E+03  0.7561462E-02  0.1279344E+00
          1   -1    0    0  501    0  0.00000000000E+00  0.00000000000E+00  0.26830142759E+03  0.26830142759E+03  0.00000000000E+00 0. -1.
         -1   -1    0    0    0  501 -0.00000000000E+00 -0.00000000000E+00 -0.53300803869E+02  0.53300803869E+02  0.00000000000E+00 0.  1.
         23    2    1    2    0    0  0.46586618036E+02 -0.25746349622E+02  0.12728596182E+03  0.18622534198E+03  0.12507987217E+03 0.  0.
          5    1    3    3  502    0 -0.41287121095E+02 -0.21554574051E+02  0.33199048539E+02  0.57348716243E+02  0.41800000000E+01 0.  1.
         -5    1    3    3    0  502  0.87873739131E+02 -0.41917755711E+01  0.94086913279E+02  0.12887662574E+03  0.41800000000E+01 0.  1.
        -11    1    1    2    0    0 -0.39658182980E+02  0.25730284533E+00  0.99003744818E+02  0.10665167214E+03  0.00000000000E+00 0. -1.
         11    1    1    2    0    0 -0.69284350565E+01  0.25489046777E+02 -0.11289082917E+02  0.28725217337E+02  0.00000000000E+00 0.  1.
</event>
<event>
 7    1  0.6671761E-006  0.9832447E+02  0.7561462E-02  0.1283859E+00
          2   -1    0    0  501    0  0.00000000000E+00  0.00000000000E+00  0.56289051289E+03  0.56289051289E+03  0.00000000000E+00 0. -1.
         -2   -1    0    0    0  501 -0.00000000000E+00 -0.00000000000E+00 -0.32202232465E+02  0.32202232465E+02  0.00000000000E+00 0.  1.
         23    2    1    2    0    0 -0.47284418775E+02 -0.35629051968E+02  0.17548586174E+03  0.22348927376E+03  0.12508765811E+03 0.  0.
          5    1    3    3  502    0 -0.22853547813E+02  0.29587166188E+02  0.14048491356E+03  0.14543441267E+03  0.41800000000E+01 0.  1.
         -5    1    3    3    0  502 -0.24430870962E+02 -0.65216218156E+02  0.35000948181E+02  0.78054861092E+02  0.41800000000E+01 0.  1.
        -11    1    1    2    0    0  0.29228468819E+02  0.55307665328E+02  0.32633529345E+03  0.33227694020E+03  0.00000000000E+00 0.  1.
         11    1    1    2    0    0  0.18055949956E+02 -0.19678613360E+02  0.28867125229E+02  0.39326531395E+02  0.00000000000E+00 0. -1.
</event>
<event>
 7    1  0.6671761E-006  0.2854026E+03  0.7561462E-02  0.1092774E+00
         -1   -1    0    0    0  501 -0.00000000000E+00  0.00000000000E+00  0.20560985925E+03  0.20560985925E+03  0.00000000000E+00 0.  1.
          1   -1    0    0  501    0  0.00000000000E+00 -0.00000000000E+00 -0.51815339117E+03  0.51815339117E+03  0.00000000000E+00 0. -1.
         23    2    1    2    0    0  0.51448433952E+02 -0.27917228470E+03 -0.29305342179E+02  0.31159376045E+03  0.12509101715E+03 0.  0.
          5    1    3    3  502    0  0.31536475450E+02 -0.21701709804E+03 -0.75007401112E+02  0.23180714559E+03  0.41800000000E+01 0. -1.
         -5    1    3    3    0  502  0.19911958502E+02 -0.62155186656E+02  0.45702058933E+02  0.79786614857E+02  0.41800000000E+01 0. -1.
        -11    1    1    2    0    0 -0.87991149375E+01  0.14530637726E+03 -0.20478541728E+03  0.25125372599E+03  0.00000000000E+00 0.  1.
         11    1    1    2    0    0 -0.42649319014E+02  0.13386590744E+03 -0.78452772470E+02  0.16091576397E+03  0.00000000000E+00 0. -1.
</event>
<event>
 7    1  0.6671761E-006  0.1106703E+03  0.7561462E-02  0.1259334E+00
         -1   -1    0    0    0  501 -0.00000000000E+00  0.00000000000E+00  0.13142171521E+03  0.13142171521E+03  0.00000000000E+00 0.  1.
          1   -1    0    0  501    0  0.00000000000E+00 -0.00000000000E+00 -0.97960285046E+02  0.97960285046E+02  0.00000000000E+00 0. -1.
         23    2    1    2    0    0  0.25502126405E+02 -0.60076272033E+01  0.39720680738E+02  0.13384393687E+03  0.12510002767E+03 0.  0.
          5    1    3    3  502    0  0.60946658440E+02  0.35986679538E+02  0.33388267466E+02  0.78369541810E+02  0.41800000000E+01 0.  1.
         -5    1    3    3    0  502 -0.35444532034E+02 -0.41994306741E+02  0.63324132722E+01  0.55474395063E+02  0.41800000000E+01 0.  1.
        -11    1    1    2    0    0  0.34813761687E+02  0.15900031959E+01 -0.27736557832E+01  0.34960252850E+02  0.00000000000E+00 0.  1.
         11    1    1    2    0    0 -0.60315888092E+02  0.44176240074E+01 -0.34855947886E+01  0.60577810535E+02  0.00000000000E+00 0. -1.
</event>
<event>
 7    1  0.6671761E-006  0.1509150E+03  0.7561462E-02  0.1199353E+00
          2   -1    0    0  501    0  0.00000000000E+00  0.00000000000E+00  0.22314893585E+03  0.22314893585E+03  0.00000000000E+00 0.  1.
         -2   -1    0    0    0  501 -0.00000000000E+00 -0.00000000000E+00 -0.13205225900E+03  0.13205225900E+03  0.00000000000E+00 0. -1.
         23    2    1    2    0    0  0.12421464389E+03  0.28801135076E+02  0.85031314156E+02  0.19782145906E+03  0.12507686493E+03 0.  0.
          5    1    3    3  502    0  0.14688840012E+03  0.28532220681E+02  0.89396462113E+02  0.17435449391E+03  0.41800000000E+01 0.  1.
         -5    1    3    3    0  502 -0.22673756236E+02  0.26891439561E+00 -0.43651479562E+01  0.23466965153E+02  0.41800000000E+01 0.  1.
        -11    1    1    2    0    0 -0.99276893807E+02 -0.14492220166E+02  0.44189448360E+02  0.10962952812E+03  0.00000000000E+00 0.  1.
         11    1    1    2    0    0 -0.24937750082E+02 -0.14308914910E+02 -0.38124085658E+02  0.47750207668E+02  0.00000000000E+00 0. -1.
</event>
<event>
 7    1  0.6671761E-006  0.1715947E+03  0.7561462E-02  0.1176195E+00
         -2   -1    0    0    0  501 -0.00000000000E+00  0.00000000000E+00  0.30156328262E+03  0.30156328262E+03  0.00000000000E+00 0.  1.
          2   -1    0    0  501    0  0.00000000000E+00 -0.00000000000E+00 -0.21319676454E+03  0.21319676454E+03  0.00000000000E+00 0. -1.
         23    2    1    2    0    0  0.91257846855E+02 -0.11010222282E+03  0.22647539588E+03  0.29561940861E+03  0.12509690536E+03 0.  0.
          5    1    3    3  502    0 -0.15324231652E+02 -0.50396970945E+02  0.21675509838E+02  0.57113806412E+02  0.41800000000E+01 0.  1.
         -5    1    3    3    0  502  0.10658207851E+03 -0.59705251877E+02  0.20479988604E+03  0.23850560220E+03  0.41800000000E+01 0.  1.
        -11    1    1    2    0    0 -0.10616343628E+03  0.75022986853E+02 -0.12010855228E+03  0.17698923156E+03  0.00000000000E+00 0. -1.
         11    1    1    2    0    0  0.14905589422E+02  0.35079235969E+02 -0.18000325515E+02  0.42151406985E+02  0.00000000000E+00 0.  1.
</event>
<event>
 7    1  0.6671761E-006  0.3037947E+03  0.7561462E-02  0.1083359E+00
          1   -1    0    0  501    0  0.00000000000E+00  0.00000000000E+00  0.69852058706E+03  0.69852058706E+03  0.00000000000E+00 0. -1.
         -1   -1    0    0    0  501 -0.00000000000E+00 -0.00000000000E+00 -0.21852394190E+03  0.21852394190E+03  0.00000000000E+00 0.  1.
         23    2    1    2    0    0  0.54956907978E+02 -0.29415892559E+03 -0.23476877147E+02  0.32519028666E+03  0.12509126085E+03 0.  0.
          5    1    3    3  502    0 -0.11547436427E+02 -0.11854128730E+03  0.41864552689E+02  0.12631505553E+03  0.41800000000E+01 0. -1.
         -5    1    3    3    0  502  0.66504344405E+02 -0.17561763829E+03 -0.65341429835E+02  0.19887523113E+03  0.41800000000E+01 0. -1.
        -11    1    1    2    0    0 -0.28318011636E+02  0.81950615033E+02  0.82579619550E+02  0.11973807520E+03  0.00000000000E+00 0.  1.
         11    1    1    2    0    0 -0.26638896342E+02  0.21220831055E+03  0.42089390276E+03  0.47211616711E+03  0.00000000000E+00 0. -1.
</event>
<event>
 7    1  0.6671761E-006  0.8409264E+02  0.7561462E-02  0.1317823E+00
          1   -1    0    0  501    0  0.00000000000E+00  0.00000000000E+00  0.15119202395E+03  0.15119202395E+03  0.00000000000E+00 0.  1.
         -1   -1    0    0    0  501 -0.00000000000E+00 -0.00000000000E+00 -0.75486487980E+02  0.75486487980E+02  0.00000000000E+00 0. -1.
         23    2    1    2    0    0  0.16258844006E+02  0.18325233113E+02  0.21836668768E+02  0.12929829606E+03  0.12506416387E+03 0.  0.
          5    1    3    3  502    0  0.59436951604E+02 -0.16727277267E+02 -0.13408565893E+02  0.63323100525E+02  0.41800000000E+01 0. -1.
         -5    1    3    3    0  502 -0.43178107598E+02  0.35052510380E+02  0.35245234661E+02  0.65975195536E+02  0.41800000000E+01 0. -1.
        -11    1    1    2    0    0  0.15391059009E+02 -0.49658033071E+01 -0.13949366079E+02  0.21357170081E+02  0.00000000000E+00 0. -1.
         11    1    1    2    0    0 -0.31649903014E+02 -0.13359429805E+02  0.67818233277E+02  0.76023045785E+02  0.00000000000E+00 0.  1.
</event>
<event>
 7    1  0.6671761E-006  0.1564172E+03  0.7561462E-02  0.1192802E+00
          1   -1    0    0  501    0  0.00000000000E+00  0.00000000000E+00  0.20468991458E+03  0.20468991458E+03  0.00000000000E+00 0. -1.
         -1   -1    0    0    0  501 -0.00000000000E+00 -0.00000000000E+00 -0.25487927699E+03  0.25487927699E+03  0.00000000000E+00 0.  1.
         23    2    1    2    0    0 -0.28058729138E+01 -0.15033566158E+03 -0.16373788249E+03  0.25508078185E+03  0.12508967600E+03 0.  0.
          5    1    3    3  502    0  0.12559203826E+02 -0.10116090992E+03 -0.17463813395E+03  0.20225531767E+03  0.41800000000E+01 0. -1.
         -5    1    3    3    0  502 -0.15365076740E+02 -0.49174751663E+02  0.10900251460E+02  0.52825464184E+02  0.41800000000E+01 0. -1.
        -11    1    1    2    0    0  0.24735729967E+02  0.11424003685E+03  0.47670957811E+02  0.12623455381E+03  0.00000000000E+00 0.  1.
         11    1    1    2    0    0 -0.21929857053E+02  0.36095624728E+02  0.65877562266E+02  0.78253855911E+02  0.00000000000E+00 0. -1.
</event>
<event>
 7    1  0.6671761E-006  0.7190599E+02  0.7561462E-02  0.1353729E+00
         -2   -1    0    0    0  501 -0.00000000000E+00  0.00000000000E+00  0.38286932204E+02  0.38286932204E+02  0.00000000000E+00 0.  1.
          2   -1    0    0  501    0  0.00000000000E+00 -0.00000000000E+00 -0.53788762712E+03  0.53788762712E+03  0.00000000000E+00 0. -1.
         23    2    1    2    0    0 -0.17770691427E+02 -0.17357987395E+02 -0.91114829230E+02  0.15673257143E+03  0.12508433012E+03 0.  0.
          5    1    3    3  502    0  0.14099511983E+02 -0.58368009260E+01  0.28359530569E+02  0.32474603267E+02  0.41800000000E+01 0.  1.
         -5    1    3    3    0  502 -0.31870203410E+02 -0.11521186469E+02 -0.11947435980E+03  0.12425796817E+03  0.41800000000E+01 0.  1.
        -11    1    1    2    0    0 -0.37223290240E+02  0.64072893624E+01 -0.20068703240E+03  0.20421045925E+03  0.00000000000E+00 0.  1.
         11    1    1    2    0    0  0.54993981667E+02  0.10950698032E+02 -0.20779883329E+03  0.21523152865E+03  0.00000000000E+00 0. -1.
</event>
<event>
 7    1  0.6671761E-006  0.1073747E+03  0.7561462E-02  0.1265510E+00
         -2   -1    0    0    0  501 -0.00000000000E+00  0.00000000000E+00  0.43114367212E+02  0.43114367212E+02  0.00000000000E+00 0.  1.
          2   -1    0    0  501    0  0.00000000000E+00 -0.00000000000E+00 -0.41919265691E+03  0.41919265691E+03  0.00000000000E+00 0. -1.
         23    2    1    2    0    0  0.16922628832E+02 -0.76018238480E+02 -0.17813264195E+03  0.23117955722E+03  0.12509037372E+03 0.  0.
          5    1    3    3  502    0  0.36578660937E+01  0.14060558514E+02  0.12669559687E+02  0.19724843035E+02  0.41800000000E+01 0. -1.
         -5    1    3    3    0  502  0.13264762739E+02 -0.90078796994E+02 -0.19080220164E+03  0.21145471418E+03  0.41800000000E+01 0. -1.
        -11    1    1    2    0    0  0.45574797672E+01  0.85058451389E+02 -0.10449320393E+03  0.13481298321E+03  0.00000000000E+00 0.  1.
         11    1    1    2    0    0 -0.21480108599E+02 -0.90402129081E+01 -0.93452443807E+02  0.96314483689E+02  0.00000000000E+00 0. -1.
</event>
<event>
 7    1  0.6671761E-006  0.2890478E+03  0.7561462E-02  0.1090847E+00
          2   -1    0    0  501    0  0.00000000000E+00  0.00000000000E+00  0.40229088366E+03  0.40229088366E+03  0.00000000000E+00 0.  1.
         -2   -1    0    0    0  501 -0.00000000000E+00 -0.00000000000E+00 -0.24531697321E+03  0.24531697321E+03  0.00000000000E+00 0. -1.
         23    2    1    2    0    0  0.28681907050E+03  0.11738500713E+02  0.12475275416E+02  0.31337878937E+03  0.12509061327E+03 0.  0.
          5    1    3    3  502    0  0.77941246336E+02 -0.12376268100E+01  0.60326703062E+02  0.98656743829E+02  0.41800000000E+01 0. -1.
         -5    1    3    3    0  502  0.20887782417E+03  0.12976127523E+02 -0.47851427647E+02  0.21472204554E+03  0.41800000000E+01 0. -1.
        -11    1    1    2    0    0 -0.48084416753E+02  0.15274861892E+02  0.62590277414E+02  0.80392632542E+02  0.00000000000E+00 0.  1.
         11    1    1    2    0    0 -0.23873465375E+03 -0.27013362604E+02  0.81908357625E+02  0.25383643495E+03  0.00000000000E+00 0. -1.
</event>
<event>
 7    1  0.6671761E-006  0.1849358E+03  0.7561462E-02  0.1163110E+00
          1   -1    0    0  501    0  0.00000000000E+00  0.00000000000E+00  0.27400728859E+03  0.27400728859E+03  0.00000000000E+00 0. -1.
         -1   -1    0    0    0  501 -0.00000000000E+00 -0.00000000000E+00 -0.31254533133E+03  0.31254533133E+03  0.00000000000E+00 0.  1.
         23    2    1    2    0    0 -0.53264856040E+01  0.16039738277E+03 -0.23869058563E+03  0.31364982446E+03  0.12508926761E+03 0.  0.
          5    1    3    3  502    0 -0.27240014699E+02 -0.10625670755E+02 -0.49502713213E+02  0.57644724782E+02  0.41800000000E+01 0. -1.
         -5    1    3    3    0  502  0.21913529095E+02  0.17102305353E+03 -0.18918787241E+03  0.25600509968E+03  0.41800000000E+01 0. -1.
        -11    1    1    2    0    0  0.25832806591E+02 -0.11763952895E+03  0.18911923615E+03  0.22421524960E+03  0.00000000000E+00 0. -1.
         11    1    1    2    0    0 -0.20506320987E+02 -0.42757853819E+02  0.11033306736E+02  0.48687545853E+02  0.00000000000E+00 0.  1.
</event>
<event>
 7    1  0.6671761E-006  0.7520062E+02  0.7561462E-02  0.1343251E+00
          1   -1    0    0  501    0  0.00000000000E+00  0.00000000000E+00  0.10311414987E+03  0.10311414987E+03  0.00000000000E+00 0. -1.
         -1   -1    0    0    0  501 -0.00000000000E+00 -0.00000000000E+00 -0.12198038634E+03  0.12198038634E+03  0.00000000000E+00 0.  1.
         23    2    1    2    0    0  0.38050887743E+00 -0.25925739554E+02 -0.15995468848E+02  0.12874894431E+03  0.12509255325E+03 0.  0.
          5    1    3    3  502    0 -0.54776443968E+02 -0.17697371471E+02  0.21309848864E+02  0.61524286500E+02  0.41800000000E+01 0.  1.
         -5    1    3    3    0  502  0.55156952845E+02 -0.82283680830E+01 -0.37305317712E+02  0.67224657813E+02  0.41800000000E+01 0.  1.
        -11    1    1    2    0    0  0.11542991167E+02  0.47959329995E+01  0.42823072506E+02  0.44610056683E+02  0.00000000000E+00 0. -1.
         11    1    1    2    0    0 -0.11923500044E+02  0.21129806554E+02 -0.45693840128E+02  0.51735535215E+02  0.00000000000E+00 0.  1.
</event>
<event>
 7    1  0.6671761E-006  0.1086875E+03  0.7561462E-02  0.1263020E+00
          2   -1    0    0  501    0  0.00000000000E+00  0.00000000000E+00  0.81028312778E+03  0.81028312778E+03  0.00000000000E+00 0. -1.
         -2   -1    0    0    0  501 -0.00000000000E+00 -0.00000000000E+00 -0.16327737614E+02  0.16327737614E+02  0.00000000000E+00 0.  1.
         23    2    1    2    0    0 -0.94124939900E+01  0.36696992438E+02  0.46179369178E+03  0.47993287257E+03  0.12508750580E+03 0.  0.
          5    1    3    3  502    0 -0.11616103797E+02 -0.40301169798E+02  0.80009380266E+02  0.90432800935E+02  0.41800000000E+01 0. -1.
         -5    1    3    3    0  502  0.22036098065E+01  0.76998162236E+02  0.38178431152E+03  0.38950007164E+03  0.41800000000E+01 0. -1.
        -11    1    1    2    0    0 -0.27283997813E+02  0.17658033565E+02  0.13658127703E+03  0.14039468623E+03  0.00000000000E+00 0. -1.
         11    1    1    2    0    0  0.36696491803E+02 -0.54355026003E+02  0.19558042135E+03  0.20628330659E+03  0.00000000000E+00 0.  1.
</event>
<event>
 7    1  0.6671761E-006  0.1404457E+03  0.7561462E-02  0.1212731E+00
          2   -1    0    0  501    0  0.00000000000E+00  0.00000000000E+00  0.18330187864E+03  0.18330187864E+03  0.00000000000E+00 0. -1.
         -2   -1    0    0    0  501 -0.00000000000E+00 -0.00000000000E+00 -0.13019113866E+03  0.13019113866E+03  0.00000000000E+00 0.  1.
         23    2    1    2    0    0  0.93206497069E+02 -0.51304348035E+02  0.77311041961E+01  0.16440000491E+03  0.12509198383E+03 0.  0.
          5    1    3    3  502    0  0.99434718012E+02 -0.78337784140E+02  0.28094711714E+02  0.12973379204E+03  0.41800000000E+01 0. -1.
         -5    1    3    3    0  502 -0.62282209429E+01  0.27033436105E+02 -0.20363607517E+02  0.34666212872E+02  0.41800000000E+01 0. -1.
        -11    1    1    2    0    0 -0.66907451741E+02 -0.17892242497E+01 -0.10379966583E+02  0.67731470737E+02  0.00000000000E+00 0.  1.
         11    1    1    2    0    0 -0.26299045328E+02  0.53093572285E+02  0.55759602375E+02  0.81361541653E+02  0.00000000000E+00 0. -1.
</event>
<event>
 7    1  0.6671761E-006  0.5826559E+02  0.7561462E-02  0.1405258E+00
          2   -1    0    0  501    0  0.00000000000E+00  0.00000000000E+00  0.24971914091E+03  0.24971914091E+03  0.00000000000E+00 0.  1.
         -2   -1    0    0    0  501 -0.00000000000E+00 -0.00000000000E+00 -0.61811322964E+02  0.61811322964E+02  0.00000000000E+00 0. -1.
         23    2    1    2    0    0 -0.45553912322E+02 -0.34444280967E+02  0.82674718443E+02  0.16044275313E+03  0.12508077608E+03 0.  0.
          5    1    3    3  502    0 -0.89793908105E+01 -0.31145818008E+01 -0.33255202948E+02  0.34838355332E+02  0.41800000000E+01 0. -1.
         -5    1    3    3    0  502 -0.36574521511E+02 -0.31329699166E+02  0.11592992139E+03  0.12560439780E+03  0.41800000000E+01 0. -1.
        -11    1    1    2    0    0  0.33657143729E+02  0.20214644626E+02 -0.47538121293E+01  0.39547868604E+02  0.00000000000E+00 0. -1.
         11    1    1    2    0    0  0.11896768592E+02  0.14229636340E+02  0.10998691164E+03  0.11153984214E+03  0.00000000000E+00 0.  1.
</event>
<event>
 7    1  0.6671761E-006  0.9986043E+02  0.7561462E-02  0.1280590E+00
          1   -1    0    0  501    0  0.00000000000E+00  0.00000000000E+00  0.70289694946E+02  0.70289694946E+02  0.00000000000E+00 0. -1.
         -1   -1    0    0    0  501 -0.00000000000E+00 -0.00000000000E+00 -0.31178692162E+03  0.31178692162E+03  0.00000000000E+00 0.  1.
         23    2    1    2    0    0 -0.38071263648E+02  0.74074646356E+02 -0.20260629981E+03  0.25225647737E+03  0.12509014072E+03 0.  0.
          5    1    3    3  502    0  0.86788831484E+01  0.67990063818E+02 -0.33031471988E+02  0.76200540237E+02  0.41800000000E+01 0. -1.
         -5    1    3    3    0  502 -0.46750146796E+02  0.60845825381E+01 -0.16957482782E+03  0.17605593713E+03  0.41800000000E+01 0. -1.
        -11    1    1    2    0    0  0.16882740818E+02 -0.42157648354E+02 -0.67955487420E+02  0.81732750613E+02  0.00000000000E+00 0.  1.
         11    1    1    2    0    0  0.21188522829E+02 -0.31916998002E+02  0.29064560549E+02  0.48087388586E+02  0.00000000000E+00 0. -1.
</event>
<event>
 6    1  0.6671761E-006  0.1116563E+03  0.7561462E-02  0.1257533E+00
          1   -1    0    0  501    0  0.00000000000E+00  0.00000000000E+00  0.20032904076E+02  0.20032904076E+02  0.00000000000E+00 0. -1.
         -1   -1    0    0    0  501 -0.00000000000E+00 -0.00000000000E+00 -0.96927717566E+03  0.96927717566E+03  0.00000000000E+00 0.  1.
          5    1    1    2  502    0 -0.64675508330E+02  0.53890997126E+02 -0.24496361470E+03  0.25905946398E+03  0.41800000000E+01 0. -1.
         -5    1    1    2    0  502  0.61073550417E+02 -0.18350578493E+02 -0.50473758968E+03  0.50876736248E+03  0.41800000000E+01 0.  1.
        -11    1    1    2    0    0  0.31067032066E+02 -0.11286240406E+01 -0.20816298202E+02  0.37413266957E+02  0.00000000000E+00 0.  1.
         11    1    1    2    0    0 -0.27465074152E+02 -0.34411794593E+02 -0.17872676900E+03  0.18406998631E+03  0.00000000000E+00 0. -1.
</event>
<event>
 7    1  0.6671761E-006  0.1072570E+03  0.7561462E-02  0.1265735E+00
          3   -1    0    0  501    0  0.00000000000E+00  0.00000000000E+00  0.81347871670E+03  0.81347871670E+03  0.00000000000E+00 0. -1.
         -3   -1    0    0    0  501 -0.00000000000E+00 -0.00000000000E+00 -0.30168549679E+02  0.30168549679E+02  0.00000000000E+00 0.  1.
         23    2    1    2    0    0 -0.32545287389E+01  0.87648689567E+02  0.23023623796E+03  0.27630966363E+03  0.12508165416E+03 0.  0.
          5    1    3    3  502    0 -0.34842036009E+01  0.72850251342E+02  0.24459377982E+03  0.25527022608E+03  0.41800000000E+01 0. -1.
         -5    1    3    3    0  502  0.22967486209E+00  0.14798438225E+02 -0.14357541859E+02  0.21039437556E+02  0.41800000000E+01 0. -1.
        -11    1    1    2    0    0  0.32059884152E+02 -0.91561243606E+02  0.40736248845E+03  0.41875469490E+03  0.00000000000E+00 0.  1.
         11    1    1    2    0    0 -0.28805355414E+02  0.39125540394E+01  0.14571144062E+03  0.14858290785E+03  0.00000000000E+00 0. -1.
</event>
<event>
 7    1  0.6671761E-006  0.9476432E+02  0.7561462E-02  0.1291708E+00
         -2   -1    0    0    0  501 -0.00000000000E+00  0.00000000000E+00  0.37025302131E+02  0.37025302131E+02  0.00000000000E+00 0.  1.
          2   -1    0    0  501    0  0.00000000000E+00 -0.00000000000E+00 -0.39775341410E+03  0.39775341410E+03  0.00000000000E+00 0. -1.
         23    2    1    2    0    0  0.30542477893E+02 -0.28905707728E+02 -0.14510829671E+03  0.19614371180E+03  0.12509018751E+03 0.  0.
          5    1    3    3  502    0 -0.23772192057E+02  0.65205012185E+01 -0.12593487687E+03  0.12839275550E+03  0.41800000000E+01 0. -1.
         -5    1    3    3    0  502  0.54314669949E+02 -0.35426208946E+02 -0.19173419836E+02  0.67750956305E+02  0.41800000000E+01 0. -1.
        -11    1    1    2    0    0 -0.52694008125E+02 -0.11068256683E+02 -0.88999651034E+02  0.10401972256E+03  0.00000000000E+00 0.  1.
         11    1    1    2    0    0  0.22151530232E+02  0.39973964411E+02 -0.12662016422E+03  0.13461528186E+03  0.00000000000E+00 0. -1.
</event>
<event>
 7    1  0.6671761E-006  0.1337393E+03  0.7561462E-02  0.1222011E+00
          2   -1    0    0  501    0  0.00000000000E+00  0.00000000000E+00  0.75547352318E+03  0.75547352318E+03  0.00000000000E+00 0. -1.
         -2   -1    0    0    0  501 -0.00000000000E+00 -0.00000000000E+00 -0.30866081011E+02  0.30866081011E+02  0.00000000000E+00 0.  1.
         23    2    1    2    0    0  0.67328196851E+02 -0.53046507995E+02  0.23234988449E+03  0.27745434829E+03  0.12508968168E+03 0.  0.
          5    1    3    3  502    0 -0.26959059217E+02  0.49133616097E+01  0.10775941845E+02  0.29740970375E+02  0.41800000000E+01 0.  1.
         -5    1    3    3    0  502  0.94287256069E+02 -0.57959869605E+02  0.22157394264E+03  0.24771337792E+03  0.41800000000E+01 0.  1.
        -11    1    1    2    0    0  0.15951518427E+01 -0.24901612594E+02  0.98780075831E+02  0.10188296325E+03  0.00000000000E+00 0. -1.
         11    1    1    2    0    0 -0.68923348694E+02  0.77948120590E+02  0.39347748185E+03  0.40700229265E+03  0.00000000000E+00 0.  1.
</event>
<event>
 7    1  0.6671761E-006  0.1299992E+03  0.7561462E-02  0.1227457E+00
         -4   -1    0    0    0  501 -0.00000000000E+00  0.00000000000E+00  0.40621278155E+02  0.40621278155E+02  0.00000000000E+00 0.  1.
          4   -1    0    0  501    0  0.00000000000E+00 -0.00000000000E+00 -0.51471759500E+03  0.51471759500E+03  0.00000000000E+00 0. -1.
         23    2    1    2    0    0  0.23497026861E+02 -0.85791859179E+02 -0.18756177242E+03  0.24236171040E+03  0.12508967512E+03 0.  0.
          5    1    3    3  502    0 -0.39316755294E+02 -0.21714608271E+02 -0.12501360579E+03  0.13290299279E+03  0.41800000000E+01 0.  1.
         -5    1    3    3    0  502  0.62813782154E+02 -0.64077250907E+02 -0.62548166630E+02  0.10945871761E+03  0.41800000000E+01 0.  1.
        -11    1    1    2    0    0 -0.22395204242E+02  0.10422114221E+03 -0.22995910105E+03  0.25346553969E+03  0.00000000000E+00 0. -1.
         11    1    1    2    0    0 -0.11018226187E+01 -0.18429283034E+02 -0.56575443379E+02  0.59511623064E+02  0.00000000000E+00 0.  1.
</event>
<event>
 7    1  0.6671761E-006  0.1296907E+03  0.7561462E-02  0.1227915E+00
         -2   -1    0    0    0  501 -0.00000000000E+00  0.00000000000E+00  0.30624072597E+03  0.30624072597E+03  0.00000000000E+00 0.  1.
          2   -1    0    0  501    0  0.00000000000E+00 -0.00000000000E+00 -0.91576589507E+02  0.91576589507E+02  0.00000000000E+00 0. -1.
         23    2    1    2    0    0 -0.12023603436E+03  0.40650546425E+02  0.11154979601E+03  0.21023695235E+03  0.12508816195E+03 0.  0.
          5    1    3    3  502    0 -0.14470463912E+02  0.92933257728E+00  0.94744758809E+02  0.95939041618E+02  0.41800000000E+01 0. -1.
         -5    1    3    3    0  502 -0.10576557045E+03  0.39721213848E+02  0.16805037197E+02  0.11429791073E+03  0.41800000000E+01 0. -1.
        -11    1    1    2    0    0  0.11223028007E+02 -0.15875893469E+02 -0.15293745203E+02  0.24736592195E+02  0.00000000000E+00 0. -1.
         11    1    1    2    0    0  0.10901300635E+03 -0.24774652956E+02  0.11840808566E+03  0.16284377093E+03  0.00000000000E+00 0.  1.
</event>
<event>
 7    1  0.6671761E-006  0.1755986E+03  0.7561462E-02  0.1172132E+00
         -1   -1    0    0    0  501 -0.00000000000E+00  0.00000000000E+00  0.11056259631E+03  0.11056259631E+03  0.00000000000E+00 0.  1.
          1   -1    0    0  501    0  0.00000000000E+00 -0.00000000000E+00 -0.40250311764E+03  0.40250311764E+03  0.00000000000E+00 0. -1.
         23    2    1    2    0    0 -0.50196902838E+02 -0.16226696423E+03 -0.77815101742E+02  0.22483798182E+03  0.12508649517E+03 0.  0.
          5    1    3    3  502    0 -0.62894578233E+02 -0.11239156062E+03  0.30457945863E+01  0.12889662576E+03  0.41800000000E+01 0.  1.
         -5    1    3    3    0  502  0.12697675395E+02 -0.49875403612E+02 -0.80860896328E+02  0.95941356051E+02  0.41800000000E+01 0.  1.
        -11    1    1    2    0    0  0.26406738543E+02  0.57608580730E+02 -0.20079414829E+02  0.66477419580E+02  0.00000000000E+00 0.  1.
         11    1    1    2    0    0  0.23790164295E+02  0.10465838350E+03 -0.19404600476E+03  0.22175031255E+03  0.00000000000E+00 0. -1.
</event>
<event>
 7    1  0.6671761E-006  0.1218813E+03  0.7561462E-02  0.1240025E+00
         -1   -1    0    0    0  501 -0.00000000000E+00  0.00000000000E+00  0.35532709550E+03  0.35532709550E+03  0.00000000000E+00 0.  1.
          1   -1    0    0  501    0  0.00000000000E+00 -0.00000000000E+00 -0.58534443434E+02  0.58534443434E+02  0.00000000000E+00 0. -1.
         23    2    1    2    0    0 -0.42706900287E+02  0.77491602645E+02  0.27596151828E+03  0.31564678598E+03  0.12509718669E+03 0.  0.
          5    1    3    3  502    0  0.44030136937E+02  0.29557174718E+02  0.81037601417E+02  0.96937323974E+02  0.41800000000E+01 0.  1.
         -5    1    3    3    0  502 -0.86737037224E+02  0.47934427928E+02  0.19492391686E+03  0.21870946201E+03  0.41800000000E+01 0.  1.
        -11    1    1    2    0    0  0.31410845077E+02 -0.72531494479E+02  0.28109844085E+02  0.83890537096E+02  0.00000000000E+00 0.  1.
         11    1    1    2    0    0  0.11296055211E+02 -0.49601081663E+01 -0.72787102962E+01  0.14324215857E+02  0.00000000000E+00 0. -1.
</event>
<event>
 7    1  0.6671761E-006  0.1189315E+03  0.7561462E-02  0.1244870E+00
          1   -1    0    0  501    0  0.00000000000E+00  0.00000000000E+00  0.52786923056E+02  0.52786923056E+02  0.00000000000E+00 0. -1.
         -1   -1    0    0    0  501 -0.00000000000E+00 -0.00000000000E+00 -0.41129377188E+03  0.41129377188E+03  0.00000000000E+00 0.  1.
         23    2    1    2    0    0 -0.77043062815E+02 -0.43699379384E+02 -0.26395284567E+03  0.30522810040E+03  0.12509124369E+03 0.  0.
          5    1    3    3  502    0 -0.10846895334E+03 -0.35537743721E+02 -0.16250979007E+03  0.19863370644E+03  0.41800000000E+01 0.  1.
         -5    1    3    3    0  502  0.31425890525E+02 -0.81616356628E+01 -0.10144305561E+03  0.10659439396E+03  0.41800000000E+01 0.  1.
        -11    1    1    2    0    0  0.32199795433E+02  0.30024129978E+02 -0.10226633629E+03  0.11134037339E+03  0.00000000000E+00 0.  1.
         11    1    1    2    0    0  0.44843267382E+02  0.13675249406E+02  0.77123331470E+01  0.47512221148E+02  0.00000000000E+00 0. -1.
</event>
<event>
 7    1  0.6671761E-006  0.8759145E+02  0.7561462E-02  0.1308791E+00
         -1   -1    0    0    0  501 -0.00000000000E+00  0.00000000000E+00  0.32496304951E+03  0.32496304951E+03  0.00000000000E+00 0.  1.
          1   -1    0    0  501    0  0.00000000000E+00 -0.00000000000E+00 -0.10185244799E+03  0.10185244799E+03  0.00000000000E+00 0. -1.
         23    2    1    2    0    0 -0.51247993636E+02 -0.38510630406E+02  0.27428797824E+03  0.30410204159E+03  0.11460685490E+03 0.  0.
          5    1    3    3  502    0  0.22732180205E+02 -0.85436480368E+01  0.77410259428E+01  0.25829088666E+02  0.41800000000E+01 0. -1.
         -5    1    3    3    0  502 -0.73980173841E+02 -0.29966982369E+02  0.26654695229E+03  0.27827295293E+03  0.41800000000E+01 0.  1.
        -11    1    1    2    0    0  0.13845892330E+02  0.28823220204E+02  0.22787676646E+02  0.39265315028E+02  0.00000000000E+00 0.  1.
         11    1    1    2    0    0  0.37402101306E+02  0.96874102018E+01 -0.73965053360E+02  0.83448140885E+02  0.00000000000E+00 0. -1.
</event>
<event>
 7    1  0.6671761E-006  0.1109414E+03  0.7561462E-02  0.1258836E+00
          1   -1    0    0  501    0  0.00000000000E+00  0.00000000000E+00  0.22811378545E+03  0.22811378545E+03  0.00000000000E+00 0. -1.
         -1   -1    0    0    0  501 -0.00000000000E+00 -0.00000000000E+00 -0.64932261941E+02  0.64932261941E+02  0.00000000000E+00 0.  1.
         23    2    1    2    0    0 -0.44256987791E+02 -0.14483207175E+02  0.59083006100E+02  0.14596862780E+03  0.12509034508E+03 0.  0.
          5    1    3    3  502    0  0.38668638420E+02 -0.56777708267E+01  0.47529151626E+02  0.61676521733E+02  0.41800000000E+01 0.  1.
         -5    1    3    3    0  502 -0.82925626211E+02 -0.88054363478E+01  0.11553854474E+02  0.84292106065E+02  0.41800000000E+01 0.  1.
        -11    1    1    2    0    0  0.36895043964E+02 -0.33921412175E+02  0.30464884050E+02  0.58651646466E+02  0.00000000000E+00 0. -1.
         11    1    1    2    0    0  0.73619438262E+01  0.48404619349E+02  0.73633633356E+02  0.88425773123E+02  0.00000000000E+00 0.  1.
</event>
<event>
 7    1  0.7135438E-006  0.9296124E+02  0.7561462E-02  0.1295835E+00
         -1   -1    0    0    0  501 -0.00000000000E+00  0.00000000000E+00  0.32404500018E+02  0.32404500018E+02  0.00000000000E+00 0.  1.
          1   -1    0    0  501    0  0.00000000000E+00 -0.00000000000E+00 -0.32780441453E+03  0.32780441453E+03  0.00000000000E+00 0. -1.
         23    2    1    2    0    0 -0.13246817375E+01  0.50330858393E+02 -0.17654493845E+03  0.22215011654E+03  0.12509040290E+03 0.  0.
          5    1    3    3  502    0 -0.46848301378E+02  0.51852184865E+02 -0.15796031193E+03  0.17277831161E+03  0.41800000000E+01 0.  1.
         -5    1    3    3    0  502  0.45523619640E+02 -0.15213264720E+01 -0.18584626523E+02  0.49371804934E+02  0.41800000000E+01 0.  1.
        -11    1    1    2    0    0 -0.19750685648E+02 -0.52882795834E+01 -0.31981453394E+02  0.37958778243E+02  0.00000000000E+00 0. -1.
         11    1    1    2    0    0  0.21075367385E+02 -0.45042578810E+02 -0.86873522664E+02  0.10010001976E+03  0.00000000000E+00 0.  1.
</event>
<event>
 7    1  0.6671761E-006  0.1136094E+03  0.7561462E-02  0.1254028E+00
         -4   -1    0    0    0  501 -0.00000000000E+00  0.00000000000E+00  0.56347986411E+02  0.56347986411E+02  0.00000000000E+00 0.  1.
          4   -1    0    0  501    0  0.00000000000E+00 -0.00000000000E+00 -0.26071231033E+03  0.26071231033E+03  0.00000000000E+00 0. -1.
         23    2    1    2    0    0  0.97180204639E+01  0.53704593005E+02 -0.10718458977E+03  0.17353624511E+03  0.12509064254E+03 0.  0.
          5    1    3    3  502    0 -0.50282766552E+02  0.26414969665E+02 -0.87887666109E+02  0.10472736743E+03  0.41800000000E+01 0. -1.
         -5    1    3    3    0  502  0.60000787016E+02  0.27289623340E+02 -0.19296923661E+02  0.68808877678E+02  0.41800000000E+01 0. -1.
        -11    1    1    2    0    0  0.18084955534E+02  0.19089460405E+02 -0.35311744665E+02  0.44027178271E+02  0.00000000000E+00 0.  1.
         11    1    1    2    0    0 -0.27802975998E+02 -0.72794053410E+02 -0.61867989481E+02  0.99496873360E+02  0.00000000000E+00 0. -1.
</event>
<event>
 7    1  0.7828709E-006  0.2382770E+03  0.7561462E-02  0.1120946E+00
          1   -1    0    0  501    0  0.00000000000E+00  0.00000000000E+00  0.11854649014E+04  0.11854649014E+04  0.00000000000E+00 0. -1.
         -1   -1    0    0    0  501 -0.00000000000E+00 -0.00000000000E+00 -0.57297399179E+02  0.57297399179E+02  0.00000000000E+00 0.  1.
         23    2    1    2    0    0 -0.56980968805E+02  0.21351037294E+03  0.37620143494E+03  0.45388106960E+03  0.12508795120E+03 0.  0.
          5    1    3    3  502    0 -0.39934336127E+02  0.17297221086E+02  0.22862284413E+02  0.49336614272E+02  0.41800000000E+01 0. -1.
         -5    1    3    3    0  502 -0.17046632677E+02  0.19621315185E+03  0.35333915052E+03  0.40454445533E+03  0.41800000000E+01 0. -1.
        -11    1    1    2    0    0 -0.19232476614E+02 -0.78295298259E+02  0.31549168357E+03  0.32563022631E+03  0.00000000000E+00 0. -1.
         11    1    1    2    0    0  0.76213445418E+02 -0.13521507468E+03  0.43647438370E+03  0.46325100465E+03  0.00000000000E+00 0.  1.
</event>
<event>
 7    1  0.6671761E-006  0.1366652E+03  0.7561462E-02  0.1217888E+00
          2   -1    0    0  501    0  0.00000000000E+00  0.00000000000E+00  0.81761744505E+03  0.81761744505E+03  0.00000000000E+00 0. -1.
         -2   -1    0    0    0  501 -0.00000000000E+00 -0.00000000000E+00 -0.33395597489E+02  0.33395597489E+02  0.00000000000E+00 0.  1.
         23    2    1    2    0    0 -0.23472462783E+02  0.10585741336E+03  0.26301009141E+03  0.31078583765E+03  0.12512705635E+03 0.  0.
          5    1    3    3  502    0  0.46321475481E+02  0.27802151121E+02  0.13424733796E+03  0.14477036592E+03  0.41800000000E+01 0.  1.
         -5    1    3    3    0  502 -0.69793938264E+02  0.78055262238E+02  0.12876275344E+03  0.16601547174E+03  0.41800000000E+01 0.  1.
        -11    1    1    2    0    0  0.33013971599E+02 -0.72602764182E+02  0.47925596037E+03  0.48584705334E+03  0.00000000000E+00 0. -1.
         11    1    1    2    0    0 -0.95415088159E+01 -0.33254649176E+02  0.41955795783E+02  0.54380151546E+02  0.00000000000E+00 0.  1.
</event>
<event>
 7    1  0.6671761E-006  0.1111697E+03  0.7561462E-02  0.1258419E+00
          3   -1    0    0  501    0  0.00000000000E+00  0.00000000000E+00  0.16746503903E+03  0.16746503903E+03  0.00000000000E+00 0. -1.
         -3   -1    0    0    0  501 -0.00000000000E+00 -0.00000000000E+00 -0.10762606056E+03  0.10762606056E+03  0.00000000000E+00 0.  1.
         23    2    1    2    0    0  0.32945108457E+02 -0.12190343282E+02 -0.39932144699E+02  0.13592505249E+03  0.12508820518E+03 0.  0.
          5    1    3    3  502    0 -0.44535253938E+02 -0.16420569115E+02  0.18707270899E+01  0.47686433639E+02  0.41800000000E+01 0. -1.
         -5    1    3    3    0  502  0.77480362395E+02  0.42302258325E+01 -0.41802871789E+02  0.88238618854E+02  0.41800000000E+01 0. -1.
        -11    1    1    2    0    0 -0.49547228905E+02  0.40613077362E+02  0.67755631477E+02  0.93247925134E+02  0.00000000000E+00 0.  1.
         11    1    1    2    0    0  0.16602120448E+02 -0.28422734079E+02  0.32015491698E+02  0.45918121962E+02  0.00000000000E+00 0. -1.
</event>
<event>
 7    1  0.6671761E-006  0.1287765E+03  0.7561462E-02  0.1229283E+00
          1   -1    0    0  501    0  0.00000000000E+00  0.00000000000E+00  0.10596647221E+03  0.10596647221E+03  0.00000000000E+00 0. -1.
         -1   -1    0    0    0  501 -0.00000000000E+00 -0.00000000000E+00 -0.35617129327E+03  0.35617129327E+03  0.00000000000E+00 0.  1.
         23    2    1    2    0    0  0.78477778238E+02  0.37704497753E+02 -0.28949385088E+03  0.32716259276E+03  0.12509309165E+03 0.  0.
          5    1    3    3  502    0  0.26493171896E+02 -0.45403910665E+02 -0.79808862736E+02  0.95657358483E+02  0.41800000000E+01 0.  1.
         -5    1    3    3    0  502  0.51984606342E+02  0.83108408418E+02 -0.20968498814E+03  0.23150523428E+03  0.41800000000E+01 0.  1.
        -11    1    1    2    0    0 -0.44528067265E+02  0.12360669377E+02  0.55626100619E+02  0.72317342262E+02  0.00000000000E+00 0. -1.
         11    1    1    2    0    0 -0.33949710972E+02 -0.50065167130E+02 -0.16337070805E+02  0.62657830455E+02  0.00000000000E+00 0.  1.
</event>
<event>
 7    1  0.6671761E-006  0.2493579E+03  0.7561462E-02  0.1113711E+00
         -1   -1    0    0    0  501 -0.00000000000E+00  0.00000000000E+00  0.10421779207E+04  0.10421779207E+04  0.00000000000E+00 0.  1.
          1   -1    0    0  501    0  0.00000000000E+00 -0.00000000000E+00 -0.71784134016E+02  0.71784134016E+02  0.00000000000E+00 0. -1.
         23    2    1    2    0    0  0.22478934203E+03  0.39326852245E+02  0.70866596678E+03  0.75493758396E+03  0.12508578498E+03 0.  0.
          5    1    3    3  502    0  0.17664820445E+03  0.80894074149E+02  0.48867295347E+03  0.52589653661E+03  0.41800000000E+01 0.  1.
         -5    1    3    3    0  502  0.48141137579E+02 -0.41567221905E+02  0.21999301331E+03  0.22904104735E+03  0.41800000000E+01 0.  1.
        -11    1    1    2    0    0 -0.16007395488E+03  0.82999378615E+01  0.13808203707E+03  0.21156372316E+03  0.00000000000E+00 0. -1.
         11    1    1    2    0    0 -0.64715387151E+02 -0.47626790106E+02  0.12364578287E+03  0.14746074763E+03  0.00000000000E+00 0.  1.
</event>
<event>
 7    1  0.6671761E-006  0.1668168E+03  0.7561462E-02  0.1181209E+00
         -1   -1    0    0    0  501 -0.00000000000E+00  0.00000000000E+00  0.98973805004E+02  0.98973805004E+02  0.00000000000E+00 0.  1.
          1   -1    0    0  501    0  0.00000000000E+00 -0.00000000000E+00 -0.50324483738E+03  0.50324483738E+03  0.00000000000E+00 0. -1.
         23    2    1    2    0    0  0.14986137532E+03 -0.94497727290E+01 -0.42442815999E+02  0.19999263049E+03  0.12509168478E+03 0.  0.
          5    1    3    3  502    0  0.11988096950E+02 -0.39151163979E+02 -0.42125028254E+02  0.58894129714E+02  0.41800000000E+01 0. -1.
         -5    1    3    3    0  502  0.13787327837E+03  0.29701391250E+02 -0.31778774436E+00  0.14109850077E+03  0.41800000000E+01 0. -1.
        -11    1    1    2    0    0 -0.99749712904E+02 -0.28037929181E+01 -0.32183740735E+03  0.33695279083E+03  0.00000000000E+00 0. -1.
         11    1    1    2    0    0 -0.50111662420E+02  0.12253565647E+02 -0.39990809032E+02  0.65273221068E+02  0.00000000000E+00 0.  1.
</event>
<event>
 7    1  0.6671761E-006  0.1171949E+03  0.7561462E-02  0.1247798E+00
         -1   -1    0    0    0  501 -0.00000000000E+00  0.00000000000E+00  0.11788004377E+03  0.11788004377E+03  0.00000000000E+00 0.  1.
          1   -1    0    0  501    0  0.00000000000E+00 -0.00000000000E+00 -0.16306278506E+03  0.16306278506E+03  0.00000000000E+00 0. -1.
         23    2    1    2    0    0  0.64786158670E+02 -0.49211559453E+02  0.62632164488E+01  0.14935196010E+03  0.12509099155E+03 0.  0.
          5    1    3    3  502    0 -0.19284256760E+02 -0.34234145418E+02  0.41115558435E+02  0.57024738638E+02  0.41800000000E+01 0.  1.
         -5    1    3    3    0  502  0.84070415431E+02 -0.14977414035E+02 -0.34852341986E+02  0.92327221467E+02  0.41800000000E+01 0.  1.
        -11    1    1    2    0    0 -0.41787013309E+02 -0.12422495228E+02 -0.49244737541E+02  0.65768663088E+02  0.00000000000E+00 0.  1.
         11    1    1    2    0    0 -0.22999145362E+02  0.61634054681E+02 -0.22012201971E+01  0.65822205631E+02  0.00000000000E+00 0. -1.
</event>
<event>
 7    1  0.6671761E-006  0.8692910E+02  0.7561462E-02  0.1310463E+00
          4   -1    0    0  501    0  0.00000000000E+00  0.00000000000E+00  0.11685825560E+04  0.11685825560E+04  0.00000000000E+00 0. -1.
         -4   -1    0    0    0  501 -0.00000000000E+00 -0.00000000000E+00 -0.10143508242E+02  0.10143508242E+02  0.00000000000E+00 0.  1.
         23    2    1    2    0    0 -0.13222034295E+02  0.25916201592E+01  0.77574051025E+03  0.78587682561E+03  0.12508999601E+03 0.  0.
          5    1    3    3  502    0  0.74499046553E+01 -0.39163986164E+02  0.65747202263E+03  0.65869283573E+03  0.41800000000E+01 0. -1.
         -5    1    3    3    0  502 -0.20671938950E+02  0.41755606323E+02  0.11826848762E+03  0.12718398988E+03  0.41800000000E+01 0. -1.
        -11    1    1    2    0    0  0.50017898592E+02  0.95831410652E+00  0.18075939574E+03  0.18755443928E+03  0.00000000000E+00 0. -1.
         11    1    1    2    0    0 -0.36795864298E+02 -0.35499342657E+01  0.20193914176E+03  0.20529479934E+03  0.00000000000E+00 0.  1.
</event>
<event>
 7    1  0.6671761E-006  0.9097963E+02  0.7561462E-02  0.1300497E+00
          3   -1    0    0  501    0  0.00000000000E+00  0.00000000000E+00  0.28881748550E+03  0.28881748550E+03  0.00000000000E+00 0. -1.
         -3   -1    0    0    0  501 -0.00000000000E+00 -0.00000000000E+00 -0.63288688399E+02  0.63288688399E+02  0.00000000000E+00 0.  1.
         23    2    1    2    0    0 -0.38975476049E+02 -0.51013950393E+01  0.32963724943E+02  0.13520086645E+03  0.12509018812E+03 0.  0.
          5    1    3    3  502    0 -0.68119027130E+02 -0.39506863955E+02  0.41514667636E+02  0.89117530182E+02  0.41800000000E+01 0. -1.
         -5    1    3    3    0  502  0.29143551082E+02  0.34405468916E+02 -0.85509426937E+01  0.46083336272E+02  0.41800000000E+01 0. -1.
        -11    1    1    2    0    0  0.59392885621E+01  0.20519679313E+02  0.45520864689E+00  0.21366787373E+02  0.00000000000E+00 0.  1.
         11    1    1    2    0    0  0.33036187487E+02 -0.15418284274E+02  0.19210986351E+03  0.19553852007E+03  0.00000000000E+00 0. -1.
</event>
<event>
 7    1  0.6671761E-006  0.6555516E+02  0.7561462E-02  0.1375895E+00
          2   -1    0    0  501    0  0.00000000000E+00  0.00000000000E+00  0.52167084791E+03  0.52167084791E+03  0.00000000000E+00 0. -1.
         -2   -1    0    0    0  501 -0.00000000000E+00 -0.00000000000E+00 -0.29340662486E+02  0.29340662486E+02  0.00000000000E+00 0.  1.
         23    2    1    2    0    0  0.18209211090E+02  0.55372676456E+02  0.25661919967E+03  0.29135536807E+03  0.12504730385E+03 0.  0.
          5    1    3    3  502    0  0.20703027631E+02  0.38754550310E+02  0.11479222794E+02  0.45604555461E+02  0.41800000000E+01 0. -1.
         -5    1    3    3    0  502 -0.24938165413E+01  0.16618126145E+02  0.24513997687E+03  0.24575081261E+03  0.41800000000E+01 0. -1.
        -11    1    1    2    0    0 -0.29754788268E+02 -0.46010808253E+02  0.23834336949E+03  0.24456063396E+03  0.00000000000E+00 0. -1.
         11    1    1    2    0    0  0.11545577178E+02 -0.93618682029E+01 -0.26323837383E+01  0.15095508364E+02  0.00000000000E+00 0.  1.
</event>
<event>
 7    1  0.6671761E-006  0.1405711E+03  0.7561462E-02  0.1212563E+00
          1   -1    0    0  501    0  0.00000000000E+00  0.00000000000E+00  0.12797718438E+03  0.12797718438E+03  0.00000000000E+00 0. -1.
         -1   -1    0    0    0  501 -0.00000000000E+00 -0.00000000000E+00 -0.17617362679E+03  0.17617362679E+03  0.00000000000E+00 0.  1.
         23    2    1    2    0    0 -0.73564538371E+02 -0.53637678108E+02 -0.75155894734E+02  0.17200285114E+03  0.12509128854E+03 0.  0.
          5    1    3    3  502    0 -0.43087143890E+02  0.38274719205E+02 -0.27270499148E+02  0.63895294213E+02  0.41800000000E+01 0. -1.
         -5    1    3    3    0  502 -0.30477394481E+02 -0.91912397313E+02 -0.47885395586E+02  0.10810755693E+03  0.41800000000E+01 0. -1.
        -11    1    1    2    0    0 -0.13623695072E+02  0.34609469978E+02 -0.46299791798E+01  0.37481424556E+02  0.00000000000E+00 0.  1.
         11    1    1    2    0    0  0.87188233443E+02  0.19028208131E+02  0.31589431507E+02  0.94666535473E+02  0.00000000000E+00 0. -1.
</event>
<event>
 7    1  0.6671761E-006  0.1057800E+03  0.7561462E-02  0.1268590E+00
         -3   -1    0    0    0  501 -0.00000000000E+00  0.00000000000E+00  0.13830173898E+03  0.13830173898E+03  0.00000000000E+00 0.  1.
          3   -1    0    0  501    0  0.00000000000E+00 -0.00000000000E+00 -0.10333648945E+03  0.10333648945E+03  0.00000000000E+00 0. -1.
         23    2    1    2    0    0 -0.34633286599E+01  0.10899809628E+02  0.55853544521E+02  0.13747130145E+03  0.12509172551E+03 0.  0.
          5    1    3    3  502    0  0.40573829361E+02 -0.39391014868E+02  0.37647914965E+02  0.68064128456E+02  0.41800000000E+01 0.  1.
         -5    1    3    3    0  502 -0.44037158020E+02  0.50290824496E+02  0.18205629555E+02  0.69407172991E+02  0.41800000000E+01 0.  1.
        -11    1    1    2    0    0  0.42932891412E+02 -0.20016964676E+02  0.15370103385E+02  0.49801125669E+02  0.00000000000E+00 0.  1.
         11    1    1    2    0    0 -0.39469562752E+02  0.91171550474E+01 -0.36258398370E+02  0.54365801313E+02  0.00000000000E+00 0. -1.
</event>
<event>
 7    1  0.6671761E-006  0.5948752E+02  0.7561462E-02  0.1399995E+00
         -1   -1    0    0    0  501 -0.00000000000E+00  0.00000000000E+00  0.88178106478E+02  0.88178106478E+02  0.00000000000E+00 0.  1.
          1   -1    0    0  501    0  0.00000000000E+00 -0.00000000000E+00 -0.18217763810E+03  0.18217763810E+03  0.00000000000E+00 0. -1.
         23    2    1    2    0    0 -0.13858984906E+02  0.26748541777E+02  0.10203177312E+02  0.12906929975E+03  0.12508886185E+03 0.  0.
          5    1    3    3  502    0 -0.42577531392E+02 -0.77429141020E+01 -0.41756729350E+02  0.60281802762E+02  0.41800000000E+01 0. -1.
         -5    1    3    3    0  502  0.28718546486E+02  0.34491455879E+02  0.51959906662E+02  0.68787496983E+02  0.41800000000E+01 0. -1.
        -11    1    1    2    0    0  0.28173532414E+01 -0.97708330754E+01  0.16235569844E+02  0.19157254147E+02  0.00000000000E+00 0.  1.
         11    1    1    2    0    0  0.11041631665E+02 -0.16977708701E+02 -0.12043827877E+03  0.12212919068E+03  0.00000000000E+00 0. -1.
</event>
<event>
 6    1  0.6671761E-006  0.1479190E+03  0.7561462E-02  0.1203054E+00
         -2   -1    0    0    0  501 -0.00000000000E+00  0.00000000000E+00  0.24432667846E+03  0.24432667846E+03  0.00000000000E+00 0.  1.
          2   -1    0    0  501    0  0.00000000000E+00 -0.00000000000E+00 -0.25638882648E+03  0.25638882648E+03  0.00000000000E+00 0. -1.
          5    1    1    2  502    0 -0.76250718024E+02  0.26910916615E+02 -0.46332848970E+02  0.93287591489E+02  0.41800000000E+01 0. -1.
         -5    1    1    2    0  502 -0.14084302340E+02 -0.96369582913E+02  0.18817386677E+03  0.21192531849E+03  0.41800000000E+01 0.  1.
        -11    1    1    2    0    0  0.69181342776E+02  0.36489082195E+02 -0.12229882788E+03  0.14517063963E+03  0.00000000000E+00 0. -1.
         11    1    1    2    0    0  0.21153677588E+02  0.32969584103E+02 -0.31604337937E+02  0.50331955335E+02  0.00000000000E+00 0.  1.
</event>
<event>
 7    1  0.6671761E-006  0.7008839E+02  0.7561462E-02  0.1359793E+00
          2   -1    0    0  501    0  0.00000000000E+00  0.00000000000E+00  0.84980309979E+02  0.84980309979E+02  0.00000000000E+00 0. -1.
         -2   -1    0    0    0  501 -0.00000000000E+00 -0.00000000000E+00 -0.16002597584E+03  0.16002597584E+03  0.00000000000E+00 0.  1.
         23    2    1    2    0    0 -0.46275711092E+02 -0.21975980040E+01 -0.63774700790E+02  0.14785094410E+03  0.12508564400E+03 0.  0.
          5    1    3    3  502    0  0.31732752630E+01 -0.18115704470E+02  0.32957690399E+02  0.37972755770E+02  0.41800000000E+01 0. -1.
         -5    1    3    3    0  502 -0.49448986355E+02  0.15918106466E+02 -0.96732391189E+02  0.10987818833E+03  0.41800000000E+01 0. -1.
        -11    1    1    2    0    0  0.18628859687E+01 -0.19626788211E+02 -0.36594153597E+02  0.41566972912E+02  0.00000000000E+00 0.  1.
         11    1    1    2    0    0  0.44412825123E+02  0.21824386215E+02  0.25323188530E+02  0.55588368805E+02  0.00000000000E+00 0. -1.
</event>
<event>
 7    1  0.6671761E-006  0.9161683E+02  0.7561462E-02  0.1298983E+00
          2   -1    0    0  501    0  0.00000000000E+00  0.00000000000E+00  0.10786152302E+03  0.10786152302E+03  0.00000000000E+00 0.  1.
         -2   -1    0    0    0  501 -0.00000000000E+00 -0.00000000000E+00 -0.14470706568E+03  0.14470706568E+03  0.00000000000E+00 0. -1.
         23    2    1    2    0    0  0.35122703784E+02 -0.31765648915E+02 -0.61438847016E+02  0.14719035566E+03  0.12509039973E+03 0.  0.
          5    1    3    3  502    0  0.65696969454E+02  0.22426877584E+02 -0.44516217449E+02  0.82572529630E+02  0.41800000000E+01 0. -1.
         -5    1    3    3    0  502 -0.30574265669E+02 -0.54192526498E+02 -0.16922629567E+02  0.64617826031E+02  0.41800000000E+01 0. -1.
        -11    1    1    2    0    0 -0.17462538343E+02  0.32168128859E+01 -0.33710395873E+02  0.38100904457E+02  0.00000000000E+00 0. -1.
         11    1    1    2    0    0 -0.17660165441E+02  0.28548836029E+02  0.58303700229E+02  0.67277328592E+02  0.00000000000E+00 0.  1.
</event>
<event>
 7    1  0.6671761E-006  0.1544515E+03  0.7561462E-02  0.1195107E+00
          1   -1    0    0  501    0  0.00000000000E+00  0.00000000000E+00  0.15768753115E+03  0.15768753115E+03  0.00000000000E+00 0. -1.
         -1   -1    0    0    0  501 -0.00000000000E+00 -0.00000000000E+00 -0.17838351779E+03  0.17838351779E+03  0.00000000000E+00 0.  1.
         23    2    1    2    0    0  0.10222413112E+03 -0.51943790657E+02 -0.68230093401E+02  0.18290593800E+03  0.12510518031E+03 0.  0.
          5    1    3    3  502    0  0.12735445629E+03 -0.20388031676E+02 -0.54621621830E+02  0.14012788210E+03  0.41800000000E+01 0.  1.
         -5    1    3    3    0  502 -0.25130325166E+02 -0.31555758981E+02 -0.13608471570E+02  0.42778055897E+02  0.41800000000E+01 0.  1.
        -11    1    1    2    0    0 -0.66274864518E+02  0.72227713894E+02  0.53149139538E+02  0.11150798785E+03  0.00000000000E+00 0. -1.
         11    1    1    2    0    0 -0.35949266602E+02 -0.20283923237E+02 -0.56150327694E+01  0.41657123090E+02  0.00000000000E+00 0.  1.
</event>
<event>
 7    1  0.6671761E-006  0.9387791E+02  0.7561462E-02  0.1293723E+00
          1   -1    0    0  501    0  0.00000000000E+00  0.00000000000E+00  0.12878056438E+03  0.12878056438E+03  0.00000000000E+00 0. -1.
         -1   -1    0    0    0  501 -0.00000000000E+00 -0.00000000000E+00 -0.84550864483E+02  0.84550864483E+02  0.00000000000E+00 0.  1.
         23    2    1    2    0    0 -0.24815204310E+02  0.27645245485E+02 -0.12810039463E+02  0.13111989628E+03  0.12509306986E+03 0.  0.
          5    1    3    3  502    0  0.39748925997E+02 -0.24426250662E+02 -0.10672419657E+02  0.48041563054E+02  0.41800000000E+01 0. -1.
         -5    1    3    3    0  502 -0.64564130307E+02  0.52071496147E+02 -0.21376198061E+01  0.83078333227E+02  0.41800000000E+01 0. -1.
        -11    1    1    2    0    0  0.25066289319E+01 -0.34449597066E+02  0.25259801804E+02  0.42791535539E+02  0.00000000000E+00 0.  1.
         11    1    1    2    0    0  0.22308575378E+02  0.68043515808E+01  0.31779937558E+02  0.39419997045E+02  0.00000000000E+00 0. -1.
</event>
<event>
 7    1  0.6671761E-006  0.8325653E+02  0.7561462E-02  0.1320056E+00
         -2   -1    0    0    0  501 -0.00000000000E+00  0.00000000000E+00  0.67600013869E+03  0.67600013869E+03  0.00000000000E+00 0.  1.
          2   -1    0    0  501    0  0.00000000000E+00 -0.00000000000E+00 -0.22384356432E+02  0.22384356432E+02  0.00000000000E+00 0. -1.
         23    2    1    2    0    0 -0.29069477922E+02  0.50237736930E+01  0.50885077342E+03  0.52483038631E+03  0.12509017524E+03 0.  0.
          5    1    3    3  502    0  0.23235017130E+02  0.40430477336E+02  0.36066432122E+03  0.36369041027E+03  0.41800000000E+01 0. -1.
         -5    1    3    3    0  502 -0.52304495052E+02 -0.35406703643E+02  0.14818645220E+03  0.16113997605E+03  0.41800000000E+01 0. -1.
        -11    1    1    2    0    0 -0.12379781387E+02 -0.81599050934E+01 -0.68580489892E+01  0.16336336011E+02  0.00000000000E+00 0. -1.
         11    1    1    2    0    0  0.41449259309E+02  0.31361314005E+01  0.15162305783E+03  0.15721777280E+03  0.00000000000E+00 0.  1.
</event>
<event>
 7    1  0.6671761E-006  0.1090602E+03  0.7561462E-02  0.1262320E+00
         -2   -1    0    0    0  501 -0.00000000000E+00  0.00000000000E+00  0.43164422513E+02  0.43164422513E+02  0.00000000000E+00 0.  1.
          2   -1    0    0  501    0  0.00000000000E+00 -0.00000000000E+00 -0.57898352556E+03  0.57898352556E+03  0.00000000000E+00 0. -1.
         23    2    1    2    0    0  0.37481485309E+02  0.49348271553E+02 -0.98916920882E+02  0.17109164083E+03  0.12509068183E+03 0.  0.
          5    1    3    3  502    0 -0.38192524940E+01  0.62871949257E+02 -0.17315681557E+00  0.63126627316E+02  0.41800000000E+01 0.  1.
         -5    1    3    3    0  502  0.41300737803E+02 -0.13523677704E+02 -0.98743764066E+02  0.10796501352E+03  0.41800000000E+01 0.  1.
        -11    1    1    2    0    0 -0.28082377019E+02  0.24271382862E+02 -0.17161464641E+03  0.17558276335E+03  0.00000000000E+00 0. -1.
         11    1    1    2    0    0 -0.93991082906E+01 -0.73619654415E+02 -0.26528753575E+03  0.27547354388E+03  0.00000000000E+00 0.  1.
</event>
<event>
 7    1  0.6671761E-006  0.1869653E+03  0.7561462E-02  0.1161227E+00
         -1   -1    0    0    0  501 -0.00000000000E+00  0.00000000000E+00  0.51996288981E+03  0.51996288981E+03  0.00000000000E+00 0.  1.
          1   -1    0    0  501    0  0.00000000000E+00 -0.00000000000E+00 -0.18575954511E+03  0.18575954511E+03  0.00000000000E+00 0. -1.
         23    2    1    2    0    0 -0.17760312481E+03  0.21132830765E+02  0.43065666849E+03  0.48280657755E+03  0.12509020240E+03 0.  0.
          5    1    3    3  502    0 -0.11027660373E+03  0.50438931410E+02  0.36348212283E+03  0.38319934910E+03  0.41800000000E+01 0. -1.
         -5    1    3    3    0  502 -0.67326521082E+02 -0.29306100645E+02  0.67174545656E+02  0.99607228453E+02  0.41800000000E+01 0. -1.
        -11    1    1    2    0    0  0.10325924432E+03 -0.81735957991E+01 -0.41167154314E+01  0.10366400798E+03  0.00000000000E+00 0.  1.
         11    1    1    2    0    0  0.74343880495E+02 -0.12959234966E+02 -0.92336608357E+02  0.11925184938E+03  0.00000000000E+00 0. -1.
</event>
<event>
 7    1  0.6671761E-006  0.1035741E+03  0.7561462E-02  0.1272955E+00
         -1   -1    0    0    0  501 -0.00000000000E+00  0.00000000000E+00  0.57057715898E+02  0.57057715898E+02  0.00000000000E+00 0.  1.
          1   -1    0    0  501    0  0.00000000000E+00 -0.00000000000E+00 -0.23693030214E+03  0.23693030214E+03  0.00000000000E+00 0. -1.
         23    2    1    2    0    0 -0.94160486886E+01 -0.41424566118E+02 -0.94945915875E+02  0.16268617916E+03  0.12508960508E+03 0.  0.
          5    1    3    3  502    0  0.29991855132E+02  0.24295375064E+02 -0.73302952728E+02  0.82949212790E+02  0.41800000000E+01 0.  1.
         -5    1    3    3    0  502 -0.39407903821E+02 -0.65719941183E+02 -0.21642963147E+02  0.79736966373E+02  0.41800000000E+01 0.  1.
        -11    1    1    2    0    0  0.40344187861E+02  0.45011722368E+02 -0.79221224541E+02  0.99647935566E+02  0.00000000000E+00 0. -1.
         11    1    1    2    0    0 -0.30928139173E+02 -0.35871562497E+01 -0.57054458239E+01  0.31653903309E+02  0.00000000000E+00 0.  1.
</event>
<event>
 7    1  0.6671761E-006  0.1290365E+03  0.7561462E-02  0.1228893E+00
          1   -1    0    0  501    0  0.00000000000E+00  0.00000000000E+00  0.44477298033E+03  0.44477298033E+03  0.00000000000E+00 0. -1.
         -1   -1    0    0    0  501 -0.00000000000E+00 -0.00000000000E+00 -0.80467649384E+02  0.80467649384E+02  0.00000000000E+00 0.  1.
         23    2    1    2    0    0  0.85494004864E+02 -0.78071025023E+01  0.12570505664E+02  0.15223685080E+03  0.12509142821E+03 0.  0.
          5    1    3    3  502    0  0.66119355237E+02 -0.60164947730E+02  0.28688045712E+02  0.93979074475E+02  0.41800000000E+01 0. -1.
         -5    1    3    3    0  502  0.19374649627E+02  0.52357845228E+02 -0.16117540049E+02  0.58257776325E+02  0.41800000000E+01 0. -1.
        -11    1    1    2    0    0 -0.93087465262E+02  0.22756163999E+02  0.33802250927E+03  0.35134361523E+03  0.00000000000E+00 0. -1.
         11    1    1    2    0    0  0.75934603978E+01 -0.14949061497E+02  0.13712316011E+02  0.21660163684E+02  0.00000000000E+00 0.  1.
</event>
<event>
 7    1  0.6671761E-006  0.1272827E+03  0.7561462E-02  0.1231544E+00
         -1   -1    0    0    0  501 -0.00000000000E+00  0.00000000000E+00  0.12793336996E+03  0.12793336996E+03  0.00000000000E+00 0.  1.
          1   -1    0    0  501    0  0.00000000000E+00 -0.00000000000E+00 -0.22049369630E+03  0.22049369630E+03  0.00000000000E+00 0. -1.
         23    2    1    2    0    0  0.82705691081E+02 -0.46939522353E+02  0.39853313343E+02  0.16210898113E+03  0.12508990799E+03 0.  0.
          5    1    3    3  502    0  0.93097294849E+02  0.97932296624E+01  0.45196738850E+02  0.10403475986E+03  0.41800000000E+01 0.  1.
         -5    1    3    3    0  502 -0.10391603769E+02 -0.56732752015E+02 -0.53434255064E+01  0.58074221271E+02  0.41800000000E+01 0.  1.
        -11    1    1    2    0    0 -0.37751876181E+02  0.44010920844E+02 -0.14036665464E+02  0.59658974900E+02  0.00000000000E+00 0.  1.
         11    1    1    2    0    0 -0.44953814900E+02  0.29286015086E+01 -0.11837697422E+03  0.12665911024E+03  0.00000000000E+00 0. -1.
</event>
<event>
 7    1  0.6671761E-006  0.1412186E+03  0.7561462E-02  0.1211699E+00
          2   -1    0    0  501    0  0.00000000000E+00  0.00000000000E+00  0.27010055067E+03  0.27010055067E+03  0.00000000000E+00 0. -1.
         -2   -1    0    0    0  501 -0.00000000000E+00 -0.00000000000E+00 -0.14036570230E+03  0.14036570230E+03  0.00000000000E+00 0.  1.
         23    2    1    2    0    0 -0.60291743402E+02 -0.86875485550E+02 -0.59369243334E+02  0.17422359488E+03  0.12508680845E+03 0.  0.
          5    1    3    3  502    0 -0.86802850196E+02 -0.37518237810E+02 -0.30981773318E+01  0.94707043419E+02  0.41800000000E+01 0. -1.
         -5    1    3    3    0  502  0.26511106794E+02 -0.49357247740E+02 -0.56271066003E+02  0.79516551465E+02  0.41800000000E+01 0. -1.
        -11    1    1    2    0    0 -0.53315825916E+00  0.67872197729E+02  0.14071121921E+03  0.15622601157E+03  0.00000000000E+00 0. -1.
         11    1    1    2    0    0  0.60824901661E+02  0.19003287821E+02  0.48392872499E+02  0.80016646510E+02  0.00000000000E+00 0.  1.
</event>
<event>
 7    1  0.6671761E-006  0.1550106E+03  0.7561462E-02  0.1194448E+00
         -2   -1    0    0    0  501 -0.00000000000E+00  0.00000000000E+00  0.22002877827E+03  0.22002877827E+03  0.00000000000E+00 0.  1.
          2   -1    0    0  501    0  0.00000000000E+00 -0.00000000000E+00 -0.14579221101E+03  0.14579221101E+03  0.00000000000E+00 0. -1.
         23    2    1    2    0    0  0.48969582601E+02  0.12421076134E+03  0.89591013267E+02  0.20371530024E+03  0.12508813149E+03 0.  0.
          5    1    3    3  502    0 -0.17811624156E+02  0.26036146614E+02 -0.23600802842E+02  0.39618243025E+02  0.41800000000E+01 0. -1.
         -5    1    3    3    0  502  0.66781206756E+02  0.98174614722E+02  0.11319181611E+03  0.16409705721E+03  0.41800000000E+01 0. -1.
        -11    1    1    2    0    0  0.92326931885E+01 -0.92791823257E+02 -0.21446759378E+02  0.95684526308E+02  0.00000000000E+00 0.  1.
         11    1    1    2    0    0 -0.58202275789E+02 -0.31418938079E+02  0.60923133760E+01  0.66421162737E+02  0.00000000000E+00 0. -1.
</event>
<event>
 7    1  0.6671761E-006  0.1238543E+03  0.7561462E-02  0.1236871E+00
         -3   -1    0    0    0  501 -0.00000000000E+00  0.00000000000E+00  0.51565623159E+03  0.51565623159E+03  0.00000000000E+00 0.  1.
          3   -1    0    0  501    0  0.00000000000E+00 -0.00000000000E+00 -0.30429543725E+02  0.30429543725E+02  0.00000000000E+00 0. -1.
         23    2    1    2    0    0 -0.22273696580E+02 -0.55321184996E+02  0.23198941489E+03  0.27022766294E+03  0.12508936856E+03 0.  0.
          5    1    3    3  502    0  0.20144599496E+02  0.33807841804E+02  0.73151709379E+02  0.83171028858E+02  0.41800000000E+01 0.  1.
         -5    1    3    3    0  502 -0.42418296076E+02 -0.89129026799E+02  0.15883770552E+03  0.18705663408E+03  0.41800000000E+01 0.  1.
        -11    1    1    2    0    0  0.31438343651E+02 -0.17472705681E+02  0.87822217529E+02  0.94902090531E+02  0.00000000000E+00 0.  1.
         11    1    1    2    0    0 -0.91646470713E+01  0.72793890676E+02  0.16541505544E+03  0.18095602185E+03  0.00000000000E+00 0. -1.
</event>
<event>
 7    1  0.6671761E-006  0.1247671E+03  0.7561462E-02  0.1235434E+00
         -3   -1    0    0    0  501 -0.00000000000E+00  0.00000000000E+00  0.51959241901E+02  0.51959241901E+02  0.00000000000E+00 0.  1.
          3   -1    0    0  501    0  0.00000000000E+00 -0.00000000000E+00 -0.37480409335E+03  0.37480409335E+03  0.00000000000E+00 0. -1.
         23    2    1    2    0    0 -0.69605347783E+02  0.27325476988E+02 -0.10730129559E+03  0.18097850370E+03  0.12509222452E+03 0.  0.
          5    1    3    3  502    0 -0.64024554946E+02 -0.32205967390E+02 -0.96177775815E+02  0.12001668606E+03  0.41800000000E+01 0. -1.
         -5    1    3    3    0  502 -0.55807928373E+01  0.59531444379E+02 -0.11123519773E+02  0.60961817645E+02  0.41800000000E+01 0. -1.
        -11    1    1    2    0    0 -0.19430651436E+02 -0.20901552072E+02 -0.60130528342E+02  0.66559037951E+02  0.00000000000E+00 0. -1.
         11    1    1    2    0    0  0.89035999218E+02 -0.64239249164E+01 -0.15541302752E+03  0.17922579360E+03  0.00000000000E+00 0.  1.
</event>
<event>
 7    1  0.6671761E-006  0.7056306E+02  0.7561462E-02  0.1358189E+00
          1   -1    0    0  501    0  0.00000000000E+00  0.00000000000E+00  0.11042671572E+03  0.11042671572E+03  0.00000000000E+00 0. -1.
         -1   -1    0    0    0  501 -0.00000000000E+00 -0.00000000000E+00 -0.13938314957E+03  0.13938314957E+03  0.00000000000E+00 0.  1.
         23    2    1    2    0    0 -0.14605464087E+02 -0.10693141683E+02 -0.73349759447E+02  0.14611347986E+03  0.12506517871E+03 0.  0.
          5    1    3    3  502    0  0.24656084319E+02  0.12740899513E+02  0.24992349613E+02  0.37581151573E+02  0.41800000000E+01 0.  1.
         -5    1    3    3    0  502 -0.39261548407E+02 -0.23434041196E+02 -0.98342109060E+02  0.10853232829E+03  0.41800000000E+01 0.  1.
        -11    1    1    2    0    0  0.25506971359E+02 -0.21372564360E+02 -0.14071420531E+02  0.36130277760E+02  0.00000000000E+00 0.  1.
         11    1    1    2    0    0 -0.10901507272E+02  0.32065706043E+02  0.58464746132E+02  0.67566107666E+02  0.00000000000E+00 0. -1.
</event>
<event>
 7    1  0.8821606E-006  0.1951495E+03  0.7561462E-02  0.1153897E+00
          1   -1    0    0  501    0  0.00000000000E+00  0.00000000000E+00  0.81610540822E+03  0.81610540822E+03  0.00000000000E+00 0. -1.
         -1   -1    0    0    0  501 -0.00000000000E+00 -0.00000000000E+00 -0.49409728291E+02  0.49409728291E+02  0.00000000000E+00 0.  1.
         23    2    1    2    0    0 -0.69393311247E+02  0.15234059761E+03  0.35262732936E+03  0.40989823294E+03  0.12508972232E+03 0.  0.
          5    1    3    3  502    0 -0.10165931092E+03  0.96910318357E+02  0.27736428923E+03  0.31092546798E+03  0.41800000000E+01 0. -1.
         -5    1    3    3    0  502  0.32265999678E+02  0.55430279251E+02  0.75263040134E+02  0.98972764958E+02  0.41800000000E+01 0. -1.
        -11    1    1    2    0    0  0.19430154572E+01 -0.10030500500E+03  0.17359101442E+03  0.20049615863E+03  0.00000000000E+00 0. -1.
         11    1    1    2    0    0  0.67450295790E+02 -0.52035592608E+02  0.24047733614E+03  0.25512074494E+03  0.00000000000E+00 0.  1.
</event>
<event>
 7    1  0.6671761E-006  0.9347197E+02  0.7561462E-02  0.1294655E+00
         -1   -1    0    0    0  501 -0.00000000000E+00  0.00000000000E+00  0.10620611182E+03  0.10620611182E+03  0.00000000000E+00 0.  1.
          1   -1    0    0  501    0  0.00000000000E+00 -0.00000000000E+00 -0.12045330742E+03  0.12045330742E+03  0.00000000000E+00 0. -1.
         23    2    1    2    0    0  0.86724931467E+01 -0.23493638619E+02  0.13426599061E+02  0.12827418123E+03  0.12508728479E+03 0.  0.
          5    1    3    3  502    0 -0.16048093438E+02  0.29575608835E+02 -0.37507197271E+02  0.50562042958E+02  0.41800000000E+01 0.  1.
         -5    1    3    3    0  502  0.24720586585E+02 -0.53069247455E+02  0.50933796332E+02  0.77712138275E+02  0.41800000000E+01 0.  1.
        -11    1    1    2    0    0 -0.35031251162E+02 -0.22284371156E+02 -0.14064483447E+02  0.43835960699E+02  0.00000000000E+00 0. -1.
         11    1    1    2    0    0  0.26358758015E+02  0.45778009775E+02 -0.13609311214E+02  0.54549277308E+02  0.00000000000E+00 0.  1.
</event>
<event>
 7    1  0.6671761E-006  0.1662346E+03  0.7561462E-02  0.1181832E+00
         -2   -1    0    0    0  501 -0.00000000000E+00  0.00000000000E+00  0.61512819731E+02  0.61512819731E+02  0.00000000000E+00 0.  1.
          2   -1    0    0  501    0  0.00000000000E+00 -0.00000000000E+00 -0.62770006748E+03  0.62770006748E+03  0.00000000000E+00 0. -1.
         23    2    1    2    0    0 -0.10554180135E+03 -0.97548211166E+02 -0.15900566050E+03  0.24816329810E+03  0.12508995611E+03 0.  0.
          5    1    3    3  502    0  0.49545134713E+01 -0.74021455259E+02 -0.41514580583E+02  0.85115544076E+02  0.41800000000E+01 0. -1.
         -5    1    3    3    0  502 -0.11049631482E+03 -0.23526755907E+02 -0.11749107992E+03  0.16304775402E+03  0.41800000000E+01 0. -1.
        -11    1    1    2    0    0  0.50739930370E+02  0.60516395977E+02 -0.10316909675E+03  0.12992550650E+03  0.00000000000E+00 0.  1.
         11    1    1    2    0    0  0.54801870977E+02  0.37031815189E+02 -0.30401249050E+03  0.31112408261E+03  0.00000000000E+00 0. -1.
</event>
<event>
 7    1  0.6671761E-006  0.1187434E+03  0.7561462E-02  0.1245185E+00
          1   -1    0    0  501    0  0.00000000000E+00  0.00000000000E+00  0.44214281407E+03  0.44214281407E+03  0.00000000000E+00 0. -1.
         -1   -1    0    0    0  501 -0.00000000000E+00 -0.00000000000E+00 -0.47186632147E+02  0.47186632147E+02  0.00000000000E+00 0.  1.
         23    2    1    2    0    0 -0.46606899212E+02  0.73733237310E+02  0.27733816375E+03  0.31650077677E+03  0.12508993281E+03 0.  0.
          5    1    3    3  502    0  0.39544091333E+02  0.18193792712E+02  0.12847151562E+03  0.13570980796E+03  0.41800000000E+01 0. -1.
         -5    1    3    3    0  502 -0.86150990544E+02  0.55539444598E+02  0.14886664813E+03  0.18079096881E+03  0.41800000000E+01 0. -1.
        -11    1    1    2    0    0  0.10184601620E+02 -0.40850336897E+02 -0.34027824997E+01  0.42238075992E+02  0.00000000000E+00 0.  1.
         11    1    1    2    0    0  0.36422297592E+02 -0.32882900413E+02  0.12102080068E+03  0.13059059345E+03  0.00000000000E+00 0. -1.
</event>
<event>
 7    1  0.6671761E-006  0.1078224E+03  0.7561462E-02  0.1264656E+00
         -1   -1    0    0    0  501 -0.00000000000E+00  0.00000000000E+00  0.30332447066E+02  0.30332447066E+02  0.00000000000E+00 0.  1.
          1   -1    0    0  501    0  0.00000000000E+00 -0.00000000000E+00 -0.67933987190E+03  0.67933987190E+03  0.00000000000E+00 0. -1.
         23    2    1    2    0    0  0.90252758424E+02 -0.24010473295E+02 -0.30878080058E+03  0.34599726067E+03  0.12508580397E+03 0.  0.
          5    1    3    3  502    0  0.29898422525E+02 -0.19786539632E+02 -0.27342570515E+03  0.27579795405E+03  0.41800000000E+01 0. -1.
         -5    1    3    3    0  502  0.60354335900E+02 -0.42239336628E+01 -0.35355095425E+02  0.70199306621E+02  0.41800000000E+01 0. -1.
        -11    1    1    2    0    0  0.54619800948E+01  0.22523826244E+02 -0.13804127992E+03  0.13997339367E+03  0.00000000000E+00 0. -1.
         11    1    1    2    0    0 -0.95714738519E+02  0.14866470504E+01 -0.20218534434E+03  0.22370166462E+03  0.00000000000E+00 0.  1.
</event>
<event>
 7    1  0.6671761E-006  0.1087779E+03  0.7561462E-02  0.1262850E+00
         -1   -1    0    0    0  501 -0.00000000000E+00  0.00000000000E+00  0.88383903537E+03  0.88383903537E+03  0.00000000000E+00 0.  1.
          1   -1    0    0  501    0  0.00000000000E+00 -0.00000000000E+00 -0.16630676334E+02  0.16630676334E+02  0.00000000000E+00 0. -1.
         23    2    1    2    0    0 -0.42176359743E+01 -0.45585932405E+02  0.60588586867E+03  0.62035716251E+03  0.12509779187E+03 0.  0.
          5    1    3    3  502    0 -0.34307317752E+02  0.23975857562E+02  0.37413488788E+03  0.37649199265E+03  0.41800000000E+01 0.  1.
         -5    1    3    3    0  502  0.30089681777E+02 -0.69561789968E+02  0.23175098079E+03  0.24386516986E+03  0.41800000000E+01 0.  1.
        -11    1    1    2    0    0  0.21103440109E+02  0.68184942924E+02  0.20595247388E+03  0.21797009685E+03  0.00000000000E+00 0. -1.
         11    1    1    2    0    0 -0.16885804134E+02 -0.22599010519E+02  0.55370016487E+02  0.62142452345E+02  0.00000000000E+00 0.  1.
</event>
<event>
 7    1  0.6671761E-006  0.1050339E+03  0.7561462E-02  0.1270053E+00
         -1   -1    0    0    0  501 -0.00000000000E+00  0.00000000000E+00  0.20372499228E+03  0.20372499228E+03  0.00000000000E+00 0.  1.
          1   -1    0    0  501    0  0.00000000000E+00 -0.00000000000E+00 -0.60687502154E+02  0.60687502154E+02  0.00000000000E+00 0. -1.
         23    2    1    2    0    0  0.72027784086E+01  0.42242889357E+02  0.66387191667E+02  0.13717503513E+03  0.11213112560E+03 0.  0.
          5    1    3    3  502    0  0.64514163752E+01  0.77071775294E+02  0.66504154272E+02  0.10208797312E+03  0.41800000000E+01 0. -1.
         -5    1    3    3    0  502  0.75136203339E+00 -0.34828885938E+02 -0.11696260504E+00  0.35087062014E+02  0.41800000000E+01 0.  1.
        -11    1    1    2    0    0  0.15403069158E+02  0.23448227516E+02  0.71117364152E+01  0.28942195977E+02  0.00000000000E+00 0. -1.
         11    1    1    2    0    0 -0.22605847567E+02 -0.65691116873E+02  0.69538562040E+02  0.98295263318E+02  0.00000000000E+00 0.  1.
</event>
<event>
 7    1  0.6671761E-006  0.1571690E+03  0.7561462E-02  0.1191931E+00
          1   -1    0    0  501    0  0.00000000000E+00  0.00000000000E+00  0.70316701278E+03  0.70316701278E+03  0.00000000000E+00 0. -1.
         -1   -1    0    0    0  501 -0.00000000000E+00 -0.00000000000E+00 -0.38880025982E+02  0.38880025982E+02  0.00000000000E+00 0.  1.
         23    2    1    2    0    0  0.13455286147E+02  0.12169445949E+03  0.28384240309E+03  0.32988347010E+03  0.11517815702E+03 0.  0.
          5    1    3    3  502    0 -0.44710346315E+02  0.49194276966E+02  0.69738960721E+02  0.96436958664E+02  0.41800000000E+01 0. -1.
         -5    1    3    3    0  502  0.58165632462E+02  0.72500182521E+02  0.21410344237E+03  0.23344651144E+03  0.41800000000E+01 0.  1.
        -11    1    1    2    0    0  0.38124561628E+02 -0.79045066078E+02  0.16973659248E+03  0.19108143682E+03  0.00000000000E+00 0.  1.
         11    1    1    2    0    0 -0.51579847775E+02 -0.42649393409E+02  0.21070799122E+03  0.22108213184E+03  0.00000000000E+00 0. -1.
</event>
<event>
 7    1  0.6671761E-006  0.2071934E+03  0.7561462E-02  0.1143808E+00
         -3   -1    0    0    0  501 -0.00000000000E+00  0.00000000000E+00  0.30067072839E+02  0.30067072839E+02  0.00000000000E+00 0.  1.
          3   -1    0    0  501    0  0.00000000000E+00 -0.00000000000E+00 -0.16990510165E+04  0.16990510165E+04  0.00000000000E+00 0. -1.
         23    2    1    2    0    0 -0.16030694516E+03 -0.11563210273E+03 -0.87545531310E+03  0.90616791030E+03  0.12509666885E+03 0.  0.
          5    1    3    3  502    0 -0.91158093097E+02 -0.10513453237E+03 -0.36013095724E+03  0.38610211939E+03  0.41800000000E+01 0. -1.
         -5    1    3    3    0  502 -0.69148852065E+02 -0.10497570363E+02 -0.51532435586E+03  0.52006579090E+03  0.41800000000E+01 0. -1.
        -11    1    1    2    0    0  0.11391934329E+03  0.49218168677E+02 -0.60754223188E+03  0.62008677491E+03  0.00000000000E+00 0. -1.
         11    1    1    2    0    0  0.46387601877E+02  0.66413934055E+02 -0.18598639872E+03  0.20286340417E+03  0.00000000000E+00 0.  1.
</event>
<event>
 7    1  0.6671761E-006  0.1248723E+03  0.7561462E-02  0.1235269E+00
          1   -1    0    0  501    0  0.00000000000E+00  0.00000000000E+00  0.26075829971E+03  0.26075829971E+03  0.00000000000E+00 0. -1.
         -1   -1    0    0    0  501 -0.00000000000E+00 -0.00000000000E+00 -0.72315139451E+02  0.72315139451E+02  0.00000000000E+00 0.  1.
         23    2    1    2    0    0  0.61803351839E+02 -0.38671204378E+02  0.64810276776E+02  0.15862737600E+03  0.12508859298E+03 0.  0.
          5    1    3    3  502    0  0.42212361207E+02 -0.81229768273E+02  0.20281604689E+02  0.93856137685E+02  0.41800000000E+01 0. -1.
         -5    1    3    3    0  502  0.19590990633E+02  0.42558563895E+02  0.44528672088E+02  0.64771238314E+02  0.41800000000E+01 0. -1.
        -11    1    1    2    0    0 -0.13779431315E+01 -0.23983834212E+02  0.65518458804E+02  0.69783891227E+02  0.00000000000E+00 0.  1.
         11    1    1    2    0    0 -0.60425408708E+02  0.62655038590E+02  0.58114424677E+02  0.10466217193E+03  0.00000000000E+00 0. -1.
</event>
<event>
 7    1  0.6671761E-006  0.9163962E+02  0.7561462E-02  0.1298929E+00
          2   -1    0    0  501    0  0.00000000000E+00  0.00000000000E+00  0.18736178551E+03  0.18736178551E+03  0.00000000000E+00 0. -1.
         -2   -1    0    0    0  501 -0.00000000000E+00 -0.00000000000E+00 -0.68045129262E+02  0.68045129262E+02  0.00000000000E+00 0.  1.
         23    2    1    2    0    0 -0.45064038621E+01  0.82451416458E+01  0.36014485389E+02  0.13051258772E+03  0.12509277501E+03 0.  0.
          5    1    3    3  502    0 -0.58236858624E+02  0.15729786557E+02 -0.73799481449E+01  0.60917106974E+02  0.41800000000E+01 0. -1.
         -5    1    3    3    0  502  0.53730454762E+02 -0.74846449113E+01  0.43394433534E+02  0.69595480745E+02  0.41800000000E+01 0. -1.
        -11    1    1    2    0    0  0.30089281832E+02 -0.23884178330E+02  0.22596434083E+01  0.38482786334E+02  0.00000000000E+00 0.  1.
         11    1    1    2    0    0 -0.25582877970E+02  0.15639036685E+02  0.81042527449E+02  0.86411540716E+02  0.00000000000E+00 0. -1.
</event>
<event>
 7    1  0.6671761E-006  0.1147176E+03  0.7561462E-02  0.1252075E+00
         -2   -1    0    0    0  501 -0.00000000000E+00  0.00000000000E+00  0.37855547935E+02  0.37855547935E+02  0.00000000000E+00 0.  1.
          2   -1    0    0  501    0  0.00000000000E+00 -0.00000000000E+00 -0.52980625586E+03  0.52980625586E+03  0.00000000000E+00 0. -1.
         23    2    1    2    0    0 -0.17989834240E+02  0.42464898648E+02 -0.12063836163E+03  0.17979523305E+03  0.12508321140E+03 0.  0.
          5    1    3    3  502    0 -0.16664936354E+02  0.82733887389E+02 -0.49493519438E+02  0.97926998793E+02  0.41800000000E+01 0. -1.
         -5    1    3    3    0  502 -0.13248978860E+01 -0.40268988741E+02 -0.71144842197E+02  0.81868234254E+02  0.41800000000E+01 0. -1.
        -11    1    1    2    0    0 -0.26403294412E+02 -0.52634776486E+02 -0.13621255563E+03  0.14839613864E+03  0.00000000000E+00 0.  1.
         11    1    1    2    0    0  0.44393128652E+02  0.10169877838E+02 -0.23509979066E+03  0.23947043211E+03  0.00000000000E+00 0. -1.
</event>
<event>
 7    1  0.6671761E-006  0.1151257E+03  0.7561462E-02  0.1251362E+00
         -1   -1    0    0    0  501 -0.00000000000E+00  0.00000000000E+00  0.72871250243E+03  0.72871250243E+03  0.00000000000E+00 0.  1.
          1   -1    0    0  501    0  0.00000000000E+00 -0.00000000000E+00 -0.29799892234E+02  0.29799892234E+02  0.00000000000E+00 0. -1.
         23    2    1    2    0    0  0.76352253089E+02  0.52165774022E+02  0.47062068688E+03  0.49566258830E+03  0.12508651400E+03 0.  0.
          5    1    3    3  502    0  0.75708743176E+02 -0.88654607340E+01  0.37087314966E+03  0.37864861775E+03  0.41800000000E+01 0. -1.
         -5    1    3    3    0  502  0.64350991247E+00  0.61031234756E+02  0.99747537226E+02  0.11701397055E+03  0.41800000000E+01 0. -1.
        -11    1    1    2    0    0 -0.40902987808E+02 -0.23728401515E+02  0.22993190957E+02  0.52581158987E+02  0.00000000000E+00 0. -1.
         11    1    1    2    0    0 -0.35449265281E+02 -0.28437372507E+02  0.20529873236E+03  0.21026864738E+03  0.00000000000E+00 0.  1.
</event>
<event>
 7    1  0.6671761E-006  0.9977795E+02  0.7561462E-02  0.1280764E+00
         -1   -1    0    0    0  501 -0.00000000000E+00  0.00000000000E+00  0.64799946759E+03  0.64799946759E+03  0.00000000000E+00 0.  1.
          1   -1    0    0  501    0  0.00000000000E+00 -0.00000000000E+00 -0.44887907137E+02  0.44887907137E+02  0.00000000000E+00 0. -1.
         23    2    1    2    0    0  0.98384096851E+01 -0.78344450659E+02  0.53899757340E+03  0.55892940127E+03  0.12509613991E+03 0.  0.
          5    1    3    3  502    0  0.54079501240E+01 -0.45621994798E+01 -0.51962752434E+01  0.97228218662E+01  0.41800000000E+01 0. -1.
         -5    1    3    3    0  502  0.44304595610E+01 -0.73782251179E+02  0.54419384864E+03  0.54920657940E+03  0.41800000000E+01 0. -1.
        -11    1    1    2    0    0 -0.45077737641E+02  0.66082528583E+02  0.48214380321E+02  0.93399836640E+02  0.00000000000E+00 0.  1.
         11    1    1    2    0    0  0.35239327956E+02  0.12261922076E+02  0.15899606737E+02  0.40558136818E+02  0.00000000000E+00 0. -1.
</event>
<event>
 7    1  0.8753750E-006  0.1116660E+03  0.7561462E-02  0.1257516E+00
         -1   -1    0    0    0  501 -0.00000000000E+00  0.00000000000E+00  0.39406936042E+02  0.39406936042E+02  0.00000000000E+00 0.  1.
          1   -1    0    0  501    0  0.00000000000E+00 -0.00000000000E+00 -0.51822060377E+03  0.51822060377E+03  0.00000000000E+00 0. -1.
         23    2    1    2    0    0  0.18342871044E+02  0.89633479106E+02 -0.23723116791E+03  0.28336689726E+03  0.12509016725E+03 0.  0.
          5    1    3    3  502    0  0.26879782392E+01  0.60081530056E+02 -0.19971433867E+02  0.63508629741E+02  0.41800000000E+01 0.  1.
         -5    1    3    3    0  502  0.15654892805E+02  0.29551949050E+02 -0.21725973404E+03  0.21985826752E+03  0.41800000000E+01 0.  1.
        -11    1    1    2    0    0 -0.55731068713E+02 -0.56961816742E+02 -0.16022516614E+03  0.17894888782E+03  0.00000000000E+00 0. -1.
         11    1    1    2    0    0  0.37388197669E+02 -0.32671662365E+02 -0.81357333675E+02  0.95311754728E+02  0.00000000000E+00 0.  1.
</event>
<event>
 7    1  0.6671761E-006  0.9935795E+02  0.7561462E-02  0.1281652E+00
          4   -1    0    0  501    0  0.00000000000E+00  0.00000000000E+00  0.18346902891E+02  0.18346902891E+02  0.00000000000E+00 0. -1.
         -4   -1    0    0    0  501 -0.00000000000E+00 -0.00000000000E+00 -0.91302201751E+03  0.91302201751E+03  0.00000000000E+00 0.  1.
         23    2    1    2    0    0  0.45612644519E+02 -0.37106517897E+02 -0.63660682271E+03  0.65143693035E+03  0.12507765781E+03 0.  0.
          5    1    3    3  502    0 -0.24744307223E+02 -0.38976496446E+02 -0.10004943126E+03  0.11026699012E+03  0.41800000000E+01 0.  1.
         -5    1    3    3    0  502  0.70356951742E+02  0.18699785490E+01 -0.53655739146E+03  0.54116994023E+03  0.41800000000E+01 0.  1.
        -11    1    1    2    0    0 -0.57769342201E+02  0.20554721318E+02 -0.25073781534E+03  0.25812641381E+03  0.00000000000E+00 0.  1.
         11    1    1    2    0    0  0.12156697682E+02  0.16551796579E+02 -0.73304765648E+01  0.21805576241E+02  0.00000000000E+00 0. -1.
</event>
<event>
 7    1  0.6671761E-006  0.9147852E+02  0.7561462E-02  0.1299310E+00
         -3   -1    0    0    0  501 -0.00000000000E+00  0.00000000000E+00  0.12382804770E+03  0.12382804770E+03  0.00000000000E+00 0.  1.
          3   -1    0    0  501    0  0.00000000000E+00 -0.00000000000E+00 -0.10877565807E+03  0.10877565807E+03  0.00000000000E+00 0. -1.
         23    2    1    2    0    0 -0.24305427562E+02 -0.12655398442E+02  0.41588126281E+02  0.13464251016E+03  0.12509244732E+03 0.  0.
          5    1    3    3  502    0  0.28404028042E+02  0.13570629448E+02  0.64050855109E+02  0.71490805232E+02  0.41800000000E+01 0.  1.
         -5    1    3    3    0  502 -0.52709455603E+02 -0.26226027890E+02 -0.22462728828E+02  0.63151704928E+02  0.41800000000E+01 0.  1.
        -11    1    1    2    0    0 -0.32269720293E+02  0.14935731000E+02 -0.30641356976E+00  0.35559876231E+02  0.00000000000E+00 0. -1.
         11    1    1    2    0    0  0.56575147854E+02 -0.22803325586E+01 -0.26229323075E+02  0.62401319379E+02  0.00000000000E+00 0.  1.
</event>
<event>
 6    1  0.6671761E-006  0.1985634E+03  0.7561462E-02  0.1150957E+00
          1   -1    0    0  501    0  0.00000000000E+00  0.00000000000E+00  0.25368345491E+03  0.25368345491E+03  0.00000000000E+00 0. -1.
         -1   -1    0    0    0  501 -0.00000000000E+00 -0.00000000000E+00 -0.17795590969E+03  0.17795590969E+03  0.00000000000E+00 0.  1.
          5    1    1    2  502    0  0.23068741358E+02 -0.51571862797E+02  0.19681031089E+02  0.59971987168E+02  0.41800000000E+01 0. -1.
         -5    1    1    2    0  502 -0.75861527526E+02  0.18327182403E+03  0.25239234158E+02  0.19999506040E+03  0.41800000000E+01 0.  1.
        -11    1    1    2    0    0  0.33706270305E+02 -0.93218913819E+02  0.63474853708E+02  0.11770699047E+03  0.00000000000E+00 0. -1.
         11    1    1    2    0    0  0.19086515863E+02 -0.38481047413E+02 -0.32667573740E+02  0.53965326570E+02  0.00000000000E+00 0.  1.
</event>
<event>
 7    1  0.6671761E-006  0.1188798E+03  0.7561462E-02  0.1244957E+00
          1   -1    0    0  501    0  0.00000000000E+00  0.00000000000E+00  0.82885687303E+02  0.82885687303E+02  0.00000000000E+00 0. -1.
         -1   -1    0    0    0  501 -0.00000000000E+00 -0.00000000000E+00 -0.19128739575E+03  0.19128739575E+03  0.00000000000E+00 0.  1.
         23    2    1    2    0    0  0.58591924486E+02 -0.52103941970E+01 -0.85389630242E+02  0.16247700797E+03  0.12508887777E+03 0.  0.
          5    1    3    3  502    0  0.92457198929E+02  0.81145423891E+01 -0.84879261694E+02  0.12584172956E+03  0.41800000000E+01 0.  1.
         -5    1    3    3    0  502 -0.33865274443E+02 -0.13324936586E+02 -0.51036854791E+00  0.36635278410E+02  0.41800000000E+01 0.  1.
        -11    1    1    2    0    0  0.16572562975E+02 -0.22644797358E+02 -0.12956046380E+02  0.30907860306E+02  0.00000000000E+00 0. -1.
         11    1    1    2    0    0 -0.75164487461E+02  0.27855191555E+02 -0.10056031828E+02  0.80788214784E+02  0.00000000000E+00 0.  1.
</event>
<event>
 7    1  0.6671761E-006  0.1070976E+03  0.7561462E-02  0.1266041E+00
         -3   -1    0    0    0  501 -0.00000000000E+00  0.00000000000E+00  0.34529990915E+02  0.34529990915E+02  0.00000000000E+00 0.  1.
          3   -1    0    0  501    0  0.00000000000E+00 -0.00000000000E+00 -0.46740649758E+03  0.46740649758E+03  0.00000000000E+00 0. -1.
         23    2    1    2    0    0  0.21295354834E+02  0.43706241588E+02 -0.15408823026E+03  0.20434086410E+03  0.12509307872E+03 0.  0.
          5    1    3    3  502    0  0.41462937059E+02  0.67801576052E+02 -0.46485250904E+02  0.92166044812E+02  0.41800000000E+01 0. -1.
         -5    1    3    3    0  502 -0.20167582225E+02 -0.24095334464E+02 -0.10760297936E+03  0.11217481929E+03  0.41800000000E+01 0. -1.
        -11    1    1    2    0    0  0.87489028935E+01  0.25771823909E+02 -0.55268180034E+02  0.61606021894E+02  0.00000000000E+00 0.  1.
         11    1    1    2    0    0 -0.30044257727E+02 -0.69478065497E+02 -0.22352009637E+03  0.23598960250E+03  0.00000000000E+00 0. -1.
</event>
<event>
 7    1  0.6671761E-006  0.1021844E+03  0.7561462E-02  0.1275768E+00
         -1   -1    0    0    0  501 -0.00000000000E+00  0.00000000000E+00  0.51860764990E+02  0.51860764990E+02  0.00000000000E+00 0.  1.
          1   -1    0    0  501    0  0.00000000000E+00 -0.00000000000E+00 -0.37545528543E+03  0.37545528543E+03  0.00000000000E+00 0. -1.
         23    2    1    2    0    0  0.21791992051E+02  0.80922737306E+02 -0.13719093801E+03  0.20369700698E+03  0.12509091434E+03 0.  0.
          5    1    3    3  502    0  0.29345524219E+01 -0.18374436322E+02 -0.90133618309E+02  0.92129110804E+02  0.41800000000E+01 0.  1.
         -5    1    3    3    0  502  0.18857439629E+02  0.99297173628E+02 -0.47057319700E+02  0.11156789618E+03  0.41800000000E+01 0.  1.
        -11    1    1    2    0    0 -0.34916710168E+01 -0.26342094600E+02  0.19701279505E+01  0.26645433352E+02  0.00000000000E+00 0.  1.
         11    1    1    2    0    0 -0.18300321034E+02 -0.54580642707E+02 -0.18837371038E+03  0.19697361009E+03  0.00000000000E+00 0. -1.
</event>
<event>
 7    1  0.6671761E-006  0.1758759E+03  0.7561462E-02  0.1171855E+00
          1   -1    0    0  501    0  0.00000000000E+00  0.00000000000E+00  0.63201589671E+02  0.63201589671E+02  0.00000000000E+00 0. -1.
         -1   -1    0    0    0  501 -0.00000000000E+00 -0.00000000000E+00 -0.58712910619E+03  0.58712910619E+03  0.00000000000E+00 0.  1.
         23    2    1    2    0    0 -0.55365993776E+02  0.14438440597E+03 -0.33857925301E+03  0.39268548786E+03  0.12511487463E+03 0.  0.
          5    1    3    3  502    0  0.19883251657E+02  0.66166314611E+02 -0.22552634754E+03  0.23590873388E+03  0.41800000000E+01 0. -1.
         -5    1    3    3    0  502 -0.75249245432E+02  0.78218091362E+02 -0.11305290547E+03  0.15677675399E+03  0.41800000000E+01 0. -1.
        -11    1    1    2    0    0 -0.87017317191E+01  0.59224561077E+01 -0.31534659477E+02  0.33245005183E+02  0.00000000000E+00 0.  1.
         11    1    1    2    0    0  0.64067725495E+02 -0.15030686208E+03 -0.15381360403E+03  0.22440020282E+03  0.00000000000E+00 0. -1.
</event>
<event>
 7    1  0.6671761E-006  0.1234318E+03  0.7561462E-02  0.1237541E+00
          2   -1    0    0  501    0  0.00000000000E+00  0.00000000000E+00  0.43083985091E+03  0.43083985091E+03  0.00000000000E+00 0. -1.
         -2   -1    0    0    0  501 -0.00000000000E+00 -0.00000000000E+00 -0.54423505972E+02  0.54423505972E+02  0.00000000000E+00 0.  1.
         23    2    1    2    0    0  0.83253425176E+02  0.56341574111E+02  0.15086924130E+03  0.22026286369E+03  0.12509474559E+03 0.  0.
          5    1    3    3  502    0  0.58399845974E+02  0.85338198556E+02  0.55474420739E+02  0.11742245909E+03  0.41800000000E+01 0. -1.
         -5    1    3    3    0  502  0.24853579203E+02 -0.28996624446E+02  0.95394820556E+02  0.10284040460E+03  0.41800000000E+01 0. -1.
        -11    1    1    2    0    0 -0.60559221343E+02 -0.23339805726E+02  0.42396659687E+02  0.77521884482E+02  0.00000000000E+00 0.  1.
         11    1    1    2    0    0 -0.22694203834E+02 -0.33001768385E+02  0.18315044396E+03  0.18747860872E+03  0.00000000000E+00 0. -1.
</event>
<event>
 7    1  0.6671761E-006  0.1083406E+03  0.7561462E-02  0.1263674E+00
          2   -1    0    0  501    0  0.00000000000E+00  0.00000000000E+00  0.58847850445E+03  0.58847850445E+03  0.00000000000E+00 0.  1.
         -2   -1    0    0    0  501 -0.00000000000E+00 -0.00000000000E+00 -0.28064179169E+02  0.28064179169E+02  0.00000000000E+00 0. -1.
         23    2    1    2    0    0  0.43481052594E+02 -0.18844098395E+02  0.19335423091E+03  0.23511422889E+03  0.12508852879E+03 0.  0.
          5    1    3    3  502    0  0.27979540042E+02  0.41688446800E+02  0.15183571115E+03  0.15997605083E+03  0.41800000000E+01 0. -1.
         -5    1    3    3    0  502  0.15501512552E+02 -0.60532545195E+02  0.41518519761E+02  0.75138178061E+02  0.41800000000E+01 0. -1.
        -11    1    1    2    0    0 -0.12495615493E+02  0.54801704664E+02  0.19445327807E+03  0.20241404247E+03  0.00000000000E+00 0. -1.
         11    1    1    2    0    0 -0.30985437100E+02 -0.35957606269E+02  0.17260681630E+03  0.17901441226E+03  0.00000000000E+00 0.  1.
</event>
<event>
 6    1  0.6671761E-006  0.2927860E+03  0.7561462E-02  0.1088903E+00
          1   -1    0    0  501    0  0.00000000000E+00  0.00000000000E+00  0.13226680750E+03  0.13226680750E+03  0.00000000000E+00 0. -1.
         -1   -1    0    0    0  501 -0.00000000000E+00 -0.00000000000E+00 -0.10365689735E+04  0.10365689735E+04  0.00000000000E+00 0.  1.
          5    1    1    2  502    0 -0.60357073526E+02  0.14732746755E+02 -0.63165175333E+02  0.88698037895E+02  0.41800000000E+01 0. -1.
         -5    1    1    2    0  502 -0.18337950808E+03 -0.15546757334E+03 -0.72275088037E+03  0.76169844283E+03  0.41800000000E+01 0.  1.
        -11    1    1    2    0    0  0.31279711555E+02  0.29690099268E+02 -0.56085385526E+02  0.70749507554E+02  0.00000000000E+00 0.  1.
         11    1    1    2    0    0  0.21245687005E+03  0.11104472731E+03 -0.62300724726E+02  0.24768979267E+03  0.00000000000E+00 0. -1.
</event>
<event>
 7    1  0.6671761E-006  0.1289652E+03  0.7561462E-02  0.1228999E+00
         -3   -1    0    0    0  501 -0.00000000000E+00  0.00000000000E+00  0.11970271884E+03  0.11970271884E+03  0.00000000000E+00 0.  1.
          3   -1    0    0  501    0  0.00000000000E+00 -0.00000000000E+00 -0.20581271647E+03  0.20581271647E+03  0.00000000000E+00 0. -1.
         23    2    1    2    0    0  0.13115178672E+02  0.11096461877E+03 -0.32446882858E+02  0.17083263100E+03  0.12508330455E+03 0.  0.
          5    1    3    3  502    0  0.57049240328E+01  0.15240134624E+02 -0.66719470344E+02  0.68802383567E+02  0.41800000000E+01 0. -1.
         -5    1    3    3    0  502  0.74102546396E+01  0.95724484144E+02  0.34272587486E+02  0.10203024743E+03  0.41800000000E+01 0. -1.
        -11    1    1    2    0    0  0.37369890143E+02 -0.72479941056E+02 -0.32157029368E+02  0.87658000676E+02  0.00000000000E+00 0.  1.
         11    1    1    2    0    0 -0.50485068815E+02 -0.38484677712E+02 -0.21506085411E+02  0.67024803630E+02  0.00000000000E+00 0. -1.
</event>
<event>
 7    1  0.6671761E-006  0.1006987E+03  0.7561462E-02  0.1278834E+00
          1   -1    0    0  501    0  0.00000000000E+00  0.00000000000E+00  0.31004904195E+02  0.31004904195E+02  0.00000000000E+00 0. -1.
         -1   -1    0    0    0  501 -0.00000000000E+00 -0.00000000000E+00 -0.45259359044E+03  0.45259359044E+03  0.00000000000E+00 0.  1.
         23    2    1    2    0    0  0.32838516084E+01 -0.66726055045E+01 -0.33047212240E+03  0.35343153123E+03  0.12508683481E+03 0.  0.
          5    1    3    3  502    0 -0.16503458693E+02  0.47861162568E+02 -0.24390984834E+03  0.24914361631E+03  0.41800000000E+01 0. -1.
         -5    1    3    3    0  502  0.19787310302E+02 -0.54533768072E+02 -0.86562274059E+02  0.10428791492E+03  0.41800000000E+01 0. -1.
        -11    1    1    2    0    0  0.25244507079E+02  0.40785295456E+02 -0.40375126949E+02  0.62696701183E+02  0.00000000000E+00 0. -1.
         11    1    1    2    0    0 -0.28528358687E+02 -0.34112689952E+02 -0.50741436896E+02  0.67470262216E+02  0.00000000000E+00 0.  1.
</event>
<event>
 7    1  0.6671761E-006  0.1770838E+03  0.7561462E-02  0.1170656E+00
         -3   -1    0    0    0  501 -0.00000000000E+00  0.00000000000E+00  0.11880255062E+03  0.11880255062E+03  0.00000000000E+00 0.  1.
          3   -1    0    0  501    0  0.00000000000E+00 -0.00000000000E+00 -0.35600294757E+03  0.35600294757E+03  0.00000000000E+00 0. -1.
         23    2    1    2    0    0 -0.11164363960E+03 -0.10190387345E+03 -0.24942068054E+02  0.19778165107E+03  0.12508706190E+03 0.  0.
          5    1    3    3  502    0 -0.13313401677E+03 -0.10407354625E+03 -0.66456291014E+01  0.16916739117E+03  0.41800000000E+01 0.  1.
         -5    1    3    3    0  502  0.21490377173E+02  0.21696728035E+01 -0.18296438952E+02  0.28614259897E+02  0.41800000000E+01 0.  1.
        -11    1    1    2    0    0  0.86524556900E+02  0.38065101843E+02 -0.65441539491E+02  0.11496976131E+03  0.00000000000E+00 0. -1.
         11    1    1    2    0    0  0.25119082696E+02  0.63838771607E+02 -0.14681678941E+03  0.16205408581E+03  0.00000000000E+00 0.  1.
</event>
<event>
 7    1  0.6671761E-006  0.1402072E+03  0.7561462E-02  0.1213050E+00
          1   -1    0    0  501    0  0.00000000000E+00  0.00000000000E+00  0.15503490452E+03  0.15503490452E+03  0.00000000000E+00 0. -1.
         -1   -1    0    0    0  501 -0.00000000000E+00 -0.00000000000E+00 -0.25158846903E+03  0.25158846903E+03  0.00000000000E+00 0.  1.
         23    2    1    2    0    0  0.81798373389E+02 -0.35998193494E+02 -0.19328306819E+03  0.24696753869E+03  0.12509107439E+03 0.  0.
          5    1    3    3  502    0  0.64453650364E+02 -0.81842806206E+02 -0.12420836465E+03  0.16216568140E+03  0.41800000000E+01 0. -1.
         -5    1    3    3    0  502  0.17344723025E+02  0.45844612713E+02 -0.69074703534E+02  0.84801857290E+02  0.41800000000E+01 0. -1.
        -11    1    1    2    0    0  0.15497627704E+02 -0.10905170220E+02  0.12776414725E+02  0.22854670753E+02  0.00000000000E+00 0.  1.
         11    1    1    2    0    0 -0.97296001093E+02  0.46903363713E+02  0.83953088954E+02  0.13680116411E+03  0.00000000000E+00 0. -1.
</event>
<event>
 7    1  0.6671761E-006  0.9374609E+02  0.7561462E-02  0.1294025E+00
          2   -1    0    0  501    0  0.00000000000E+00  0.00000000000E+00  0.73805576704E+02  0.73805576704E+02  0.00000000000E+00 0. -1.
         -2   -1    0    0    0  501 -0.00000000000E+00 -0.00000000000E+00 -0.22318700553E+03  0.22318700553E+03  0.00000000000E+00 0.  1.
         23    2    1    2    0    0 -0.29934179057E+02 -0.44685257821E+02 -0.12998837639E+03  0.18824879408E+03  0.12509117929E+03 0.  0.
          5    1    3    3  502    0 -0.33798131256E+02  0.34356867983E+01 -0.13524399046E+03  0.13950816096E+03  0.41800000000E+01 0.  1.
         -5    1    3    3    0  502  0.38639521993E+01 -0.48120944619E+02  0.52556140705E+01  0.48740633119E+02  0.41800000000E+01 0.  1.
        -11    1    1    2    0    0  0.23311346489E+01 -0.27461531882E+02  0.44138829537E+01  0.27911508107E+02  0.00000000000E+00 0. -1.
         11    1    1    2    0    0  0.27603044408E+02  0.72146789703E+02 -0.23806935396E+02  0.80832280049E+02  0.00000000000E+00 0.  1.
</event>
<event>
 7    1  0.6671761E-006  0.1778800E+03  0.7561462E-02  0.1169871E+00
         -2   -1    0    0    0  501 -0.00000000000E+00  0.00000000000E+00  0.13265362359E+03  0.13265362359E+03  0.00000000000E+00 0.  1.
          2   -1    0    0  501    0  0.00000000000E+00 -0.00000000000E+00 -0.33119807890E+03  0.33119807890E+03  0.00000000000E+00 0. -1.
         23    2    1    2    0    0 -0.98971072720E+02 -0.14710403675E+03 -0.73223867998E+02  0.22900840551E+03  0.12509294180E+03 0.  0.
          5    1    3    3  502    0 -0.84097543093E+02 -0.11976920624E+03  0.31423872479E+01  0.14643908807E+03  0.41800000000E+01 0.  1.
         -5    1    3    3    0  502 -0.14873529627E+02 -0.27334830503E+02 -0.76366255246E+02  0.82569317440E+02  0.41800000000E+01 0.  1.
        -11    1    1    2    0    0  0.24262268552E+02  0.48659607443E+02  0.57766649574E+01  0.54678925829E+02  0.00000000000E+00 0.  1.
         11    1    1    2    0    0  0.74708804168E+02  0.98444429303E+02 -0.13109725226E+03  0.18016437115E+03  0.00000000000E+00 0. -1.
</event>
<event>
 7    1  0.6671761E-006  0.2513367E+03  0.7561462E-02  0.1112463E+00
          2   -1    0    0  501    0  0.00000000000E+00  0.00000000000E+00  0.98190178212E+03  0.98190178212E+03  0.00000000000E+00 0.  1.
         -2   -1    0    0    0  501 -0.00000000000E+00 -0.00000000000E+00 -0.69538014717E+02  0.69538014717E+02  0.00000000000E+00 0. -1.
         23    2    1    2    0    0 -0.27260214167E+02  0.23425309648E+03  0.41671570181E+03  0.49488286303E+03  0.12505774466E+03 0.  0.
          5    1    3    3  502    0 -0.43245439211E+02  0.24006520363E+03  0.40785943899E+03  0.47525599878E+03  0.41800000000E+01 0. -1.
         -5    1    3    3    0  502  0.15985225045E+02 -0.58121071412E+01  0.88562628200E+01  0.19626864250E+02  0.41800000000E+01 0. -1.
        -11    1    1    2    0    0 -0.14574214232E+02 -0.82596393311E+02  0.98420297895E+02  0.12931019661E+03  0.00000000000E+00 0. -1.
         11    1    1    2    0    0  0.41834428398E+02 -0.15165670317E+03  0.39722776769E+03  0.42724673720E+03  0.00000000000E+00 0.  1.
</event>
<event>
 7    1  0.6671761E-006  0.1523226E+03  0.7561462E-02  0.1197648E+00
         -2   -1    0    0    0  501 -0.00000000000E+00  0.00000000000E+00  0.39049288798E+02  0.39049288798E+02  0.00000000000E+00 0.  1.
          2   -1    0    0  501    0  0.00000000000E+00 -0.00000000000E+00 -0.92924236501E+03  0.92924236501E+03  0.00000000000E+00 0. -1.
         23    2    1    2    0    0  0.31467124581E+02  0.12360707495E+03 -0.23768806469E+03  0.29734184104E+03  0.12509062887E+03 0.  0.
          5    1    3    3  502    0 -0.28438916148E+02  0.62378074571E+02 -0.34637069024E+02  0.76922006535E+02  0.41800000000E+01 0. -1.
         -5    1    3    3    0  502  0.59906040728E+02  0.61229000379E+02 -0.20305099567E+03  0.22041983451E+03  0.41800000000E+01 0. -1.
        -11    1    1    2    0    0  0.19554577476E+02 -0.37163760204E+01 -0.39281434540E+02  0.44036621697E+02  0.00000000000E+00 0.  1.
         11    1    1    2    0    0 -0.51021702057E+02 -0.11989069893E+03 -0.61322357698E+03  0.62691319106E+03  0.00000000000E+00 0. -1.
</event>
<event>
 7    1  0.6671761E-006  0.1113581E+03  0.7561462E-02  0.1258075E+00
         -2   -1    0    0    0  501 -0.00000000000E+00  0.00000000000E+00  0.16914974499E+03  0.16914974499E+03  0.00000000000E+00 0.  1.
          2   -1    0    0  501    0  0.00000000000E+00 -0.00000000000E+00 -0.14372579665E+03  0.14372579665E+03  0.00000000000E+00 0. -1.
         23    2    1    2    0    0 -0.16371382770E+02  0.74727762060E+02  0.97269209112E+02  0.17596146109E+03  0.12509546815E+03 0.  0.
          5    1    3    3  502    0  0.39958887505E+02  0.45904528221E+02  0.14031387499E+01  0.61019501802E+02  0.41800000000E+01 0.  1.
         -5    1    3    3    0  502 -0.56330270275E+02  0.28823233840E+02  0.95866070363E+02  0.11494195929E+03  0.41800000000E+01 0.  1.
        -11    1    1    2    0    0  0.16355133791E+02  0.61112869526E+01  0.11419502479E+02  0.20862484665E+02  0.00000000000E+00 0.  1.
         11    1    1    2    0    0  0.16248979422E-01 -0.80839049013E+02 -0.83264763248E+02  0.11605159589E+03  0.00000000000E+00 0. -1.
</event>
<event>
 7    1  0.6671761E-006  0.1147730E+03  0.7561462E-02  0.1251978E+00
          1   -1    0    0  501    0  0.00000000000E+00  0.00000000000E+00  0.22101063886E+03  0.22101063886E+03  0.00000000000E+00 0. -1.
         -1   -1    0    0    0  501 -0.00000000000E+00 -0.00000000000E+00 -0.65204909462E+02  0.65204909462E+02  0.00000000000E+00 0.  1.
         23    2    1    2    0    0  0.36824781771E+02  0.12827581694E+02  0.48093613408E+02  0.13957781656E+03  0.12509340439E+03 0.  0.
          5    1    3    3  502    0 -0.46041798443E+02  0.81280273956E+01  0.92492206990E+01  0.47842789600E+02  0.41800000000E+01 0. -1.
         -5    1    3    3    0  502  0.82866580214E+02  0.46995542986E+01  0.38844392709E+02  0.91735026963E+02  0.41800000000E+01 0. -1.
        -11    1    1    2    0    0 -0.61014397585E+02  0.14796175723E+02  0.67564337138E+02  0.92231356823E+02  0.00000000000E+00 0.  1.
         11    1    1    2    0    0  0.24189615813E+02 -0.27623757417E+02  0.40147778854E+02  0.54406374938E+02  0.00000000000E+00 0. -1.
</event>
<event>
 7    1  0.6671761E-006  0.1339816E+03  0.7561462E-02  0.1221665E+00
          3   -1    0    0  501    0  0.00000000000E+00  0.00000000000E+00  0.11595404102E+03  0.11595404102E+03  0.00000000000E+00 0. -1.
         -3   -1    0    0    0  501 -0.00000000000E+00 -0.00000000000E+00 -0.24441099237E+03  0.24441099237E+03  0.00000000000E+00 0.  1.
         23    2    1    2    0    0 -0.53135448921E+02  0.86385842930E+02 -0.15315139229E+03  0.22223321913E+03  0.12508543054E+03 0.  0.
          5    1    3    3  502    0 -0.85744425304E+02  0.29077231233E+02 -0.11323612624E+03  0.14504304372E+03  0.41800000000E+01 0.  1.
         -5    1    3    3    0  502  0.32608976383E+02  0.57308611696E+02 -0.39915266050E+02  0.77190175406E+02  0.41800000000E+01 0.  1.
        -11    1    1    2    0    0 -0.59630402077E+01 -0.26341258007E+02  0.44065946353E+02  0.51683917710E+02  0.00000000000E+00 0. -1.
         11    1    1    2    0    0  0.59098489128E+02 -0.60044584922E+02 -0.19371505412E+02  0.86447896549E+02  0.00000000000E+00 0.  1.
</event>
<event>
 7    1  0.6671761E-006  0.1083340E+03  0.7561462E-02  0.1263687E+00
          1   -1    0    0  501    0  0.00000000000E+00  0.00000000000E+00  0.41068394243E+03  0.41068394243E+03  0.00000000000E+00 0. -1.
         -1   -1    0    0    0  501 -0.00000000000E+00 -0.00000000000E+00 -0.41442186614E+02  0.41442186614E+02  0.00000000000E+00 0.  1.
         23    2    1    2    0    0  0.35165136350E+02 -0.48401778875E+02  0.12423185477E+03  0.18616992355E+03  0.12508544153E+03 0.  0.
          5    1    3    3  502    0  0.42481549122E+02  0.27632762292E+02  0.87744059093E+02  0.10141372626E+03  0.41800000000E+01 0. -1.
         -5    1    3    3    0  502 -0.73164127722E+01 -0.76034541167E+02  0.36487795675E+02  0.84756197293E+02  0.41800000000E+01 0. -1.
        -11    1    1    2    0    0 -0.49449809670E+02  0.12980991415E+02  0.69152125934E+02  0.85998874037E+02  0.00000000000E+00 0.  1.
         11    1    1    2    0    0  0.14284673320E+02  0.35420787460E+02  0.17585777511E+03  0.17995733145E+03  0.00000000000E+00 0. -1.
</event>
<event>
 7    1  0.6671761E-006  0.9416379E+02  0.7561462E-02  0.1293071E+00
          2   -1    0    0  501    0  0.00000000000E+00  0.00000000000E+00  0.86822422457E+02  0.86822422457E+02  0.00000000000E+00 0. -1.
         -2   -1    0    0    0  501 -0.00000000000E+00 -0.00000000000E+00 -0.23005755101E+03  0.23005755101E+03  0.00000000000E+00 0.  1.
         23    2    1    2    0    0  0.74606855772E+02  0.54308520647E+02 -0.89503948517E+02  0.17937015651E+03  0.12508836038E+03 0.  0.
          5    1    3    3  502    0  0.14332751680E+02  0.24407246665E+02  0.30442640490E+02  0.41777604293E+02  0.41800000000E+01 0. -1.
         -5    1    3    3    0  502  0.60274104092E+02  0.29901273983E+02 -0.11994658901E+03  0.13759255221E+03  0.41800000000E+01 0. -1.
        -11    1    1    2    0    0 -0.15792307353E+02 -0.10465296565E+02 -0.60922548318E+02  0.63800284461E+02  0.00000000000E+00 0.  1.
         11    1    1    2    0    0 -0.58814548419E+02 -0.43843224082E+02  0.71913682816E+01  0.73709532500E+02  0.00000000000E+00 0. -1.
</event>
<event>
 7    1  0.6671761E-006  0.1169532E+03  0.7561462E-02  0.1248210E+00
         -1   -1    0    0    0  501 -0.00000000000E+00  0.00000000000E+00  0.17025199370E+03  0.17025199370E+03  0.00000000000E+00 0. -1.
          1   -1    0    0  501    0  0.00000000000E+00 -0.00000000000E+00 -0.13689377400E+03  0.13689377400E+03  0.00000000000E+00 0.  1.
         23    2    1    2    0    0  0.58104882021E+02  0.67226358859E+02  0.79418627200E+02  0.17277125666E+03  0.12508808154E+03 0.  0.
          5    1    3    3  502    0 -0.18817317019E+02 -0.12241422612E+02  0.54829934078E+02  0.59394763392E+02  0.41800000000E+01 0.  1.
         -5    1    3    3    0  502  0.76922199040E+02  0.79467781471E+02  0.24588693121E+02  0.11337649327E+03  0.41800000000E+01 0.  1.
        -11    1    1    2    0    0 -0.13253025747E+02  0.59802996989E+01 -0.46290457810E+02  0.48520234544E+02  0.00000000000E+00 0.  1.
         11    1    1    2    0    0 -0.44851856274E+02 -0.73206658558E+02  0.23005030871E+00  0.85854276490E+02  0.00000000000E+00 0. -1.
</event>
<event>
 6    1  0.6671761E-006  0.1744680E+03  0.7561462E-02  0.1173267E+00
          1   -1    0    0  501    0  0.00000000000E+00  0.00000000000E+00  0.26033932019E+03  0.26033932019E+03  0.00000000000E+00 0. -1.
         -1   -1    0    0    0  501 -0.00000000000E+00 -0.00000000000E+00 -0.12972626078E+03  0.12972626078E+03  0.00000000000E+00 0.  1.
          5    1    1    2  502    0 -0.25947981094E+02  0.21026965170E+02 -0.74021821755E+01  0.34462961104E+02  0.41800000000E+01 0. -1.
         -5    1    1    2    0  502  0.64531489830E+02 -0.12023087286E+03  0.31555958042E+02  0.14011790341E+03  0.41800000000E+01 0.  1.
        -11    1    1    2    0    0 -0.16400693195E+01 -0.37304237907E+02 -0.18027046229E+01  0.37383763015E+02  0.00000000000E+00 0.  1.
         11    1    1    2    0    0 -0.36943439417E+02  0.13650814560E+03  0.10826198817E+03  0.17810095343E+03  0.00000000000E+00 0. -1.
</event>
<event>
 7    1  0.6671761E-006  0.1066870E+03  0.7561462E-02  0.1266831E+00
          2   -1    0    0  501    0  0.00000000000E+00  0.00000000000E+00  0.59971563755E+02  0.59971563755E+02  0.00000000000E+00 0. -1.
         -2   -1    0    0    0  501 -0.00000000000E+00 -0.00000000000E+00 -0.24000157537E+03  0.24000157537E+03  0.00000000000E+00 0.  1.
         23    2    1    2    0    0  0.28092808911E+02  0.34726979100E+02 -0.13399815738E+03  0.18867532369E+03  0.12509077744E+03 0.  0.
          5    1    3    3  502    0  0.49169957971E+02  0.60783083511E+02 -0.13365758105E+03  0.15490025623E+03  0.41800000000E+01 0.  1.
         -5    1    3    3    0  502 -0.21077149060E+02 -0.26056104411E+02 -0.34057632306E+00  0.33775067458E+02  0.41800000000E+01 0.  1.
        -11    1    1    2    0    0 -0.59756197677E+02 -0.35739567158E+02 -0.30499469392E+02  0.76015376435E+02  0.00000000000E+00 0.  1.
         11    1    1    2    0    0  0.31663388766E+02  0.10125880576E+01 -0.15532384847E+02  0.35282439000E+02  0.00000000000E+00 0. -1.
</event>
<event>
 7    1  0.6671761E-006  0.7448113E+02  0.7561462E-02  0.1345485E+00
          2   -1    0    0  501    0  0.00000000000E+00  0.00000000000E+00  0.74973129019E+03  0.74973129019E+03  0.00000000000E+00 0. -1.
         -2   -1    0    0    0  501 -0.00000000000E+00 -0.00000000000E+00 -0.18220964872E+02  0.18220964872E+02  0.00000000000E+00 0.  1.
         23    2    1    2    0    0 -0.39364113359E+02  0.15580386884E+02  0.37930758888E+03  0.40163812782E+03  0.12508659745E+03 0.  0.
          5    1    3    3  502    0 -0.20605752518E+02  0.26959472899E+02  0.16179882065E+02  0.37824214459E+02  0.41800000000E+01 0. -1.
         -5    1    3    3    0  502 -0.18758360841E+02 -0.11379086015E+02  0.36312770681E+03  0.36381391336E+03  0.41800000000E+01 0. -1.
        -11    1    1    2    0    0  0.63693750682E+02 -0.21809821715E+02  0.30980917759E+03  0.31703988506E+03  0.00000000000E+00 0.  1.
         11    1    1    2    0    0 -0.24329637323E+02  0.62294348305E+01  0.42393558845E+02  0.49274242177E+02  0.00000000000E+00 0. -1.
</event>
<event>
 7    1  0.6671761E-006  0.1103078E+03  0.7561462E-02  0.1260001E+00
         -1   -1    0    0    0  501 -0.00000000000E+00  0.00000000000E+00  0.11250250348E+03  0.11250250348E+03  0.00000000000E+00 0.  1.
          1   -1    0    0  501    0  0.00000000000E+00 -0.00000000000E+00 -0.12274013499E+03  0.12274013499E+03  0.00000000000E+00 0. -1.
         23    2    1    2    0    0  0.27349823264E+02 -0.35231913512E+02  0.10234141023E+01  0.13280190630E+03  0.12508396531E+03 0.  0.
          5    1    3    3  502    0 -0.78795294486E+01  0.37670189161E+02  0.27530426297E+02  0.47502914730E+02  0.41800000000E+01 0.  1.
         -5    1    3    3    0  502  0.35229352713E+02 -0.72902102673E+02 -0.26507012194E+02  0.85298991566E+02  0.41800000000E+01 0.  1.
        -11    1    1    2    0    0  0.28030437338E+02 -0.95442144687E+01  0.31577404208E+01  0.29778663028E+02  0.00000000000E+00 0. -1.
         11    1    1    2    0    0 -0.55380260602E+02  0.44776127981E+02 -0.14418786039E+02  0.72662069143E+02  0.00000000000E+00 0.  1.
</event>
<event>
 6    1  0.6671761E-006  0.1398403E+03  0.7561462E-02  0.1213544E+00
          1   -1    0    0  501    0  0.00000000000E+00  0.00000000000E+00  0.69989623514E+03  0.69989623514E+03  0.00000000000E+00 0. -1.
         -1   -1    0    0    0  501 -0.00000000000E+00 -0.00000000000E+00 -0.43793085930E+02  0.43793085930E+02  0.00000000000E+00 0.  1.
          5    1    1    2  502    0 -0.69124071478E+02  0.74723686149E+01  0.39598641130E+02  0.80121771884E+02  0.41800000000E+01 0. -1.
         -5    1    1    2    0  502  0.33109773528E+02 -0.81550656313E+02  0.10252099668E+03  0.13518429571E+03  0.41800000000E+01 0.  1.
        -11    1    1    2    0    0  0.61679050642E+02  0.73887528261E+02  0.42568710834E+03  0.43643233877E+03  0.00000000000E+00 0. -1.
         11    1    1    2    0    0 -0.25664752692E+02  0.19075943710E+00  0.88296403071E+02  0.91950914706E+02  0.00000000000E+00 0.  1.
</event>
<event>
 7    1  0.6671761E-006  0.9879524E+02  0.7561462E-02  0.1282850E+00
         -1   -1    0    0    0  501 -0.00000000000E+00  0.00000000000E+00  0.17310115067E+02  0.17310115067E+02  0.00000000000E+00 0.  1.
          1   -1    0    0  501    0  0.00000000000E+00 -0.00000000000E+00 -0.83840948365E+03  0.83840948365E+03  0.00000000000E+00 0. -1.
         23    2    1    2    0    0  0.49096499307E+02 -0.59224549921E+01 -0.40562636477E+03  0.42734378130E+03  0.12507764747E+03 0.  0.
          5    1    3    3  502    0 -0.17253897698E+02 -0.24361129343E+02 -0.21387583120E+02  0.36960285718E+02  0.41800000000E+01 0.  1.
         -5    1    3    3    0  502  0.66350397005E+02  0.18438674351E+02 -0.38423878165E+03  0.39038349558E+03  0.41800000000E+01 0.  1.
        -11    1    1    2    0    0  0.17791189632E+02 -0.19956849367E+02 -0.59221712120E+02  0.64977022489E+02  0.00000000000E+00 0.  1.
         11    1    1    2    0    0 -0.66887688939E+02  0.25879304359E+02 -0.35625129169E+03  0.36339879493E+03  0.00000000000E+00 0. -1.
</event>
<event>
 7    1  0.6671761E-006  0.1160849E+03  0.7561462E-02  0.1249699E+00
         -2   -1    0    0    0  501 -0.00000000000E+00  0.00000000000E+00  0.18057320877E+02  0.18057320877E+02  0.00000000000E+00 0.  1.
          2   -1    0    0  501    0  0.00000000000E+00 -0.00000000000E+00 -0.88989144235E+03  0.88989144235E+03  0.00000000000E+00 0. -1.
         23    2    1    2    0    0  0.46803627563E+02  0.24729410383E+02 -0.62440426683E+03  0.63900752790E+03  0.12509120267E+03 0.  0.
          5    1    3    3  502    0  0.56740537965E+02 -0.34595601673E+02 -0.43962664894E+03  0.44464076192E+03  0.41800000000E+01 0. -1.
         -5    1    3    3    0  502 -0.99369104022E+01  0.59325012056E+02 -0.18477761789E+03  0.19436676598E+03  0.41800000000E+01 0. -1.
        -11    1    1    2    0    0 -0.42388401646E+02  0.29010664458E+02 -0.11465184143E+03  0.12563216145E+03  0.00000000000E+00 0.  1.
         11    1    1    2    0    0 -0.44152259174E+01 -0.53740074841E+02 -0.13277801321E+03  0.14330907387E+03  0.00000000000E+00 0. -1.
</event>
<event>
 7    1  0.6671761E-006  0.2306816E+03  0.7561462E-02  0.1126161E+00
          2   -1    0    0  501    0  0.00000000000E+00  0.00000000000E+00  0.16245603390E+03  0.16245603390E+03  0.00000000000E+00 0. -1.
         -2   -1    0    0    0  501 -0.00000000000E+00 -0.00000000000E+00 -0.38925276450E+03  0.38925276450E+03  0.00000000000E+00 0.  1.
         23    2    1    2    0    0  0.17264945796E+03  0.10877785876E+03 -0.22377593590E+03  0.32766868712E+03  0.12510252254E+03 0.  0.
          5    1    3    3  502    0  0.17787249588E+03  0.12665811634E+03 -0.21563373990E+03  0.30691413361E+03  0.41800000000E+01 0.  1.
         -5    1    3    3    0  502 -0.52230379214E+01 -0.17880257576E+02 -0.81421959964E+01  0.20754553518E+02  0.41800000000E+01 0.  1.
        -11    1    1    2    0    0 -0.26763577926E+02 -0.66961866549E+02  0.28174304117E+01  0.72167295843E+02  0.00000000000E+00 0. -1.
         11    1    1    2    0    0 -0.14588588003E+03 -0.41815992215E+02 -0.58382251166E+01  0.15187281544E+03  0.00000000000E+00 0.  1.
</event>
<event>
 7    1  0.6671761E-006  0.9146981E+02  0.7561462E-02  0.1299331E+00
         -3   -1    0    0    0  501 -0.00000000000E+00  0.00000000000E+00  0.23278538195E+03  0.23278538195E+03  0.00000000000E+00 0.  1.
          3   -1    0    0  501    0  0.00000000000E+00 -0.00000000000E+00 -0.60560947031E+02  0.60560947031E+02  0.00000000000E+00 0. -1.
         23    2    1    2    0    0 -0.27913812681E+02 -0.33538692732E+02  0.12468168515E+03  0.18192674714E+03  0.12509114222E+03 0.  0.
          5    1    3    3  502    0 -0.58271930333E+02  0.26037198540E+02  0.74696099053E+02  0.98338869153E+02  0.41800000000E+01 0. -1.
         -5    1    3    3    0  502  0.30358117651E+02 -0.59575891273E+02  0.49985586101E+02  0.83587877986E+02  0.41800000000E+01 0. -1.
        -11    1    1    2    0    0  0.65913284034E+01  0.29568425306E+02  0.72368856701E+02  0.78453736720E+02  0.00000000000E+00 0.  1.
         11    1    1    2    0    0  0.21322484278E+02  0.39702674258E+01 -0.24826106934E+02  0.32965845124E+02  0.00000000000E+00 0. -1.
</event>
<event>
 7    1  0.6671761E-006  0.1411253E+03  0.7561462E-02  0.1211823E+00
         -1   -1    0    0    0  501 -0.00000000000E+00  0.00000000000E+00  0.10119740084E+03  0.10119740084E+03  0.00000000000E+00 0.  1.
          1   -1    0    0  501    0  0.00000000000E+00 -0.00000000000E+00 -0.20688007750E+03  0.20688007750E+03  0.00000000000E+00 0. -1.
         23    2    1    2    0    0  0.66614009003E+02  0.64613727399E+02 -0.32307373482E+02  0.15907003960E+03  0.12508857324E+03 0.  0.
          5    1    3    3  502    0  0.10345674976E+03  0.49220432223E+02 -0.31585250210E+02  0.11891614882E+03  0.41800000000E+01 0.  1.
         -5    1    3    3    0  502 -0.36842740758E+02  0.15393295175E+02 -0.72212327176E+00  0.40153890782E+02  0.41800000000E+01 0.  1.
        -11    1    1    2    0    0 -0.13301992149E+02 -0.72372549854E+02 -0.55766885838E+02  0.92329163993E+02  0.00000000000E+00 0.  1.
         11    1    1    2    0    0 -0.53312016853E+02  0.77588224556E+01 -0.17608417346E+02  0.56678274747E+02  0.00000000000E+00 0. -1.
</event>
<event>
 7    1  0.6671761E-006  0.1268034E+03  0.7561462E-02  0.1232278E+00
          2   -1    0    0  501    0  0.00000000000E+00  0.00000000000E+00  0.43143989543E+02  0.43143989543E+02  0.00000000000E+00 0. -1.
         -2   -1    0    0    0  501 -0.00000000000E+00 -0.00000000000E+00 -0.46002172138E+03  0.46002172138E+03  0.00000000000E+00 0.  1.
         23    2    1    2    0    0  0.59194626721E+01  0.86780979869E+02 -0.26396233858E+03  0.30478011260E+03  0.12509525307E+03 0.  0.
          5    1    3    3  502    0 -0.30505505652E+02  0.99527699665E+02 -0.23263915778E+03  0.25490154768E+03  0.41800000000E+01 0.  1.
         -5    1    3    3    0  502  0.36424968324E+02 -0.12746719796E+02 -0.31323180804E+02  0.49878564922E+02  0.41800000000E+01 0.  1.
        -11    1    1    2    0    0  0.30491627156E+02 -0.27623781090E+02 -0.10823710665E+03  0.11579328074E+03  0.00000000000E+00 0.  1.
         11    1    1    2    0    0 -0.36411089828E+02 -0.59157198778E+02 -0.44678286597E+02  0.82592317578E+02  0.00000000000E+00 0. -1.
</event>
<event>
 7    1  0.6671761E-006  0.6881515E+02  0.7561462E-02  0.1364169E+00
          4   -1    0    0  501    0  0.00000000000E+00  0.00000000000E+00  0.97256343540E+02  0.97256343540E+02  0.00000000000E+00 0. -1.
         -4   -1    0    0    0  501 -0.00000000000E+00 -0.00000000000E+00 -0.12384570668E+03  0.12384570668E+03  0.00000000000E+00 0.  1.
         23    2    1    2    0    0  0.18587390636E+02  0.89157896396E+01 -0.17803694686E+02  0.12799900485E+03  0.12506714717E+03 0.  0.
          5    1    3    3  502    0  0.15409135542E+02  0.24879143394E+02 -0.68491163468E+02  0.74598425636E+02  0.41800000000E+01 0. -1.
         -5    1    3    3    0  502  0.31782550945E+01 -0.15963353754E+02  0.50687468783E+02  0.53400579211E+02  0.41800000000E+01 0. -1.
        -11    1    1    2    0    0  0.80419099088E+01  0.37174226168E+02  0.43340504676E+01  0.38280274289E+02  0.00000000000E+00 0.  1.
         11    1    1    2    0    0 -0.26629300545E+02 -0.46090015808E+02 -0.13119718924E+02  0.54822771084E+02  0.00000000000E+00 0. -1.
</event>
<event>
 6    1  0.6671761E-006  0.1511462E+03  0.7561462E-02  0.1199072E+00
          1   -1    0    0  501    0  0.00000000000E+00  0.00000000000E+00  0.37847469160E+03  0.37847469160E+03  0.00000000000E+00 0. -1.
         -1   -1    0    0    0  501 -0.00000000000E+00 -0.00000000000E+00 -0.78533376981E+02  0.78533376981E+02  0.00000000000E+00 0.  1.
          5    1    1    2  502    0  0.94021815963E+02  0.61928589920E+02  0.17486561014E+02  0.11401098343E+03  0.41800000000E+01 0. -1.
         -5    1    1    2    0  502 -0.38145303788E+02 -0.73222500575E+02  0.86767060805E+02  0.11984404045E+03  0.41800000000E+01 0.  1.
        -11    1    1    2    0    0  0.23366863510E+02 -0.91977431144E+01  0.39231999401E+02  0.46580667296E+02  0.00000000000E+00 0.  1.
         11    1    1    2    0    0 -0.79243375685E+02  0.20491653770E+02  0.15645569340E+03  0.17657237740E+03  0.00000000000E+00 0. -1.
</event>
<event>
 7    1  0.6671761E-006  0.1053057E+03  0.7561462E-02  0.1269518E+00
          1   -1    0    0  501    0  0.00000000000E+00  0.00000000000E+00  0.40571128531E+03  0.40571128531E+03  0.00000000000E+00 0. -1.
         -1   -1    0    0    0  501 -0.00000000000E+00 -0.00000000000E+00 -0.34910576972E+02  0.34910576972E+02  0.00000000000E+00 0.  1.
         23    2    1    2    0    0 -0.10685050263E+02 -0.79996509693E+01  0.12011854573E+03  0.17393529010E+03  0.12508739104E+03 0.  0.
          5    1    3    3  502    0  0.52255355257E+02  0.20070815613E+02  0.45337694242E+02  0.72155656131E+02  0.41800000000E+01 0. -1.
         -5    1    3    3    0  502 -0.62940405520E+02 -0.28070466583E+02  0.74780851488E+02  0.10177963397E+03  0.41800000000E+01 0. -1.
        -11    1    1    2    0    0  0.30248377028E+02  0.38646528329E+02  0.96342695849E+02  0.10812230810E+03  0.00000000000E+00 0.  1.
         11    1    1    2    0    0 -0.19563326765E+02 -0.30646877360E+02  0.15433946676E+03  0.15856426409E+03  0.00000000000E+00 0. -1.
</event>
<event>
 7    1  0.6671761E-006  0.1132459E+03  0.7561462E-02  0.1254674E+00
         -2   -1    0    0    0  501 -0.00000000000E+00  0.00000000000E+00  0.67055692747E+03  0.67055692747E+03  0.00000000000E+00 0.  1.
          2   -1    0    0  501    0  0.00000000000E+00 -0.00000000000E+00 -0.29694154289E+02  0.29694154289E+02  0.00000000000E+00 0. -1.
         23    2    1    2    0    0  0.28306144936E+02  0.62396493804E+02  0.49285492794E+03  0.51307634211E+03  0.12508713985E+03 0.  0.
          5    1    3    3  502    0 -0.37935169581E+02  0.72075056525E+01  0.58446819257E+02  0.70174983507E+02  0.41800000000E+01 0. -1.
         -5    1    3    3    0  502  0.66241314517E+02  0.55188988152E+02  0.43440810868E+03  0.44290135860E+03  0.41800000000E+01 0. -1.
        -11    1    1    2    0    0  0.91620390649E+01  0.13717366457E+02  0.70027081486E+02  0.71943736654E+02  0.00000000000E+00 0.  1.
         11    1    1    2    0    0 -0.37468184001E+02 -0.76113860261E+02  0.77980763761E+02  0.11523100300E+03  0.00000000000E+00 0. -1.
</event>
<event>
 7    1  0.6671761E-006  0.1034652E+03  0.7561462E-02  0.1273173E+00
         -1   -1    0    0    0  501 -0.00000000000E+00  0.00000000000E+00  0.58574662220E+02  0.58574662220E+02  0.00000000000E+00 0.  1.
          1   -1    0    0  501    0  0.00000000000E+00 -0.00000000000E+00 -0.29175365183E+03  0.29175365183E+03  0.00000000000E+00 0. -1.
         23    2    1    2    0    0  0.13547691945E+02 -0.28760613729E+02 -0.43529635577E+02  0.13621826954E+03  0.12509946012E+03 0.  0.
          5    1    3    3  502    0  0.32825473672E+02  0.31688818404E+02 -0.55023503726E+02  0.71601335853E+02  0.41800000000E+01 0. -1.
         -5    1    3    3    0  502 -0.19277781727E+02 -0.60449432133E+02  0.11493868149E+02  0.64616933683E+02  0.41800000000E+01 0. -1.
        -11    1    1    2    0    0 -0.52771587827E+02  0.87435497664E+01 -0.83200520799E+02  0.98912167126E+02  0.00000000000E+00 0.  1.
         11    1    1    2    0    0  0.39223895882E+02  0.20017063963E+02 -0.10644883323E+03  0.11519787739E+03  0.00000000000E+00 0. -1.
</event>
<event>
 7    1  0.6671761E-006  0.8196689E+02  0.7561462E-02  0.1323561E+00
          1   -1    0    0  501    0  0.00000000000E+00  0.00000000000E+00  0.20325020399E+03  0.20325020399E+03  0.00000000000E+00 0. -1.
         -1   -1    0    0    0  501 -0.00000000000E+00 -0.00000000000E+00 -0.55397938091E+02  0.55397938091E+02  0.00000000000E+00 0.  1.
         23    2    1    2    0    0 -0.51641825417E+01 -0.18373884821E+02  0.64255052170E+02  0.12939038985E+03  0.11067471632E+03 0.  0.
          5    1    3    3  502    0 -0.57156547355E+02 -0.42174483579E+01  0.40788885267E+02  0.70468882051E+02  0.41800000000E+01 0. -1.
         -5    1    3    3    0  502  0.51992364814E+02 -0.14156436463E+02  0.23466166903E+02  0.58921507799E+02  0.41800000000E+01 0.  1.
        -11    1    1    2    0    0  0.11592857929E+02 -0.14704792013E+02 -0.15676437266E+02  0.24420809742E+02  0.00000000000E+00 0.  1.
         11    1    1    2    0    0 -0.64286753870E+01  0.33078676834E+02  0.99273650996E+02  0.10483694249E+03  0.00000000000E+00 0. -1.
</event>
<event>
 7    1  0.6671761E-006  0.1222646E+03  0.7561462E-02  0.1239407E+00
         -1   -1    0    0    0  501 -0.00000000000E+00  0.00000000000E+00  0.31503244859E+02  0.31503244859E+02  0.00000000000E+00 0.  1.
          1   -1    0    0  501    0  0.00000000000E+00 -0.00000000000E+00 -0.61857138733E+03  0.61857138733E+03  0.00000000000E+00 0. -1.
         23    2    1    2    0    0  0.44457678300E+02  0.82632890989E+02 -0.34763126685E+03  0.38118533991E+03  0.12510030311E+03 0.  0.
          5    1    3    3  502    0  0.60578342305E+02  0.89969682768E+01 -0.68299759569E+02  0.91831424642E+02  0.41800000000E+01 0.  1.
         -5    1    3    3    0  502 -0.16120664004E+02  0.73635922712E+02 -0.27933150728E+03  0.28935391527E+03  0.41800000000E+01 0.  1.
        -11    1    1    2    0    0  0.64661832377E+01 -0.42014570874E+02 -0.16304795449E+03  0.16849828235E+03  0.00000000000E+00 0. -1.
         11    1    1    2    0    0 -0.50923861538E+02 -0.40618320115E+02 -0.76388921127E+02  0.10039100993E+03  0.00000000000E+00 0.  1.
</event>
<event>
 7    1  0.6671761E-006  0.1113150E+03  0.7561462E-02  0.1258154E+00
          1   -1    0    0  501    0  0.00000000000E+00  0.00000000000E+00  0.16645853302E+03  0.16645853302E+03  0.00000000000E+00 0. -1.
         -1   -1    0    0    0  501 -0.00000000000E+00 -0.00000000000E+00 -0.83850443429E+02  0.83850443429E+02  0.00000000000E+00 0.  1.
         23    2    1    2    0    0 -0.25726033782E+02  0.33196271822E+02  0.32160742396E+02  0.13581859456E+03  0.12509418852E+03 0.  0.
          5    1    3    3  502    0 -0.27741254531E+02 -0.44673486907E+02  0.40764254610E+01  0.52909236244E+02  0.41800000000E+01 0.  1.
         -5    1    3    3    0  502  0.20152207490E+01  0.77869758729E+02  0.28084316935E+02  0.82909358319E+02  0.41800000000E+01 0.  1.
        -11    1    1    2    0    0  0.54183654231E+02 -0.98725509875E+01  0.39798891176E+01  0.55219336887E+02  0.00000000000E+00 0.  1.
         11    1    1    2    0    0 -0.28457620449E+02 -0.23323720834E+02  0.46467458077E+02  0.59271045000E+02  0.00000000000E+00 0. -1.
</event>
<event>
 7    1  0.6671761E-006  0.1178996E+03  0.7561462E-02  0.1246603E+00
         -2   -1    0    0    0  501 -0.00000000000E+00  0.00000000000E+00  0.10669652306E+03  0.10669652306E+03  0.00000000000E+00 0.  1.
          2   -1    0    0  501    0  0.00000000000E+00 -0.00000000000E+00 -0.13993276443E+03  0.13993276443E+03  0.00000000000E+00 0. -1.
         23    2    1    2    0    0 -0.10526387435E+02 -0.56371140246E+02 -0.12019347019E+02  0.13813102536E+03  0.12508878919E+03 0.  0.
          5    1    3    3  502    0  0.42462765659E+02 -0.68957296113E+02  0.40538145733E+01  0.81191754306E+02  0.41800000000E+01 0.  1.
         -5    1    3    3    0  502 -0.52989153094E+02  0.12586155867E+02 -0.16073161592E+02  0.56939271059E+02  0.41800000000E+01 0.  1.
        -11    1    1    2    0    0  0.42595365271E+02  0.52767448692E+02 -0.31299707097E+02  0.74688958009E+02  0.00000000000E+00 0. -1.
         11    1    1    2    0    0 -0.32068977836E+02  0.36036915534E+01  0.10082812742E+02  0.33809304120E+02  0.00000000000E+00 0.  1.
</event>
<event>
 7    1  0.6671761E-006  0.1611509E+03  0.7561462E-02  0.1187404E+00
          1   -1    0    0  501    0  0.00000000000E+00  0.00000000000E+00  0.30156741627E+03  0.30156741627E+03  0.00000000000E+00 0. -1.
         -1   -1    0    0    0  501 -0.00000000000E+00 -0.00000000000E+00 -0.11411254891E+03  0.11411254891E+03  0.00000000000E+00 0.  1.
         23    2    1    2    0    0 -0.42569105247E+02  0.14546611906E+03  0.10596249961E+03  0.22327195338E+03  0.12509913400E+03 0.  0.
          5    1    3    3  502    0 -0.50259897204E+02  0.52180847550E+02 -0.11010758909E+02  0.73400322409E+02  0.41800000000E+01 0. -1.
         -5    1    3    3    0  502  0.76907919573E+01  0.93285271506E+02  0.11697325852E+03  0.14987163097E+03  0.41800000000E+01 0. -1.
        -11    1    1    2    0    0  0.35573390763E+02 -0.56301297316E+02 -0.65332021620E+01  0.66917747574E+02  0.00000000000E+00 0.  1.
         11    1    1    2    0    0  0.69957144841E+01 -0.89164821740E+02  0.88025569912E+02  0.12549026423E+03  0.00000000000E+00 0. -1.
</event>
<event>
 7    1  0.6671761E-006  0.9982213E+02  0.7561462E-02  0.1280670E+00
          1   -1    0    0  501    0  0.00000000000E+00  0.00000000000E+00  0.16975592938E+03  0.16975592938E+03  0.00000000000E+00 0. -1.
         -1   -1    0    0    0  501 -0.00000000000E+00 -0.00000000000E+00 -0.96114503041E+02  0.96114503041E+02  0.00000000000E+00 0.  1.
         23    2    1    2    0    0  0.23574402881E+02 -0.13370475368E+02 -0.21812097526E+02  0.12984208029E+03  0.12509466868E+03 0.  0.
          5    1    3    3  502    0 -0.25873641069E+02  0.29809352466E+02 -0.45083058291E+02  0.60066607541E+02  0.41800000000E+01 0.  1.
         -5    1    3    3    0  502  0.49448043950E+02 -0.43179827834E+02  0.23270960765E+02  0.69775472748E+02  0.41800000000E+01 0.  1.
        -11    1    1    2    0    0 -0.45281597450E+02  0.39578593459E+02  0.44747798340E+02  0.74961680772E+02  0.00000000000E+00 0.  1.
         11    1    1    2    0    0  0.21707194569E+02 -0.26208118091E+02  0.50705725523E+02  0.61066671358E+02  0.00000000000E+00 0. -1.
</event>
<event>
 7    1  0.6671761E-006  0.1563421E+03  0.7561462E-02  0.1192890E+00
          2   -1    0    0  501    0  0.00000000000E+00  0.00000000000E+00  0.19391243608E+02  0.19391243608E+02  0.00000000000E+00 0. -1.
         -2   -1    0    0    0  501 -0.00000000000E+00 -0.00000000000E+00 -0.14415710233E+04  0.14415710233E+04  0.00000000000E+00 0.  1.
         23    2    1    2    0    0 -0.96718088131E+02  0.73668782632E+02 -0.90594945169E+03  0.92258734991E+03  0.12506610685E+03 0.  0.
          5    1    3    3  502    0 -0.80101808431E+01  0.84087266186E+02 -0.40787041173E+03  0.41654600766E+03  0.41800000000E+01 0. -1.
         -5    1    3    3    0  502 -0.88707907288E+02 -0.10418483555E+02 -0.49807903996E+03  0.50604134225E+03  0.41800000000E+01 0. -1.
        -11    1    1    2    0    0  0.97140841737E+02 -0.83960735316E+02 -0.51088003270E+03  0.52676764899E+03  0.00000000000E+00 0.  1.
         11    1    1    2    0    0 -0.42275360662E+00  0.10291952684E+02 -0.53502952775E+01  0.11607267991E+02  0.00000000000E+00 0. -1.
</event>
<event>
 7    1  0.6671761E-006  0.1241396E+03  0.7561462E-02  0.1236420E+00
          1   -1    0    0  501    0  0.00000000000E+00  0.00000000000E+00  0.65279656748E+02  0.65279656748E+02  0.00000000000E+00 0. -1.
         -1   -1    0    0    0  501 -0.00000000000E+00 -0.00000000000E+00 -0.44773639698E+03  0.44773639698E+03  0.00000000000E+00 0.  1.
         23    2    1    2    0    0 -0.21090904768E+02 -0.11295553924E+03 -0.30002676005E+03  0.34477055252E+03  0.12508755746E+03 0.  0.
          5    1    3    3  502    0  0.14339764167E+02 -0.19850290376E+02  0.36822437009E+01  0.25113625446E+02  0.41800000000E+01 0. -1.
         -5    1    3    3    0  502 -0.35430668935E+02 -0.93105248864E+02 -0.30370900375E+03  0.31965692707E+03  0.41800000000E+01 0. -1.
        -11    1    1    2    0    0  0.10760553273E+02  0.46910879545E+00 -0.49393009000E+02  0.50553722987E+02  0.00000000000E+00 0.  1.
         11    1    1    2    0    0  0.10330351495E+02  0.11248643044E+03 -0.33036971184E+02  0.11769177822E+03  0.00000000000E+00 0. -1.
</event>
<event>
 7    1  0.6671761E-006  0.3396477E+03  0.7561462E-02  0.1066946E+00
          2   -1    0    0  501    0  0.00000000000E+00  0.00000000000E+00  0.11016314111E+04  0.11016314111E+04  0.00000000000E+00 0. -1.
         -2   -1    0    0    0  501 -0.00000000000E+00 -0.00000000000E+00 -0.11956440325E+03  0.11956440325E+03  0.00000000000E+00 0.  1.
         23    2    1    2    0    0 -0.19427568231E+03  0.26879699534E+03  0.33147609916E+03  0.48533730123E+03  0.12522390432E+03 0.  0.
          5    1    3    3  502    0 -0.12626314343E+03  0.11898668240E+03  0.96838043088E+02  0.19873422193E+03  0.41800000000E+01 0. -1.
         -5    1    3    3    0  502 -0.68012538877E+02  0.14981031294E+03  0.23463805607E+03  0.28660307930E+03  0.41800000000E+01 0. -1.
        -11    1    1    2    0    0  0.30682926126E+02 -0.10610651262E+03  0.25517448756E+03  0.27805404704E+03  0.00000000000E+00 0.  1.
         11    1    1    2    0    0  0.16359275618E+03 -0.16269048272E+03  0.39541642110E+03  0.45780446603E+03  0.00000000000E+00 0. -1.
</event>
<event>
 7    1  0.6671761E-006  0.1474812E+03  0.7561462E-02  0.1203603E+00
         -1   -1    0    0    0  501 -0.00000000000E+00  0.00000000000E+00  0.58889327999E+02  0.58889327999E+02  0.00000000000E+00 0.  1.
          1   -1    0    0  501    0  0.00000000000E+00 -0.00000000000E+00 -0.43355946260E+03  0.43355946260E+03  0.00000000000E+00 0. -1.
         23    2    1    2    0    0  0.70851277136E+02  0.91408299784E+02 -0.15866630592E+03  0.23280165937E+03  0.12508491208E+03 0.  0.
          5    1    3    3  502    0  0.72648713745E+02  0.11305209327E+02 -0.26647361582E+02  0.78314734539E+02  0.41800000000E+01 0.  1.
         -5    1    3    3    0  502 -0.17974366083E+01  0.80103090457E+02 -0.13201894434E+03  0.15448692483E+03  0.41800000000E+01 0.  1.
        -11    1    1    2    0    0 -0.67148819602E+02 -0.20676887209E+02 -0.81268471892E+02  0.10742933567E+03  0.00000000000E+00 0.  1.
         11    1    1    2    0    0 -0.37024575342E+01 -0.70731412575E+02 -0.13473535679E+03  0.15221779556E+03  0.00000000000E+00 0. -1.
</event>
<event>
 7    1  0.6671761E-006  0.1017764E+03  0.7561462E-02  0.1276604E+00
          2   -1    0    0  501    0  0.00000000000E+00  0.00000000000E+00  0.51265015073E+03  0.51265015073E+03  0.00000000000E+00 0. -1.
         -2   -1    0    0    0  501 -0.00000000000E+00 -0.00000000000E+00 -0.39860421746E+02  0.39860421746E+02  0.00000000000E+00 0.  1.
         23    2    1    2    0    0  0.36391689477E+02  0.90434431895E+02  0.26559171670E+03  0.30933770593E+03  0.12509242500E+03 0.  0.
          5    1    3    3  502    0  0.25824695881E+02  0.77388821651E+02  0.56021707745E+02  0.99054776627E+02  0.41800000000E+01 0. -1.
         -5    1    3    3    0  502  0.10566993596E+02  0.13045610244E+02  0.20957000896E+03  0.21028292930E+03  0.41800000000E+01 0. -1.
        -11    1    1    2    0    0  0.21181019399E+01 -0.44795855294E+02  0.16252023421E+03  0.16859413257E+03  0.00000000000E+00 0. -1.
         11    1    1    2    0    0 -0.38509791417E+02 -0.45638576600E+02  0.44677778062E+02  0.74578733977E+02  0.00000000000E+00 0.  1.
</event>
<event>
 7    1  0.7091406E-006  0.1393693E+03  0.7561462E-02  0.1214180E+00
          2   -1    0    0  501    0  0.00000000000E+00  0.00000000000E+00  0.73481234556E+03  0.73481234556E+03  0.00000000000E+00 0. -1.
         -2   -1    0    0    0  501 -0.00000000000E+00 -0.00000000000E+00 -0.36978587296E+02  0.36978587296E+02  0.00000000000E+00 0.  1.
         23    2    1    2    0    0 -0.10700539145E+03  0.54028176508E+02  0.31311020816E+03  0.35784704090E+03  0.12508918646E+03 0.  0.
          5    1    3    3  502    0 -0.12838092067E+02  0.53736982101E+02  0.38394520886E+02  0.67409876778E+02  0.41800000000E+01 0.  1.
         -5    1    3    3    0  502 -0.94167299381E+02  0.29119440685E+00  0.27471568728E+03  0.29043716412E+03  0.41800000000E+01 0.  1.
        -11    1    1    2    0    0  0.71886612111E+02 -0.59766418172E+02  0.35641800044E+03  0.36847455920E+03  0.00000000000E+00 0. -1.
         11    1    1    2    0    0  0.35118779337E+02  0.57382416643E+01  0.28305549664E+02  0.45469332756E+02  0.00000000000E+00 0.  1.
</event>
<event>
 7    1  0.6671761E-006  0.7369809E+02  0.7561462E-02  0.1347951E+00
          1   -1    0    0  501    0  0.00000000000E+00  0.00000000000E+00  0.41089800073E+03  0.41089800073E+03  0.00000000000E+00 0. -1.
         -1   -1    0    0    0  501 -0.00000000000E+00 -0.00000000000E+00 -0.39599680373E+02  0.39599680373E+02  0.00000000000E+00 0.  1.
         23    2    1    2    0    0  0.44611082167E+02  0.18406786134E+01  0.12029157858E+03  0.17919735546E+03  0.12509233221E+03 0.  0.
          5    1    3    3  502    0  0.31620489162E+02  0.10340573927E+02  0.14549178519E+03  0.14930544117E+03  0.41800000000E+01 0. -1.
         -5    1    3    3    0  502  0.12990593005E+02 -0.84998953136E+01 -0.25200206614E+02  0.29891914298E+02  0.41800000000E+01 0. -1.
        -11    1    1    2    0    0 -0.50899924446E+02  0.34123092095E+02  0.11300526483E+03  0.12855107001E+03  0.00000000000E+00 0.  1.
         11    1    1    2    0    0  0.62888422794E+01 -0.35963770708E+02  0.13800147695E+03  0.14274925563E+03  0.00000000000E+00 0. -1.
</event>
<event>
 7    1  0.6671761E-006  0.7878674E+02  0.7561462E-02  0.1332530E+00
          2   -1    0    0  501    0  0.00000000000E+00  0.00000000000E+00  0.56320168382E+02  0.56320168382E+02  0.00000000000E+00 0. -1.
         -2   -1    0    0    0  501 -0.00000000000E+00 -0.00000000000E+00 -0.24548427900E+03  0.24548427900E+03  0.00000000000E+00 0.  1.
         23    2    1    2    0    0  0.30148260696E+02  0.41390233345E+01 -0.15003766041E+03  0.19770504217E+03  0.12509970033E+03 0.  0.
          5    1    3    3  502    0 -0.14382653132E+02 -0.52696525864E+02 -0.49347200671E+02  0.73731968395E+02  0.41800000000E+01 0. -1.
         -5    1    3    3    0  502  0.44530913828E+02  0.56835549199E+02 -0.10069045974E+03  0.12397307378E+03  0.41800000000E+01 0. -1.
        -11    1    1    2    0    0 -0.14833740960E+02 -0.13026461135E+01 -0.68903971706E+02  0.70494638624E+02  0.00000000000E+00 0.  1.
         11    1    1    2    0    0 -0.15314519736E+02 -0.28363772210E+01  0.29777521501E+02  0.33604766585E+02  0.00000000000E+00 0. -1.
</event>
<event>
 7    1  0.6671761E-006  0.1866802E+03  0.7561462E-02  0.1161490E+00
         -2   -1    0    0    0  501 -0.00000000000E+00  0.00000000000E+00  0.17304743158E+03  0.17304743158E+03  0.00000000000E+00 0.  1.
          2   -1    0    0  501    0  0.00000000000E+00 -0.00000000000E+00 -0.40897051360E+03  0.40897051360E+03  0.00000000000E+00 0. -1.
         23    2    1    2    0    0 -0.16199278541E+03 -0.90123258448E+02  0.50084892232E+02  0.22917064530E+03  0.12508726554E+03 0.  0.
          5    1    3    3  502    0 -0.12877874962E+03 -0.57414148180E+02 -0.22461668158E+02  0.14283679393E+03  0.41800000000E+01 0.  1.
         -5    1    3    3    0  502 -0.33214035793E+02 -0.32709110268E+02  0.72546560390E+02  0.86333851371E+02  0.41800000000E+01 0.  1.
        -11    1    1    2    0    0  0.47803066242E+02  0.23106428894E+02 -0.21947836041E+02  0.57452134036E+02  0.00000000000E+00 0.  1.
         11    1    1    2    0    0  0.11418971917E+03  0.67016829554E+02 -0.26406013821E+03  0.29539516584E+03  0.00000000000E+00 0. -1.
</event>
<event>
 7    1  0.6671761E-006  0.8667616E+02  0.7561462E-02  0.1311106E+00
          1   -1    0    0  501    0  0.00000000000E+00  0.00000000000E+00  0.76180150189E+02  0.76180150189E+02  0.00000000000E+00 0. -1.
         -1   -1    0    0    0  501 -0.00000000000E+00 -0.00000000000E+00 -0.29539691598E+03  0.29539691598E+03  0.00000000000E+00 0.  1.
         23    2    1    2    0    0 -0.43944544008E+02  0.27441102156E+02 -0.22794494426E+03  0.26512199861E+03  0.12508652804E+03 0.  0.
          5    1    3    3  502    0  0.56940703796E+01  0.19883227129E+02  0.89558269635E+01  0.22922573921E+02  0.41800000000E+01 0. -1.
         -5    1    3    3    0  502 -0.49638614387E+02  0.75578750264E+01 -0.23690077123E+03  0.24219942469E+03  0.41800000000E+01 0. -1.
        -11    1    1    2    0    0  0.63043406338E+02  0.60293841668E+01 -0.91234116886E+01  0.63984851308E+02  0.00000000000E+00 0.  1.
         11    1    1    2    0    0 -0.19098862330E+02 -0.33470486322E+02  0.17851590160E+02  0.42470216248E+02  0.00000000000E+00 0. -1.
</event>
<event>
 7    1  0.6671761E-006  0.1479146E+03  0.7561462E-02  0.1203059E+00
          3   -1    0    0  501    0  0.00000000000E+00  0.00000000000E+00  0.97221323835E+02  0.97221323835E+02  0.00000000000E+00 0. -1.
         -3   -1    0    0    0  501 -0.00000000000E+00 -0.00000000000E+00 -0.32079191152E+03  0.32079191152E+03  0.00000000000E+00 0.  1.
         23    2    1    2    0    0 -0.11849577313E+03  0.68372881916E+02 -0.15466491541E+03  0.24142134352E+03  0.12508768850E+03 0.  0.
          5    1    3    3  502    0 -0.26357047159E+02  0.21063938085E+02  0.19167264081E+02  0.39028705268E+02  0.41800000000E+01 0. -1.
         -5    1    3    3    0  502 -0.92138725973E+02  0.47308943831E+02 -0.17383217949E+03  0.20239263825E+03  0.41800000000E+01 0. -1.
        -11    1    1    2    0    0  0.35199673734E+02  0.16831576640E+02 -0.35727536904E+02  0.52903458265E+02  0.00000000000E+00 0.  1.
         11    1    1    2    0    0  0.83296099398E+02 -0.85204458557E+02 -0.33178135369E+02  0.12368843357E+03  0.00000000000E+00 0. -1.
</event>
<event>
 7    1  0.6671761E-006  0.1292525E+03  0.7561462E-02  0.1228569E+00
         -1   -1    0    0    0  501 -0.00000000000E+00  0.00000000000E+00  0.85164057562E+02  0.85164057562E+02  0.00000000000E+00 0.  1.
          1   -1    0    0  501    0  0.00000000000E+00 -0.00000000000E+00 -0.22845448849E+03  0.22845448849E+03  0.00000000000E+00 0. -1.
         23    2    1    2    0    0  0.71858071805E+01 -0.79543650103E+02 -0.40202626951E+02  0.15375775038E+03  0.12508543676E+03 0.  0.
          5    1    3    3  502    0  0.51950001198E+02  0.48739883578E+01 -0.19783420071E+02  0.55959043029E+02  0.41800000000E+01 0.  1.
         -5    1    3    3    0  502 -0.44764194017E+02 -0.84417638461E+02 -0.20419206879E+02  0.97798707348E+02  0.41800000000E+01 0.  1.
        -11    1    1    2    0    0 -0.21793588956E+02 -0.68901864073E+01  0.20789415410E+01  0.22951191390E+02  0.00000000000E+00 0.  1.
         11    1    1    2    0    0  0.14607781775E+02  0.86433836510E+02 -0.10516674551E+03  0.13690960428E+03  0.00000000000E+00 0. -1.
</event>
<event>
 7    1  0.6671761E-006  0.1001253E+03  0.7561462E-02  0.1280033E+00
         -3   -1    0    0    0  501 -0.00000000000E+00  0.00000000000E+00  0.43692656289E+03  0.43692656289E+03  0.00000000000E+00 0.  1.
          3   -1    0    0  501    0  0.00000000000E+00 -0.00000000000E+00 -0.42178010575E+02  0.42178010575E+02  0.00000000000E+00 0. -1.
         23    2    1    2    0    0  0.60461318967E+02 -0.37490577089E+02  0.29134993832E+03  0.32495162566E+03  0.12509059915E+03 0.  0.
          5    1    3    3  502    0 -0.10066195412E+02  0.94096132533E+01 -0.61085301925E+01  0.15641472206E+02  0.41800000000E+01 0.  1.
         -5    1    3    3    0  502  0.70527514379E+02 -0.46900190342E+02  0.29745846851E+03  0.30931015345E+03  0.41800000000E+01 0.  1.
        -11    1    1    2    0    0 -0.43792128409E+02 -0.14753951368E+02  0.12296403298E+02  0.47818731954E+02  0.00000000000E+00 0. -1.
         11    1    1    2    0    0 -0.16669190557E+02  0.52244528456E+02  0.91102210699E+02  0.10633421586E+03  0.00000000000E+00 0.  1.
</event>
<event>
 7    1  0.6671761E-006  0.2049070E+03  0.7561462E-02  0.1145664E+00
          2   -1    0    0  501    0  0.00000000000E+00  0.00000000000E+00  0.53492184806E+02  0.53492184806E+02  0.00000000000E+00 0.  1.
         -2   -1    0    0    0  501 -0.00000000000E+00 -0.00000000000E+00 -0.10408293173E+04  0.10408293173E+04  0.00000000000E+00 0. -1.
         23    2    1    2    0    0 -0.18602083033E+03 -0.54266136048E+02 -0.69748532000E+03  0.73463031949E+03  0.12508945547E+03 0.  0.
          5    1    3    3  502    0 -0.14146964814E+03  0.44337347380E+01 -0.31900524593E+03  0.34902025540E+03  0.41800000000E+01 0.  1.
         -5    1    3    3    0  502 -0.44551182194E+02 -0.58699870786E+02 -0.37848007406E+03  0.38561006409E+03  0.41800000000E+01 0.  1.
        -11    1    1    2    0    0  0.48469484926E+02  0.21377094436E+02 -0.15682666820E+03  0.16553209657E+03  0.00000000000E+00 0. -1.
         11    1    1    2    0    0  0.13755134541E+03  0.32889041611E+02 -0.13302514433E+03  0.19415908607E+03  0.00000000000E+00 0.  1.
</event>
<event>
 6    1  0.6671761E-006  0.1323941E+03  0.7561462E-02  0.1223946E+00
         -2   -1    0    0    0  501 -0.00000000000E+00  0.00000000000E+00  0.19727755643E+03  0.19727755643E+03  0.00000000000E+00 0.  1.
          2   -1    0    0  501    0  0.00000000000E+00 -0.00000000000E+00 -0.41577067861E+03  0.41577067861E+03  0.00000000000E+00 0. -1.
          5    1    1    2  502    0  0.71146853084E+02 -0.52559331158E+02 -0.17268648842E+03  0.19406816760E+03  0.41800000000E+01 0. -1.
         -5    1    1    2    0  502 -0.92338135684E+02  0.12697637269E+02  0.16245154532E+03  0.18733803210E+03  0.41800000000E+01 0.  1.
        -11    1    1    2    0    0 -0.24151102146E+02  0.26876009514E+01 -0.13804147035E+03  0.14016399849E+03  0.00000000000E+00 0.  1.
         11    1    1    2    0    0  0.45342384747E+02  0.37174092938E+02 -0.70216708734E+02  0.91478036849E+02  0.00000000000E+00 0. -1.
</event>
<event>
 7    1  0.6671761E-006  0.1184881E+03  0.7561462E-02  0.1245612E+00
          1   -1    0    0  501    0  0.00000000000E+00  0.00000000000E+00  0.11201735829E+03  0.11201735829E+03  0.00000000000E+00 0. -1.
         -1   -1    0    0    0  501 -0.00000000000E+00 -0.00000000000E+00 -0.19498456695E+03  0.19498456695E+03  0.00000000000E+00 0.  1.
         23    2    1    2    0    0 -0.10464503231E+02 -0.90629470840E+02 -0.88160112311E+02  0.17814115798E+03  0.12505542751E+03 0.  0.
          5    1    3    3  502    0  0.46766061383E+02 -0.14611300541E+02 -0.62452428445E+02  0.79487941346E+02  0.41800000000E+01 0.  1.
         -5    1    3    3    0  502 -0.57230564613E+02 -0.76018170299E+02 -0.25707683866E+02  0.98653216630E+02  0.41800000000E+01 0.  1.
        -11    1    1    2    0    0  0.14418296517E+02  0.78090682360E+02  0.41959281028E+02  0.89814381979E+02  0.00000000000E+00 0. -1.
         11    1    1    2    0    0 -0.39537932860E+01  0.12538788479E+02 -0.36766377382E+02  0.39046385283E+02  0.00000000000E+00 0.  1.
</event>
<event>
 7    1  0.6671761E-006  0.1904676E+03  0.7561462E-02  0.1158040E+00
         -2   -1    0    0    0  501 -0.00000000000E+00  0.00000000000E+00  0.14598882921E+03  0.14598882921E+03  0.00000000000E+00 0.  1.
          2   -1    0    0  501    0  0.00000000000E+00 -0.00000000000E+00 -0.26711724867E+03  0.26711724867E+03  0.00000000000E+00 0. -1.
         23    2    1    2    0    0  0.79484048619E+02  0.14118358357E+03 -0.32956893463E+02  0.20732333010E+03  0.12508512351E+03 0.  0.
          5    1    3    3  502    0 -0.27230801924E+02  0.72111409312E+02 -0.17948863367E+02  0.79254059975E+02  0.41800000000E+01 0. -1.
         -5    1    3    3    0  502  0.10671485054E+03  0.69072174259E+02 -0.15008030096E+02  0.12806927013E+03  0.41800000000E+01 0. -1.
        -11    1    1    2    0    0 -0.77295582633E+02 -0.66867293561E+02 -0.18449052207E+02  0.10385667802E+03  0.00000000000E+00 0.  1.
         11    1    1    2    0    0 -0.21884659859E+01 -0.74316290009E+02 -0.69722473794E+02  0.10192606976E+03  0.00000000000E+00 0. -1.
</event>
<event>
 7    1  0.6671761E-006  0.1270236E+03  0.7561462E-02  0.1231940E+00
         -1   -1    0    0    0  501 -0.00000000000E+00  0.00000000000E+00  0.14014012176E+03  0.14014012176E+03  0.00000000000E+00 0.  1.
          1   -1    0    0  501    0  0.00000000000E+00 -0.00000000000E+00 -0.19407309228E+03  0.19407309228E+03  0.00000000000E+00 0. -1.
         23    2    1    2    0    0 -0.97313036224E+02  0.15081953563E+02  0.50924484657E+02  0.16714620363E+03  0.12508899995E+03 0.  0.
          5    1    3    3  502    0 -0.30597515564E+02  0.64030829783E+02  0.44888067358E+02  0.84074765015E+02  0.41800000000E+01 0.  1.
         -5    1    3    3    0  502 -0.66715520660E+02 -0.48948876220E+02  0.60364172991E+01  0.83071438617E+02  0.41800000000E+01 0.  1.
        -11    1    1    2    0    0  0.38540079712E+02  0.28869589453E+01  0.71522399132E+01  0.39304284905E+02  0.00000000000E+00 0.  1.
         11    1    1    2    0    0  0.58772956512E+02 -0.17968912508E+02 -0.11200969509E+03  0.12776272551E+03  0.00000000000E+00 0. -1.
</event>
<event>
 7    1  0.6671761E-006  0.7850088E+02  0.7561462E-02  0.1333360E+00
          2   -1    0    0  501    0  0.00000000000E+00  0.00000000000E+00  0.79774471758E+03  0.79774471758E+03  0.00000000000E+00 0. -1.
         -2   -1    0    0    0  501 -0.00000000000E+00 -0.00000000000E+00 -0.18706641940E+02  0.18706641940E+02  0.00000000000E+00 0.  1.
         23    2    1    2    0    0  0.14307203101E+02  0.38605816928E+02  0.31209428913E+03  0.33874136243E+03  0.12509100748E+03 0.  0.
          5    1    3    3  502    0  0.10064289946E+02  0.45899945507E+02  0.28761387145E+02  0.55252011006E+02  0.41800000000E+01 0.  1.
         -5    1    3    3    0  502  0.42429131554E+01 -0.72941285793E+01  0.28333290198E+03  0.28348935142E+03  0.41800000000E+01 0.  1.
        -11    1    1    2    0    0 -0.20932115588E+02 -0.67548626681E+02  0.34837976928E+03  0.35548478740E+03  0.00000000000E+00 0. -1.
         11    1    1    2    0    0  0.66249124864E+01  0.28942809753E+02  0.11856401723E+03  0.12222520969E+03  0.00000000000E+00 0.  1.
</event>
<event>
 7    1  0.6671761E-006  0.6389325E+02  0.7561462E-02  0.1382184E+00
         -2   -1    0    0    0  501 -0.00000000000E+00  0.00000000000E+00  0.22892260340E+03  0.22892260340E+03  0.00000000000E+00 0.  1.
          2   -1    0    0  501    0  0.00000000000E+00 -0.00000000000E+00 -0.82542877278E+02  0.82542877278E+02  0.00000000000E+00 0. -1.
         23    2    1    2    0    0  0.42074845239E+02  0.23054115250E+02  0.15765101320E+03  0.20688920039E+03  0.12509002535E+03 0.  0.
          5    1    3    3  502    0  0.74899649440E+01 -0.20839283568E+02 -0.13859452373E+02  0.26456230543E+02  0.41800000000E+01 0. -1.
         -5    1    3    3    0  502  0.34584880295E+02  0.43893398818E+02  0.17151046558E+03  0.18043296985E+03  0.41800000000E+01 0. -1.
        -11    1    1    2    0    0 -0.21863797908E+02 -0.18150575814E+02 -0.51766431125E+02  0.59052793776E+02  0.00000000000E+00 0. -1.
         11    1    1    2    0    0 -0.20211047331E+02 -0.49035394358E+01  0.40495144043E+02  0.45523486513E+02  0.00000000000E+00 0.  1.
</event>
<event>
 7    1  0.6671761E-006  0.1481598E+03  0.7561462E-02  0.1202753E+00
          4   -1    0    0  501    0  0.00000000000E+00  0.00000000000E+00  0.13447759791E+03  0.13447759791E+03  0.00000000000E+00 0. -1.
         -4   -1    0    0    0  501 -0.00000000000E+00 -0.00000000000E+00 -0.24039342152E+03  0.24039342152E+03  0.00000000000E+00 0.  1.
         23    2    1    2    0    0 -0.10303013856E+03 -0.63262169570E+02 -0.13339788870E+03  0.21923200451E+03  0.12510141303E+03 0.  0.
          5    1    3    3  502    0 -0.86221820868E+02  0.19563165466E+02 -0.57384241363E+02  0.10548622372E+03  0.41800000000E+01 0. -1.
         -5    1    3    3    0  502 -0.16808317696E+02 -0.82825335036E+02 -0.76013647335E+02  0.11374578080E+03  0.41800000000E+01 0. -1.
        -11    1    1    2    0    0  0.56162683967E+02  0.48060861681E+02  0.61174177844E+02  0.95949849040E+02  0.00000000000E+00 0. -1.
         11    1    1    2    0    0  0.46867454597E+02  0.15201307889E+02 -0.33692112749E+02  0.59689165880E+02  0.00000000000E+00 0.  1.
</event>
<event>
 7    1  0.6671761E-006  0.1247188E+03  0.7561462E-02  0.1235509E+00
         -1   -1    0    0    0  501 -0.00000000000E+00  0.00000000000E+00  0.10491936806E+03  0.10491936806E+03  0.00000000000E+00 0.  1.
          1   -1    0    0  501    0  0.00000000000E+00 -0.00000000000E+00 -0.18809045580E+03  0.18809045580E+03  0.00000000000E+00 0. -1.
         23    2    1    2    0    0  0.64892430296E+01  0.72395016903E+02  0.99825367916E+01  0.14484179017E+03  0.12488532497E+03 0.  0.
          5    1    3    3  502    0  0.45980030148E+02  0.89673486914E+02  0.11453074496E+02  0.10150932343E+03  0.41800000000E+01 0. -1.
         -5    1    3    3    0  502 -0.39490787118E+02 -0.17278470011E+02 -0.14705377041E+01  0.43332466746E+02  0.41800000000E+01 0. -1.
        -11    1    1    2    0    0  0.15326992907E+02 -0.80537357572E+02 -0.42334913409E+02  0.92268237057E+02  0.00000000000E+00 0.  1.
         11    1    1    2    0    0 -0.21816235937E+02  0.81423406686E+01 -0.50818711127E+02  0.55899796624E+02  0.00000000000E+00 0. -1.
</event>
<event>
 7    1  0.6671761E-006  0.1366804E+03  0.7561462E-02  0.1217867E+00
         -1   -1    0    0    0  501 -0.00000000000E+00  0.00000000000E+00  0.67787065033E+03  0.67787065033E+03  0.00000000000E+00 0.  1.
          1   -1    0    0  501    0  0.00000000000E+00 -0.00000000000E+00 -0.40329184828E+02  0.40329184828E+02  0.00000000000E+00 0. -1.
         23    2    1    2    0    0  0.93771064880E+02  0.19734163158E+02  0.52494249008E+03  0.54808279077E+03  0.12509067846E+03 0.  0.
          5    1    3    3  502    0 -0.17637614727E+01 -0.42965748265E+02  0.14810176046E+03  0.15427498251E+03  0.41800000000E+01 0.  1.
         -5    1    3    3    0  502  0.95534826353E+02  0.62699911423E+02  0.37684072963E+03  0.39380780826E+03  0.41800000000E+01 0.  1.
        -11    1    1    2    0    0 -0.88734092548E+02  0.66157975216E+01  0.11231238133E+03  0.14328844670E+03  0.00000000000E+00 0.  1.
         11    1    1    2    0    0 -0.50369723319E+01 -0.26349960679E+02  0.28659409241E+00  0.26828597694E+02  0.00000000000E+00 0. -1.
</event>
<event>
 7    1  0.6671761E-006  0.1065419E+03  0.7561462E-02  0.1267111E+00
         -1   -1    0    0    0  501 -0.00000000000E+00  0.00000000000E+00  0.26454753688E+03  0.26454753688E+03  0.00000000000E+00 0.  1.
          1   -1    0    0  501    0  0.00000000000E+00 -0.00000000000E+00 -0.63132318694E+02  0.63132318694E+02  0.00000000000E+00 0. -1.
         23    2    1    2    0    0  0.61564749563E+01  0.55660040578E+02  0.17154064293E+03  0.21956586867E+03  0.12508811377E+03 0.  0.
          5    1    3    3  502    0 -0.23565968147E+02  0.71394561243E+02  0.16966619654E+03  0.18562496836E+03  0.41800000000E+01 0. -1.
         -5    1    3    3    0  502  0.29722443104E+02 -0.15734520665E+02  0.18744463911E+01  0.33940900310E+02  0.41800000000E+01 0. -1.
        -11    1    1    2    0    0 -0.41822046443E+02 -0.53851149149E+02  0.18918602757E+02  0.70759758080E+02  0.00000000000E+00 0.  1.
         11    1    1    2    0    0  0.35665571486E+02 -0.18088914292E+01  0.10955972498E+02  0.37354228824E+02  0.00000000000E+00 0. -1.
</event>
<event>
 7    1  0.6671761E-006  0.8568987E+02  0.7561462E-02  0.1313638E+00
         -1   -1    0    0    0  501 -0.00000000000E+00  0.00000000000E+00  0.53132194184E+02  0.53132194184E+02  0.00000000000E+00 0. -1.
          1   -1    0    0  501    0  0.00000000000E+00 -0.00000000000E+00 -0.26856119815E+03  0.26856119815E+03  0.00000000000E+00 0.  1.
         23    2    1    2    0    0  0.17792717930E+02  0.23194814435E+02 -0.65848944407E+02  0.14435649808E+03  0.12509250510E+03 0.  0.
          5    1    3    3  502    0 -0.32101341519E+02  0.42138060561E+02  0.73795137624E+01  0.53647384825E+02  0.41800000000E+01 0.  1.
         -5    1    3    3    0  502  0.49894059449E+02 -0.18943246127E+02 -0.73228458169E+02  0.90709113257E+02  0.41800000000E+01 0.  1.
        -11    1    1    2    0    0 -0.89740777961E+01 -0.42525750507E+02 -0.14991373461E+03  0.15608683914E+03  0.00000000000E+00 0.  1.
         11    1    1    2    0    0 -0.88186401336E+01  0.19330936072E+02  0.33367504980E+00  0.21250055112E+02  0.00000000000E+00 0. -1.
</event>
<event>
 7    1  0.6671761E-006  0.8818136E+02  0.7561462E-02  0.1307317E+00
          1   -1    0    0  501    0  0.00000000000E+00  0.00000000000E+00  0.63423930324E+03  0.63423930324E+03  0.00000000000E+00 0. -1.
         -1   -1    0    0    0  501 -0.00000000000E+00 -0.00000000000E+00 -0.24999765482E+02  0.24999765482E+02  0.00000000000E+00 0.  1.
         23    2    1    2    0    0 -0.14402556194E+02  0.11386538643E+02  0.18009535728E+03  0.22004346345E+03  0.12509077186E+03 0.  0.
          5    1    3    3  502    0  0.19898473669E+02  0.35504823664E+02  0.17242356198E+03  0.17721145246E+03  0.41800000000E+01 0. -1.
         -5    1    3    3    0  502 -0.34301029863E+02 -0.24118285022E+02  0.76717953036E+01  0.42832010988E+02  0.41800000000E+01 0. -1.
        -11    1    1    2    0    0 -0.26271459066E+02 -0.36898652264E+02  0.19743223716E+03  0.20256156687E+03  0.00000000000E+00 0.  1.
         11    1    1    2    0    0  0.40674015260E+02  0.25512113621E+02  0.23171194332E+03  0.23663403841E+03  0.00000000000E+00 0. -1.
</event>
<event>
 7    1  0.6671761E-006  0.1156120E+03  0.7561462E-02  0.1250517E+00
         -1   -1    0    0    0  501 -0.00000000000E+00  0.00000000000E+00  0.17647848580E+03  0.17647848580E+03  0.00000000000E+00 0.  1.
          1   -1    0    0  501    0  0.00000000000E+00 -0.00000000000E+00 -0.98144366781E+02  0.98144366781E+02  0.00000000000E+00 0. -1.
         23    2    1    2    0    0 -0.19969684266E+02 -0.69332884887E+02  0.61011187903E+02  0.15676894055E+03  0.12509315911E+03 0.  0.
          5    1    3    3  502    0  0.45616989103E+02 -0.52593460876E+02  0.54739398325E+02  0.88661468242E+02  0.41800000000E+01 0. -1.
         -5    1    3    3    0  502 -0.65586673370E+02 -0.16739424011E+02  0.62717895777E+01  0.68107472310E+02  0.41800000000E+01 0. -1.
        -11    1    1    2    0    0 -0.21303871552E+02  0.28690968884E+02  0.41779610342E+02  0.54977836252E+02  0.00000000000E+00 0.  1.
         11    1    1    2    0    0  0.41273555818E+02  0.40641916003E+02 -0.24456679226E+02  0.62876075777E+02  0.00000000000E+00 0. -1.
</event>
<event>
 7    1  0.6671761E-006  0.1022257E+03  0.7561462E-02  0.1275684E+00
          1   -1    0    0  501    0  0.00000000000E+00  0.00000000000E+00  0.28426082332E+02  0.28426082332E+02  0.00000000000E+00 0. -1.
         -1   -1    0    0    0  501 -0.00000000000E+00 -0.00000000000E+00 -0.54997202758E+03  0.54997202758E+03  0.00000000000E+00 0.  1.
         23    2    1    2    0    0 -0.68275213775E+01 -0.40712869635E+02 -0.40108363006E+03  0.42215613989E+03  0.12507427930E+03 0.  0.
          5    1    3    3  502    0  0.26427939500E+02  0.21473078781E+02 -0.27904282058E+03  0.28114390838E+03  0.41800000000E+01 0.  1.
         -5    1    3    3    0  502 -0.33255460878E+02 -0.62185948416E+02 -0.12204080947E+03  0.14101223151E+03  0.41800000000E+01 0.  1.
        -11    1    1    2    0    0  0.48446589392E+02  0.28129383368E+02 -0.67906819821E+02  0.88032212346E+02  0.00000000000E+00 0.  1.
         11    1    1    2    0    0 -0.41619068015E+02  0.12583486266E+02 -0.52555495371E+02  0.68209757680E+02  0.00000000000E+00 0. -1.
</event>
<event>
 7    1  0.1162237E-005  0.1479629E+03  0.7561462E-02  0.1202999E+00
          1   -1    0    0  501    0  0.00000000000E+00  0.00000000000E+00  0.13335699205E+03  0.13335699205E+03  0.00000000000E+00 0. -1.
         -1   -1    0    0    0  501 -0.00000000000E+00 -0.00000000000E+00 -0.22337363264E+03  0.22337363264E+03  0.00000000000E+00 0.  1.
         23    2    1    2    0    0 -0.73456221247E+02 -0.98009686919E+02 -0.10126098073E+03  0.20224508338E+03  0.12509025687E+03 0.  0.
          5    1    3    3  502    0 -0.98062612150E+02 -0.10852491294E+03 -0.74618736151E+02  0.16425395221E+03  0.41800000000E+01 0.  1.
         -5    1    3    3    0  502  0.24606390902E+02  0.10515226024E+02 -0.26642244581E+02  0.37991131174E+02  0.41800000000E+01 0.  1.
        -11    1    1    2    0    0  0.23534105344E+02  0.33688462470E+02  0.49658561927E+02  0.64457267943E+02  0.00000000000E+00 0. -1.
         11    1    1    2    0    0  0.49922115903E+02  0.64321224449E+02 -0.38414221783E+02  0.90028273371E+02  0.00000000000E+00 0.  1.
</event>
<event>
 7    1  0.6671761E-006  0.1070225E+03  0.7561462E-02  0.1266185E+00
          1   -1    0    0  501    0  0.00000000000E+00  0.00000000000E+00  0.81701400968E+02  0.81701400968E+02  0.00000000000E+00 0. -1.
         -1   -1    0    0    0  501 -0.00000000000E+00 -0.00000000000E+00 -0.15653285202E+03  0.15653285202E+03  0.00000000000E+00 0.  1.
         23    2    1    2    0    0  0.63634737141E+01  0.59453325780E+00 -0.76817293583E+02  0.14693153350E+03  0.12508849538E+03 0.  0.
          5    1    3    3  502    0 -0.34967494673E+02  0.49709419489E+02 -0.36734017319E+02  0.71137982106E+02  0.41800000000E+01 0.  1.
         -5    1    3    3    0  502  0.41330968387E+02 -0.49114886232E+02 -0.40083276264E+02  0.75793551397E+02  0.41800000000E+01 0.  1.
        -11    1    1    2    0    0 -0.95652858695E+01 -0.44124988408E+02 -0.95655207729E+01  0.46152014944E+02  0.00000000000E+00 0.  1.
         11    1    1    2    0    0  0.32018121554E+01  0.43530455150E+02  0.11551363302E+02  0.45150704543E+02  0.00000000000E+00 0. -1.
</event>
<event>
 7    1  0.6671761E-006  0.1705498E+03  0.7561462E-02  0.1177276E+00
         -2   -1    0    0    0  501 -0.00000000000E+00  0.00000000000E+00  0.76091414460E+03  0.76091414460E+03  0.00000000000E+00 0.  1.
          2   -1    0    0  501    0  0.00000000000E+00 -0.00000000000E+00 -0.53783001797E+02  0.53783001797E+02  0.00000000000E+00 0. -1.
         23    2    1    2    0    0  0.10900556645E+03  0.13002733356E+03  0.39722971507E+03  0.44969799527E+03  0.12509004527E+03 0.  0.
          5    1    3    3  502    0  0.73070540350E+02  0.93110883040E+02  0.12341994342E+03  0.17105231726E+03  0.41800000000E+01 0.  1.
         -5    1    3    3    0  502  0.35935026102E+02  0.36916450523E+02  0.27380977166E+03  0.27864567801E+03  0.41800000000E+01 0.  1.
        -11    1    1    2    0    0 -0.81677048274E+02 -0.11041422391E+03  0.29998560299E+03  0.32992999720E+03  0.00000000000E+00 0. -1.
         11    1    1    2    0    0 -0.27328518178E+02 -0.19613109655E+02  0.99158247395E+01  0.35069153916E+02  0.00000000000E+00 0.  1.
</event>
<event>
 7    1  0.6671761E-006  0.1309152E+03  0.7561462E-02  0.1226104E+00
         -2   -1    0    0    0  501 -0.00000000000E+00  0.00000000000E+00  0.49988169855E+02  0.49988169855E+02  0.00000000000E+00 0.  1.
          2   -1    0    0  501    0  0.00000000000E+00 -0.00000000000E+00 -0.60547202889E+03  0.60547202889E+03  0.00000000000E+00 0. -1.
         23    2    1    2    0    0 -0.65788553739E+01  0.81227743927E+02 -0.91952903163E+02  0.17534419616E+03  0.12509605511E+03 0.  0.
          5    1    3    3  502    0 -0.51798952543E+02  0.88763238116E+02 -0.57433094469E+02  0.11780524889E+03  0.41800000000E+01 0. -1.
         -5    1    3    3    0  502  0.45220097169E+02 -0.75354941881E+01 -0.34519808694E+02  0.57538947270E+02  0.41800000000E+01 0. -1.
        -11    1    1    2    0    0  0.42169909341E+02 -0.36443110536E+02 -0.33254750434E+03  0.33718577106E+03  0.00000000000E+00 0. -1.
         11    1    1    2    0    0 -0.35591053967E+02 -0.44784633391E+02 -0.13098345153E+03  0.14293023153E+03  0.00000000000E+00 0.  1.
</event>
<event>
 7    1  0.6671761E-006  0.9825352E+02  0.7561462E-02  0.1284012E+00
         -2   -1    0    0    0  501 -0.00000000000E+00  0.00000000000E+00  0.70660714468E+02  0.70660714468E+02  0.00000000000E+00 0.  1.
          2   -1    0    0  501    0  0.00000000000E+00 -0.00000000000E+00 -0.25872389794E+03  0.25872389794E+03  0.00000000000E+00 0. -1.
         23    2    1    2    0    0  0.51251876663E+02 -0.47442659290E+01 -0.25888578209E+02  0.13772008442E+03  0.12508932908E+03 0.  0.
          5    1    3    3  502    0  0.85609828909E+02  0.20095067571E+02 -0.32452378790E+00  0.88036539359E+02  0.41800000000E+01 0.  1.
         -5    1    3    3    0  502 -0.34357952246E+02 -0.24839333500E+02 -0.25564054421E+02  0.49683545060E+02  0.41800000000E+01 0.  1.
        -11    1    1    2    0    0 -0.17169628090E+02  0.21806398320E+02 -0.29145731906E+01  0.27907165268E+02  0.00000000000E+00 0.  1.
         11    1    1    2    0    0 -0.34082248573E+02 -0.17062132391E+02 -0.15926003207E+03  0.16375736272E+03  0.00000000000E+00 0. -1.
</event>
<event>
 7    1  0.6671761E-006  0.1047752E+03  0.7561462E-02  0.1270563E+00
          1   -1    0    0  501    0  0.00000000000E+00  0.00000000000E+00  0.40541449795E+02  0.40541449795E+02  0.00000000000E+00 0. -1.
         -1   -1    0    0    0  501 -0.00000000000E+00 -0.00000000000E+00 -0.30578273006E+03  0.30578273006E+03  0.00000000000E+00 0.  1.
         23    2    1    2    0    0  0.21298472145E+02 -0.13809774055E+02 -0.16314744010E+03  0.20714553879E+03  0.12509137562E+03 0.  0.
          5    1    3    3  502    0  0.68307388035E+02 -0.27559117124E+02 -0.12407585976E+03  0.14435267774E+03  0.41800000000E+01 0.  1.
         -5    1    3    3    0  502 -0.47008915890E+02  0.13749343069E+02 -0.39071580340E+02  0.62792861045E+02  0.41800000000E+01 0.  1.
        -11    1    1    2    0    0  0.26708114590E+02  0.25802694261E+02 -0.72670846601E+02  0.81609768789E+02  0.00000000000E+00 0.  1.
         11    1    1    2    0    0 -0.48006586735E+02 -0.11992920206E+02 -0.29422993567E+02  0.57568872279E+02  0.00000000000E+00 0. -1.
</event>
<event>
 7    1  0.6671761E-006  0.9184220E+02  0.7561462E-02  0.1298451E+00
          1   -1    0    0  501    0  0.00000000000E+00  0.00000000000E+00  0.26033534097E+03  0.26033534097E+03  0.00000000000E+00 0. -1.
         -1   -1    0    0    0  501 -0.00000000000E+00 -0.00000000000E+00 -0.51802032061E+02  0.51802032061E+02  0.00000000000E+00 0.  1.
         23    2    1    2    0    0 -0.37118355859E+02  0.12544908827E+02  0.99554460531E+02  0.16460596316E+03  0.12509550518E+03 0.  0.
          5    1    3    3  502    0  0.23924891994E+02  0.28961068434E+01 -0.18915280112E+02  0.30920027709E+02  0.41800000000E+01 0.  1.
         -5    1    3    3    0  502 -0.61043247853E+02  0.96488019833E+01  0.11846974064E+03  0.13368593545E+03  0.41800000000E+01 0.  1.
        -11    1    1    2    0    0  0.37137127357E+02 -0.48635037451E+02  0.53144680739E+02  0.81048690224E+02  0.00000000000E+00 0.  1.
         11    1    1    2    0    0 -0.18771498361E-01  0.36090128624E+02  0.55834167644E+02  0.66482719656E+02  0.00000000000E+00 0. -1.
</event>
<event>
 7    1  0.6671761E-006  0.1010354E+03  0.7561462E-02  0.1278134E+00
         -2   -1    0    0    0  501 -0.00000000000E+00  0.00000000000E+00  0.31638919742E+02  0.31638919742E+02  0.00000000000E+00 0. -1.
          2   -1    0    0  501    0  0.00000000000E+00 -0.00000000000E+00 -0.41679272670E+03  0.41679272670E+03  0.00000000000E+00 0.  1.
         23    2    1    2    0    0 -0.11013613937E+02  0.33817615279E+02 -0.18704646336E+03  0.22781255541E+03  0.12508896895E+03 0.  0.
          5    1    3    3  502    0  0.22244740675E+02 -0.36860872858E+02 -0.10919374641E+03  0.11744913406E+03  0.41800000000E+01 0. -1.
         -5    1    3    3    0  502 -0.33258354612E+02  0.70678488138E+02 -0.77852716948E+02  0.11036342135E+03  0.41800000000E+01 0. -1.
        -11    1    1    2    0    0 -0.29783578132E+02 -0.24922526244E+02 -0.35094183840E+02  0.52343056657E+02  0.00000000000E+00 0. -1.
         11    1    1    2    0    0  0.40797192070E+02 -0.88950890349E+01 -0.16301315975E+03  0.16827603437E+03  0.00000000000E+00 0.  1.
</event>
<event>
 7    1  0.6671761E-006  0.9114267E+02  0.7561462E-02  0.1300108E+00
          1   -1    0    0  501    0  0.00000000000E+00  0.00000000000E+00  0.24575359780E+03  0.24575359780E+03  0.00000000000E+00 0. -1.
         -1   -1    0    0    0  501 -0.00000000000E+00 -0.00000000000E+00 -0.97729423858E+02  0.97729423858E+02  0.00000000000E+00 0.  1.
         23    2    1    2    0    0 -0.77592831159E+01  0.79339083694E+02 -0.11924346192E+01  0.14833331240E+03  0.12508578253E+03 0.  0.
          5    1    3    3  502    0 -0.30393010773E+02  0.55254163838E+02 -0.55838088424E+02  0.84333399339E+02  0.41800000000E+01 0.  1.
         -5    1    3    3    0  502  0.22633727657E+02  0.24084919856E+02  0.54645653805E+02  0.63999913061E+02  0.41800000000E+01 0.  1.
        -11    1    1    2    0    0  0.19232932259E+02 -0.62518329587E+02  0.15946207347E+03  0.17235602715E+03  0.00000000000E+00 0. -1.
         11    1    1    2    0    0 -0.11473649143E+02 -0.16820754106E+02 -0.10245464905E+02  0.22793682118E+02  0.00000000000E+00 0.  1.
</event>
<event>
 6    1  0.6671761E-006  0.9557696E+02  0.7561462E-02  0.1289882E+00
         -1   -1    0    0    0  501 -0.00000000000E+00  0.00000000000E+00  0.10167007550E+03  0.10167007550E+03  0.00000000000E+00 0.  1.
          1   -1    0    0  501    0  0.00000000000E+00 -0.00000000000E+00 -0.34567705907E+03  0.34567705907E+03  0.00000000000E+00 0. -1.
          5    1    1    2  502    0 -0.44701359625E+02  0.25778817251E+02 -0.94090033400E+02  0.10739257775E+03  0.41800000000E+01 0. -1.
         -5    1    1    2    0  502  0.60971277040E+02 -0.60391756537E+02  0.62974563583E+02  0.10652665835E+03  0.41800000000E+01 0.  1.
        -11    1    1    2    0    0 -0.28493457156E+02  0.25149540681E+02 -0.21454124180E+03  0.21788143778E+03  0.00000000000E+00 0. -1.
         11    1    1    2    0    0  0.12223539741E+02  0.94633986050E+01  0.16497280427E+01  0.15546460677E+02  0.00000000000E+00 0.  1.
</event>
<event>
 7    1  0.6671761E-006  0.7739347E+02  0.7561462E-02  0.1336615E+00
         -2   -1    0    0    0  501 -0.00000000000E+00  0.00000000000E+00  0.64217824324E+03  0.64217824324E+03  0.00000000000E+00 0.  1.
          2   -1    0    0  501    0  0.00000000000E+00 -0.00000000000E+00 -0.21365462799E+02  0.21365462799E+02  0.00000000000E+00 0. -1.
         23    2    1    2    0    0 -0.42959517100E+02  0.75204770432E+01  0.36352230433E+03  0.38690841185E+03  0.12509027035E+03 0.  0.
          5    1    3    3  502    0  0.39933825302E-01 -0.12927653888E+02  0.32563049257E+03  0.32591381671E+03  0.41800000000E+01 0. -1.
         -5    1    3    3    0  502 -0.42999450926E+02  0.20448130931E+02  0.37891811752E+02  0.60994595140E+02  0.41800000000E+01 0. -1.
        -11    1    1    2    0    0  0.14076950434E+02  0.37420914740E+02  0.58970833016E+02  0.71246365101E+02  0.00000000000E+00 0. -1.
         11    1    1    2    0    0  0.28882566666E+02 -0.44941391783E+02  0.19831964310E+03  0.20538892909E+03  0.00000000000E+00 0.  1.
</event>
<event>
 7    1  0.6671761E-006  0.7390201E+02  0.7561462E-02  0.1347305E+00
          1   -1    0    0  501    0  0.00000000000E+00  0.00000000000E+00  0.18740160566E+03  0.18740160566E+03  0.00000000000E+00 0. -1.
         -1   -1    0    0    0  501 -0.00000000000E+00 -0.00000000000E+00 -0.71059340671E+02  0.71059340671E+02  0.00000000000E+00 0.  1.
         23    2    1    2    0    0 -0.15872568280E+02  0.23383861843E+02  0.29652918485E+02  0.13162765032E+03  0.12509116410E+03 0.  0.
          5    1    3    3  502    0  0.18979478750E+02  0.82287374056E+01  0.71732390290E+02  0.74772594910E+02  0.41800000000E+01 0.  1.
         -5    1    3    3    0  502 -0.34852047030E+02  0.15155124438E+02 -0.42079471804E+02  0.56855055415E+02  0.41800000000E+01 0.  1.
        -11    1    1    2    0    0  0.50426539667E+02 -0.99895241889E+01  0.31286997079E+02  0.60178922245E+02  0.00000000000E+00 0. -1.
         11    1    1    2    0    0 -0.34553971387E+02 -0.13394337654E+02  0.55402349421E+02  0.66654373759E+02  0.00000000000E+00 0.  1.
</event>
<event>
 7    1  0.6671761E-006  0.7727542E+02  0.7561462E-02  0.1336966E+00
         -2   -1    0    0    0  501 -0.00000000000E+00  0.00000000000E+00  0.36143391125E+03  0.36143391125E+03  0.00000000000E+00 0.  1.
          2   -1    0    0  501    0  0.00000000000E+00 -0.00000000000E+00 -0.34331021913E+02  0.34331021913E+02  0.00000000000E+00 0. -1.
         23    2    1    2    0    0  0.61291980513E+01 -0.22339076948E+02  0.18438811260E+03  0.22401462008E+03  0.12508785917E+03 0.  0.
          5    1    3    3  502    0  0.16251215720E+02  0.29760723726E+02  0.22322676297E+01  0.34238255035E+02  0.41800000000E+01 0. -1.
         -5    1    3    3    0  502 -0.10122017669E+02 -0.52099800673E+02  0.18215584497E+03  0.18977636505E+03  0.41800000000E+01 0. -1.
        -11    1    1    2    0    0  0.24978249450E+02 -0.53004424098E+01  0.12314709110E+03  0.12576650461E+03  0.00000000000E+00 0. -1.
         11    1    1    2    0    0 -0.31107447501E+02  0.27639519357E+02  0.19567685628E+02  0.45983808468E+02  0.00000000000E+00 0.  1.
</event>
<event>
 7    1  0.6671761E-006  0.8254272E+02  0.7561462E-02  0.1321987E+00
         -1   -1    0    0    0  501 -0.00000000000E+00  0.00000000000E+00  0.22518369008E+03  0.22518369008E+03  0.00000000000E+00 0.  1.
          1   -1    0    0  501    0  0.00000000000E+00 -0.00000000000E+00 -0.56423302967E+02  0.56423302967E+02  0.00000000000E+00 0. -1.
         23    2    1    2    0    0 -0.27331822344E+02  0.37648981424E+01  0.11914724704E+03  0.17521405818E+03  0.12546990370E+03 0.  0.
          5    1    3    3  502    0 -0.28823798714E+02  0.59229667020E+02  0.36045863845E+02  0.75204664269E+02  0.41800000000E+01 0. -1.
         -5    1    3    3    0  502  0.14919763695E+01 -0.55464768877E+02  0.83101383198E+02  0.10000939391E+03  0.41800000000E+01 0. -1.
        -11    1    1    2    0    0  0.27110884607E+02  0.10573618711E+02  0.73209435345E+02  0.78780853641E+02  0.00000000000E+00 0.  1.
         11    1    1    2    0    0  0.22093773689E+00 -0.14338516853E+02 -0.23596295276E+02  0.27612081229E+02  0.00000000000E+00 0. -1.
</event>
<event>
 7    1  0.6671761E-006  0.1342691E+03  0.7561462E-02  0.1221255E+00
         -2   -1    0    0    0  501 -0.00000000000E+00  0.00000000000E+00  0.51669915684E+02  0.51669915684E+02  0.00000000000E+00 0.  1.
          2   -1    0    0  501    0  0.00000000000E+00 -0.00000000000E+00 -0.53614339435E+03  0.53614339435E+03  0.00000000000E+00 0. -1.
         23    2    1    2    0    0 -0.10358358847E+03  0.21595375618E+02 -0.13890050013E+03  0.21479502415E+03  0.12509050089E+03 0.  0.
          5    1    3    3  502    0 -0.37123399574E+02  0.50156130428E+02 -0.52415546042E+01  0.62759306163E+02  0.41800000000E+01 0.  1.
         -5    1    3    3    0  502 -0.66460188899E+02 -0.28560754809E+02 -0.13365894553E+03  0.15203571798E+03  0.41800000000E+01 0.  1.
        -11    1    1    2    0    0  0.10108046731E+03 -0.44540809536E+02 -0.22982689943E+03  0.25499323185E+03  0.00000000000E+00 0.  1.
         11    1    1    2    0    0  0.25031211667E+01  0.22945433918E+02 -0.11574607910E+03  0.11802505404E+03  0.00000000000E+00 0. -1.
</event>
<event>
 7    1  0.6671761E-006  0.1043336E+03  0.7561462E-02  0.1271438E+00
         -4   -1    0    0    0  501 -0.00000000000E+00  0.00000000000E+00  0.18004053457E+03  0.18004053457E+03  0.00000000000E+00 0.  1.
          4   -1    0    0  501    0  0.00000000000E+00 -0.00000000000E+00 -0.70495669365E+02  0.70495669365E+02  0.00000000000E+00 0. -1.
         23    2    1    2    0    0  0.24884831469E+02 -0.33447600282E+02  0.89290105824E+02  0.14783057017E+03  0.11019599664E+03 0.  0.
          5    1    3    3  502    0  0.55388805257E+02  0.14563947980E+02  0.27264879967E+02  0.63567872453E+02  0.41800000000E+01 0. -1.
         -5    1    3    3    0  502 -0.30503973788E+02 -0.48011548261E+02  0.62025225857E+02  0.84262697713E+02  0.41800000000E+01 0.  1.
        -11    1    1    2    0    0 -0.51530809512E+02  0.41725205980E+02  0.30497407413E+02  0.72982936375E+02  0.00000000000E+00 0. -1.
         11    1    1    2    0    0  0.26645978042E+02 -0.82776056984E+01 -0.10242648029E+02  0.29722697397E+02  0.00000000000E+00 0.  1.
</event>
<event>
 7    1  0.6671761E-006  0.1300369E+03  0.7561462E-02  0.1227401E+00
          1   -1    0    0  501    0  0.00000000000E+00  0.00000000000E+00  0.34911964135E+03  0.34911964135E+03  0.00000000000E+00 0. -1.
         -1   -1    0    0    0  501 -0.00000000000E+00 -0.00000000000E+00 -0.56957051786E+02  0.56957051786E+02  0.00000000000E+00 0.  1.
         23    2    1    2    0    0 -0.86296667649E+02  0.29553889040E+02  0.15843242164E+03  0.22151589184E+03  0.12509161005E+03 0.  0.
          5    1    3    3  502    0 -0.25544099933E+01 -0.29817691000E+02  0.97482139451E+02  0.10205811883E+03  0.41800000000E+01 0. -1.
         -5    1    3    3    0  502 -0.83742257655E+02  0.59371580039E+02  0.60950282193E+02  0.11945777301E+03  0.41800000000E+01 0. -1.
        -11    1    1    2    0    0  0.97375788892E+02 -0.45675660495E+02  0.11543725894E+03  0.15777855043E+03  0.00000000000E+00 0.  1.
         11    1    1    2    0    0 -0.11079121244E+02  0.16121771455E+02  0.18292908972E+02  0.26782250858E+02  0.00000000000E+00 0. -1.
</event>
<event>
 7    1  0.6671761E-006  0.8937901E+02  0.7561462E-02  0.1304363E+00
          2   -1    0    0  501    0  0.00000000000E+00  0.00000000000E+00  0.99424929489E+03  0.99424929489E+03  0.00000000000E+00 0. -1.
         -2   -1    0    0    0  501 -0.00000000000E+00 -0.00000000000E+00 -0.17477110054E+02  0.17477110054E+02  0.00000000000E+00 0.  1.
         23    2    1    2    0    0 -0.62221035836E+02  0.31356332561E+02  0.42042141487E+03  0.44413573773E+03  0.12509080926E+03 0.  0.
          5    1    3    3  502    0 -0.53092091808E+02  0.30965071711E+02  0.68718338437E+02  0.92289156006E+02  0.41800000000E+01 0.  1.
         -5    1    3    3    0  502 -0.91289440276E+01  0.39126085018E+00  0.35170307643E+03  0.35184658173E+03  0.41800000000E+01 0.  1.
        -11    1    1    2    0    0 -0.19875568530E+02 -0.22514083393E+01  0.50892778524E+02  0.54682556357E+02  0.00000000000E+00 0.  1.
         11    1    1    2    0    0  0.82096604365E+02 -0.29104924222E+02  0.50545799145E+03  0.51290811086E+03  0.00000000000E+00 0. -1.
</event>
<event>
 7    1  0.6671761E-006  0.1277799E+03  0.7561462E-02  0.1230788E+00
         -2   -1    0    0    0  501 -0.00000000000E+00  0.00000000000E+00  0.18809221458E+02  0.18809221458E+02  0.00000000000E+00 0.  1.
          2   -1    0    0  501    0  0.00000000000E+00 -0.00000000000E+00 -0.93685681896E+03  0.93685681896E+03  0.00000000000E+00 0. -1.
         23    2    1    2    0    0 -0.23892163687E+02  0.73242460313E+02 -0.53009633486E+03  0.55007637465E+03  0.12508637112E+03 0.  0.
          5    1    3    3  502    0 -0.32641762687E+02  0.10516367480E+03 -0.45030605714E+03  0.46359238634E+03  0.41800000000E+01 0.  1.
         -5    1    3    3    0  502  0.87495989993E+01 -0.31921214488E+02 -0.79790277716E+02  0.86483988316E+02  0.41800000000E+01 0.  1.
        -11    1    1    2    0    0 -0.29913610217E+02 -0.34734375747E+02 -0.22675877864E+03  0.23134572532E+03  0.00000000000E+00 0.  1.
         11    1    1    2    0    0  0.53805773904E+02 -0.38508084566E+02 -0.16119248400E+03  0.17424394044E+03  0.00000000000E+00 0. -1.
</event>
<event>
 7    1  0.6671761E-006  0.9454029E+02  0.7561462E-02  0.1292215E+00
         -1   -1    0    0    0  501 -0.00000000000E+00  0.00000000000E+00  0.54041239154E+02  0.54041239154E+02  0.00000000000E+00 0.  1.
          1   -1    0    0  501    0  0.00000000000E+00 -0.00000000000E+00 -0.36223529396E+03  0.36223529396E+03  0.00000000000E+00 0. -1.
         23    2    1    2    0    0 -0.55216053717E+01 -0.10255931992E+02 -0.38636538027E+02  0.13143936444E+03  0.12509137535E+03 0.  0.
          5    1    3    3  502    0  0.14541646424E+02 -0.55493450681E+02  0.13868552123E+02  0.59167488431E+02  0.41800000000E+01 0. -1.
         -5    1    3    3    0  502 -0.20063251796E+02  0.45237518690E+02 -0.52505090151E+02  0.72271876007E+02  0.41800000000E+01 0. -1.
        -11    1    1    2    0    0 -0.28985654267E+02 -0.20637810684E+02 -0.56251284935E+02  0.66560457029E+02  0.00000000000E+00 0.  1.
         11    1    1    2    0    0  0.34507259639E+02  0.30893742675E+02 -0.21330623184E+03  0.21827671165E+03  0.00000000000E+00 0. -1.
</event>
<event>
 7    1  0.6671761E-006  0.1362229E+03  0.7561462E-02  0.1218504E+00
         -1   -1    0    0    0  501 -0.00000000000E+00  0.00000000000E+00  0.27497413951E+03  0.27497413951E+03  0.00000000000E+00 0.  1.
          1   -1    0    0  501    0  0.00000000000E+00 -0.00000000000E+00 -0.88920298366E+02  0.88920298366E+02  0.00000000000E+00 0. -1.
         23    2    1    2    0    0 -0.10494784711E+03 -0.12083209290E+02  0.14209437422E+03  0.21679254040E+03  0.12509252507E+03 0.  0.
          5    1    3    3  502    0 -0.24279612895E+02 -0.63405923250E+02  0.59954148222E+02  0.90674048076E+02  0.41800000000E+01 0.  1.
         -5    1    3    3    0  502 -0.80668234211E+02  0.51322713960E+02  0.82140225995E+02  0.12611849232E+03  0.41800000000E+01 0.  1.
        -11    1    1    2    0    0  0.26831574694E+02  0.14631991446E+02 -0.27565101000E+02  0.41156571375E+02  0.00000000000E+00 0. -1.
         11    1    1    2    0    0  0.78116272412E+02 -0.25487821564E+01  0.71524567927E+02  0.10594532610E+03  0.00000000000E+00 0.  1.
</event>
<event>
 7    1  0.6671761E-006  0.1096071E+03  0.7561462E-02  0.1261299E+00
          2   -1    0    0  501    0  0.00000000000E+00  0.00000000000E+00  0.67540827068E+03  0.67540827068E+03  0.00000000000E+00 0. -1.
         -2   -1    0    0    0  501 -0.00000000000E+00 -0.00000000000E+00 -0.18674587026E+02  0.18674587026E+02  0.00000000000E+00 0.  1.
         23    2    1    2    0    0 -0.10186905794E+02  0.29337988307E+02  0.36891354895E+03  0.39078035220E+03  0.12509031323E+03 0.  0.
          5    1    3    3  502    0 -0.98481666881E+01 -0.47058340407E+02  0.97515148150E+02  0.10880326423E+03  0.41800000000E+01 0. -1.
         -5    1    3    3    0  502 -0.33873910561E+00  0.76396328714E+02  0.27139840080E+03  0.28197708797E+03  0.41800000000E+01 0. -1.
        -11    1    1    2    0    0  0.29329568442E+02 -0.55057516967E+02  0.21185701843E+03  0.22085051510E+03  0.00000000000E+00 0.  1.
         11    1    1    2    0    0 -0.19142662648E+02  0.25719528660E+02  0.75963116277E+02  0.82451990408E+02  0.00000000000E+00 0. -1.
</event>
<event>
 6    1  0.6671761E-006  0.1401734E+03  0.7561462E-02  0.1213096E+00
          1   -1    0    0  501    0  0.00000000000E+00  0.00000000000E+00  0.13045642522E+03  0.13045642522E+03  0.00000000000E+00 0. -1.
         -1   -1    0    0    0  501 -0.00000000000E+00 -0.00000000000E+00 -0.19041737234E+03  0.19041737234E+03  0.00000000000E+00 0.  1.
          5    1    1    2  502    0 -0.18071683105E+02 -0.71451014289E+02 -0.68552567820E+02  0.10074105483E+03  0.41800000000E+01 0. -1.
         -5    1    1    2    0  502 -0.54614295422E+02  0.71634157749E+02 -0.33696870659E+02  0.96265909403E+02  0.41800000000E+01 0.  1.
        -11    1    1    2    0    0  0.89182040721E+02  0.18863003097E+02  0.31312072234E+02  0.96383064594E+02  0.00000000000E+00 0.  1.
         11    1    1    2    0    0 -0.16496062194E+02 -0.19046146557E+02  0.10976419127E+02  0.27483768727E+02  0.00000000000E+00 0. -1.
</event>
<event>
 7    1  0.6671761E-006  0.2505116E+03  0.7561462E-02  0.1112982E+00
          2   -1    0    0  501    0  0.00000000000E+00  0.00000000000E+00  0.18641733833E+03  0.18641733833E+03  0.00000000000E+00 0. -1.
         -2   -1    0    0    0  501 -0.00000000000E+00 -0.00000000000E+00 -0.37826781123E+03  0.37826781123E+03  0.00000000000E+00 0.  1.
         23    2    1    2    0    0 -0.19110439869E+03 -0.12306288546E+03 -0.18744158678E+03  0.32007709867E+03  0.12509850383E+03 0.  0.
          5    1    3    3  502    0 -0.16064623765E+03 -0.14704894491E+03 -0.14119102235E+03  0.25958232425E+03  0.41800000000E+01 0.  1.
         -5    1    3    3    0  502 -0.30458161037E+02  0.23986059448E+02 -0.46250564431E+02  0.60494774418E+02  0.41800000000E+01 0.  1.
        -11    1    1    2    0    0  0.95281075079E+02  0.97087809675E+01 -0.82493592709E+01  0.96129057128E+02  0.00000000000E+00 0.  1.
         11    1    1    2    0    0  0.95823323611E+02  0.11335410449E+03  0.38404731539E+01  0.14847899376E+03  0.00000000000E+00 0. -1.
</event>
<event>
 7    1  0.6671761E-006  0.1324723E+03  0.7561462E-02  0.1223833E+00
          1   -1    0    0  501    0  0.00000000000E+00  0.00000000000E+00  0.47967899803E+03  0.47967899803E+03  0.00000000000E+00 0. -1.
         -1   -1    0    0    0  501 -0.00000000000E+00 -0.00000000000E+00 -0.42321253572E+02  0.42321253572E+02  0.00000000000E+00 0.  1.
         23    2    1    2    0    0  0.74815539359E+02 -0.27280376655E+02  0.15530791952E+03  0.21473303242E+03  0.12509253163E+03 0.  0.
          5    1    3    3  502    0  0.88123970141E+02 -0.62946589026E+02  0.12788025996E+03  0.16762738580E+03  0.41800000000E+01 0. -1.
         -5    1    3    3    0  502 -0.13308430782E+02  0.35666212371E+02  0.27427659558E+02  0.47105646621E+02  0.41800000000E+01 0. -1.
        -11    1    1    2    0    0  0.43051797964E+01  0.38162822973E+02  0.59472717035E+02  0.70795054219E+02  0.00000000000E+00 0.  1.
         11    1    1    2    0    0 -0.79120719156E+02 -0.10882446317E+02  0.22257710791E+03  0.23647216496E+03  0.00000000000E+00 0. -1.
</event>
<event>
 7    1  0.6671761E-006  0.2118461E+03  0.7561462E-02  0.1140112E+00
         -1   -1    0    0    0  501 -0.00000000000E+00  0.00000000000E+00  0.26983647595E+03  0.26983647595E+03  0.00000000000E+00 0.  1.
          1   -1    0    0  501    0  0.00000000000E+00 -0.00000000000E+00 -0.20582260026E+03  0.20582260026E+03  0.00000000000E+00 0. -1.
         23    2    1    2    0    0  0.20715798088E+03  0.14658716022E+02  0.14164978585E+02  0.24285948618E+03  0.12510306316E+03 0.  0.
          5    1    3    3  502    0  0.18441038410E+03 -0.30447762729E+01  0.55176579530E+02  0.19255749208E+03  0.41800000000E+01 0.  1.
         -5    1    3    3    0  502  0.22747596784E+02  0.17703492295E+02 -0.41011600945E+02  0.50301994105E+02  0.41800000000E+01 0.  1.
        -11    1    1    2    0    0 -0.14322309752E+03  0.46426482899E+01 -0.92830557169E+01  0.14359869417E+03  0.00000000000E+00 0. -1.
         11    1    1    2    0    0 -0.63934883368E+02 -0.19301364312E+02  0.59131952827E+02  0.89200895851E+02  0.00000000000E+00 0.  1.
</event>
<event>
 7    1  0.6671761E-006  0.9887182E+02  0.7561462E-02  0.1282686E+00
         -2   -1    0    0    0  501 -0.00000000000E+00  0.00000000000E+00  0.48632069482E+02  0.48632069482E+02  0.00000000000E+00 0.  1.
          2   -1    0    0  501    0  0.00000000000E+00 -0.00000000000E+00 -0.29398546591E+03  0.29398546591E+03  0.00000000000E+00 0. -1.
         23    2    1    2    0    0  0.27019559821E+02 -0.34699601097E+02 -0.98198509583E+02  0.16499803316E+03  0.12508910717E+03 0.  0.
          5    1    3    3  502    0  0.31520596007E+02  0.43220454649E+02 -0.48839981653E+02  0.72555991348E+02  0.41800000000E+01 0. -1.
         -5    1    3    3    0  502 -0.45010361863E+01 -0.77920055746E+02 -0.49358527930E+02  0.92442041808E+02  0.41800000000E+01 0. -1.
        -11    1    1    2    0    0  0.45031634284E+01  0.34100808827E+02 -0.14145879596E+03  0.14558068071E+03  0.00000000000E+00 0. -1.
         11    1    1    2    0    0 -0.31522723249E+02  0.59879226947E+00 -0.56960908923E+01  0.32038821524E+02  0.00000000000E+00 0.  1.
</event>
<event>
 7    1  0.6671761E-006  0.1035838E+03  0.7561462E-02  0.1272935E+00
         -1   -1    0    0    0  501 -0.00000000000E+00  0.00000000000E+00  0.91685013603E+02  0.91685013603E+02  0.00000000000E+00 0.  1.
          1   -1    0    0  501    0  0.00000000000E+00 -0.00000000000E+00 -0.15852242117E+03  0.15852242117E+03  0.00000000000E+00 0. -1.
         23    2    1    2    0    0  0.14937202040E+02  0.50228164795E+02 -0.37345390594E+02  0.14067353335E+03  0.12509347002E+03 0.  0.
          5    1    3    3  502    0  0.10771614506E+02  0.81189325393E+02 -0.60208174941E+02  0.10173608488E+03  0.41800000000E+01 0.  1.
         -5    1    3    3    0  502  0.41655875345E+01 -0.30961160597E+02  0.22862784347E+02  0.38937448468E+02  0.41800000000E+01 0.  1.
        -11    1    1    2    0    0  0.22263726807E+02  0.87416364778E+01  0.13653203692E+02  0.27540873456E+02  0.00000000000E+00 0.  1.
         11    1    1    2    0    0 -0.37200928847E+02 -0.58969801273E+02 -0.43145220663E+02  0.81993027968E+02  0.00000000000E+00 0. -1.
</event>
<event>
 6    1  0.6671761E-006  0.6142480E+02  0.7561462E-02  0.1391948E+00
         -2   -1    0    0    0  501 -0.00000000000E+00  0.00000000000E+00  0.19318101739E+04  0.19318101739E+04  0.00000000000E+00 0.  1.
          2   -1    0    0  501    0  0.00000000000E+00 -0.00000000000E+00 -0.35213196213E+02  0.35213196213E+02  0.00000000000E+00 0. -1.
          5    1    1    2  502    0  0.12924097415E+02 -0.13916601212E+02  0.36831303350E+02  0.41649986671E+02  0.41800000000E+01 0. -1.
         -5    1    1    2    0  502 -0.72132223341E+01 -0.28578688136E+02  0.18133488022E+04  0.18135931525E+04  0.41800000000E+01 0.  1.
        -11    1    1    2    0    0  0.24452320475E+02  0.34750549019E+02 -0.13221385348E+02  0.44500805209E+02  0.00000000000E+00 0. -1.
         11    1    1    2    0    0 -0.30163195556E+02  0.77447403293E+01  0.59638257441E+02  0.67279425677E+02  0.00000000000E+00 0.  1.
</event>
<event>
 7    1  0.6671761E-006  0.1930283E+03  0.7561462E-02  0.1155758E+00
         -1   -1    0    0    0  501 -0.00000000000E+00  0.00000000000E+00  0.13874235242E+04  0.13874235242E+04  0.00000000000E+00 0.  1.
          1   -1    0    0  501    0  0.00000000000E+00 -0.00000000000E+00 -0.34101856514E+02  0.34101856514E+02  0.00000000000E+00 0. -1.
         23    2    1    2    0    0 -0.17849177390E+03  0.63055713193E+01  0.89613881667E+03  0.92228601748E+03  0.12509055004E+03 0.  0.
          5    1    3    3  502    0 -0.98455641668E+02  0.35729122889E+02  0.70754720825E+03  0.71526960504E+03  0.41800000000E+01 0. -1.
         -5    1    3    3    0  502 -0.80036132229E+02 -0.29423551569E+02  0.18859160842E+03  0.20701641243E+03  0.41800000000E+01 0. -1.
        -11    1    1    2    0    0  0.15433158569E+02 -0.27394618234E+02  0.40368373955E+02  0.51168868538E+02  0.00000000000E+00 0.  1.
         11    1    1    2    0    0  0.16305861533E+03  0.21089046915E+02  0.41681447704E+03  0.44807049468E+03  0.00000000000E+00 0. -1.
</event>
<event>
 7    1  0.6671761E-006  0.9500163E+02  0.7561462E-02  0.1291172E+00
          1   -1    0    0  501    0  0.00000000000E+00  0.00000000000E+00  0.15793990113E+03  0.15793990113E+03  0.00000000000E+00 0. -1.
         -1   -1    0    0    0  501 -0.00000000000E+00 -0.00000000000E+00 -0.83543218405E+02  0.83543218405E+02  0.00000000000E+00 0.  1.
         23    2    1    2    0    0 -0.27231807250E+01  0.34582775096E+02  0.63293523377E+02  0.14441153265E+03  0.12508092027E+03 0.  0.
          5    1    3    3  502    0  0.33713780212E+02 -0.24372234776E+02 -0.10479642626E+02  0.43103597457E+02  0.41800000000E+01 0.  1.
         -5    1    3    3    0  502 -0.36436960936E+02  0.58955009872E+02  0.73773166003E+02  0.10130793519E+03  0.41800000000E+01 0.  1.
        -11    1    1    2    0    0  0.14114733733E+01 -0.56643562351E+02  0.33322323500E+02  0.65733269022E+02  0.00000000000E+00 0. -1.
         11    1    1    2    0    0  0.13117073517E+01  0.22060787256E+02 -0.22219164154E+02  0.31338317859E+02  0.00000000000E+00 0.  1.
</event>
<event>
 7    1  0.6671761E-006  0.7776082E+02  0.7561462E-02  0.1335529E+00
          2   -1    0    0  501    0  0.00000000000E+00  0.00000000000E+00  0.30920291074E+03  0.30920291074E+03  0.00000000000E+00 0. -1.
         -2   -1    0    0    0  501 -0.00000000000E+00 -0.00000000000E+00 -0.41978184714E+02  0.41978184714E+02  0.00000000000E+00 0.  1.
         23    2    1    2    0    0 -0.11854488061E+02  0.30790429289E+02  0.13533990533E+03  0.18722253146E+03  0.12508719714E+03 0.  0.
          5    1    3    3  502    0  0.25499418040E+02  0.47412771379E+02  0.13577877653E+03  0.14612166084E+03  0.41800000000E+01 0. -1.
         -5    1    3    3    0  502 -0.37353906102E+02 -0.16622342090E+02 -0.43887120008E+00  0.41100870618E+02  0.41800000000E+01 0. -1.
        -11    1    1    2    0    0 -0.87272958550E+01 -0.37714398439E+02  0.97657550384E+01  0.39923821385E+02  0.00000000000E+00 0.  1.
         11    1    1    2    0    0  0.20581783916E+02  0.69239691494E+01  0.12211906565E+03  0.12403474261E+03  0.00000000000E+00 0. -1.
</event>
<event>
 7    1  0.6671761E-006  0.1187423E+03  0.7561462E-02  0.1245186E+00
         -1   -1    0    0    0  501 -0.00000000000E+00  0.00000000000E+00  0.71425730324E+02  0.71425730324E+02  0.00000000000E+00 0.  1.
          1   -1    0    0  501    0  0.00000000000E+00 -0.00000000000E+00 -0.24511544602E+03  0.24511544602E+03  0.00000000000E+00 0. -1.
         23    2    1    2    0    0  0.53943651019E+02 -0.50603118318E+02 -0.10221165715E+03  0.17766572348E+03  0.12508914171E+03 0.  0.
          5    1    3    3  502    0  0.86156411690E+02 -0.16520206595E+01 -0.66351350902E+02  0.10883763418E+03  0.41800000000E+01 0.  1.
         -5    1    3    3    0  502 -0.32212760671E+02 -0.48951097658E+02 -0.35860306251E+02  0.68828089298E+02  0.41800000000E+01 0.  1.
        -11    1    1    2    0    0 -0.17986558260E+02 -0.11036127811E+02 -0.63685705338E+02  0.67090844826E+02  0.00000000000E+00 0. -1.
         11    1    1    2    0    0 -0.35957092759E+02  0.61639246129E+02 -0.77923532056E+01  0.71784608040E+02  0.00000000000E+00 0.  1.
</event>
<event>
 6    1  0.6671761E-006  0.1207844E+03  0.7561462E-02  0.1241809E+00
          1   -1    0    0  501    0  0.00000000000E+00  0.00000000000E+00  0.31347496669E+02  0.31347496669E+02  0.00000000000E+00 0. -1.
         -1   -1    0    0    0  501 -0.00000000000E+00 -0.00000000000E+00 -0.22148979673E+04  0.22148979673E+04  0.00000000000E+00 0.  1.
          5    1    1    2  502    0  0.37756494759E+02 -0.30206724946E+02 -0.41207000214E+02  0.63667011828E+02  0.41800000000E+01 0. -1.
         -5    1    1    2    0  502 -0.76586937435E+02 -0.22668048847E+02 -0.19924524571E+04  0.19940570869E+04  0.41800000000E+01 0.  1.
        -11    1    1    2    0    0  0.65814193763E+02  0.16654991061E+02 -0.10346778279E+03  0.12375168243E+03  0.00000000000E+00 0.  1.
         11    1    1    2    0    0 -0.26983751087E+02  0.36219782733E+02 -0.46423230487E+02  0.64769682822E+02  0.00000000000E+00 0. -1.
</event>
<event>
 7    1  0.6671761E-006  0.1051869E+03  0.7561462E-02  0.1269752E+00
         -1   -1    0    0    0  501 -0.00000000000E+00  0.00000000000E+00  0.38802894604E+02  0.38802894604E+02  0.00000000000E+00 0.  1.
          1   -1    0    0  501    0  0.00000000000E+00 -0.00000000000E+00 -0.32254800035E+03  0.32254800035E+03  0.00000000000E+00 0. -1.
         23    2    1    2    0    0  0.10851715721E+02 -0.12366097426E+02 -0.20003935379E+03  0.23650123820E+03  0.12508562069E+03 0.  0.
          5    1    3    3  502    0 -0.20479162439E+01 -0.66042603861E+02 -0.76801520746E+02  0.10139904080E+03  0.41800000000E+01 0.  1.
         -5    1    3    3    0  502  0.12899631965E+02  0.53676506435E+02 -0.12323783305E+03  0.13510219740E+03  0.41800000000E+01 0.  1.
        -11    1    1    2    0    0  0.36118114782E+02 -0.89708890979E+01 -0.18082307216E+02  0.41375897584E+02  0.00000000000E+00 0.  1.
         11    1    1    2    0    0 -0.46969830503E+02  0.21336986524E+02 -0.65623444740E+02  0.83473759176E+02  0.00000000000E+00 0. -1.
</event>
<event>
 7    1  0.6671761E-006  0.1144383E+03  0.7561462E-02  0.1252565E+00
          1   -1    0    0  501    0  0.00000000000E+00  0.00000000000E+00  0.24128657962E+02  0.24128657962E+02  0.00000000000E+00 0. -1.
         -1   -1    0    0    0  501 -0.00000000000E+00 -0.00000000000E+00 -0.58983701228E+03  0.58983701228E+03  0.00000000000E+00 0.  1.
         23    2    1    2    0    0  0.44971479098E+02  0.97703881318E+01 -0.37669734460E+03  0.39957538626E+03  0.12506680399E+03 0.  0.
          5    1    3    3  502    0  0.65349957396E+02 -0.40466381234E+02 -0.25308357750E+03  0.26453150010E+03  0.41800000000E+01 0. -1.
         -5    1    3    3    0  502 -0.20378478298E+02  0.50236769366E+02 -0.12361376710E+03  0.13504388616E+03  0.41800000000E+01 0. -1.
        -11    1    1    2    0    0  0.20377283979E+02  0.17358782420E+02 -0.29183261115E+02  0.39600805026E+02  0.00000000000E+00 0. -1.
         11    1    1    2    0    0 -0.65348763076E+02 -0.27129170552E+02 -0.15982774860E+03  0.17478947896E+03  0.00000000000E+00 0.  1.
</event>
<event>
 7    1  0.6671761E-006  0.9634131E+02  0.7561462E-02  0.1288183E+00
          1   -1    0    0  501    0  0.00000000000E+00  0.00000000000E+00  0.34670363561E+03  0.34670363561E+03  0.00000000000E+00 0. -1.
         -1   -1    0    0    0  501 -0.00000000000E+00 -0.00000000000E+00 -0.65764497495E+02  0.65764497495E+02  0.00000000000E+00 0.  1.
         23    2    1    2    0    0 -0.70222938353E+02 -0.40164885078E+02  0.62360166253E+02  0.16150242662E+03  0.12509901840E+03 0.  0.
          5    1    3    3  502    0 -0.25242734126E+02 -0.17628647612E+02 -0.38044586717E+02  0.49120543780E+02  0.41800000000E+01 0.  1.
         -5    1    3    3    0  502 -0.44980204226E+02 -0.22536237467E+02  0.10040475297E+03  0.11238188284E+03  0.41800000000E+01 0.  1.
        -11    1    1    2    0    0 -0.16353766813E+02  0.11252089056E+02  0.79025507662E+01  0.21365989463E+02  0.00000000000E+00 0.  1.
         11    1    1    2    0    0  0.86576705166E+02  0.28912796022E+02  0.21067642109E+03  0.22959971702E+03  0.00000000000E+00 0. -1.
</event>
<event>
 6    1  0.6671761E-006  0.1083470E+03  0.7561462E-02  0.1263662E+00
         -2   -1    0    0    0  501 -0.00000000000E+00  0.00000000000E+00  0.47131694551E+02  0.47131694551E+02  0.00000000000E+00 0.  1.
          2   -1    0    0  501    0  0.00000000000E+00 -0.00000000000E+00 -0.44741951265E+03  0.44741951265E+03  0.00000000000E+00 0. -1.
          5    1    1    2  502    0 -0.76862922143E+02 -0.14533599723E+02 -0.20968370164E+03  0.22383891854E+03  0.41800000000E+01 0. -1.
         -5    1    1    2    0  502  0.46178608881E+02 -0.50837341373E+01  0.97582354846E+01  0.47655050422E+02  0.41800000000E+01 0.  1.
        -11    1    1    2    0    0 -0.28554550132E+02  0.15100311134E+02 -0.36412827993E+02  0.48675206954E+02  0.00000000000E+00 0. -1.
         11    1    1    2    0    0  0.59238863394E+02  0.45170227268E+01 -0.16394952396E+03  0.17438203129E+03  0.00000000000E+00 0.  1.
</event>
<event>
 7    1  0.6671761E-006  0.2454614E+03  0.7561462E-02  0.1116207E+00
         -1   -1    0    0    0  501 -0.00000000000E+00  0.00000000000E+00  0.16914588023E+03  0.16914588023E+03  0.00000000000E+00 0.  1.
          1   -1    0    0  501    0  0.00000000000E+00 -0.00000000000E+00 -0.45071066044E+03  0.45071066044E+03  0.00000000000E+00 0. -1.
         23    2    1    2    0    0  0.13182908697E+02 -0.23651456814E+03 -0.42120324536E+02  0.27117247609E+03  0.12508980785E+03 0.  0.
          5    1    3    3  502    0 -0.17455400514E+02 -0.11450545539E+03 -0.78700609209E+02  0.14009799646E+03  0.41800000000E+01 0.  1.
         -5    1    3    3    0  502  0.30638309212E+02 -0.12200911274E+03  0.36580284673E+02  0.13107447963E+03  0.41800000000E+01 0.  1.
        -11    1    1    2    0    0  0.23550275261E+02  0.24514910167E+02 -0.13200840811E+02  0.36467224784E+02  0.00000000000E+00 0.  1.
         11    1    1    2    0    0 -0.36733183958E+02  0.21199965797E+03 -0.22624361486E+03  0.31221683979E+03  0.00000000000E+00 0. -1.
</event>
<event>
 7    1  0.6671761E-006  0.1115658E+03  0.7561462E-02  0.1257697E+00
         -2   -1    0    0    0  501 -0.00000000000E+00  0.00000000000E+00  0.32984059083E+02  0.32984059083E+02  0.00000000000E+00 0. -1.
          2   -1    0    0  501    0  0.00000000000E+00 -0.00000000000E+00 -0.65304368694E+03  0.65304368694E+03  0.00000000000E+00 0.  1.
         23    2    1    2    0    0 -0.33035923006E+02  0.83218560581E+02 -0.25008903374E+03  0.29361437627E+03  0.12509267012E+03 0.  0.
          5    1    3    3  502    0 -0.16526342598E+02  0.73805477015E+02 -0.26067829110E+03  0.27146088537E+03  0.41800000000E+01 0. -1.
         -5    1    3    3    0  502 -0.16509580408E+02  0.94130835657E+01  0.10589257356E+02  0.22153490895E+02  0.41800000000E+01 0. -1.
        -11    1    1    2    0    0 -0.12107110136E+02 -0.81870811473E+02 -0.27620955735E+03  0.28834203901E+03  0.00000000000E+00 0.  1.
         11    1    1    2    0    0  0.45143033142E+02 -0.13477491082E+01 -0.93761036757E+02  0.10407133074E+03  0.00000000000E+00 0. -1.
</event>
<event>
 7    1  0.6671761E-006  0.9172657E+02  0.7561462E-02  0.1298724E+00
          2   -1    0    0  501    0  0.00000000000E+00  0.00000000000E+00  0.76387949550E+02  0.76387949550E+02  0.00000000000E+00 0. -1.
         -2   -1    0    0    0  501 -0.00000000000E+00 -0.00000000000E+00 -0.16360527623E+03  0.16360527623E+03  0.00000000000E+00 0.  1.
         23    2    1    2    0    0  0.51057675925E+02 -0.25843180374E+02 -0.80522027083E+02  0.15942032256E+03  0.12512508204E+03 0.  0.
          5    1    3    3  502    0 -0.25505403998E+02 -0.30174144648E+02 -0.71889257920E+02  0.82137338907E+02  0.41800000000E+01 0. -1.
         -5    1    3    3    0  502  0.76563079923E+02  0.43309642737E+01 -0.86327691625E+01  0.77282983653E+02  0.41800000000E+01 0. -1.
        -11    1    1    2    0    0 -0.96215787631E-01  0.14773613103E+02 -0.21750320490E+02  0.26293446769E+02  0.00000000000E+00 0.  1.
         11    1    1    2    0    0 -0.50961460138E+02  0.11069567271E+02  0.15055020889E+02  0.54279456454E+02  0.00000000000E+00 0. -1.
</event>
<event>
 7    1  0.6671761E-006  0.7694812E+02  0.7561462E-02  0.1337942E+00
          2   -1    0    0  501    0  0.00000000000E+00  0.00000000000E+00  0.17554434614E+03  0.17554434614E+03  0.00000000000E+00 0. -1.
         -2   -1    0    0    0  501 -0.00000000000E+00 -0.00000000000E+00 -0.77696963140E+02  0.77696963140E+02  0.00000000000E+00 0.  1.
         23    2    1    2    0    0  0.74881932229E+01  0.28327935312E+02  0.23069595147E+02  0.13055537706E+03  0.12511576760E+03 0.  0.
          5    1    3    3  502    0  0.50160219896E+01  0.50573775659E+02 -0.39157345761E+02  0.64293369705E+02  0.41800000000E+01 0.  1.
         -5    1    3    3    0  502  0.24721712333E+01 -0.22245840347E+02  0.62226940908E+02  0.66262007351E+02  0.41800000000E+01 0.  1.
        -11    1    1    2    0    0 -0.36798183219E+02 -0.34204160557E+02  0.77830720698E+02  0.92637206197E+02  0.00000000000E+00 0. -1.
         11    1    1    2    0    0  0.29309989996E+02  0.58762252450E+01 -0.30529328490E+01  0.30048726024E+02  0.00000000000E+00 0.  1.
</event>
<event>
 7    1  0.6671761E-006  0.1120751E+03  0.7561462E-02  0.1256775E+00
         -3   -1    0    0    0  501 -0.00000000000E+00  0.00000000000E+00  0.82464103108E+02  0.82464103108E+02  0.00000000000E+00 0.  1.
          3   -1    0    0  501    0  0.00000000000E+00 -0.00000000000E+00 -0.26651777773E+03  0.26651777773E+03  0.00000000000E+00 0. -1.
         23    2    1    2    0    0  0.60374310686E+02  0.26355236140E+02 -0.83734290542E+01  0.14162598735E+03  0.12509256619E+03 0.  0.
          5    1    3    3  502    0  0.46644702420E+02 -0.44224078822E+02  0.14563147111E+02  0.66038284845E+02  0.41800000000E+01 0.  1.
         -5    1    3    3    0  502  0.13729608267E+02  0.70579314963E+02 -0.22936576165E+02  0.75587702505E+02  0.41800000000E+01 0.  1.
        -11    1    1    2    0    0 -0.44006375314E+02  0.12336309544E+02 -0.15286168723E+03  0.15954761366E+03  0.00000000000E+00 0. -1.
         11    1    1    2    0    0 -0.16367935373E+02 -0.38691545684E+02 -0.22818558342E+02  0.47808279834E+02  0.00000000000E+00 0.  1.
</event>
<event>
 7    1  0.6671761E-006  0.2193079E+03  0.7561462E-02  0.1134400E+00
         -1   -1    0    0    0  501 -0.00000000000E+00  0.00000000000E+00  0.11243133616E+03  0.11243133616E+03  0.00000000000E+00 0.  1.
          1   -1    0    0  501    0  0.00000000000E+00 -0.00000000000E+00 -0.53807636586E+03  0.53807636586E+03  0.00000000000E+00 0. -1.
         23    2    1    2    0    0 -0.18863487165E+03 -0.74722704753E+02 -0.10534870612E+03  0.26059903601E+03  0.12508761043E+03 0.  0.
          5    1    3    3  502    0 -0.20551209096E+02  0.21183175743E+02  0.14277374903E+02  0.33051398821E+02  0.41800000000E+01 0.  1.
         -5    1    3    3    0  502 -0.16808366255E+03 -0.95905880496E+02 -0.11962608102E+03  0.22754763719E+03  0.41800000000E+01 0.  1.
        -11    1    1    2    0    0  0.10115967494E+03  0.15086363600E+01 -0.10234021899E+03  0.14390648436E+03  0.00000000000E+00 0.  1.
         11    1    1    2    0    0  0.87475196707E+02  0.73214068393E+02 -0.21795610459E+03  0.24600218165E+03  0.00000000000E+00 0. -1.
</event>
<event>
 7    1  0.6671761E-006  0.9966385E+02  0.7561462E-02  0.1281004E+00
         -1   -1    0    0    0  501 -0.00000000000E+00  0.00000000000E+00  0.48207604035E+02  0.48207604035E+02  0.00000000000E+00 0.  1.
          1   -1    0    0  501    0  0.00000000000E+00 -0.00000000000E+00 -0.25309889053E+03  0.25309889053E+03  0.00000000000E+00 0. -1.
         23    2    1    2    0    0  0.12135076637E+02 -0.37523113036E+02 -0.90291576793E+02  0.14937391399E+03  0.11227089225E+03 0.  0.
          5    1    3    3  502    0 -0.25921683604E+02  0.29519238426E+02 -0.44933926491E+02  0.59831841590E+02  0.41800000000E+01 0. -1.
         -5    1    3    3    0  502  0.38056760241E+02 -0.67042351462E+02 -0.45357650302E+02  0.89542072405E+02  0.41800000000E+01 0.  1.
        -11    1    1    2    0    0  0.11999160539E+02 -0.18252619905E+02  0.41657065355E+00  0.21847460222E+02  0.00000000000E+00 0.  1.
         11    1    1    2    0    0 -0.24134237176E+02  0.55775732941E+02 -0.11501628035E+03  0.13008512035E+03  0.00000000000E+00 0. -1.
</event>
<event>
 7    1  0.6671761E-006  0.1700549E+03  0.7561462E-02  0.1177791E+00
          1   -1    0    0  501    0  0.00000000000E+00  0.00000000000E+00  0.55505724501E+03  0.55505724501E+03  0.00000000000E+00 0. -1.
         -1   -1    0    0    0  501 -0.00000000000E+00 -0.00000000000E+00 -0.59323312182E+02  0.59323312182E+02  0.00000000000E+00 0.  1.
         23    2    1    2    0    0  0.12454879980E+03 -0.46045727244E+02  0.16208256611E+03  0.24403251305E+03  0.12509395133E+03 0.  0.
          5    1    3    3  502    0  0.90406284482E+02  0.31222113514E+02  0.10443468005E+03  0.14167636162E+03  0.41800000000E+01 0.  1.
         -5    1    3    3    0  502  0.34142515317E+02 -0.77267840758E+02  0.57647886055E+02  0.10235615142E+03  0.41800000000E+01 0.  1.
        -11    1    1    2    0    0 -0.44883534189E+02 -0.26436017667E+02  0.12816850773E+03  0.13834941649E+03  0.00000000000E+00 0. -1.
         11    1    1    2    0    0 -0.79665265611E+02  0.72481744911E+02  0.20548285899E+03  0.23199862765E+03  0.00000000000E+00 0.  1.
</event>
<event>
 7    1  0.6671761E-006  0.1464191E+03  0.7561462E-02  0.1204944E+00
          1   -1    0    0  501    0  0.00000000000E+00  0.00000000000E+00  0.17269051148E+03  0.17269051148E+03  0.00000000000E+00 0. -1.
         -1   -1    0    0    0  501 -0.00000000000E+00 -0.00000000000E+00 -0.13388497027E+03  0.13388497027E+03  0.00000000000E+00 0.  1.
         23    2    1    2    0    0 -0.67127557864E+02 -0.76989397979E+02 -0.22391466069E+01  0.16151236722E+03  0.12509098513E+03 0.  0.
          5    1    3    3  502    0 -0.30102616283E+02  0.31179704766E+02 -0.15769050842E+02  0.46308496637E+02  0.41800000000E+01 0.  1.
         -5    1    3    3    0  502 -0.37024941581E+02 -0.10816910274E+03  0.13529904235E+02  0.11520387058E+03  0.41800000000E+01 0.  1.
        -11    1    1    2    0    0 -0.92066697185E+01 -0.13603088494E+02  0.18017417144E+02  0.24381019347E+02  0.00000000000E+00 0.  1.
         11    1    1    2    0    0  0.76334227583E+02  0.90592486472E+02  0.23027270675E+02  0.12068209519E+03  0.00000000000E+00 0. -1.
</event>
<event>
 7    1  0.6671761E-006  0.1768804E+03  0.7561462E-02  0.1170857E+00
         -2   -1    0    0    0  501 -0.00000000000E+00  0.00000000000E+00  0.39417756768E+02  0.39417756768E+02  0.00000000000E+00 0.  1.
          2   -1    0    0  501    0  0.00000000000E+00 -0.00000000000E+00 -0.11209670091E+04  0.11209670091E+04  0.00000000000E+00 0. -1.
         23    2    1    2    0    0  0.15901590145E+02 -0.14439953131E+03 -0.27229758642E+03  0.33301221549E+03  0.12508826837E+03 0.  0.
          5    1    3    3  502    0 -0.45569294676E+02 -0.81952585025E+02 -0.19362739794E+03  0.21517859661E+03  0.41800000000E+01 0. -1.
         -5    1    3    3    0  502  0.61470884821E+02 -0.62446946283E+02 -0.78670188487E+02  0.11783361888E+03  0.41800000000E+01 0. -1.
        -11    1    1    2    0    0  0.36945214083E+02  0.84912209910E+02 -0.44411957184E+03  0.45367083478E+03  0.00000000000E+00 0. -1.
         11    1    1    2    0    0 -0.52846804227E+02  0.59487321398E+02 -0.36513209409E+03  0.37370171562E+03  0.00000000000E+00 0.  1.
</event>
<event>
 7    1  0.6671761E-006  0.2118075E+03  0.7561462E-02  0.1140143E+00
         -3   -1    0    0    0  501 -0.00000000000E+00  0.00000000000E+00  0.59226967750E+02  0.59226967750E+02  0.00000000000E+00 0.  1.
          3   -1    0    0  501    0  0.00000000000E+00 -0.00000000000E+00 -0.10718948151E+04  0.10718948151E+04  0.00000000000E+00 0. -1.
         23    2    1    2    0    0  0.15074460125E+03  0.13363470948E+03 -0.28614711287E+03  0.37162995474E+03  0.12508590118E+03 0.  0.
          5    1    3    3  502    0  0.12567156360E+03  0.13075317990E+03 -0.29347948369E+03  0.34501799329E+03  0.41800000000E+01 0.  1.
         -5    1    3    3    0  502  0.25073037657E+02  0.28815295759E+01  0.73323708225E+01  0.26611961445E+02  0.41800000000E+01 0.  1.
        -11    1    1    2    0    0 -0.74203857049E+02 -0.15403964369E+02 -0.18421509226E+03  0.19919511724E+03  0.00000000000E+00 0. -1.
         11    1    1    2    0    0 -0.76540744206E+02 -0.11823074511E+03 -0.54230564221E+03  0.56029671084E+03  0.00000000000E+00 0.  1.
</event>
<event>
 7    1  0.6671761E-006  0.1052453E+03  0.7561462E-02  0.1269637E+00
         -1   -1    0    0    0  501 -0.00000000000E+00  0.00000000000E+00  0.98184579239E+02  0.98184579239E+02  0.00000000000E+00 0.  1.
          1   -1    0    0  501    0  0.00000000000E+00 -0.00000000000E+00 -0.18892812600E+03  0.18892812600E+03  0.00000000000E+00 0. -1.
         23    2    1    2    0    0 -0.50819367705E+02  0.45823145704E+02  0.24345563930E-01  0.14257641860E+03  0.12508263562E+03 0.  0.
          5    1    3    3  502    0  0.18152500365E+02  0.12957999095E+02 -0.47402785980E+02  0.52553967773E+02  0.41800000000E+01 0. -1.
         -5    1    3    3    0  502 -0.68971868071E+02  0.32865146609E+02  0.47427131543E+02  0.90022450829E+02  0.41800000000E+01 0. -1.
        -11    1    1    2    0    0  0.72619942651E+02 -0.16033897781E+02 -0.50418107680E+02  0.89848358531E+02  0.00000000000E+00 0.  1.
         11    1    1    2    0    0 -0.21800574946E+02 -0.29789247923E+02 -0.40349784650E+02  0.54687928111E+02  0.00000000000E+00 0. -1.
</event>
<event>
 7    1  0.6671761E-006  0.1309786E+03  0.7561462E-02  0.1226011E+00
          1   -1    0    0  501    0  0.00000000000E+00  0.00000000000E+00  0.91340685581E+02  0.91340685581E+02  0.00000000000E+00 0.  1.
         -1   -1    0    0    0  501 -0.00000000000E+00 -0.00000000000E+00 -0.28169001592E+03  0.28169001592E+03  0.00000000000E+00 0. -1.
         23    2    1    2    0    0  0.60973750664E+02  0.80520376064E+02 -0.17013663241E+03  0.23405893820E+03  0.12504312709E+03 0.  0.
          5    1    3    3  502    0  0.46465071768E+02  0.94146459149E+02 -0.18226283355E+03  0.21038006455E+03  0.41800000000E+01 0. -1.
         -5    1    3    3    0  502  0.14508678896E+02 -0.13626083084E+02  0.12126201138E+02  0.23678873655E+02  0.41800000000E+01 0. -1.
        -11    1    1    2    0    0 -0.82001847367E+02 -0.40770355424E+02 -0.58508221252E+01  0.91764682599E+02  0.00000000000E+00 0. -1.
         11    1    1    2    0    0  0.21028096702E+02 -0.39750020640E+02 -0.14361875802E+02  0.47207080701E+02  0.00000000000E+00 0.  1.
</event>
<event>
 7    1  0.6671761E-006  0.3951958E+03  0.7561462E-02  0.1045456E+00
         -2   -1    0    0    0  501 -0.00000000000E+00  0.00000000000E+00  0.13455022787E+03  0.13455022787E+03  0.00000000000E+00 0.  1.
          2   -1    0    0  501    0  0.00000000000E+00 -0.00000000000E+00 -0.11943827293E+04  0.11943827293E+04  0.00000000000E+00 0. -1.
         23    2    1    2    0    0  0.37756611139E+03  0.72306413185E+02 -0.61999246388E+03  0.74014893635E+03  0.12508160078E+03 0.  0.
          5    1    3    3  502    0  0.22397160524E+02 -0.21961990040E+02 -0.88442408668E+02  0.93933454408E+02  0.41800000000E+01 0.  1.
         -5    1    3    3    0  502  0.35516895087E+03  0.94268403224E+02 -0.53155005522E+03  0.64621548195E+03  0.41800000000E+01 0.  1.
        -11    1    1    2    0    0 -0.29953320146E+03 -0.86869668714E+02 -0.34370025590E+03  0.46410811675E+03  0.00000000000E+00 0.  1.
         11    1    1    2    0    0 -0.78032909930E+02  0.14563255530E+02 -0.96139781668E+02  0.12467590410E+03  0.00000000000E+00 0. -1.
</event>
<event>
 7    1  0.6671761E-006  0.1654004E+03  0.7561462E-02  0.1182731E+00
         -3   -1    0    0    0  501 -0.00000000000E+00  0.00000000000E+00  0.20849756167E+04  0.20849756167E+04  0.00000000000E+00 0.  1.
          3   -1    0    0  501    0  0.00000000000E+00 -0.00000000000E+00 -0.18074959766E+02  0.18074959766E+02  0.00000000000E+00 0. -1.
         23    2    1    2    0    0  0.92843838664E+02 -0.12662897979E+03  0.14441189073E+04  0.14580057173E+04  0.12508547674E+03 0.  0.
          5    1    3    3  502    0  0.78044624337E+02 -0.45819522538E+02  0.11182757028E+04  0.11219395759E+04  0.41800000000E+01 0.  1.
         -5    1    3    3    0  502  0.14799214327E+02 -0.80809457251E+02  0.32584320444E+03  0.33606614141E+03  0.41800000000E+01 0.  1.
        -11    1    1    2    0    0 -0.51127930000E+02  0.55313787398E+02  0.40850984359E+03  0.41539616346E+03  0.00000000000E+00 0.  1.
         11    1    1    2    0    0 -0.41715908664E+02  0.71315192390E+02  0.21427190605E+03  0.22964869567E+03  0.00000000000E+00 0. -1.
</event>
<event>
 7    1  0.6671761E-006  0.1197956E+03  0.7561462E-02  0.1243435E+00
         -2   -1    0    0    0  501 -0.00000000000E+00  0.00000000000E+00  0.25767920668E+03  0.25767920668E+03  0.00000000000E+00 0.  1.
          2   -1    0    0  501    0  0.00000000000E+00 -0.00000000000E+00 -0.11094078288E+03  0.11094078288E+03  0.00000000000E+00 0. -1.
         23    2    1    2    0    0 -0.73785904049E+02 -0.33451955846E+02  0.18903847214E+03  0.24071956491E+03  0.12508785710E+03 0.  0.
          5    1    3    3  502    0  0.55473996095E+01 -0.58254309866E+02  0.43386640160E+02  0.72967192661E+02  0.41800000000E+01 0.  1.
         -5    1    3    3    0  502 -0.79333303659E+02  0.24802354020E+02  0.14565183198E+03  0.16775237225E+03  0.41800000000E+01 0.  1.
        -11    1    1    2    0    0  0.43748775047E+02 -0.99989584324E+01 -0.57495243239E+02  0.72935844980E+02  0.00000000000E+00 0. -1.
         11    1    1    2    0    0  0.30037129002E+02  0.43450914279E+02  0.15195194903E+02  0.54964579672E+02  0.00000000000E+00 0.  1.
</event>
<event>
 7    1  0.6671761E-006  0.9990176E+02  0.7561462E-02  0.1280503E+00
          2   -1    0    0  501    0  0.00000000000E+00  0.00000000000E+00  0.50978233993E+02  0.50978233993E+02  0.00000000000E+00 0. -1.
         -2   -1    0    0    0  501 -0.00000000000E+00 -0.00000000000E+00 -0.23455059486E+03  0.23455059486E+03  0.00000000000E+00 0.  1.
         23    2    1    2    0    0  0.16771500259E+02 -0.17038759555E+02 -0.12406791700E+03  0.17780259693E+03  0.12509721379E+03 0.  0.
          5    1    3    3  502    0 -0.30103488744E+02 -0.56546913988E+02 -0.77906195788E+02  0.10094860702E+03  0.41800000000E+01 0.  1.
         -5    1    3    3    0  502  0.46874989003E+02  0.39508154433E+02 -0.46161721211E+02  0.76853989915E+02  0.41800000000E+01 0.  1.
        -11    1    1    2    0    0 -0.41663642587E+02 -0.36085027325E+01 -0.62550186573E+02  0.75242316857E+02  0.00000000000E+00 0.  1.
         11    1    1    2    0    0  0.24892142328E+02  0.20647262288E+02  0.30457427009E+01  0.32483915070E+02  0.00000000000E+00 0. -1.
</event>
<event>
 7    1  0.6671761E-006  0.1208625E+03  0.7561462E-02  0.1241681E+00
          1   -1    0    0  501    0  0.00000000000E+00  0.00000000000E+00  0.29789234898E+03  0.29789234898E+03  0.00000000000E+00 0. -1.
         -1   -1    0    0    0  501 -0.00000000000E+00 -0.00000000000E+00 -0.66419958928E+02  0.66419958928E+02  0.00000000000E+00 0.  1.
         23    2    1    2    0    0  0.34363555869E+02  0.71896023914E+02  0.96850428863E+02  0.17713680196E+03  0.12509016273E+03 0.  0.
          5    1    3    3  502    0  0.66271763913E+02  0.34024388512E+02  0.76212941626E+01  0.75001081529E+02  0.41800000000E+01 0. -1.
         -5    1    3    3    0  502 -0.31908208044E+02  0.37871635402E+02  0.89229134700E+02  0.10213572043E+03  0.41800000000E+01 0. -1.
        -11    1    1    2    0    0 -0.21229509408E+02 -0.91437281297E+02  0.13401852652E+03  0.16362284049E+03  0.00000000000E+00 0. -1.
         11    1    1    2    0    0 -0.13134046461E+02  0.19541257383E+02  0.60343466812E+00  0.23552665453E+02  0.00000000000E+00 0.  1.
</event>
<event>
 7    1  0.6671761E-006  0.1078643E+03  0.7561462E-02  0.1264577E+00
         -1   -1    0    0    0  501 -0.00000000000E+00  0.00000000000E+00  0.35765347746E+02  0.35765347746E+02  0.00000000000E+00 0.  1.
          1   -1    0    0  501    0  0.00000000000E+00 -0.00000000000E+00 -0.55908562208E+03  0.55908562208E+03  0.00000000000E+00 0. -1.
         23    2    1    2    0    0  0.38016077358E+02 -0.71088083299E+02 -0.20385995232E+03  0.25239655719E+03  0.12508558750E+03 0.  0.
          5    1    3    3  502    0  0.10365318024E+02  0.86346842415E+01  0.13288316896E+02  0.19391992049E+02  0.41800000000E+01 0. -1.
         -5    1    3    3    0  502  0.27650759334E+02 -0.79722767540E+02 -0.21714826921E+03  0.23300456515E+03  0.41800000000E+01 0. -1.
        -11    1    1    2    0    0 -0.59368499951E+02  0.21520070007E+02 -0.11735059576E+03  0.13326250232E+03  0.00000000000E+00 0.  1.
         11    1    1    2    0    0  0.21352422593E+02  0.49568013292E+02 -0.20210972626E+03  0.20919191031E+03  0.00000000000E+00 0. -1.
</event>
<event>
 7    1  0.6671761E-006  0.1069498E+03  0.7561462E-02  0.1266325E+00
          1   -1    0    0  501    0  0.00000000000E+00  0.00000000000E+00  0.30043375365E+02  0.30043375365E+02  0.00000000000E+00 0. -1.
         -1   -1    0    0    0  501 -0.00000000000E+00 -0.00000000000E+00 -0.44715294547E+03  0.44715294547E+03  0.00000000000E+00 0.  1.
         23    2    1    2    0    0 -0.43888426014E+02  0.72112425834E+01 -0.27589398019E+03  0.30617477264E+03  0.12508919671E+03 0.  0.
          5    1    3    3  502    0 -0.52253149514E+02  0.54011048084E+02 -0.22084385597E+03  0.23331752199E+03  0.41800000000E+01 0.  1.
         -5    1    3    3    0  502  0.83647235000E+01 -0.46799805501E+02 -0.55050124224E+02  0.72857250643E+02  0.41800000000E+01 0.  1.
        -11    1    1    2    0    0  0.62566882348E+02 -0.22787467161E+02 -0.74036518741E+02  0.99575546866E+02  0.00000000000E+00 0.  1.
         11    1    1    2    0    0 -0.18678456334E+02  0.15576224578E+02 -0.67179071167E+02  0.71446001330E+02  0.00000000000E+00 0. -1.
</event>
<event>
 6    1  0.6671761E-006  0.7240233E+02  0.7561462E-02  0.1352109E+00
          1   -1    0    0  501    0  0.00000000000E+00  0.00000000000E+00  0.41169946652E+02  0.41169946652E+02  0.00000000000E+00 0. -1.
         -1   -1    0    0    0  501 -0.00000000000E+00 -0.00000000000E+00 -0.48807963959E+03  0.48807963959E+03  0.00000000000E+00 0.  1.
          5    1    1    2  502    0 -0.57754723466E+01  0.15528787349E+02  0.95903868779E+01  0.19594571642E+02  0.41800000000E+01 0. -1.
         -5    1    1    2    0  502  0.45866939028E+01 -0.56973492065E+02 -0.37781484397E+03  0.38213681488E+03  0.41800000000E+01 0.  1.
        -11    1    1    2    0    0  0.21213349366E+02 -0.32223970156E+01  0.11912731939E+02  0.24541866597E+02  0.00000000000E+00 0.  1.
         11    1    1    2    0    0 -0.20024570922E+02  0.44667101732E+02 -0.90597967782E+02  0.10297633313E+03  0.00000000000E+00 0. -1.
</event>
<event>
 7    1  0.6671761E-006  0.1255366E+03  0.7561462E-02  0.1234233E+00
         -2   -1    0    0    0  501 -0.00000000000E+00  0.00000000000E+00  0.18191302643E+03  0.18191302643E+03  0.00000000000E+00 0.  1.
          2   -1    0    0  501    0  0.00000000000E+00 -0.00000000000E+00 -0.11541832851E+03  0.11541832851E+03  0.00000000000E+00 0. -1.
         23    2    1    2    0    0 -0.16015642977E+01  0.84737059632E+02  0.82897925791E+02  0.17234606685E+03  0.12509263118E+03 0.  0.
          5    1    3    3  502    0 -0.57547015565E+02  0.57593749260E+02  0.20299708926E+02  0.84013389033E+02  0.41800000000E+01 0. -1.
         -5    1    3    3    0  502  0.55945451267E+02  0.27143310372E+02  0.62598216865E+02  0.88332677816E+02  0.41800000000E+01 0. -1.
        -11    1    1    2    0    0  0.84144864396E+01 -0.94745890338E+02  0.10290732505E+02  0.95673854806E+02  0.00000000000E+00 0.  1.
         11    1    1    2    0    0 -0.68129221419E+01  0.10008830705E+02 -0.26693960385E+02  0.29311433285E+02  0.00000000000E+00 0. -1.
</event>
<event>
 7    1  0.6671761E-006  0.1126416E+03  0.7561462E-02  0.1255755E+00
          1   -1    0    0  501    0  0.00000000000E+00  0.00000000000E+00  0.12961552521E+03  0.12961552521E+03  0.00000000000E+00 0. -1.
         -1   -1    0    0    0  501 -0.00000000000E+00 -0.00000000000E+00 -0.16378662844E+03  0.16378662844E+03  0.00000000000E+00 0.  1.
         23    2    1    2    0    0 -0.64426430289E+02  0.40762537264E+02 -0.79249568037E+02  0.16654658929E+03  0.12507966663E+03 0.  0.
          5    1    3    3  502    0  0.27210086657E+02  0.17216919077E+02  0.12399111963E+02  0.34756603630E+02  0.41800000000E+01 0.  1.
         -5    1    3    3    0  502 -0.91636516946E+02  0.23545618186E+02 -0.91648680000E+02  0.13178998566E+03  0.41800000000E+01 0.  1.
        -11    1    1    2    0    0  0.13821952000E+02 -0.45241440061E+02 -0.13618413379E+02  0.49226978771E+02  0.00000000000E+00 0.  1.
         11    1    1    2    0    0  0.50604478289E+02  0.44789027976E+01  0.58696878181E+02  0.77628585594E+02  0.00000000000E+00 0. -1.
</event>
<event>
 7    1  0.6671761E-006  0.1383450E+03  0.7561462E-02  0.1215573E+00
         -1   -1    0    0    0  501 -0.00000000000E+00  0.00000000000E+00  0.48673083284E+03  0.48673083284E+03  0.00000000000E+00 0.  1.
          1   -1    0    0  501    0  0.00000000000E+00 -0.00000000000E+00 -0.78286167129E+02  0.78286167129E+02  0.00000000000E+00 0. -1.
         23    2    1    2    0    0 -0.11325297483E+03 -0.25509051325E+02  0.38321097497E+03  0.41545218964E+03  0.11078322317E+03 0.  0.
          5    1    3    3  502    0 -0.91887216674E+02  0.32732515445E+02  0.21544794808E+03  0.23653745768E+03  0.41800000000E+01 0.  1.
         -5    1    3    3    0  502 -0.21365758154E+02 -0.58241566770E+02  0.16776302689E+03  0.17891473196E+03  0.41800000000E+01 0. -1.
        -11    1    1    2    0    0  0.94335937566E+02  0.15915598560E+02 -0.21666056279E+02  0.98091760045E+02  0.00000000000E+00 0. -1.
         11    1    1    2    0    0  0.18917037261E+02  0.95934527651E+01  0.46899747026E+02  0.51473050286E+02  0.00000000000E+00 0.  1.
</event>
<event>
 7    1  0.6671761E-006  0.1381954E+03  0.7561462E-02  0.1215778E+00
          2   -1    0    0  501    0  0.00000000000E+00  0.00000000000E+00  0.73350149324E+03  0.73350149324E+03  0.00000000000E+00 0. -1.
         -2   -1    0    0    0  501 -0.00000000000E+00 -0.00000000000E+00 -0.41160365629E+02  0.41160365629E+02  0.00000000000E+00 0.  1.
         23    2    1    2    0    0  0.30493213119E+02 -0.10693343439E+03  0.19348957073E+03  0.25583126165E+03  0.12508726962E+03 0.  0.
          5    1    3    3  502    0  0.35769368972E+02  0.63201604398E+01  0.10728101755E+03  0.11334055457E+03  0.41800000000E+01 0.  1.
         -5    1    3    3    0  502 -0.52761558530E+01 -0.11325359483E+03  0.86208553185E+02  0.14249070708E+03  0.41800000000E+01 0.  1.
        -11    1    1    2    0    0  0.18417043084E+02  0.27888063360E+02  0.47951291491E+02  0.58448763114E+02  0.00000000000E+00 0.  1.
         11    1    1    2    0    0 -0.48910256202E+02  0.79045371031E+02  0.45090026539E+03  0.46038183410E+03  0.00000000000E+00 0. -1.
</event>
<event>
 7    1  0.6671761E-006  0.1131825E+03  0.7561462E-02  0.1254787E+00
          3   -1    0    0  501    0  0.00000000000E+00  0.00000000000E+00  0.57424012963E+03  0.57424012963E+03  0.00000000000E+00 0. -1.
         -3   -1    0    0    0  501 -0.00000000000E+00 -0.00000000000E+00 -0.34566965572E+02  0.34566965572E+02  0.00000000000E+00 0.  1.
         23    2    1    2    0    0  0.36724656718E+02 -0.76561417353E+02  0.23126186450E+03  0.27630050140E+03  0.12509822565E+03 0.  0.
          5    1    3    3  502    0 -0.30357222869E+02 -0.27577264894E+02  0.13794179467E+02  0.43472040514E+02  0.41800000000E+01 0. -1.
         -5    1    3    3    0  502  0.67081879586E+02 -0.48984152460E+02  0.21746768504E+03  0.23282846088E+03  0.41800000000E+01 0. -1.
        -11    1    1    2    0    0 -0.29249645304E+02  0.45834159170E+01  0.21446727049E+02  0.36558330829E+02  0.00000000000E+00 0.  1.
         11    1    1    2    0    0 -0.74750114132E+01  0.71978001436E+02  0.28696457251E+03  0.29594826298E+03  0.00000000000E+00 0. -1.
</event>
<event>
 7    1  0.6671761E-006  0.1089081E+03  0.7561462E-02  0.1262605E+00
         -2   -1    0    0    0  501 -0.00000000000E+00  0.00000000000E+00  0.56495562917E+03  0.56495562917E+03  0.00000000000E+00 0.  1.
          2   -1    0    0  501    0  0.00000000000E+00 -0.00000000000E+00 -0.37253132637E+02  0.37253132637E+02  0.00000000000E+00 0. -1.
         23    2    1    2    0    0  0.43928805199E+02  0.76363469358E+02  0.35594019567E+03  0.38742760941E+03  0.12508241386E+03 0.  0.
          5    1    3    3  502    0  0.33124983872E+02  0.52757408838E+00  0.12710717850E+02  0.35729226681E+02  0.41800000000E+01 0. -1.
         -5    1    3    3    0  502  0.10803821327E+02  0.75835895270E+02  0.34322947782E+03  0.35169838273E+03  0.41800000000E+01 0. -1.
        -11    1    1    2    0    0 -0.59719798268E+02 -0.64899902371E+02  0.74111171229E+02  0.11519946759E+03  0.00000000000E+00 0. -1.
         11    1    1    2    0    0  0.15790993069E+02 -0.11463566987E+02  0.97651129636E+02  0.99581684809E+02  0.00000000000E+00 0.  1.
</event>
<event>
 7    1  0.6671761E-006  0.1057668E+03  0.7561462E-02  0.1268616E+00
         -2   -1    0    0    0  501 -0.00000000000E+00  0.00000000000E+00  0.99116955486E+02  0.99116955486E+02  0.00000000000E+00 0.  1.
          2   -1    0    0  501    0  0.00000000000E+00 -0.00000000000E+00 -0.17760524828E+03  0.17760524828E+03  0.00000000000E+00 0. -1.
         23    2    1    2    0    0  0.47375075386E+02 -0.45928605647E+01  0.19392538576E+02  0.13524220051E+03  0.12509552394E+03 0.  0.
          5    1    3    3  502    0 -0.16975213080E+02  0.34120177650E+02  0.41841413899E+02  0.56749631709E+02  0.41800000000E+01 0. -1.
         -5    1    3    3    0  502  0.64350288467E+02 -0.38713038215E+02 -0.22448875323E+02  0.78492568800E+02  0.41800000000E+01 0. -1.
        -11    1    1    2    0    0  0.16283185351E+02  0.26121842432E+02 -0.13505037191E+02  0.33613669939E+02  0.00000000000E+00 0.  1.
         11    1    1    2    0    0 -0.63658260737E+02 -0.21528981867E+02 -0.84375794183E+02  0.10786633332E+03  0.00000000000E+00 0. -1.
</event>
<event>
 7    1  0.6671761E-006  0.9897328E+02  0.7561462E-02  0.1282470E+00
          3   -1    0    0  501    0  0.00000000000E+00  0.00000000000E+00  0.10465643656E+03  0.10465643656E+03  0.00000000000E+00 0. -1.
         -3   -1    0    0    0  501 -0.00000000000E+00 -0.00000000000E+00 -0.14326423739E+03  0.14326423739E+03  0.00000000000E+00 0.  1.
         23    2    1    2    0    0 -0.83937647938E+01 -0.38951546315E+02 -0.63273222785E+02  0.14573588153E+03  0.12509103963E+03 0.  0.
          5    1    3    3  502    0  0.46529179886E+02 -0.54282051013E+02 -0.49093882681E+02  0.86828493939E+02  0.41800000000E+01 0. -1.
         -5    1    3    3    0  502 -0.54922944680E+02  0.15330504698E+02 -0.14179340104E+02  0.58907387588E+02  0.41800000000E+01 0. -1.
        -11    1    1    2    0    0  0.25236417160E+02 -0.15563980492E+01 -0.25248431976E+02  0.35732092623E+02  0.00000000000E+00 0.  1.
         11    1    1    2    0    0 -0.16842652366E+02  0.40507944364E+02  0.49913853937E+02  0.66452699796E+02  0.00000000000E+00 0. -1.
</event>
<event>
 7    1  0.6671761E-006  0.1058281E+03  0.7561462E-02  0.1268497E+00
          3   -1    0    0  501    0  0.00000000000E+00  0.00000000000E+00  0.11820815133E+03  0.11820815133E+03  0.00000000000E+00 0. -1.
         -3   -1    0    0    0  501 -0.00000000000E+00 -0.00000000000E+00 -0.28780124451E+03  0.28780124451E+03  0.00000000000E+00 0.  1.
         23    2    1    2    0    0 -0.63260672653E+02  0.14108720420E+02 -0.23963522711E+03  0.27169627817E+03  0.11042126972E+03 0.  0.
          5    1    3    3  502    0  0.20876346135E+02  0.10041510996E+02 -0.74857405245E+01  0.24701467208E+02  0.41800000000E+01 0. -1.
         -5    1    3    3    0  502 -0.84137018787E+02  0.40672094241E+01 -0.23214948658E+03  0.24699481097E+03  0.41800000000E+01 0.  1.
        -11    1    1    2    0    0  0.54874115115E+02  0.27466801441E+02  0.12164010107E+02  0.62558427353E+02  0.00000000000E+00 0.  1.
         11    1    1    2    0    0  0.83865575378E+01 -0.41575521862E+02  0.57878123818E+02  0.71754690314E+02  0.00000000000E+00 0. -1.
</event>
<event>
 7    1  0.6671761E-006  0.1000967E+03  0.7561462E-02  0.1280093E+00
          1   -1    0    0  501    0  0.00000000000E+00  0.00000000000E+00  0.26697607448E+02  0.26697607448E+02  0.00000000000E+00 0. -1.
         -1   -1    0    0    0  501 -0.00000000000E+00 -0.00000000000E+00 -0.48523370330E+03  0.48523370330E+03  0.00000000000E+00 0.  1.
         23    2    1    2    0    0 -0.88086134646E+01  0.30426009204E+02 -0.30015053793E+03  0.32671442511E+03  0.12509451007E+03 0.  0.
          5    1    3    3  502    0 -0.24063716364E+02  0.76293578862E+02 -0.19941034446E+03  0.21489934970E+03  0.41800000000E+01 0. -1.
         -5    1    3    3    0  502  0.15255102900E+02 -0.45867569658E+02 -0.10074019346E+03  0.11181507541E+03  0.41800000000E+01 0. -1.
        -11    1    1    2    0    0 -0.70068101627E+01 -0.47662393017E+02 -0.15407435250E+03  0.16143018675E+03  0.00000000000E+00 0.  1.
         11    1    1    2    0    0  0.15815423627E+02  0.17236383813E+02 -0.43112054205E+01  0.23786698881E+02  0.00000000000E+00 0. -1.
</event>
<event>
 7    1  0.6671761E-006  0.1269073E+03  0.7561462E-02  0.1232118E+00
         -2   -1    0    0    0  501 -0.00000000000E+00  0.00000000000E+00  0.98174811766E+02  0.98174811766E+02  0.00000000000E+00 0.  1.
          2   -1    0    0  501    0  0.00000000000E+00 -0.00000000000E+00 -0.17797761134E+03  0.17797761134E+03  0.00000000000E+00 0. -1.
         23    2    1    2    0    0 -0.74088004716E+02 -0.58223864101E+00 -0.28628492132E+02  0.14817650845E+03  0.12508923075E+03 0.  0.
          5    1    3    3  502    0 -0.93344220320E+01  0.52090850394E+02 -0.36207343917E+02  0.64257546506E+02  0.41800000000E+01 0.  1.
         -5    1    3    3    0  502 -0.64753582684E+02 -0.52673089035E+02  0.75788517855E+01  0.83918961941E+02  0.41800000000E+01 0.  1.
        -11    1    1    2    0    0  0.99946197320E+01  0.40453755805E+02 -0.15168101493E+02  0.44344899201E+02  0.00000000000E+00 0.  1.
         11    1    1    2    0    0  0.64093384984E+02 -0.39871517164E+02 -0.36006205951E+02  0.83631015459E+02  0.00000000000E+00 0. -1.
</event>
<event>
 7    1  0.6671761E-006  0.3205133E+03  0.7561462E-02  0.1075413E+00
          1   -1    0    0  501    0  0.00000000000E+00  0.00000000000E+00  0.27003674516E+03  0.27003674516E+03  0.00000000000E+00 0. -1.
         -1   -1    0    0    0  501 -0.00000000000E+00 -0.00000000000E+00 -0.39801351374E+03  0.39801351374E+03  0.00000000000E+00 0.  1.
         23    2    1    2    0    0 -0.10214053469E+03 -0.29033884521E+03 -0.36638299666E+02  0.33424484723E+03  0.12509164256E+03 0.  0.
          5    1    3    3  502    0 -0.86501202490E+02 -0.11451735871E+03 -0.61018289983E+02  0.15600444734E+03  0.41800000000E+01 0.  1.
         -5    1    3    3    0  502 -0.15639332197E+02 -0.17582148650E+03  0.24379990316E+02  0.17824039989E+03  0.41800000000E+01 0.  1.
        -11    1    1    2    0    0 -0.16860440588E+02  0.48636722724E+02 -0.10574861393E+02  0.52551241162E+02  0.00000000000E+00 0. -1.
         11    1    1    2    0    0  0.11900097527E+03  0.24170212248E+03 -0.80763607512E+02  0.28125417051E+03  0.00000000000E+00 0.  1.
</event>
<event>
 7    1  0.6671761E-006  0.1500723E+03  0.7561462E-02  0.1200384E+00
         -2   -1    0    0    0  501 -0.00000000000E+00  0.00000000000E+00  0.63038520615E+02  0.63038520615E+02  0.00000000000E+00 0.  1.
          2   -1    0    0  501    0  0.00000000000E+00 -0.00000000000E+00 -0.42517376428E+03  0.42517376428E+03  0.00000000000E+00 0. -1.
         23    2    1    2    0    0  0.64449946955E+02 -0.10289947696E+03 -0.17697116380E+03  0.24840453299E+03  0.12507566180E+03 0.  0.
          5    1    3    3  502    0  0.72855213510E+02 -0.40670431351E+01 -0.93657452806E+02  0.11880073165E+03  0.41800000000E+01 0. -1.
         -5    1    3    3    0  502 -0.84052665555E+01 -0.98832433828E+02 -0.83313710990E+02  0.12960380134E+03  0.41800000000E+01 0. -1.
        -11    1    1    2    0    0 -0.45468131454E+02  0.35292585806E+02 -0.21023509242E+02  0.61277283977E+02  0.00000000000E+00 0.  1.
         11    1    1    2    0    0 -0.18981815501E+02  0.67606891157E+02 -0.16414057063E+03  0.17853046793E+03  0.00000000000E+00 0. -1.
</event>
<event>
 7    1  0.6671761E-006  0.5515861E+02  0.7561462E-02  0.1419350E+00
          1   -1    0    0  501    0  0.00000000000E+00  0.00000000000E+00  0.42853558163E+02  0.42853558163E+02  0.00000000000E+00 0. -1.
         -1   -1    0    0    0  501 -0.00000000000E+00 -0.00000000000E+00 -0.31480780293E+03  0.31480780293E+03  0.00000000000E+00 0.  1.
         23    2    1    2    0    0 -0.30580173510E+02 -0.12123543790E+02 -0.18768438597E+03  0.22793835576E+03  0.12509331703E+03 0.  0.
          5    1    3    3  502    0 -0.13669893880E+02 -0.89239557032E+01  0.16147093592E+02  0.23338894909E+02  0.41800000000E+01 0. -1.
         -5    1    3    3    0  502 -0.16910279629E+02 -0.31995880866E+01 -0.20383147956E+03  0.20459946085E+03  0.41800000000E+01 0. -1.
        -11    1    1    2    0    0  0.49423078683E+02  0.22433236276E+02 -0.92065183243E+02  0.10687323688E+03  0.00000000000E+00 0.  1.
         11    1    1    2    0    0 -0.18842905174E+02 -0.10309692486E+02  0.77953244517E+01  0.22849768442E+02  0.00000000000E+00 0. -1.
</event>
<event>
 7    1  0.6671761E-006  0.8027074E+02  0.7561462E-02  0.1328285E+00
         -1   -1    0    0    0  501 -0.00000000000E+00  0.00000000000E+00  0.44418993601E+02  0.44418993601E+02  0.00000000000E+00 0.  1.
          1   -1    0    0  501    0  0.00000000000E+00 -0.00000000000E+00 -0.25212664977E+03  0.25212664977E+03  0.00000000000E+00 0. -1.
         23    2    1    2    0    0 -0.23841305774E+01  0.25396200835E+01 -0.11153318477E+03  0.16762859461E+03  0.12509021016E+03 0.  0.
          5    1    3    3  502    0 -0.38911875497E+02  0.33271101838E+02 -0.59878334787E+01  0.51714860746E+02  0.41800000000E+01 0.  1.
         -5    1    3    3    0  502  0.36527744920E+02 -0.30731481754E+02 -0.10554535129E+03  0.11591373387E+03  0.41800000000E+01 0.  1.
        -11    1    1    2    0    0  0.25680156124E+02  0.17044490135E+02 -0.30814621978E+01  0.30975481785E+02  0.00000000000E+00 0.  1.
         11    1    1    2    0    0 -0.23296025546E+02 -0.19584110219E+02 -0.93093009202E+02  0.97941566975E+02  0.00000000000E+00 0. -1.
</event>
<event>
 7    1  0.6671761E-006  0.1117081E+03  0.7561462E-02  0.1257439E+00
         -2   -1    0    0    0  501 -0.00000000000E+00  0.00000000000E+00  0.14294944170E+04  0.14294944170E+04  0.00000000000E+00 0. -1.
          2   -1    0    0  501    0  0.00000000000E+00 -0.00000000000E+00 -0.13714269140E+02  0.13714269140E+02  0.00000000000E+00 0.  1.
         23    2    1    2    0    0 -0.78128803869E+02 -0.74222688508E+01  0.96704435406E+03  0.97825544746E+03  0.12509891163E+03 0.  0.
          5    1    3    3  502    0 -0.96204377418E+02  0.72463597656E+01  0.92490593621E+03  0.92993346815E+03  0.41800000000E+01 0. -1.
         -5    1    3    3    0  502  0.18075573548E+02 -0.14668628616E+02  0.42138417856E+02  0.48321979306E+02  0.41800000000E+01 0. -1.
        -11    1    1    2    0    0  0.38846659362E+01 -0.22733564471E+02  0.26282465884E+02  0.34966749863E+02  0.00000000000E+00 0.  1.
         11    1    1    2    0    0  0.74244137933E+02  0.30155833322E+02  0.42245332786E+03  0.42998648877E+03  0.00000000000E+00 0. -1.
</event>
<event>
 7    1  0.6671761E-006  0.1461623E+03  0.7561462E-02  0.1205270E+00
          1   -1    0    0  501    0  0.00000000000E+00  0.00000000000E+00  0.24770747907E+03  0.24770747907E+03  0.00000000000E+00 0. -1.
         -1   -1    0    0    0  501 -0.00000000000E+00 -0.00000000000E+00 -0.18747930513E+03  0.18747930513E+03  0.00000000000E+00 0.  1.
         23    2    1    2    0    0  0.10779591302E+03  0.17738902860E+02 -0.11898018376E+03  0.20430033861E+03  0.12509083377E+03 0.  0.
          5    1    3    3  502    0  0.82520741177E+02 -0.37428232732E+02 -0.11038046229E+03  0.14287009549E+03  0.41800000000E+01 0.  1.
         -5    1    3    3    0  502  0.25275171838E+02  0.55167135592E+02 -0.85997214698E+01  0.61430243124E+02  0.41800000000E+01 0.  1.
        -11    1    1    2    0    0 -0.75642792934E+01 -0.37818607303E+02  0.78117411217E+02  0.87119431327E+02  0.00000000000E+00 0. -1.
         11    1    1    2    0    0 -0.10023163372E+03  0.20079704443E+02  0.10109094648E+03  0.14376701426E+03  0.00000000000E+00 0.  1.
</event>
<event>
 7    1  0.6671761E-006  0.1120753E+03  0.7561462E-02  0.1256774E+00
          2   -1    0    0  501    0  0.00000000000E+00  0.00000000000E+00  0.90385018839E+03  0.90385018839E+03  0.00000000000E+00 0. -1.
         -2   -1    0    0    0  501 -0.00000000000E+00 -0.00000000000E+00 -0.14200748312E+02  0.14200748312E+02  0.00000000000E+00 0.  1.
         23    2    1    2    0    0  0.10706868539E+02 -0.31946271834E+02  0.50926231930E+03  0.52548222683E+03  0.12509300351E+03 0.  0.
          5    1    3    3  502    0 -0.13865017116E+02 -0.76644015580E+02  0.28769719849E+03  0.29808336794E+03  0.41800000000E+01 0. -1.
         -5    1    3    3    0  502  0.24571885655E+02  0.44697743746E+02  0.22156512082E+03  0.22739885889E+03  0.41800000000E+01 0. -1.
        -11    1    1    2    0    0 -0.19605702109E+02  0.61269094936E+02  0.29256578810E+03  0.29955471272E+03  0.00000000000E+00 0.  1.
         11    1    1    2    0    0  0.88988335703E+01 -0.29322823102E+02  0.87821332676E+02  0.93013997154E+02  0.00000000000E+00 0. -1.
</event>
<event>
 7    1  0.6671761E-006  0.1055783E+03  0.7561462E-02  0.1268984E+00
         -2   -1    0    0    0  501 -0.00000000000E+00  0.00000000000E+00  0.87380267990E+03  0.87380267990E+03  0.00000000000E+00 0.  1.
          2   -1    0    0  501    0  0.00000000000E+00 -0.00000000000E+00 -0.17091046385E+02  0.17091046385E+02  0.00000000000E+00 0. -1.
         23    2    1    2    0    0  0.65927816674E+01 -0.99157761640E+01  0.66478235270E+03  0.67655373063E+03  0.12509031371E+03 0.  0.
          5    1    3    3  502    0 -0.23282367415E+02  0.50535270078E+02  0.36596920937E+03  0.37019834787E+03  0.41800000000E+01 0. -1.
         -5    1    3    3    0  502  0.29875149083E+02 -0.60451046242E+02  0.29881314332E+03  0.30635538276E+03  0.41800000000E+01 0. -1.
        -11    1    1    2    0    0 -0.19176703649E+02 -0.35675640133E+02  0.13153721726E+03  0.13763188870E+03  0.00000000000E+00 0.  1.
         11    1    1    2    0    0  0.12583921982E+02  0.45591416297E+02  0.60392063555E+02  0.76708106957E+02  0.00000000000E+00 0. -1.
</event>
<event>
 7    1  0.6671761E-006  0.1201433E+03  0.7561462E-02  0.1242861E+00
          2   -1    0    0  501    0  0.00000000000E+00  0.00000000000E+00  0.31882197665E+03  0.31882197665E+03  0.00000000000E+00 0. -1.
         -2   -1    0    0    0  501 -0.00000000000E+00 -0.00000000000E+00 -0.50088172579E+02  0.50088172579E+02  0.00000000000E+00 0.  1.
         23    2    1    2    0    0  0.52862277313E+02  0.22663747545E+02  0.11076118860E+03  0.17670041185E+03  0.12508768458E+03 0.  0.
          5    1    3    3  502    0 -0.31143081822E+02  0.37218451794E+02  0.60395081692E+02  0.77589580434E+02  0.41800000000E+01 0.  1.
         -5    1    3    3    0  502  0.84005359135E+02 -0.14554704250E+02  0.50366106906E+02  0.99110831417E+02  0.41800000000E+01 0.  1.
        -11    1    1    2    0    0 -0.38852634776E+02 -0.57086559028E+02  0.12362680227E+03  0.14160504472E+03  0.00000000000E+00 0.  1.
         11    1    1    2    0    0 -0.14009642537E+02  0.34422811483E+02  0.34345813199E+02  0.50604692655E+02  0.00000000000E+00 0. -1.
</event>
<event>
 7    1  0.6671761E-006  0.1107646E+03  0.7561462E-02  0.1259160E+00
         -1   -1    0    0    0  501 -0.00000000000E+00  0.00000000000E+00  0.12543869666E+03  0.12543869666E+03  0.00000000000E+00 0.  1.
          1   -1    0    0  501    0  0.00000000000E+00 -0.00000000000E+00 -0.15361236389E+03  0.15361236389E+03  0.00000000000E+00 0. -1.
         23    2    1    2    0    0 -0.42867435439E+02 -0.74656578913E+02 -0.33556212373E+02  0.15551576381E+03  0.12509161286E+03 0.  0.
          5    1    3    3  502    0 -0.41139749134E+01 -0.58024642805E+02 -0.75826285419E+02  0.95660242121E+02  0.41800000000E+01 0. -1.
         -5    1    3    3    0  502 -0.38753460526E+02 -0.16631936108E+02  0.42270073046E+02  0.59855521690E+02  0.41800000000E+01 0. -1.
        -11    1    1    2    0    0 -0.25372159061E+02  0.29940910067E+02 -0.10030583593E+02  0.40507001349E+02  0.00000000000E+00 0. -1.
         11    1    1    2    0    0  0.68239594500E+02  0.44715668846E+02  0.15413128735E+02  0.83028295389E+02  0.00000000000E+00 0.  1.
</event>
<event>
 7    1  0.6671761E-006  0.1251352E+03  0.7561462E-02  0.1234858E+00
         -2   -1    0    0    0  501 -0.00000000000E+00  0.00000000000E+00  0.36103940874E+03  0.36103940874E+03  0.00000000000E+00 0. -1.
          2   -1    0    0  501    0  0.00000000000E+00 -0.00000000000E+00 -0.51350848396E+02  0.51350848396E+02  0.00000000000E+00 0.  1.
         23    2    1    2    0    0 -0.63263248974E+02 -0.31949158841E+02  0.22864628448E+03  0.27009181002E+03  0.12508986775E+03 0.  0.
          5    1    3    3  502    0 -0.31016416709E+02  0.46810153717E+02  0.68362316376E+02  0.88566852133E+02  0.41800000000E+01 0.  1.
         -5    1    3    3    0  502 -0.32246832265E+02 -0.78759312559E+02  0.16028396810E+03  0.18152495789E+03  0.41800000000E+01 0.  1.
        -11    1    1    2    0    0  0.51208231107E+02 -0.20334955233E+02  0.67172616948E+02  0.86878960658E+02  0.00000000000E+00 0. -1.
         11    1    1    2    0    0  0.12055017867E+02  0.52284114075E+02  0.13869658917E+02  0.55419486454E+02  0.00000000000E+00 0.  1.
</event>
<event>
 7    1  0.7540870E-006  0.1794565E+03  0.7561462E-02  0.1168330E+00
          1   -1    0    0  501    0  0.00000000000E+00  0.00000000000E+00  0.79966831921E+03  0.79966831921E+03  0.00000000000E+00 0. -1.
         -1   -1    0    0    0  501 -0.00000000000E+00 -0.00000000000E+00 -0.40530209368E+02  0.40530209368E+02  0.00000000000E+00 0.  1.
         23    2    1    2    0    0 -0.14034089301E+03  0.27313032951E+02  0.39043540464E+03  0.43419982528E+03  0.12509242606E+03 0.  0.
          5    1    3    3  502    0 -0.16318661991E+02  0.58698916528E+02  0.10696382175E+03  0.12316896157E+03  0.41800000000E+01 0. -1.
         -5    1    3    3    0  502 -0.12402223102E+03 -0.31385883576E+02  0.28347158289E+03  0.31103086371E+03  0.41800000000E+01 0. -1.
        -11    1    1    2    0    0  0.22067608667E+02  0.30940163848E+02  0.75898272546E+02  0.84881216218E+02  0.00000000000E+00 0.  1.
         11    1    1    2    0    0  0.11827328434E+03 -0.58253196799E+02  0.29280443265E+03  0.32111748708E+03  0.00000000000E+00 0. -1.
</event>
<event>
 7    1  0.6671761E-006  0.1349767E+03  0.7561462E-02  0.1220253E+00
         -1   -1    0    0    0  501 -0.00000000000E+00  0.00000000000E+00  0.22595454566E+03  0.22595454566E+03  0.00000000000E+00 0.  1.
          1   -1    0    0  501    0  0.00000000000E+00 -0.00000000000E+00 -0.90785355986E+02  0.90785355986E+02  0.00000000000E+00 0. -1.
         23    2    1    2    0    0  0.53754839705E+02  0.76616005267E+02  0.12347919161E+03  0.19913605626E+03  0.12509381715E+03 0.  0.
          5    1    3    3  502    0  0.34741059207E+02 -0.31071303287E+02  0.36503264745E+02  0.59349202352E+02  0.41800000000E+01 0. -1.
         -5    1    3    3    0  502  0.19013780498E+02  0.10768730855E+03  0.86975926867E+02  0.13978685391E+03  0.41800000000E+01 0. -1.
        -11    1    1    2    0    0 -0.14398601168E+02  0.10706614660E+02 -0.82816873812E+01  0.19762025680E+02  0.00000000000E+00 0. -1.
         11    1    1    2    0    0 -0.39356238537E+02 -0.87322619927E+02  0.19971685441E+02  0.97841819699E+02  0.00000000000E+00 0.  1.
</event>
<event>
 7    1  0.6671761E-006  0.1208165E+03  0.7561462E-02  0.1241756E+00
          1   -1    0    0  501    0  0.00000000000E+00  0.00000000000E+00  0.36847251757E+02  0.36847251757E+02  0.00000000000E+00 0. -1.
         -1   -1    0    0    0  501 -0.00000000000E+00 -0.00000000000E+00 -0.44740836475E+03  0.44740836475E+03  0.00000000000E+00 0.  1.
         23    2    1    2    0    0 -0.61875227708E+02  0.30359275338E+02 -0.24011850823E+03  0.27938204913E+03  0.12508877640E+03 0.  0.
          5    1    3    3  502    0  0.30157381154E+02  0.32521403974E+02 -0.43620884272E+02  0.62348723316E+02  0.41800000000E+01 0. -1.
         -5    1    3    3    0  502 -0.92032608861E+02 -0.21621286360E+01 -0.19649762395E+03  0.21703332581E+03  0.41800000000E+01 0. -1.
        -11    1    1    2    0    0 -0.13378063913E+02 -0.26373635492E+02 -0.17472858259E+02  0.34348828494E+02  0.00000000000E+00 0. -1.
         11    1    1    2    0    0  0.75253291621E+02 -0.39856398455E+01 -0.15296974651E+03  0.17052473889E+03  0.00000000000E+00 0.  1.
</event>
<event>
 7    1  0.6671761E-006  0.1234877E+03  0.7561462E-02  0.1237452E+00
         -3   -1    0    0    0  501 -0.00000000000E+00  0.00000000000E+00  0.55153809236E+02  0.55153809236E+02  0.00000000000E+00 0.  1.
          3   -1    0    0  501    0  0.00000000000E+00 -0.00000000000E+00 -0.34867594370E+03  0.34867594370E+03  0.00000000000E+00 0. -1.
         23    2    1    2    0    0 -0.71220204807E+02 -0.15510809203E+02 -0.95102727809E+02  0.17322046093E+03  0.12509155237E+03 0.  0.
          5    1    3    3  502    0  0.27833669342E+02 -0.13303900467E+02 -0.60767715025E+02  0.68278067533E+02  0.41800000000E+01 0. -1.
         -5    1    3    3    0  502 -0.99053874149E+02 -0.22069087355E+01 -0.34335012784E+02  0.10494239340E+03  0.41800000000E+01 0. -1.
        -11    1    1    2    0    0  0.38547488668E+02  0.53900578375E+02 -0.12613867034E+03  0.14248559712E+03  0.00000000000E+00 0.  1.
         11    1    1    2    0    0  0.32672716139E+02 -0.38389769172E+02 -0.72280736315E+02  0.88123694880E+02  0.00000000000E+00 0. -1.
</event>
<event>
 7    1  0.6671761E-006  0.1269387E+03  0.7561462E-02  0.1232070E+00
         -1   -1    0    0    0  501 -0.00000000000E+00  0.00000000000E+00  0.55531590179E+03  0.55531590179E+03  0.00000000000E+00 0.  1.
          1   -1    0    0  501    0  0.00000000000E+00 -0.00000000000E+00 -0.35437557902E+02  0.35437557902E+02  0.00000000000E+00 0. -1.
         23    2    1    2    0    0 -0.14536261489E+02 -0.85933648252E+02  0.38400623883E+03  0.41316070520E+03  0.12508030246E+03 0.  0.
          5    1    3    3  502    0  0.38674710891E+02  0.45228731767E+01  0.17402484472E+03  0.17837687244E+03  0.41800000000E+01 0. -1.
         -5    1    3    3    0  502 -0.53210972380E+02 -0.90456521429E+02  0.20998139411E+03  0.23478383276E+03  0.41800000000E+01 0. -1.
        -11    1    1    2    0    0 -0.24152874050E+02  0.13763627685E+02  0.14980853404E+02  0.31578865412E+02  0.00000000000E+00 0. -1.
         11    1    1    2    0    0  0.38689135539E+02  0.72170020567E+02  0.12089125166E+03  0.14601388908E+03  0.00000000000E+00 0.  1.
</event>
<event>
 7    1  0.6671761E-006  0.1213012E+03  0.7561462E-02  0.1240966E+00
          1   -1    0    0  501    0  0.00000000000E+00  0.00000000000E+00  0.48226739510E+03  0.48226739510E+03  0.00000000000E+00 0. -1.
         -1   -1    0    0    0  501 -0.00000000000E+00 -0.00000000000E+00 -0.39397115353E+02  0.39397115353E+02  0.00000000000E+00 0.  1.
         23    2    1    2    0    0 -0.17306905396E+02  0.75219049672E+02  0.19056075345E+03  0.24065459493E+03  0.12507517299E+03 0.  0.
          5    1    3    3  502    0  0.25796608617E+02 -0.21978421467E+02  0.19853637967E+02  0.39498802094E+02  0.41800000000E+01 0. -1.
         -5    1    3    3    0  502 -0.43103514014E+02  0.97197471139E+02  0.17070711548E+03  0.20115579284E+03  0.41800000000E+01 0. -1.
        -11    1    1    2    0    0 -0.25023795803E+02 -0.38993107878E+02  0.19747271995E+03  0.20283522362E+03  0.00000000000E+00 0. -1.
         11    1    1    2    0    0  0.42330701200E+02 -0.36225941794E+02  0.54836806357E+02  0.78174691904E+02  0.00000000000E+00 0.  1.
</event>
<event>
 7    1  0.6671761E-006  0.9626434E+02  0.7561462E-02  0.1288354E+00
         -2   -1    0    0    0  501 -0.00000000000E+00  0.00000000000E+00  0.20437922067E+03  0.20437922067E+03  0.00000000000E+00 0.  1.
          2   -1    0    0  501    0  0.00000000000E+00 -0.00000000000E+00 -0.83516579587E+02  0.83516579587E+02  0.00000000000E+00 0. -1.
         23    2    1    2    0    0  0.66109142979E+02 -0.30921090182E+02  0.75010500691E+02  0.16310216610E+03  0.12509679760E+03 0.  0.
          5    1    3    3  502    0 -0.11338146580E+01  0.39222523513E+01  0.86229678509E+02  0.86427423050E+02  0.41800000000E+01 0.  1.
         -5    1    3    3    0  502  0.67242957637E+02 -0.34843342534E+02 -0.11219177819E+02  0.76674743049E+02  0.41800000000E+01 0.  1.
        -11    1    1    2    0    0 -0.31513102269E+02  0.58596184244E+02  0.45293625172E+02  0.80486650469E+02  0.00000000000E+00 0. -1.
         11    1    1    2    0    0 -0.34596040711E+02 -0.27675094061E+02  0.55851521725E+00  0.44306983687E+02  0.00000000000E+00 0.  1.
</event>
<event>
 7    1  0.6671761E-006  0.1264643E+03  0.7561462E-02  0.1232798E+00
         -2   -1    0    0    0  501 -0.00000000000E+00  0.00000000000E+00  0.12417836458E+03  0.12417836458E+03  0.00000000000E+00 0.  1.
          2   -1    0    0  501    0  0.00000000000E+00 -0.00000000000E+00 -0.23289439208E+03  0.23289439208E+03  0.00000000000E+00 0. -1.
         23    2    1    2    0    0  0.65960428557E+02 -0.49764994747E+02  0.48332050431E+02  0.15751214701E+03  0.12508699580E+03 0.  0.
          5    1    3    3  502    0  0.55533408622E+01 -0.69663606646E+02  0.60612699809E+02  0.92602534867E+02  0.41800000000E+01 0. -1.
         -5    1    3    3    0  502  0.60407087695E+02  0.19898611899E+02 -0.12280649378E+02  0.64909612142E+02  0.41800000000E+01 0. -1.
        -11    1    1    2    0    0 -0.18073349118E+02  0.66145883373E+02 -0.64821841368E+02  0.94359922392E+02  0.00000000000E+00 0.  1.
         11    1    1    2    0    0 -0.47887079439E+02 -0.16380888625E+02 -0.92226236564E+02  0.10520068726E+03  0.00000000000E+00 0. -1.
</event>
<event>
 7    1  0.6671761E-006  0.1013637E+03  0.7561462E-02  0.1277454E+00
          2   -1    0    0  501    0  0.00000000000E+00  0.00000000000E+00  0.89076287188E+02  0.89076287188E+02  0.00000000000E+00 0. -1.
         -2   -1    0    0    0  501 -0.00000000000E+00 -0.00000000000E+00 -0.35448625464E+03  0.35448625464E+03  0.00000000000E+00 0.  1.
         23    2    1    2    0    0  0.88176021524E+02  0.36831318618E+02 -0.26855722487E+03  0.31129301385E+03  0.12509516632E+03 0.  0.
          5    1    3    3  502    0  0.67529711864E+02  0.41297121503E+02 -0.54591938335E+02  0.96246903119E+02  0.41800000000E+01 0.  1.
         -5    1    3    3    0  502  0.20646309660E+02 -0.44658028846E+01 -0.21396528653E+03  0.21504611073E+03  0.41800000000E+01 0.  1.
        -11    1    1    2    0    0 -0.51143714414E+02 -0.39758445628E+02  0.43028076927E+02  0.77767788492E+02  0.00000000000E+00 0. -1.
         11    1    1    2    0    0 -0.37032307111E+02  0.29271270103E+01 -0.39880819510E+02  0.54501739488E+02  0.00000000000E+00 0.  1.
</event>
<event>
 7    1  0.6671761E-006  0.1162284E+03  0.7561462E-02  0.1249452E+00
         -1   -1    0    0    0  501 -0.00000000000E+00  0.00000000000E+00  0.32672977364E+03  0.32672977364E+03  0.00000000000E+00 0.  1.
          1   -1    0    0  501    0  0.00000000000E+00 -0.00000000000E+00 -0.65915650839E+02  0.65915650839E+02  0.00000000000E+00 0. -1.
         23    2    1    2    0    0 -0.72282087010E+02  0.54331323708E+02  0.19646704974E+03  0.24984900039E+03  0.12509447839E+03 0.  0.
          5    1    3    3  502    0 -0.56008468397E+02  0.82026946797E+02  0.19321834840E+03  0.21729282338E+03  0.41800000000E+01 0.  1.
         -5    1    3    3    0  502 -0.16273618614E+02 -0.27695623090E+02  0.32487013388E+01  0.32556177010E+02  0.41800000000E+01 0.  1.
        -11    1    1    2    0    0  0.44269808578E+01 -0.27223666755E+02  0.64039348883E+02  0.69726353672E+02  0.00000000000E+00 0.  1.
         11    1    1    2    0    0  0.67855106153E+02 -0.27107656952E+02  0.30772417594E+00  0.73070070416E+02  0.00000000000E+00 0. -1.
</event>
<event>
 7    1  0.6671761E-006  0.1055932E+03  0.7561462E-02  0.1268955E+00
         -1   -1    0    0    0  501 -0.00000000000E+00  0.00000000000E+00  0.49544104333E+02  0.49544104333E+02  0.00000000000E+00 0.  1.
          1   -1    0    0  501    0  0.00000000000E+00 -0.00000000000E+00 -0.29972213317E+03  0.29972213317E+03  0.00000000000E+00 0. -1.
         23    2    1    2    0    0  0.36243028160E+02 -0.28529202926E+02 -0.95935865520E+02  0.16424969421E+03  0.12508716659E+03 0.  0.
          5    1    3    3  502    0  0.54013729908E+02  0.19556922061E+02 -0.25710187935E+01  0.57654477335E+02  0.41800000000E+01 0.  1.
         -5    1    3    3    0  502 -0.17770701748E+02 -0.48086124987E+02 -0.93364846726E+02  0.10659521688E+03  0.41800000000E+01 0.  1.
        -11    1    1    2    0    0  0.28305845779E+02  0.24573657860E+02 -0.58548729638E+02  0.69520064069E+02  0.00000000000E+00 0. -1.
         11    1    1    2    0    0 -0.64548873939E+02  0.39555450657E+01 -0.95693433684E+02  0.11549647923E+03  0.00000000000E+00 0.  1.
</event>
<event>
 7    1  0.6671761E-006  0.9862947E+02  0.7561462E-02  0.1283205E+00
         -2   -1    0    0    0  501 -0.00000000000E+00  0.00000000000E+00  0.69631827296E+03  0.69631827296E+03  0.00000000000E+00 0.  1.
          2   -1    0    0  501    0  0.00000000000E+00 -0.00000000000E+00 -0.19916512065E+02  0.19916512065E+02  0.00000000000E+00 0. -1.
         23    2    1    2    0    0  0.14697921676E+02  0.33028135260E+01  0.52064304218E+03  0.53567136733E+03  0.12509076278E+03 0.  0.
          5    1    3    3  502    0  0.12491660656E+02 -0.55968773854E+02  0.15696493675E+03  0.16716461647E+03  0.41800000000E+01 0.  1.
         -5    1    3    3    0  502  0.22062610196E+01  0.59271587380E+02  0.36367810543E+03  0.36850675086E+03  0.41800000000E+01 0.  1.
        -11    1    1    2    0    0  0.24710774266E+02  0.22317024178E+02  0.11013464859E+03  0.11505786697E+03  0.00000000000E+00 0.  1.
         11    1    1    2    0    0 -0.39408695941E+02 -0.25619837704E+02  0.45624070129E+02  0.65505550718E+02  0.00000000000E+00 0. -1.
</event>
<event>
 7    1  0.6671761E-006  0.2620628E+03  0.7561462E-02  0.1105910E+00
         -2   -1    0    0    0  501 -0.00000000000E+00  0.00000000000E+00  0.56202626165E+02  0.56202626165E+02  0.00000000000E+00 0.  1.
          2   -1    0    0  501    0  0.00000000000E+00 -0.00000000000E+00 -0.14598048106E+04  0.14598048106E+04  0.00000000000E+00 0. -1.
         23    2    1    2    0    0 -0.17420745103E+03 -0.18129077464E+03 -0.49806458378E+03  0.57177653797E+03  0.12508196830E+03 0.  0.
          5    1    3    3  502    0 -0.46006891662E+02 -0.12167879641E+03 -0.31195697277E+03  0.33801921371E+03  0.41800000000E+01 0.  1.
         -5    1    3    3    0  502 -0.12820055937E+03 -0.59611978222E+02 -0.18610761101E+03  0.23375732426E+03  0.41800000000E+01 0.  1.
        -11    1    1    2    0    0  0.73137932515E+02  0.59653409904E+02 -0.19950974523E+03  0.22070755521E+03  0.00000000000E+00 0.  1.
         11    1    1    2    0    0  0.10106951851E+03  0.12163736473E+03 -0.70602785537E+03  0.72352334353E+03  0.00000000000E+00 0. -1.
</event>
<event>
 7    1  0.6671761E-006  0.1412284E+03  0.7561462E-02  0.1211686E+00
         -2   -1    0    0    0  501 -0.00000000000E+00  0.00000000000E+00  0.91640368063E+02  0.91640368063E+02  0.00000000000E+00 0. -1.
          2   -1    0    0  501    0  0.00000000000E+00 -0.00000000000E+00 -0.27394165985E+03  0.27394165985E+03  0.00000000000E+00 0.  1.
         23    2    1    2    0    0 -0.55514028810E+02  0.96951720894E+02 -0.73681070967E+02  0.18318941750E+03  0.12509204165E+03 0.  0.
          5    1    3    3  502    0 -0.90632351891E+02  0.96172522905E+02 -0.61022101934E+02  0.14561781037E+03  0.41800000000E+01 0. -1.
         -5    1    3    3    0  502  0.35118323081E+02  0.77919798964E+00 -0.12658969033E+02  0.37571607132E+02  0.41800000000E+01 0. -1.
        -11    1    1    2    0    0  0.26246259291E+02 -0.71197811903E+02 -0.11982316500E+03  0.14182942367E+03  0.00000000000E+00 0.  1.
         11    1    1    2    0    0  0.29267769519E+02 -0.25753908991E+02  0.11202944182E+02  0.40563186750E+02  0.00000000000E+00 0. -1.
</event>
<event>
 7    1  0.6671761E-006  0.1326887E+03  0.7561462E-02  0.1223520E+00
         -1   -1    0    0    0  501 -0.00000000000E+00  0.00000000000E+00  0.52262552162E+03  0.52262552162E+03  0.00000000000E+00 0.  1.
          1   -1    0    0  501    0  0.00000000000E+00 -0.00000000000E+00 -0.47284812348E+02  0.47284812348E+02  0.00000000000E+00 0. -1.
         23    2    1    2    0    0  0.81389527657E+02  0.69360746491E+01  0.39667402624E+03  0.42387313415E+03  0.12508311802E+03 0.  0.
          5    1    3    3  502    0  0.68897391381E+02 -0.49649114027E+02  0.17283202226E+03  0.19261429173E+03  0.41800000000E+01 0. -1.
         -5    1    3    3    0  502  0.12492136276E+02  0.56585188676E+02  0.22384200398E+03  0.23125884241E+03  0.41800000000E+01 0. -1.
        -11    1    1    2    0    0 -0.90254350203E+02 -0.31928527896E+02  0.68127177323E+02  0.11750145069E+03  0.00000000000E+00 0.  1.
         11    1    1    2    0    0  0.88648225455E+01  0.24992453246E+02  0.10539505710E+02  0.28535749134E+02  0.00000000000E+00 0. -1.
</event>
<event>
 7    1  0.6671761E-006  0.1314575E+03  0.7561462E-02  0.1225309E+00
          1   -1    0    0  501    0  0.00000000000E+00  0.00000000000E+00  0.25637940433E+03  0.25637940433E+03  0.00000000000E+00 0. -1.
         -1   -1    0    0    0  501 -0.00000000000E+00 -0.00000000000E+00 -0.96734636874E+02  0.96734636874E+02  0.00000000000E+00 0.  1.
         23    2    1    2    0    0  0.20943206919E+02  0.86920304194E+02  0.58240880300E+01  0.15386563399E+03  0.12508779366E+03 0.  0.
          5    1    3    3  502    0 -0.38811746504E+02  0.82854828451E+02  0.15980759416E+02  0.92973820701E+02  0.41800000000E+01 0.  1.
         -5    1    3    3    0  502  0.59754953423E+02  0.40654757436E+01 -0.10156671386E+02  0.60891813286E+02  0.41800000000E+01 0.  1.
        -11    1    1    2    0    0  0.59306821626E+01 -0.84050555788E+02  0.65030586034E+02  0.10643611248E+03  0.00000000000E+00 0.  1.
         11    1    1    2    0    0 -0.26873889082E+02 -0.28697484064E+01  0.88790093390E+02  0.92812294738E+02  0.00000000000E+00 0. -1.
</event>
<event>
 7    1  0.6671761E-006  0.8385444E+02  0.7561462E-02  0.1318456E+00
         -1   -1    0    0    0  501 -0.00000000000E+00  0.00000000000E+00  0.10847791275E+03  0.10847791275E+03  0.00000000000E+00 0.  1.
          1   -1    0    0  501    0  0.00000000000E+00 -0.00000000000E+00 -0.12602253841E+03  0.12602253841E+03  0.00000000000E+00 0. -1.
         23    2    1    2    0    0  0.52188433669E+01 -0.42275461614E+02  0.65630672649E+00  0.13214474683E+03  0.12508937763E+03 0.  0.
          5    1    3    3  502    0  0.44595908679E+02 -0.30942403156E+02  0.45721684908E+02  0.71092701839E+02  0.41800000000E+01 0.  1.
         -5    1    3    3    0  502 -0.39377065312E+02 -0.11333058458E+02 -0.45065378181E+02  0.61052044988E+02  0.41800000000E+01 0.  1.
        -11    1    1    2    0    0 -0.40303480042E+01 -0.14623876523E+02 -0.38934285707E+02  0.41784926387E+02  0.00000000000E+00 0. -1.
         11    1    1    2    0    0 -0.11884953627E+01  0.56899338137E+02  0.20733353320E+02  0.60570777951E+02  0.00000000000E+00 0.  1.
</event>
<event>
 7    1  0.6671761E-006  0.1164434E+03  0.7561462E-02  0.1249082E+00
         -2   -1    0    0    0  501 -0.00000000000E+00  0.00000000000E+00  0.15464642631E+03  0.15464642631E+03  0.00000000000E+00 0.  1.
          2   -1    0    0  501    0  0.00000000000E+00 -0.00000000000E+00 -0.11600048312E+03  0.11600048312E+03  0.00000000000E+00 0. -1.
         23    2    1    2    0    0 -0.41873127406E+02 -0.66351063227E+02  0.80023035747E+02  0.16176815234E+03  0.11665944655E+03 0.  0.
          5    1    3    3  502    0  0.36617931377E+02 -0.24995786226E+02  0.37414432445E+01  0.44689294299E+02  0.41800000000E+01 0. -1.
         -5    1    3    3    0  502 -0.78491058783E+02 -0.41355277001E+02  0.76281592503E+02  0.11707885804E+03  0.41800000000E+01 0.  1.
        -11    1    1    2    0    0  0.58033465958E+02  0.52245541118E+02 -0.25336336206E+02  0.82093907631E+02  0.00000000000E+00 0. -1.
         11    1    1    2    0    0 -0.16160338552E+02  0.14105522110E+02 -0.16040756357E+02  0.26784849460E+02  0.00000000000E+00 0.  1.
</event>
<event>
 7    1  0.6671761E-006  0.1043697E+03  0.7561462E-02  0.1271366E+00
          2   -1    0    0  501    0  0.00000000000E+00  0.00000000000E+00  0.76459507495E+03  0.76459507495E+03  0.00000000000E+00 0. -1.
         -2   -1    0    0    0  501 -0.00000000000E+00 -0.00000000000E+00 -0.24857138538E+02  0.24857138538E+02  0.00000000000E+00 0.  1.
         23    2    1    2    0    0  0.71786862001E+02  0.56958698798E+02  0.44821654262E+03  0.47428162716E+03  0.12508935152E+03 0.  0.
          5    1    3    3  502    0  0.60342574703E+00 -0.69856657074E+01  0.28442454227E+03  0.28454166003E+03  0.41800000000E+01 0.  1.
         -5    1    3    3    0  502  0.71183436254E+02  0.63944364505E+02  0.16379200035E+03  0.18973996713E+03  0.41800000000E+01 0.  1.
        -11    1    1    2    0    0 -0.91866992182E+01 -0.38431111029E+02  0.19285392249E+03  0.19686030874E+03  0.00000000000E+00 0. -1.
         11    1    1    2    0    0 -0.62600162783E+02 -0.18527587769E+02  0.98667471303E+02  0.11831027759E+03  0.00000000000E+00 0.  1.
</event>
<event>
 7    1  0.6671761E-006  0.1170883E+03  0.7561462E-02  0.1247979E+00
          1   -1    0    0  501    0  0.00000000000E+00  0.00000000000E+00  0.19698583424E+03  0.19698583424E+03  0.00000000000E+00 0. -1.
         -1   -1    0    0    0  501 -0.00000000000E+00 -0.00000000000E+00 -0.84882881345E+02  0.84882881345E+02  0.00000000000E+00 0.  1.
         23    2    1    2    0    0 -0.60060336947E+02 -0.22945465242E+02  0.37711999845E+02  0.14561411254E+03  0.12509011308E+03 0.  0.
          5    1    3    3  502    0  0.35843216811E+02 -0.63154363731E+01 -0.87692892731E+01  0.37669533608E+02  0.41800000000E+01 0. -1.
         -5    1    3    3    0  502 -0.95903553757E+02 -0.16630028869E+02  0.46481289118E+02  0.10794457894E+03  0.41800000000E+01 0. -1.
        -11    1    1    2    0    0  0.38678271413E+02  0.51523542855E+02  0.13730234540E+02  0.65872630798E+02  0.00000000000E+00 0.  1.
         11    1    1    2    0    0  0.21382065534E+02 -0.28578077613E+02  0.60660718514E+02  0.70381972246E+02  0.00000000000E+00 0. -1.
</event>
<event>
 7    1  0.6671761E-006  0.1027598E+03  0.7561462E-02  0.1274597E+00
          2   -1    0    0  501    0  0.00000000000E+00  0.00000000000E+00  0.26598005606E+03  0.26598005606E+03  0.00000000000E+00 0. -1.
         -2   -1    0    0    0  501 -0.00000000000E+00 -0.00000000000E+00 -0.59461673093E+02  0.59461673093E+02  0.00000000000E+00 0.  1.
         23    2    1    2    0    0 -0.14055208230E+02  0.95535958283E+01  0.36402908006E+02  0.13138335452E+03  0.12509034360E+03 0.  0.
          5    1    3    3  502    0  0.25829004180E+02  0.57520294573E+02  0.12309526885E+02  0.64379488945E+02  0.41800000000E+01 0. -1.
         -5    1    3    3    0  502 -0.39884212410E+02 -0.47966698745E+02  0.24093381121E+02  0.67003865574E+02  0.41800000000E+01 0. -1.
        -11    1    1    2    0    0  0.76630106357E+01  0.34474526349E+02  0.12804934926E+03  0.13283015676E+03  0.00000000000E+00 0. -1.
         11    1    1    2    0    0  0.63921975947E+01 -0.44028122177E+02  0.42066125702E+02  0.61228217875E+02  0.00000000000E+00 0.  1.
</event>
<event>
 7    1  0.6671761E-006  0.1021593E+03  0.7561462E-02  0.1275820E+00
         -1   -1    0    0    0  501 -0.00000000000E+00  0.00000000000E+00  0.40529100035E+03  0.40529100035E+03  0.00000000000E+00 0.  1.
          1   -1    0    0  501    0  0.00000000000E+00 -0.00000000000E+00 -0.43010996810E+02  0.43010996810E+02  0.00000000000E+00 0. -1.
         23    2    1    2    0    0  0.64973012289E+02  0.31183059042E+01  0.25947030635E+03  0.29530258413E+03  0.12509020807E+03 0.  0.
          5    1    3    3  502    0 -0.36941541591E+02  0.14064860797E+01  0.50115680284E+02  0.62415619107E+02  0.41800000000E+01 0. -1.
         -5    1    3    3    0  502  0.10191455388E+03  0.17118198245E+01  0.20935462607E+03  0.23288696502E+03  0.41800000000E+01 0. -1.
        -11    1    1    2    0    0 -0.32877489247E+02 -0.27146754003E+00 -0.11036308008E+02  0.34681451646E+02  0.00000000000E+00 0. -1.
         11    1    1    2    0    0 -0.32095523042E+02 -0.28468383642E+01  0.11384600520E+03  0.11831796139E+03  0.00000000000E+00 0.  1.
</event>
<event>
 7    1  0.6671761E-006  0.1768606E+03  0.7561462E-02  0.1170876E+00
         -1   -1    0    0    0  501 -0.00000000000E+00  0.00000000000E+00  0.13171803935E+03  0.13171803935E+03  0.00000000000E+00 0.  1.
          1   -1    0    0  501    0  0.00000000000E+00 -0.00000000000E+00 -0.56568702131E+03  0.56568702131E+03  0.00000000000E+00 0. -1.
         23    2    1    2    0    0  0.16086251273E+03  0.27881055842E+00  0.22472289252E+02  0.20501288228E+03  0.12509377433E+03 0.  0.
          5    1    3    3  502    0 -0.13518215056E+02 -0.35171345376E+01  0.26775281891E+02  0.30487710541E+02  0.41800000000E+01 0. -1.
         -5    1    3    3    0  502  0.17438072779E+03  0.37959450960E+01 -0.43029926389E+01  0.17452517174E+03  0.41800000000E+01 0. -1.
        -11    1    1    2    0    0 -0.10630997280E+03 -0.16890023918E+02 -0.17676359669E+03  0.20696002594E+03  0.00000000000E+00 0.  1.
         11    1    1    2    0    0 -0.54552539936E+02  0.16611213360E+02 -0.27967767453E+03  0.28543215245E+03  0.00000000000E+00 0. -1.
</event>
<event>
 7    1  0.6671761E-006  0.9506512E+02  0.7561462E-02  0.1291029E+00
         -1   -1    0    0    0  501 -0.00000000000E+00  0.00000000000E+00  0.81502312353E+03  0.81502312353E+03  0.00000000000E+00 0.  1.
          1   -1    0    0  501    0  0.00000000000E+00 -0.00000000000E+00 -0.18645807159E+02  0.18645807159E+02  0.00000000000E+00 0. -1.
         23    2    1    2    0    0  0.18895059232E+02  0.14699264040E+02  0.45479817022E+03  0.47229364942E+03  0.12508726561E+03 0.  0.
          5    1    3    3  502    0  0.47806888120E+02  0.19786365168E+02  0.74269434363E+02  0.90611368375E+02  0.41800000000E+01 0.  1.
         -5    1    3    3    0  502 -0.28911828888E+02 -0.50871011279E+01  0.38052873586E+03  0.38168228104E+03  0.41800000000E+01 0.  1.
        -11    1    1    2    0    0  0.36804952351E+02 -0.33514571779E+02  0.88320953638E+02  0.10138255220E+03  0.00000000000E+00 0. -1.
         11    1    1    2    0    0 -0.55700011583E+02  0.18815307739E+02  0.25325819251E+03  0.25999272907E+03  0.00000000000E+00 0.  1.
</event>
<event>
 7    1  0.6671761E-006  0.1723061E+03  0.7561462E-02  0.1175464E+00
          2   -1    0    0  501    0  0.00000000000E+00  0.00000000000E+00  0.19407576446E+03  0.19407576446E+03  0.00000000000E+00 0. -1.
         -2   -1    0    0    0  501 -0.00000000000E+00 -0.00000000000E+00 -0.16493865800E+03  0.16493865800E+03  0.00000000000E+00 0.  1.
         23    2    1    2    0    0 -0.58475380478E+02 -0.12730061131E+03 -0.72411909203E+01  0.18793978999E+03  0.12507643284E+03 0.  0.
          5    1    3    3  502    0 -0.66030281228E+02 -0.72054207287E+01 -0.11099286488E+02  0.67472829254E+02  0.41800000000E+01 0. -1.
         -5    1    3    3    0  502  0.75549007502E+01 -0.12009519058E+03  0.38580955678E+01  0.12046696073E+03  0.41800000000E+01 0. -1.
        -11    1    1    2    0    0  0.22320035789E+02 -0.29168410175E+01  0.27643483262E+02  0.35649041025E+02  0.00000000000E+00 0.  1.
         11    1    1    2    0    0  0.36155344689E+02  0.13021745233E+03  0.87348141175E+01  0.13542559145E+03  0.00000000000E+00 0. -1.
</event>
<event>
 7    1  0.6671761E-006  0.1508663E+03  0.7561462E-02  0.1199412E+00
          1   -1    0    0  501    0  0.00000000000E+00  0.00000000000E+00  0.59341550100E+03  0.59341550100E+03  0.00000000000E+00 0. -1.
         -1   -1    0    0    0  501 -0.00000000000E+00 -0.00000000000E+00 -0.61969220518E+02  0.61969220518E+02  0.00000000000E+00 0.  1.
         23    2    1    2    0    0 -0.47459483774E+02 -0.12298020637E+03  0.13177507115E+03  0.22447538793E+03  0.12509195278E+03 0.  0.
          5    1    3    3  502    0 -0.27684748766E+02  0.13885017620E+02 -0.29173227753E+01  0.31388249405E+02  0.41800000000E+01 0.  1.
         -5    1    3    3    0  502 -0.19774735008E+02 -0.13686522399E+03  0.13469239392E+03  0.19308713852E+03  0.41800000000E+01 0.  1.
        -11    1    1    2    0    0  0.12993296751E+02  0.45737625623E+02  0.28207061011E+03  0.28604996984E+03  0.00000000000E+00 0. -1.
         11    1    1    2    0    0  0.34466187023E+02  0.77242580746E+02  0.11760059923E+03  0.14485936375E+03  0.00000000000E+00 0.  1.
</event>
<event>
 6    1  0.6671761E-006  0.6191500E+02  0.7561462E-02  0.1389967E+00
         -2   -1    0    0    0  501 -0.00000000000E+00  0.00000000000E+00  0.15563643649E+03  0.15563643649E+03  0.00000000000E+00 0.  1.
          2   -1    0    0  501    0  0.00000000000E+00 -0.00000000000E+00 -0.14061631576E+03  0.14061631576E+03  0.00000000000E+00 0. -1.
          5    1    1    2  502    0  0.25000478366E+02 -0.16600592532E+01 -0.74099696860E+02  0.78332733835E+02  0.41800000000E+01 0. -1.
         -5    1    1    2    0  502 -0.44674430444E+01 -0.10561460396E+02  0.11870034316E+03  0.11932621824E+03  0.41800000000E+01 0.  1.
        -11    1    1    2    0    0 -0.52537757174E+02  0.18169517882E+01 -0.36806247865E+02  0.64173336555E+02  0.00000000000E+00 0. -1.
         11    1    1    2    0    0  0.32004721852E+02  0.10404567861E+02  0.72257223009E+01  0.34420463623E+02  0.00000000000E+00 0.  1.
</event>
<event>
 7    1  0.6671761E-006  0.1300051E+03  0.7561462E-02  0.1227448E+00
         -2   -1    0    0    0  501 -0.00000000000E+00  0.00000000000E+00  0.39795621500E+03  0.39795621500E+03  0.00000000000E+00 0.  1.
          2   -1    0    0  501    0  0.00000000000E+00 -0.00000000000E+00 -0.44352567695E+02  0.44352567695E+02  0.00000000000E+00 0. -1.
         23    2    1    2    0    0 -0.69844053986E+02 -0.70517511606E+01  0.23829007326E+03  0.27813279019E+03  0.12509105040E+03 0.  0.
          5    1    3    3  502    0 -0.10565831497E+03 -0.14110794586E+02  0.17509483113E+03  0.20503284209E+03  0.41800000000E+01 0.  1.
         -5    1    3    3    0  502  0.35814260984E+02  0.70590434252E+01  0.63195242132E+02  0.73099948099E+02  0.41800000000E+01 0.  1.
        -11    1    1    2    0    0  0.16239958908E+02 -0.41314024215E+02  0.38539889129E+02  0.58786970633E+02  0.00000000000E+00 0. -1.
         11    1    1    2    0    0  0.53604095079E+02  0.48365775375E+02  0.76773684918E+02  0.10538902188E+03  0.00000000000E+00 0.  1.
</event>
<event>
 7    1  0.6671761E-006  0.1527141E+03  0.7561462E-02  0.1197177E+00
          1   -1    0    0  501    0  0.00000000000E+00  0.00000000000E+00  0.18621599974E+03  0.18621599974E+03  0.00000000000E+00 0. -1.
         -1   -1    0    0    0  501 -0.00000000000E+00 -0.00000000000E+00 -0.24932368494E+03  0.24932368494E+03  0.00000000000E+00 0.  1.
         23    2    1    2    0    0  0.11947855265E+02  0.13144496928E+03 -0.16492832233E+03  0.24549920310E+03  0.12509187034E+03 0.  0.
          5    1    3    3  502    0 -0.26209864810E+02 -0.63313363538E+01 -0.66496978684E+02  0.71877419316E+02  0.41800000000E+01 0.  1.
         -5    1    3    3    0  502  0.38157720075E+02  0.13777630563E+03 -0.98431343644E+02  0.17362178379E+03  0.41800000000E+01 0.  1.
        -11    1    1    2    0    0 -0.18155725113E+02 -0.46073493117E+02 -0.86678046295E+01  0.50274525949E+02  0.00000000000E+00 0.  1.
         11    1    1    2    0    0  0.62078698476E+01 -0.85371476159E+02  0.11048844176E+03  0.13976595563E+03  0.00000000000E+00 0. -1.
</event>
<event>
 7    1  0.6671761E-006  0.1060623E+03  0.7561462E-02  0.1268041E+00
         -1   -1    0    0    0  501 -0.00000000000E+00  0.00000000000E+00  0.87488941212E+02  0.87488941212E+02  0.00000000000E+00 0.  1.
          1   -1    0    0  501    0  0.00000000000E+00 -0.00000000000E+00 -0.18306069793E+03  0.18306069793E+03  0.00000000000E+00 0. -1.
         23    2    1    2    0    0  0.44850439211E+01  0.27373412375E+02  0.86030989732E+01  0.12798201107E+03  0.12464334126E+03 0.  0.
          5    1    3    3  502    0  0.46876070326E+02 -0.29763883524E+02  0.10608556064E+02  0.56685700079E+02  0.41800000000E+01 0. -1.
         -5    1    3    3    0  502 -0.42391026405E+02  0.57137295899E+02 -0.20054570907E+01  0.71296310988E+02  0.41800000000E+01 0.  1.
        -11    1    1    2    0    0  0.19778860607E+02  0.22349771449E+02 -0.73448849523E+02  0.79280824333E+02  0.00000000000E+00 0. -1.
         11    1    1    2    0    0 -0.24263904528E+02 -0.49723183824E+02 -0.30726006165E+02  0.63286803738E+02  0.00000000000E+00 0.  1.
</event>
<event>
 7    1  0.6671761E-006  0.1231886E+03  0.7561462E-02  0.1237928E+00
         -4   -1    0    0    0  501 -0.00000000000E+00  0.00000000000E+00  0.16002644335E+03  0.16002644335E+03  0.00000000000E+00 0.  1.
          4   -1    0    0  501    0  0.00000000000E+00 -0.00000000000E+00 -0.10772834243E+03  0.10772834243E+03  0.00000000000E+00 0. -1.
         23    2    1    2    0    0  0.14331063267E+00  0.67906407427E+02  0.61450634702E+02  0.15503016663E+03  0.12508745482E+03 0.  0.
          5    1    3    3  502    0  0.14413945969E+02  0.10134832860E+03  0.29949103228E+02  0.10674112016E+03  0.41800000000E+01 0.  1.
         -5    1    3    3    0  502 -0.14270635336E+02 -0.33441921172E+02  0.31501531474E+02  0.48289046478E+02  0.41800000000E+01 0.  1.
        -11    1    1    2    0    0  0.36225980381E+02 -0.77760786070E+01 -0.19209843749E+02  0.41734963160E+02  0.00000000000E+00 0. -1.
         11    1    1    2    0    0 -0.36369291014E+02 -0.60130328820E+02  0.10057309960E+02  0.70989655982E+02  0.00000000000E+00 0.  1.
</event>
<event>
 7    1  0.6671761E-006  0.9222161E+02  0.7561462E-02  0.1297559E+00
          1   -1    0    0  501    0  0.00000000000E+00  0.00000000000E+00  0.28897319057E+03  0.28897319057E+03  0.00000000000E+00 0. -1.
         -1   -1    0    0    0  501 -0.00000000000E+00 -0.00000000000E+00 -0.40496338839E+02  0.40496338839E+02  0.00000000000E+00 0.  1.
         23    2    1    2    0    0  0.10868749080E+02  0.97467867463E+01  0.13514481658E+03  0.18472287818E+03  0.12508113654E+03 0.  0.
          5    1    3    3  502    0 -0.52745983779E+02  0.20256474599E+02  0.38613956334E+02  0.68563646284E+02  0.41800000000E+01 0.  1.
         -5    1    3    3    0  502  0.63614732859E+02 -0.10509687853E+02  0.96530860241E+02  0.11615923189E+03  0.41800000000E+01 0.  1.
        -11    1    1    2    0    0  0.18954057525E+02  0.15197949835E+02 -0.66290788166E+00  0.24303773837E+02  0.00000000000E+00 0.  1.
         11    1    1    2    0    0 -0.29822806605E+02 -0.24944736581E+02  0.11399494304E+03  0.12044287740E+03  0.00000000000E+00 0. -1.
</event>
<event>
 7    1  0.6671761E-006  0.1037362E+03  0.7561462E-02  0.1272630E+00
         -2   -1    0    0    0  501 -0.00000000000E+00  0.00000000000E+00  0.11947485258E+03  0.11947485258E+03  0.00000000000E+00 0.  1.
          2   -1    0    0  501    0  0.00000000000E+00 -0.00000000000E+00 -0.18782869613E+03  0.18782869613E+03  0.00000000000E+00 0. -1.
         23    2    1    2    0    0 -0.19367232100E+02  0.37411363669E+02  0.59053359426E+02  0.14459370648E+03  0.12508133707E+03 0.  0.
          5    1    3    3  502    0  0.48692302400E+02  0.36846767874E+02  0.13763868836E+02  0.62733891168E+02  0.41800000000E+01 0. -1.
         -5    1    3    3    0  502 -0.68059534500E+02  0.56459579498E+00  0.45289490591E+02  0.81859815311E+02  0.41800000000E+01 0. -1.
        -11    1    1    2    0    0 -0.24536352818E+02 -0.11503278476E+02 -0.18078306096E+01  0.27159276074E+02  0.00000000000E+00 0.  1.
         11    1    1    2    0    0  0.43903584918E+02 -0.25908085192E+02 -0.12559937237E+03  0.13555056616E+03  0.00000000000E+00 0. -1.
</event>
<event>
 7    1  0.6671761E-006  0.1162835E+03  0.7561462E-02  0.1249357E+00
          1   -1    0    0  501    0  0.00000000000E+00  0.00000000000E+00  0.34606774306E+03  0.34606774306E+03  0.00000000000E+00 0. -1.
         -1   -1    0    0    0  501 -0.00000000000E+00 -0.00000000000E+00 -0.70110999122E+02  0.70110999122E+02  0.00000000000E+00 0.  1.
         23    2    1    2    0    0 -0.76450676542E+02 -0.60768079711E+02  0.59850377026E+02  0.16142187137E+03  0.11374307658E+03 0.  0.
          5    1    3    3  502    0 -0.86758456854E+02 -0.24546881206E+02 -0.38294672337E+00  0.90261831694E+02  0.41800000000E+01 0. -1.
         -5    1    3    3    0  502  0.10307780313E+02 -0.36221198505E+02  0.60233323750E+02  0.71160039671E+02  0.41800000000E+01 0.  1.
        -11    1    1    2    0    0  0.31587017003E+02  0.48544264126E+02  0.19549640667E+03  0.20389489999E+03  0.00000000000E+00 0. -1.
         11    1    1    2    0    0  0.44863659539E+02  0.12223815585E+02  0.20609960243E+02  0.50861970822E+02  0.00000000000E+00 0.  1.
</event>
<event>
 7    1  0.6671761E-006  0.1231548E+03  0.7561462E-02  0.1237982E+00
          1   -1    0    0  501    0  0.00000000000E+00  0.00000000000E+00  0.19994958115E+03  0.19994958115E+03  0.00000000000E+00 0. -1.
         -1   -1    0    0    0  501 -0.00000000000E+00 -0.00000000000E+00 -0.10161076619E+03  0.10161076619E+03  0.00000000000E+00 0.  1.
         23    2    1    2    0    0 -0.17302796806E+02 -0.88977411057E+02  0.37113124426E+02  0.15887159342E+03  0.12508570157E+03 0.  0.
          5    1    3    3  502    0  0.21469172786E+02  0.10330459413E+01 -0.32071484170E+02  0.38833555862E+02  0.41800000000E+01 0.  1.
         -5    1    3    3    0  502 -0.38771969592E+02 -0.90010456998E+02  0.69184608596E+02  0.12003803756E+03  0.41800000000E+01 0.  1.
        -11    1    1    2    0    0 -0.34317321942E+02  0.18584241257E+02  0.62385344125E+01  0.39521790445E+02  0.00000000000E+00 0. -1.
         11    1    1    2    0    0  0.51620118748E+02  0.70393169800E+02  0.54987156124E+02  0.10316696347E+03  0.00000000000E+00 0.  1.
</event>
<event>
 7    1  0.6671761E-006  0.1706831E+03  0.7561462E-02  0.1177137E+00
          1   -1    0    0  501    0  0.00000000000E+00  0.00000000000E+00  0.30528323610E+03  0.30528323610E+03  0.00000000000E+00 0. -1.
         -1   -1    0    0    0  501 -0.00000000000E+00 -0.00000000000E+00 -0.17024332292E+03  0.17024332292E+03  0.00000000000E+00 0.  1.
         23    2    1    2    0    0  0.15008656824E+03  0.12196030062E+02 -0.72439677020E+02  0.20302557924E+03  0.11531330323E+03 0.  0.
          5    1    3    3  502    0  0.50946565819E+02 -0.50759154979E+02 -0.24182520977E+02  0.75988888028E+02  0.41800000000E+01 0. -1.
         -5    1    3    3    0  502  0.99140002424E+02  0.62955185041E+02 -0.48257156042E+02  0.12703669121E+03  0.41800000000E+01 0.  1.
        -11    1    1    2    0    0 -0.69423718317E+02 -0.15305891940E+02  0.16845200651E+03  0.18283873083E+03  0.00000000000E+00 0. -1.
         11    1    1    2    0    0 -0.80662849926E+02  0.31098618781E+01  0.39027583689E+02  0.89662248955E+02  0.00000000000E+00 0.  1.
</event>
<event>
 7    1  0.6671761E-006  0.1001440E+03  0.7561462E-02  0.1279993E+00
          2   -1    0    0  501    0  0.00000000000E+00  0.00000000000E+00  0.85033450179E+02  0.85033450179E+02  0.00000000000E+00 0. -1.
         -2   -1    0    0    0  501 -0.00000000000E+00 -0.00000000000E+00 -0.22836258038E+03  0.22836258038E+03  0.00000000000E+00 0.  1.
         23    2    1    2    0    0 -0.17442538109E+02  0.50999682269E+02 -0.16462356625E+03  0.20693732729E+03  0.11321187718E+03 0.  0.
          5    1    3    3  502    0  0.37400251665E+02  0.21120976302E+02 -0.16624835289E+02  0.46246427029E+02  0.41800000000E+01 0. -1.
         -5    1    3    3    0  502 -0.54842789774E+02  0.29878705967E+02 -0.14799873096E+03  0.16069090026E+03  0.41800000000E+01 0.  1.
        -11    1    1    2    0    0  0.23320821918E+02  0.15357045109E+02 -0.13817916970E+02  0.31155005999E+02  0.00000000000E+00 0.  1.
         11    1    1    2    0    0 -0.58782838092E+01 -0.66356727378E+02  0.35112353014E+02  0.75303697274E+02  0.00000000000E+00 0. -1.
</event>
<event>
 7    1  0.6671761E-006  0.2136534E+03  0.7561462E-02  0.1138705E+00
          2   -1    0    0  501    0  0.00000000000E+00  0.00000000000E+00  0.63980204983E+03  0.63980204983E+03  0.00000000000E+00 0. -1.
         -2   -1    0    0    0  501 -0.00000000000E+00 -0.00000000000E+00 -0.83398667853E+02  0.83398667853E+02  0.00000000000E+00 0.  1.
         23    2    1    2    0    0  0.10428585731E+02  0.20376710827E+03  0.29482097005E+03  0.37973261294E+03  0.12509061967E+03 0.  0.
          5    1    3    3  502    0 -0.22520939606E+02  0.52480413653E+02  0.17433734380E+03  0.18350032257E+03  0.41800000000E+01 0. -1.
         -5    1    3    3    0  502  0.32949525337E+02  0.15128669462E+03  0.12048362625E+03  0.19623229037E+03  0.41800000000E+01 0. -1.
        -11    1    1    2    0    0  0.59799955596E+01 -0.19750108655E+03  0.20716449196E+03  0.28628581219E+03  0.00000000000E+00 0.  1.
         11    1    1    2    0    0 -0.16408581290E+02 -0.62660217238E+01  0.54417919971E+02  0.57182292558E+02  0.00000000000E+00 0. -1.
</event>
<event>
 7    1  0.6671761E-006  0.1286641E+03  0.7561462E-02  0.1229452E+00
         -2   -1    0    0    0  501 -0.00000000000E+00  0.00000000000E+00  0.78832766943E+02  0.78832766943E+02  0.00000000000E+00 0.  1.
          2   -1    0    0  501    0  0.00000000000E+00 -0.00000000000E+00 -0.23947489268E+03  0.23947489268E+03  0.00000000000E+00 0. -1.
         23    2    1    2    0    0  0.80392621863E+02  0.24529246339E+02 -0.77760262788E+02  0.16958619957E+03  0.12509261785E+03 0.  0.
          5    1    3    3  502    0  0.14858328892E+02  0.64518315508E+02 -0.62617491258E+02  0.91223930988E+02  0.41800000000E+01 0.  1.
         -5    1    3    3    0  502  0.65534292971E+02 -0.39989069169E+02 -0.15142771530E+02  0.78362268585E+02  0.41800000000E+01 0.  1.
        -11    1    1    2    0    0 -0.98878218613E+01 -0.40603458104E+02 -0.44277682905E+01  0.42023980811E+02  0.00000000000E+00 0.  1.
         11    1    1    2    0    0 -0.70504800002E+02  0.16074211765E+02 -0.78454094659E+02  0.10669747924E+03  0.00000000000E+00 0. -1.
</event>
<event>
 7    1  0.6671761E-006  0.9822977E+02  0.7561462E-02  0.1284063E+00
          2   -1    0    0  501    0  0.00000000000E+00  0.00000000000E+00  0.46101224925E+03  0.46101224925E+03  0.00000000000E+00 0. -1.
         -2   -1    0    0    0  501 -0.00000000000E+00 -0.00000000000E+00 -0.37602320987E+02  0.37602320987E+02  0.00000000000E+00 0.  1.
         23    2    1    2    0    0  0.71235094741E+02 -0.16819092307E+02  0.25698213338E+03  0.29504551889E+03  0.12511882653E+03 0.  0.
          5    1    3    3  502    0  0.71079084593E+02 -0.46830686124E+01  0.48751530710E+02  0.86419624767E+02  0.41800000000E+01 0. -1.
         -5    1    3    3    0  502  0.15601014783E+00 -0.12136023695E+02  0.20823060267E+03  0.20862589412E+03  0.41800000000E+01 0. -1.
        -11    1    1    2    0    0 -0.90349222044E+01  0.43614755402E+02  0.38737057932E+02  0.59029114556E+02  0.00000000000E+00 0.  1.
         11    1    1    2    0    0 -0.62200172537E+02 -0.26795663095E+02  0.12769073695E+03  0.14453993679E+03  0.00000000000E+00 0. -1.
</event>
<event>
 7    1  0.6671761E-006  0.1733022E+03  0.7561462E-02  0.1174447E+00
          1   -1    0    0  501    0  0.00000000000E+00  0.00000000000E+00  0.82653349219E+02  0.82653349219E+02  0.00000000000E+00 0. -1.
         -1   -1    0    0    0  501 -0.00000000000E+00 -0.00000000000E+00 -0.38367404753E+03  0.38367404753E+03  0.00000000000E+00 0.  1.
         23    2    1    2    0    0 -0.87535325101E+02  0.10911590681E+03 -0.15995765060E+03  0.24658488563E+03  0.12509572964E+03 0.  0.
          5    1    3    3  502    0 -0.86810100957E+02  0.13217757921E+03 -0.15712916775E+03  0.22296626164E+03  0.41800000000E+01 0.  1.
         -5    1    3    3    0  502 -0.72522414356E+00 -0.23061672396E+02 -0.28284828516E+01  0.23618623987E+02  0.41800000000E+01 0.  1.
        -11    1    1    2    0    0  0.10271058671E+03 -0.73646198158E+02 -0.12559410612E+03  0.17817717760E+03  0.00000000000E+00 0.  1.
         11    1    1    2    0    0 -0.15175261611E+02 -0.35469708650E+02 -0.15468941592E+02  0.41565333521E+02  0.00000000000E+00 0. -1.
</event>
<event>
 7    1  0.6671761E-006  0.5232725E+02  0.7561462E-02  0.1433178E+00
         -1   -1    0    0    0  501 -0.00000000000E+00  0.00000000000E+00  0.59338626995E+03  0.59338626995E+03  0.00000000000E+00 0.  1.
          1   -1    0    0  501    0  0.00000000000E+00 -0.00000000000E+00 -0.59251802235E+02  0.59251802235E+02  0.00000000000E+00 0. -1.
         23    2    1    2    0    0 -0.14504278581E+02 -0.35015224373E+02  0.54431793907E+03  0.55979150884E+03  0.12509226414E+03 0.  0.
          5    1    3    3  502    0 -0.45621753485E+01 -0.14661702081E+02  0.53452496428E+03  0.53476180566E+03  0.41800000000E+01 0. -1.
         -5    1    3    3    0  502 -0.99421032326E+01 -0.20353522292E+02  0.97929747865E+01  0.25029703186E+02  0.41800000000E+01 0. -1.
        -11    1    1    2    0    0  0.66178948635E+01  0.49110666716E+02  0.23984237175E+02  0.55053589807E+02  0.00000000000E+00 0.  1.
         11    1    1    2    0    0  0.78863837176E+01 -0.14095442344E+02 -0.34167708524E+02  0.37792973537E+02  0.00000000000E+00 0. -1.
</event>
<event>
 7    1  0.6671761E-006  0.1085850E+03  0.7561462E-02  0.1263213E+00
         -2   -1    0    0    0  501 -0.00000000000E+00  0.00000000000E+00  0.81352679824E+03  0.81352679824E+03  0.00000000000E+00 0.  1.
          2   -1    0    0  501    0  0.00000000000E+00 -0.00000000000E+00 -0.18465113843E+02  0.18465113843E+02  0.00000000000E+00 0. -1.
         23    2    1    2    0    0  0.12643437919E+02 -0.44128807811E+02  0.55802932161E+03  0.57371761443E+03  0.12509184282E+03 0.  0.
          5    1    3    3  502    0 -0.26902017716E+02 -0.64440525261E+02  0.18091836388E+03  0.19397223163E+03  0.41800000000E+01 0.  1.
         -5    1    3    3    0  502  0.39545455635E+02  0.20311717450E+02  0.37711095773E+03  0.37974538281E+03  0.41800000000E+01 0.  1.
        -11    1    1    2    0    0 -0.52604914910E+02  0.24128199413E+02  0.13182010004E+03  0.14396522446E+03  0.00000000000E+00 0. -1.
         11    1    1    2    0    0  0.39961476991E+02  0.20000608398E+02  0.10521226275E+03  0.11430907319E+03  0.00000000000E+00 0.  1.
</event>
<event>
 7    1  0.6671761E-006  0.1431843E+03  0.7561462E-02  0.1209107E+00
          1   -1    0    0  501    0  0.00000000000E+00  0.00000000000E+00  0.44650348484E+03  0.44650348484E+03  0.00000000000E+00 0. -1.
         -1   -1    0    0    0  501 -0.00000000000E+00 -0.00000000000E+00 -0.67499485080E+02  0.67499485080E+02  0.00000000000E+00 0.  1.
         23    2    1    2    0    0 -0.11691663030E+03  0.10225190299E+02  0.10069637594E+03  0.19890015545E+03  0.12508980275E+03 0.  0.
          5    1    3    3  502    0 -0.71601085378E+02 -0.53332881235E+02  0.74809700974E+02  0.11655503167E+03  0.41800000000E+01 0. -1.
         -5    1    3    3    0  502 -0.45315544923E+02  0.63558071534E+02  0.25886674967E+02  0.82345123775E+02  0.41800000000E+01 0. -1.
        -11    1    1    2    0    0  0.59543298359E+02 -0.14511525320E+02  0.23562726680E+03  0.24346703598E+03  0.00000000000E+00 0. -1.
         11    1    1    2    0    0  0.57373331941E+02  0.42863350213E+01  0.42680357021E+02  0.71635778500E+02  0.00000000000E+00 0.  1.
</event>
<event>
 7    1  0.6671761E-006  0.1453712E+03  0.7561462E-02  0.1206279E+00
         -3   -1    0    0    0  501 -0.00000000000E+00  0.00000000000E+00  0.10128629093E+03  0.10128629093E+03  0.00000000000E+00 0.  1.
          3   -1    0    0  501    0  0.00000000000E+00 -0.00000000000E+00 -0.24782011628E+03  0.24782011628E+03  0.00000000000E+00 0. -1.
         23    2    1    2    0    0  0.10497869636E+03 -0.31290997985E+02 -0.40591173423E+02  0.17115716311E+03  0.12508987921E+03 0.  0.
          5    1    3    3  502    0  0.12047707791E+03  0.70010366228E+01 -0.46139847443E+02  0.12926754712E+03  0.41800000000E+01 0. -1.
         -5    1    3    3    0  502 -0.15498381551E+02 -0.38292034607E+02  0.55486740205E+01  0.41889615998E+02  0.41800000000E+01 0. -1.
        -11    1    1    2    0    0 -0.79252851180E+02  0.52553329892E+02 -0.38292736726E+02  0.10251439211E+03  0.00000000000E+00 0.  1.
         11    1    1    2    0    0 -0.25725845179E+02 -0.21262331907E+02 -0.67649915196E+02  0.75434851987E+02  0.00000000000E+00 0. -1.
</event>
<event>
 7    1  0.6671761E-006  0.9514263E+02  0.7561462E-02  0.1290855E+00
         -1   -1    0    0    0  501 -0.00000000000E+00  0.00000000000E+00  0.52398492058E+02  0.52398492058E+02  0.00000000000E+00 0.  1.
          1   -1    0    0  501    0  0.00000000000E+00 -0.00000000000E+00 -0.26823540061E+03  0.26823540061E+03  0.00000000000E+00 0. -1.
         23    2    1    2    0    0  0.27918451177E+02  0.35297916149E+02 -0.13073675449E+03  0.18644647643E+03  0.12507920210E+03 0.  0.
          5    1    3    3  502    0  0.25301954840E+02  0.70258750644E+02 -0.31571242786E+02  0.81183106198E+02  0.41800000000E+01 0. -1.
         -5    1    3    3    0  502  0.26164963366E+01 -0.34960834496E+02 -0.99165511701E+02  0.10526337023E+03  0.41800000000E+01 0. -1.
        -11    1    1    2    0    0 -0.32022444543E+02 -0.53049821559E+02 -0.95021824936E+02  0.11344103198E+03  0.00000000000E+00 0. -1.
         11    1    1    2    0    0  0.41039933658E+01  0.17751905410E+02  0.99216708666E+01  0.20746384264E+02  0.00000000000E+00 0.  1.
</event>
<event>
 7    1  0.6671761E-006  0.1173177E+03  0.7561462E-02  0.1247589E+00
         -1   -1    0    0    0  501 -0.00000000000E+00  0.00000000000E+00  0.10018776835E+03  0.10018776835E+03  0.00000000000E+00 0.  1.
          1   -1    0    0  501    0  0.00000000000E+00 -0.00000000000E+00 -0.17571223054E+03  0.17571223054E+03  0.00000000000E+00 0. -1.
         23    2    1    2    0    0 -0.41602892054E+02  0.58248485500E+02 -0.12787407317E+02  0.14468672827E+03  0.12508814837E+03 0.  0.
          5    1    3    3  502    0 -0.53231530193E+02 -0.68965126827E+01  0.33872758744E+02  0.63608127458E+02  0.41800000000E+01 0. -1.
         -5    1    3    3    0  502  0.11628638139E+02  0.65144998183E+02 -0.46660166061E+02  0.81078600815E+02  0.41800000000E+01 0. -1.
        -11    1    1    2    0    0 -0.77549103154E+01 -0.64296924146E+02 -0.42859208761E+02  0.77660445944E+02  0.00000000000E+00 0.  1.
         11    1    1    2    0    0  0.49357802370E+02  0.60484386454E+01 -0.19877846113E+02  0.53552824677E+02  0.00000000000E+00 0. -1.
</event>
<event>
 7    1  0.6671761E-006  0.9051761E+02  0.7561462E-02  0.1301603E+00
         -3   -1    0    0    0  501 -0.00000000000E+00  0.00000000000E+00  0.19547011441E+03  0.19547011441E+03  0.00000000000E+00 0. -1.
          3   -1    0    0  501    0  0.00000000000E+00 -0.00000000000E+00 -0.66044069466E+02  0.66044069466E+02  0.00000000000E+00 0.  1.
         23    2    1    2    0    0  0.33582435567E+02  0.22019985048E+01  0.86325641173E+02  0.15566660329E+03  0.12508935319E+03 0.  0.
          5    1    3    3  502    0 -0.32202765991E+02  0.33360894873E+02  0.64522896188E+02  0.79565344068E+02  0.41800000000E+01 0.  1.
         -5    1    3    3    0  502  0.65785201558E+02 -0.31158896368E+02  0.21802744985E+02  0.76101259226E+02  0.41800000000E+01 0.  1.
        -11    1    1    2    0    0  0.48493311079E+01  0.17655587049E+02 -0.21412765073E+02  0.28173432064E+02  0.00000000000E+00 0.  1.
         11    1    1    2    0    0 -0.38431766675E+02 -0.19857585554E+02  0.64513168843E+02  0.77674148518E+02  0.00000000000E+00 0. -1.
</event>
<event>
 7    1  0.6671761E-006  0.1079694E+03  0.7561462E-02  0.1264377E+00
         -1   -1    0    0    0  501 -0.00000000000E+00  0.00000000000E+00  0.51035338360E+02  0.51035338360E+02  0.00000000000E+00 0.  1.
          1   -1    0    0  501    0  0.00000000000E+00 -0.00000000000E+00 -0.24856104055E+03  0.24856104055E+03  0.00000000000E+00 0. -1.
         23    2    1    2    0    0 -0.21181609357E+02  0.17568998423E+02 -0.94015391648E+02  0.15887968656E+03  0.12508609297E+03 0.  0.
          5    1    3    3  502    0 -0.69793221302E+02  0.23438879142E+02 -0.33697427775E+02  0.81076900742E+02  0.41800000000E+01 0.  1.
         -5    1    3    3    0  502  0.48611611945E+02 -0.58698807198E+01 -0.60317963873E+02  0.77802785820E+02  0.41800000000E+01 0.  1.
        -11    1    1    2    0    0 -0.30891076050E+02 -0.25908131085E+02 -0.60309953028E+02  0.72545022366E+02  0.00000000000E+00 0. -1.
         11    1    1    2    0    0  0.52072685407E+02  0.83391326625E+01 -0.43200357517E+02  0.68171669986E+02  0.00000000000E+00 0.  1.
</event>
<event>
 7    1  0.6671761E-006  0.1831840E+03  0.7561462E-02  0.1164757E+00
          2   -1    0    0  501    0  0.00000000000E+00  0.00000000000E+00  0.20382377548E+03  0.20382377548E+03  0.00000000000E+00 0. -1.
         -2   -1    0    0    0  501 -0.00000000000E+00 -0.00000000000E+00 -0.21620728404E+03  0.21620728404E+03  0.00000000000E+00 0.  1.
         23    2    1    2    0    0 -0.16615680613E+03  0.60037167185E+02  0.26160240273E+02  0.21804690183E+03  0.12509015772E+03 0.  0.
          5    1    3    3  502    0 -0.58635062171E+02 -0.38829441993E+01  0.64300691527E+02  0.87207792669E+02  0.41800000000E+01 0.  1.
         -5    1    3    3    0  502 -0.10752174396E+03  0.63920111384E+02 -0.38140451254E+02  0.13083910916E+03  0.41800000000E+01 0.  1.
        -11    1    1    2    0    0  0.57417491223E+02 -0.44099126451E+02 -0.54916921967E+02  0.90870069718E+02  0.00000000000E+00 0.  1.
         11    1    1    2    0    0  0.10873931491E+03 -0.15938040734E+02  0.16373173134E+02  0.11111408798E+03  0.00000000000E+00 0. -1.
</event>
<event>
 7    1  0.6671761E-006  0.9451283E+02  0.7561462E-02  0.1292277E+00
          2   -1    0    0  501    0  0.00000000000E+00  0.00000000000E+00  0.66610361170E+02  0.66610361170E+02  0.00000000000E+00 0. -1.
         -2   -1    0    0    0  501 -0.00000000000E+00 -0.00000000000E+00 -0.56103581509E+03  0.56103581509E+03  0.00000000000E+00 0.  1.
         23    2    1    2    0    0  0.17786357502E+02  0.32315512929E+02 -0.51926449052E+03  0.53539187314E+03  0.12509276486E+03 0.  0.
          5    1    3    3  502    0 -0.39107996966E+02 -0.99489953559E+01 -0.73007280477E+02  0.83522172732E+02  0.41800000000E+01 0.  1.
         -5    1    3    3    0  502  0.56894354468E+02  0.42264508285E+02 -0.44625721004E+03  0.45186970040E+03  0.41800000000E+01 0.  1.
        -11    1    1    2    0    0 -0.60039695232E+01  0.21523288178E+02 -0.12576145256E+02  0.25640963584E+02  0.00000000000E+00 0.  1.
         11    1    1    2    0    0 -0.11782387978E+02 -0.53838801107E+02  0.37415181854E+02  0.66613339537E+02  0.00000000000E+00 0. -1.
</event>
<event>
 7    1  0.6671761E-006  0.8035086E+02  0.7561462E-02  0.1328059E+00
          2   -1    0    0  501    0  0.00000000000E+00  0.00000000000E+00  0.63452058579E+02  0.63452058579E+02  0.00000000000E+00 0.  1.
         -2   -1    0    0    0  501 -0.00000000000E+00 -0.00000000000E+00 -0.22513348026E+03  0.22513348026E+03  0.00000000000E+00 0. -1.
         23    2    1    2    0    0  0.81203580254E+01 -0.31533398785E+02 -0.15230083027E+03  0.19975651929E+03  0.12508728412E+03 0.  0.
          5    1    3    3  502    0 -0.32806720234E+02 -0.24354185343E+02  0.78243637220E+00  0.41079092528E+02  0.41800000000E+01 0.  1.
         -5    1    3    3    0  502  0.40927078260E+02 -0.71792134419E+01 -0.15308326664E+03  0.15867742677E+03  0.41800000000E+01 0.  1.
        -11    1    1    2    0    0 -0.20398022571E+02 -0.17773998488E+02 -0.23774183938E+02  0.36016748451E+02  0.00000000000E+00 0. -1.
         11    1    1    2    0    0  0.12277664545E+02  0.49307397273E+02  0.14393592522E+02  0.52812271095E+02  0.00000000000E+00 0.  1.
</event>
<event>
 7    1  0.6671761E-006  0.1186583E+03  0.7561462E-02  0.1245327E+00
          2   -1    0    0  501    0  0.00000000000E+00  0.00000000000E+00  0.11605677313E+03  0.11605677313E+03  0.00000000000E+00 0. -1.
         -2   -1    0    0    0  501 -0.00000000000E+00 -0.00000000000E+00 -0.30149720533E+03  0.30149720533E+03  0.00000000000E+00 0.  1.
         23    2    1    2    0    0  0.17477972021E+02 -0.58679417935E+02 -0.25505594856E+03  0.29060609856E+03  0.12509841737E+03 0.  0.
          5    1    3    3  502    0 -0.47575576970E+02 -0.55098686058E+02 -0.15245876129E+03  0.16899836396E+03  0.41800000000E+01 0. -1.
         -5    1    3    3    0  502  0.65053548991E+02 -0.35807318777E+01 -0.10259718728E+03  0.12160773460E+03  0.41800000000E+01 0. -1.
        -11    1    1    2    0    0  0.27704940224E+02  0.43263379176E+02  0.58641792001E+02  0.77962449035E+02  0.00000000000E+00 0. -1.
         11    1    1    2    0    0 -0.45182912245E+02  0.15416038760E+02  0.10973724364E+02  0.48985430858E+02  0.00000000000E+00 0.  1.
</event>
<event>
 7    1  0.6671761E-006  0.1182665E+03  0.7561462E-02  0.1245984E+00
         -1   -1    0    0    0  501 -0.00000000000E+00  0.00000000000E+00  0.12633909842E+03  0.12633909842E+03  0.00000000000E+00 0.  1.
          1   -1    0    0  501    0  0.00000000000E+00 -0.00000000000E+00 -0.13928987148E+03  0.13928987148E+03  0.00000000000E+00 0. -1.
         23    2    1    2    0    0 -0.35085238558E+02 -0.35877960497E+02  0.49496238903E+02  0.14358064168E+03  0.12508925207E+03 0.  0.
          5    1    3    3  502    0  0.35560175126E+02  0.22585202858E+02  0.91483294751E+01  0.43310296412E+02  0.41800000000E+01 0.  1.
         -5    1    3    3    0  502 -0.70645413684E+02 -0.58463163355E+02  0.40347909428E+02  0.10027034526E+03  0.41800000000E+01 0.  1.
        -11    1    1    2    0    0  0.65289420545E+02  0.28934461644E+02 -0.30859807873E+02  0.77796139028E+02  0.00000000000E+00 0.  1.
         11    1    1    2    0    0 -0.30204181987E+02  0.69434988532E+01 -0.31587204099E+02  0.44252189195E+02  0.00000000000E+00 0. -1.
</event>
<event>
 7    1  0.6671761E-006  0.1269165E+03  0.7561462E-02  0.1232104E+00
         -1   -1    0    0    0  501 -0.00000000000E+00  0.00000000000E+00  0.30056542356E+03  0.30056542356E+03  0.00000000000E+00 0.  1.
          1   -1    0    0  501    0  0.00000000000E+00 -0.00000000000E+00 -0.71133543149E+02  0.71133543149E+02  0.00000000000E+00 0. -1.
         23    2    1    2    0    0  0.68195846941E+02  0.76592602181E+02  0.12247200063E+03  0.19858999822E+03  0.11798939022E+03 0.  0.
          5    1    3    3  502    0  0.67136398441E+02  0.12598784581E+01  0.17867293518E+02  0.69610314372E+02  0.41800000000E+01 0. -1.
         -5    1    3    3    0  502  0.10594485002E+01  0.75332723723E+02  0.10460470712E+03  0.12897968385E+03  0.41800000000E+01 0.  1.
        -11    1    1    2    0    0 -0.67753398427E+02 -0.49273269736E+02  0.26084201323E+02  0.87742598933E+02  0.00000000000E+00 0. -1.
         11    1    1    2    0    0 -0.44244851414E+00 -0.27319332445E+02  0.80875678453E+02  0.85366369556E+02  0.00000000000E+00 0.  1.
</event>
<event>
 7    1  0.6671761E-006  0.1301930E+03  0.7561462E-02  0.1227170E+00
         -2   -1    0    0    0  501 -0.00000000000E+00  0.00000000000E+00  0.78449560963E+02  0.78449560963E+02  0.00000000000E+00 0.  1.
          2   -1    0    0  501    0  0.00000000000E+00 -0.00000000000E+00 -0.22657042139E+03  0.22657042139E+03  0.00000000000E+00 0. -1.
         23    2    1    2    0    0 -0.42572223981E+02  0.67191256231E+02 -0.84011006555E+02  0.17039029095E+03  0.12509173778E+03 0.  0.
          5    1    3    3  502    0 -0.51704225189E+02 -0.20408393606E+02 -0.13154234851E+02  0.57274215198E+02  0.41800000000E+01 0.  1.
         -5    1    3    3    0  502  0.91320012079E+01  0.87599649837E+02 -0.70856771705E+02  0.11311607575E+03  0.41800000000E+01 0.  1.
        -11    1    1    2    0    0  0.59604143240E+00 -0.73950031782E+02 -0.52057778853E+02  0.90437684651E+02  0.00000000000E+00 0.  1.
         11    1    1    2    0    0  0.41976182549E+02  0.67587755506E+01 -0.12052075019E+02  0.44192006750E+02  0.00000000000E+00 0. -1.
</event>
<event>
 7    1  0.6671761E-006  0.8570427E+02  0.7561462E-02  0.1313601E+00
          2   -1    0    0  501    0  0.00000000000E+00  0.00000000000E+00  0.16872004640E+03  0.16872004640E+03  0.00000000000E+00 0.  1.
         -2   -1    0    0    0  501 -0.00000000000E+00 -0.00000000000E+00 -0.81010869061E+02  0.81010869061E+02  0.00000000000E+00 0. -1.
         23    2    1    2    0    0 -0.11371534567E+02  0.41711644278E+02  0.38473283993E+02  0.13782655363E+03  0.12508713857E+03 0.  0.
          5    1    3    3  502    0 -0.26079925652E+02  0.68241236704E+02  0.64573056166E+02  0.97591909970E+02  0.41800000000E+01 0. -1.
         -5    1    3    3    0  502  0.14708391085E+02 -0.26529592426E+02 -0.26099772173E+02  0.40234643655E+02  0.41800000000E+01 0. -1.
        -11    1    1    2    0    0 -0.15649017893E+02 -0.37015773449E+02  0.67779568723E+02  0.78798027776E+02  0.00000000000E+00 0.  1.
         11    1    1    2    0    0  0.27020552460E+02 -0.46958708289E+01 -0.18543675381E+02  0.33106334057E+02  0.00000000000E+00 0. -1.
</event>
<event>
 7    1  0.6671761E-006  0.1178066E+03  0.7561462E-02  0.1246760E+00
          4   -1    0    0  501    0  0.00000000000E+00  0.00000000000E+00  0.14631415984E+02  0.14631415984E+02  0.00000000000E+00 0. -1.
         -4   -1    0    0    0  501 -0.00000000000E+00 -0.00000000000E+00 -0.11804383227E+04  0.11804383227E+04  0.00000000000E+00 0.  1.
         23    2    1    2    0    0  0.63303404598E+02  0.71829893747E+01 -0.81515116945E+03  0.82715091779E+03  0.12509314678E+03 0.  0.
          5    1    3    3  502    0  0.46346864719E+02 -0.55871238354E+02 -0.35486908157E+03  0.36224185926E+03  0.41800000000E+01 0. -1.
         -5    1    3    3    0  502  0.16956539880E+02  0.63054227728E+02 -0.46028208787E+03  0.46490905852E+03  0.41800000000E+01 0. -1.
        -11    1    1    2    0    0  0.10779192685E+02 -0.19588536714E+02 -0.24260626296E+02  0.32992116540E+02  0.00000000000E+00 0.  1.
         11    1    1    2    0    0 -0.74082597284E+02  0.12405547339E+02 -0.32639511095E+03  0.33492670433E+03  0.00000000000E+00 0. -1.
</event>
<event>
 7    1  0.6671761E-006  0.2613534E+03  0.7561462E-02  0.1106333E+00
         -2   -1    0    0    0  501 -0.00000000000E+00  0.00000000000E+00  0.11485700628E+03  0.11485700628E+03  0.00000000000E+00 0.  1.
          2   -1    0    0  501    0  0.00000000000E+00 -0.00000000000E+00 -0.12896765017E+04  0.12896765017E+04  0.00000000000E+00 0. -1.
         23    2    1    2    0    0  0.12879173800E+03  0.22401994071E+03 -0.11413114737E+03  0.30893710122E+03  0.12507584939E+03 0.  0.
          5    1    3    3  502    0  0.20362479731E+01  0.26161323771E+02 -0.63069329897E+02  0.68438102991E+02  0.41800000000E+01 0. -1.
         -5    1    3    3    0  502  0.12675549003E+03  0.19785861693E+03 -0.51061817474E+02  0.24049899823E+03  0.41800000000E+01 0. -1.
        -11    1    1    2    0    0 -0.45545564106E+02 -0.11687847859E+03 -0.67948708134E+03  0.69096864681E+03  0.00000000000E+00 0. -1.
         11    1    1    2    0    0 -0.83246173896E+02 -0.10714146211E+03 -0.38120126671E+03  0.40462775994E+03  0.00000000000E+00 0.  1.
</event>
<event>
 7    1  0.6671761E-006  0.1229787E+03  0.7561462E-02  0.1238263E+00
          4   -1    0    0  501    0  0.00000000000E+00  0.00000000000E+00  0.12223557210E+03  0.12223557210E+03  0.00000000000E+00 0.  1.
         -4   -1    0    0    0  501 -0.00000000000E+00 -0.00000000000E+00 -0.22201055442E+03  0.22201055442E+03  0.00000000000E+00 0. -1.
         23    2    1    2    0    0 -0.60820313684E+02  0.10212525438E+01 -0.16556509962E+03  0.21623687739E+03  0.12508569631E+03 0.  0.
          5    1    3    3  502    0  0.34924881217E+02  0.21317842029E+02 -0.48907107014E+02  0.63902857786E+02  0.41800000000E+01 0.  1.
         -5    1    3    3    0  502 -0.95745194901E+02 -0.20296589486E+02 -0.11665799260E+03  0.15233401961E+03  0.41800000000E+01 0.  1.
        -11    1    1    2    0    0 -0.23018472944E+02  0.12136108997E+00  0.27417252817E+02  0.35799030395E+02  0.00000000000E+00 0. -1.
         11    1    1    2    0    0  0.83838786629E+02 -0.11426136337E+01  0.38372864482E+02  0.92210218728E+02  0.00000000000E+00 0.  1.
</event>
<event>
 6    1  0.6671761E-006  0.1716829E+03  0.7561462E-02  0.1176104E+00
          2   -1    0    0  501    0  0.00000000000E+00  0.00000000000E+00  0.45348454519E+03  0.45348454519E+03  0.00000000000E+00 0. -1.
         -2   -1    0    0    0  501 -0.00000000000E+00 -0.00000000000E+00 -0.12183984045E+03  0.12183984045E+03  0.00000000000E+00 0.  1.
          5    1    1    2  502    0 -0.63970588306E+02 -0.72578508042E+02  0.39186136225E+01  0.96915963239E+02  0.41800000000E+01 0. -1.
         -5    1    1    2    0  502  0.33130023136E+02  0.14562858004E+03  0.22170742467E+02  0.15104402001E+03  0.41800000000E+01 0.  1.
        -11    1    1    2    0    0  0.34767792113E+01 -0.69432265906E+02  0.28388191840E+03  0.29227020228E+03  0.00000000000E+00 0. -1.
         11    1    1    2    0    0  0.27363785958E+02 -0.36178060958E+01  0.21673430246E+02  0.35094200112E+02  0.00000000000E+00 0.  1.
</event>
<event>
 6    1  0.6671761E-006  0.1537799E+03  0.7561462E-02  0.1195904E+00
          2   -1    0    0  501    0  0.00000000000E+00  0.00000000000E+00  0.84641494107E+03  0.84641494107E+03  0.00000000000E+00 0. -1.
         -2   -1    0    0    0  501 -0.00000000000E+00 -0.00000000000E+00 -0.36327753829E+02  0.36327753829E+02  0.00000000000E+00 0.  1.
          5    1    1    2  502    0 -0.11187269758E+03  0.66792486027E+02  0.26787808885E+03  0.29791421506E+03  0.41800000000E+01 0. -1.
         -5    1    1    2    0  502  0.45448325808E+02  0.12537247000E+01  0.26956162011E+02  0.53021026157E+02  0.41800000000E+01 0.  1.
        -11    1    1    2    0    0 -0.16539559134E+02 -0.41111857833E+02  0.16316296656E+03  0.16907363936E+03  0.00000000000E+00 0. -1.
         11    1    1    2    0    0  0.82963930903E+02 -0.26934352894E+02  0.35208996982E+03  0.36273381431E+03  0.00000000000E+00 0.  1.
</event>
<event>
 7    1  0.6671761E-006  0.9999803E+02  0.7561462E-02  0.1280300E+00
         -1   -1    0    0    0  501 -0.00000000000E+00  0.00000000000E+00  0.48576665351E+03  0.48576665351E+03  0.00000000000E+00 0.  1.
          1   -1    0    0  501    0  0.00000000000E+00 -0.00000000000E+00 -0.39507200473E+02  0.39507200473E+02  0.00000000000E+00 0. -1.
         23    2    1    2    0    0 -0.82757123110E+02 -0.24031704601E+02  0.24402569682E+03  0.28744247359E+03  0.12509344774E+03 0.  0.
          5    1    3    3  502    0 -0.10038234676E+02 -0.12380084572E+02  0.20175021655E+03  0.20242197244E+03  0.41800000000E+01 0. -1.
         -5    1    3    3    0  502 -0.72718888435E+02 -0.11651620029E+02  0.42275480269E+02  0.85020501154E+02  0.41800000000E+01 0. -1.
        -11    1    1    2    0    0  0.61073235331E+01 -0.20305712618E+02  0.52268678039E+01  0.21838990652E+02  0.00000000000E+00 0. -1.
         11    1    1    2    0    0  0.76649799577E+02  0.44337417219E+02  0.19700688841E+03  0.21599238973E+03  0.00000000000E+00 0.  1.
</event>
<event>
 7    1  0.1104274E-005  0.1568178E+03  0.7561462E-02  0.1192337E+00
          3   -1    0    0  501    0  0.00000000000E+00  0.00000000000E+00  0.18673794631E+03  0.18673794631E+03  0.00000000000E+00 0. -1.
         -3   -1    0    0    0  501 -0.00000000000E+00 -0.00000000000E+00 -0.17022299198E+03  0.17022299198E+03  0.00000000000E+00 0.  1.
         23    2    1    2    0    0  0.13747371690E+03 -0.31434351912E+02 -0.10568284388E+02  0.18880259677E+03  0.12509032974E+03 0.  0.
          5    1    3    3  502    0  0.76709033549E+02 -0.60703134269E+02  0.38586319310E+02  0.10524030965E+03  0.41800000000E+01 0. -1.
         -5    1    3    3    0  502  0.60764683350E+02  0.29268782357E+02 -0.49154603698E+02  0.83562287115E+02  0.41800000000E+01 0. -1.
        -11    1    1    2    0    0 -0.10215874904E+03  0.20044695267E+01 -0.18021717499E+02  0.10375553096E+03  0.00000000000E+00 0.  1.
         11    1    1    2    0    0 -0.35314967858E+02  0.29429882386E+02  0.45104956218E+02  0.64402810556E+02  0.00000000000E+00 0. -1.
</event>
<event>
 7    1  0.6671761E-006  0.1038368E+03  0.7561462E-02  0.1272429E+00
         -4   -1    0    0    0  501 -0.00000000000E+00  0.00000000000E+00  0.26475982022E+03  0.26475982022E+03  0.00000000000E+00 0.  1.
          4   -1    0    0  501    0  0.00000000000E+00 -0.00000000000E+00 -0.53917141091E+02  0.53917141091E+02  0.00000000000E+00 0. -1.
         23    2    1    2    0    0 -0.34459052640E+02 -0.11633210228E+02  0.16547940425E+03  0.21060171007E+03  0.12508752601E+03 0.  0.
          5    1    3    3  502    0 -0.49357660274E+02 -0.60924982233E+02  0.10347249569E+03  0.12989250114E+03  0.41800000000E+01 0.  1.
         -5    1    3    3    0  502  0.14898607634E+02  0.49291772005E+02  0.62006908561E+02  0.80709208930E+02  0.41800000000E+01 0.  1.
        -11    1    1    2    0    0  0.54170510082E+02  0.17493639333E+02  0.60097081525E+02  0.82777598343E+02  0.00000000000E+00 0.  1.
         11    1    1    2    0    0 -0.19711457441E+02 -0.58604291052E+01 -0.14733806649E+02  0.25297652897E+02  0.00000000000E+00 0. -1.
</event>
<event>
 7    1  0.6671761E-006  0.1474823E+03  0.7561462E-02  0.1203601E+00
          1   -1    0    0  501    0  0.00000000000E+00  0.00000000000E+00  0.16308321796E+03  0.16308321796E+03  0.00000000000E+00 0. -1.
         -1   -1    0    0    0  501 -0.00000000000E+00 -0.00000000000E+00 -0.16912269585E+03  0.16912269585E+03  0.00000000000E+00 0.  1.
         23    2    1    2    0    0 -0.68183889781E+02 -0.10512970769E+03 -0.13349554515E+02  0.17755443815E+03  0.12508425016E+03 0.  0.
          5    1    3    3  502    0  0.20115650169E+02 -0.53624913484E+02 -0.42190445623E+02  0.71258521103E+02  0.41800000000E+01 0.  1.
         -5    1    3    3    0  502 -0.88299539950E+02 -0.51504794203E+02  0.28840891109E+02  0.10629591705E+03  0.41800000000E+01 0.  1.
        -11    1    1    2    0    0  0.57943663427E+02  0.42728551656E+02 -0.33482943077E+02  0.79399651984E+02  0.00000000000E+00 0.  1.
         11    1    1    2    0    0  0.10240226354E+02  0.62401156030E+02  0.40793019699E+02  0.75251823671E+02  0.00000000000E+00 0. -1.
</event>
<event>
 7    1  0.6671761E-006  0.1062583E+03  0.7561462E-02  0.1267660E+00
         -2   -1    0    0    0  501 -0.00000000000E+00  0.00000000000E+00  0.16246747330E+03  0.16246747330E+03  0.00000000000E+00 0.  1.
          2   -1    0    0  501    0  0.00000000000E+00 -0.00000000000E+00 -0.28656193107E+03  0.28656193107E+03  0.00000000000E+00 0. -1.
         23    2    1    2    0    0  0.23565154630E+02 -0.51325264114E+02  0.12107633002E+03  0.18141578682E+03  0.12272982835E+03 0.  0.
          5    1    3    3  502    0 -0.38150621026E+02 -0.51166328371E+02  0.28376537476E+02  0.69972589796E+02  0.41800000000E+01 0. -1.
         -5    1    3    3    0  502  0.61715775656E+02 -0.15893574333E+00  0.92699792549E+02  0.11144319703E+03  0.41800000000E+01 0.  1.
        -11    1    1    2    0    0 -0.46592068462E+02  0.30800898853E+02 -0.69045883332E+02  0.88807940066E+02  0.00000000000E+00 0.  1.
         11    1    1    2    0    0  0.23026913832E+02  0.20524365261E+02 -0.17612490446E+03  0.17880567748E+03  0.00000000000E+00 0. -1.
</event>
<event>
 7    1  0.6671761E-006  0.1382693E+03  0.7561462E-02  0.1215677E+00
          2   -1    0    0  501    0  0.00000000000E+00  0.00000000000E+00  0.19874603855E+03  0.19874603855E+03  0.00000000000E+00 0. -1.
         -2   -1    0    0    0  501 -0.00000000000E+00 -0.00000000000E+00 -0.12350504100E+03  0.12350504100E+03  0.00000000000E+00 0.  1.
         23    2    1    2    0    0  0.85884560713E+02  0.41496913049E+02 -0.20896242714E+02  0.15868845765E+03  0.12508885670E+03 0.  0.
          5    1    3    3  502    0  0.10371648193E+03 -0.61620160856E+01 -0.26549771387E+02  0.10731934507E+03  0.41800000000E+01 0.  1.
         -5    1    3    3    0  502 -0.17831921219E+02  0.47658929135E+02  0.56535286722E+01  0.51369112579E+02  0.41800000000E+01 0.  1.
        -11    1    1    2    0    0 -0.11833697350E+02 -0.45817866966E+02  0.70838197951E+02  0.85190161493E+02  0.00000000000E+00 0.  1.
         11    1    1    2    0    0 -0.74050863363E+02  0.43209539163E+01  0.25299042309E+02  0.78372460401E+02  0.00000000000E+00 0. -1.
</event>
<event>
 6    1  0.6671761E-006  0.3084477E+03  0.7561462E-02  0.1081092E+00
          1   -1    0    0  501    0  0.00000000000E+00  0.00000000000E+00  0.81385742236E+03  0.81385742236E+03  0.00000000000E+00 0. -1.
         -1   -1    0    0    0  501 -0.00000000000E+00 -0.00000000000E+00 -0.12984236616E+03  0.12984236616E+03  0.00000000000E+00 0.  1.
          5    1    1    2  502    0 -0.20362116366E+02  0.22700298614E+03  0.30116483633E+03  0.37770716506E+03  0.41800000000E+01 0. -1.
         -5    1    1    2    0  502 -0.12153890136E+03 -0.28269885786E+01  0.52513972178E+02  0.13249485304E+03  0.41800000000E+01 0.  1.
        -11    1    1    2    0    0  0.42545240088E+02 -0.96946892098E+02  0.69155177905E+02  0.12645645880E+03  0.00000000000E+00 0.  1.
         11    1    1    2    0    0  0.99355777639E+02 -0.12722910546E+03  0.26118106979E+03  0.30704131162E+03  0.00000000000E+00 0. -1.
</event>
<event>
 7    1  0.6671761E-006  0.1399585E+03  0.7561462E-02  0.1213385E+00
         -3   -1    0    0    0  501 -0.00000000000E+00  0.00000000000E+00  0.24461414595E+03  0.24461414595E+03  0.00000000000E+00 0.  1.
          3   -1    0    0  501    0  0.00000000000E+00 -0.00000000000E+00 -0.99376289634E+02  0.99376289634E+02  0.00000000000E+00 0. -1.
         23    2    1    2    0    0 -0.62227917655E+02  0.74355208598E+02  0.14175117116E+03  0.21246936009E+03  0.12509525839E+03 0.  0.
          5    1    3    3  502    0  0.37104914489E+02  0.24629171218E+02  0.58224973643E+02  0.73423366238E+02  0.41800000000E+01 0.  1.
         -5    1    3    3    0  502 -0.99332832144E+02  0.49726037380E+02  0.83526197521E+02  0.13904599386E+03  0.41800000000E+01 0.  1.
        -11    1    1    2    0    0 -0.92336696933E+00 -0.59032625198E+02 -0.20132781803E+02  0.62378139981E+02  0.00000000000E+00 0.  1.
         11    1    1    2    0    0  0.63151284625E+02 -0.15322583400E+02  0.23619466961E+02  0.69142935513E+02  0.00000000000E+00 0. -1.
</event>
<event>
 7    1  0.6671761E-006  0.1114023E+03  0.7561462E-02  0.1257995E+00
          2   -1    0    0  501    0  0.00000000000E+00  0.00000000000E+00  0.38909075030E+03  0.38909075030E+03  0.00000000000E+00 0.  1.
         -2   -1    0    0    0  501 -0.00000000000E+00 -0.00000000000E+00 -0.37428566904E+02  0.37428566904E+02  0.00000000000E+00 0. -1.
         23    2    1    2    0    0  0.16462796965E+02  0.49067136516E+02  0.21659217167E+03  0.25541250461E+03  0.12507905945E+03 0.  0.
          5    1    3    3  502    0 -0.49735019253E+02  0.49470260520E+01  0.12096532544E+03  0.13095085936E+03  0.41800000000E+01 0.  1.
         -5    1    3    3    0  502  0.66197816218E+02  0.44120110464E+02  0.95626846223E+02  0.12446164525E+03  0.41800000000E+01 0.  1.
        -11    1    1    2    0    0  0.23062896507E+02  0.72568410035E+01  0.78155964739E+02  0.81810230173E+02  0.00000000000E+00 0.  1.
         11    1    1    2    0    0 -0.39525693471E+02 -0.56323977520E+02  0.56914046989E+02  0.89296582424E+02  0.00000000000E+00 0. -1.
</event>
<event>
 7    1  0.6671761E-006  0.7850726E+02  0.7561462E-02  0.1333342E+00
         -2   -1    0    0    0  501 -0.00000000000E+00  0.00000000000E+00  0.30673102101E+02  0.30673102101E+02  0.00000000000E+00 0.  1.
          2   -1    0    0  501    0  0.00000000000E+00 -0.00000000000E+00 -0.38174415907E+03  0.38174415907E+03  0.00000000000E+00 0. -1.
         23    2    1    2    0    0  0.25782386227E+02  0.61096937987E+01 -0.20250433108E+03  0.23743152647E+03  0.12109362434E+03 0.  0.
          5    1    3    3  502    0  0.31600072008E+02  0.31282367980E+02 -0.20621659756E+03  0.21099741374E+03  0.41800000000E+01 0. -1.
         -5    1    3    3    0  502 -0.58176857805E+01 -0.25172674182E+02  0.37122664739E+01  0.26434112727E+02  0.41800000000E+01 0.  1.
        -11    1    1    2    0    0 -0.19228618064E+02 -0.43847547800E+02 -0.11296526910E+03  0.12269270240E+03  0.00000000000E+00 0.  1.
         11    1    1    2    0    0 -0.65537681632E+01  0.37737854001E+02 -0.35601456793E+02  0.52293032304E+02  0.00000000000E+00 0. -1.
</event>
<event>
 7    1  0.6671761E-006  0.8817150E+02  0.7561462E-02  0.1307341E+00
          2   -1    0    0  501    0  0.00000000000E+00  0.00000000000E+00  0.86510087867E+02  0.86510087867E+02  0.00000000000E+00 0. -1.
         -2   -1    0    0    0  501 -0.00000000000E+00 -0.00000000000E+00 -0.18852280756E+03  0.18852280756E+03  0.00000000000E+00 0.  1.
         23    2    1    2    0    0  0.52533023593E+02  0.42092696852E+02 -0.62265759569E+02  0.15512015573E+03  0.12511484406E+03 0.  0.
          5    1    3    3  502    0  0.30418947905E+02  0.19613862994E+02 -0.99610478110E+02  0.10606477154E+03  0.41800000000E+01 0. -1.
         -5    1    3    3    0  502  0.22114075688E+02  0.22478833858E+02  0.37344718540E+02  0.49055384190E+02  0.41800000000E+01 0. -1.
        -11    1    1    2    0    0 -0.10791877514E+02 -0.61234720861E+02 -0.40105011030E+02  0.73990320778E+02  0.00000000000E+00 0. -1.
         11    1    1    2    0    0 -0.41741146079E+02  0.19142024008E+02  0.35805090207E+00  0.45922418921E+02  0.00000000000E+00 0.  1.
</event>
<event>
 7    1  0.6671761E-006  0.8271964E+02  0.7561462E-02  0.1321506E+00
          4   -1    0    0  501    0  0.00000000000E+00  0.00000000000E+00  0.49240347517E+03  0.49240347517E+03  0.00000000000E+00 0.  1.
         -4   -1    0    0    0  501 -0.00000000000E+00 -0.00000000000E+00 -0.25298194946E+02  0.25298194946E+02  0.00000000000E+00 0. -1.
         23    2    1    2    0    0 -0.22625810756E+02  0.34099694964E+02  0.26790349250E+03  0.29848632684E+03  0.12508832684E+03 0.  0.
          5    1    3    3  502    0  0.13712315849E+02 -0.13322891975E+02  0.22242869425E+03  0.22328798329E+03  0.41800000000E+01 0. -1.
         -5    1    3    3    0  502 -0.36338126604E+02  0.47422586939E+02  0.45474798247E+02  0.75198343550E+02  0.41800000000E+01 0. -1.
        -11    1    1    2    0    0  0.16163914128E+02  0.23222137385E+02  0.10508443019E+03  0.10882682230E+03  0.00000000000E+00 0.  1.
         11    1    1    2    0    0  0.64618966282E+01 -0.57321832349E+02  0.94117357534E+02  0.11038852097E+03  0.00000000000E+00 0. -1.
</event>
<event>
 7    1  0.6671761E-006  0.1533927E+03  0.7561462E-02  0.1196365E+00
          1   -1    0    0  501    0  0.00000000000E+00  0.00000000000E+00  0.27358011623E+02  0.27358011623E+02  0.00000000000E+00 0. -1.
         -1   -1    0    0    0  501 -0.00000000000E+00 -0.00000000000E+00 -0.14356670095E+04  0.14356670095E+04  0.00000000000E+00 0.  1.
         23    2    1    2    0    0 -0.11618672328E+03 -0.47577366603E+02 -0.11367988142E+04  0.11505311895E+04  0.12509002113E+03 0.  0.
          5    1    3    3  502    0 -0.22006340625E+02  0.31280366251E+02 -0.53090343285E+03  0.53229565822E+03  0.41800000000E+01 0.  1.
         -5    1    3    3    0  502 -0.94180382650E+02 -0.78857732854E+02 -0.60589538139E+03  0.61823553125E+03  0.41800000000E+01 0.  1.
        -11    1    1    2    0    0 -0.60676945616E+01  0.18876121366E+02 -0.87489203429E+02  0.89707778881E+02  0.00000000000E+00 0.  1.
         11    1    1    2    0    0  0.12225441784E+03  0.28701245237E+02 -0.18402098023E+03  0.22278605280E+03  0.00000000000E+00 0. -1.
</event>
<event>
 7    1  0.6671761E-006  0.8052761E+02  0.7561462E-02  0.1327561E+00
         -2   -1    0    0    0  501 -0.00000000000E+00  0.00000000000E+00  0.32445159233E+02  0.32445159233E+02  0.00000000000E+00 0.  1.
          2   -1    0    0  501    0  0.00000000000E+00 -0.00000000000E+00 -0.38790577293E+03  0.38790577293E+03  0.00000000000E+00 0. -1.
         23    2    1    2    0    0 -0.19143684305E+02 -0.11410856695E+02 -0.17576586196E+03  0.21688123010E+03  0.12508853440E+03 0.  0.
          5    1    3    3  502    0 -0.43825210066E+02 -0.19374278263E+02 -0.10102663989E+02  0.49148223927E+02  0.41800000000E+01 0. -1.
         -5    1    3    3    0  502  0.24681525761E+02  0.79634215681E+01 -0.16566319797E+03  0.16773300617E+03  0.41800000000E+01 0. -1.
        -11    1    1    2    0    0  0.50836550394E+02 -0.48483134702E+01 -0.61045986278E+02  0.79589405326E+02  0.00000000000E+00 0.  1.
         11    1    1    2    0    0 -0.31692866089E+02  0.16259170165E+02 -0.11864876546E+03  0.12388029674E+03  0.00000000000E+00 0. -1.
</event>
<event>
 6    1  0.6671761E-006  0.2510046E+03  0.7561462E-02  0.1112672E+00
          1   -1    0    0  501    0  0.00000000000E+00  0.00000000000E+00  0.56357796902E+03  0.56357796902E+03  0.00000000000E+00 0. -1.
         -1   -1    0    0    0  501 -0.00000000000E+00 -0.00000000000E+00 -0.11732826846E+03  0.11732826846E+03  0.00000000000E+00 0.  1.
          5    1    1    2  502    0  0.20664913910E+03 -0.88232836123E+02  0.17778778234E+03  0.28655691932E+03  0.41800000000E+01 0. -1.
         -5    1    1    2    0  502 -0.15411161732E+03  0.10182586111E+03  0.15704118099E+03  0.24248361081E+03  0.41800000000E+01 0.  1.
        -11    1    1    2    0    0  0.72970853640E+01  0.21803570385E+02  0.63217187853E+02  0.67268536304E+02  0.00000000000E+00 0.  1.
         11    1    1    2    0    0 -0.59834607144E+02 -0.35396595374E+02  0.48203549372E+02  0.84597171041E+02  0.00000000000E+00 0. -1.
</event>
<event>
 7    1  0.6671761E-006  0.8400477E+02  0.7561462E-02  0.1318056E+00
         -2   -1    0    0    0  501 -0.00000000000E+00  0.00000000000E+00  0.82026540483E+02  0.82026540483E+02  0.00000000000E+00 0.  1.
          2   -1    0    0  501    0  0.00000000000E+00 -0.00000000000E+00 -0.22552015200E+03  0.22552015200E+03  0.00000000000E+00 0. -1.
         23    2    1    2    0    0  0.54815816645E+02 -0.20003222056E+01 -0.10254634813E+02  0.13697252949E+03  0.12509013253E+03 0.  0.
          5    1    3    3  502    0  0.27186069475E+02  0.47916469753E+02 -0.43933837220E+02  0.70588419022E+02  0.41800000000E+01 0. -1.
         -5    1    3    3    0  502  0.27629747169E+02 -0.49916791959E+02  0.33679202407E+02  0.66384110470E+02  0.41800000000E+01 0. -1.
        -11    1    1    2    0    0 -0.25071990765E+02  0.53033340455E+01  0.74895781537E+01  0.26698761279E+02  0.00000000000E+00 0.  1.
         11    1    1    2    0    0 -0.29743825880E+02 -0.33030118399E+01 -0.14072855486E+03  0.14387540171E+03  0.00000000000E+00 0. -1.
</event>
<event>
 7    1  0.6671761E-006  0.9365215E+02  0.7561462E-02  0.1294241E+00
         -2   -1    0    0    0  501 -0.00000000000E+00  0.00000000000E+00  0.10184324394E+03  0.10184324394E+03  0.00000000000E+00 0. -1.
          2   -1    0    0  501    0  0.00000000000E+00 -0.00000000000E+00 -0.11637257393E+03  0.11637257393E+03  0.00000000000E+00 0.  1.
         23    2    1    2    0    0  0.12488376155E+02 -0.44847872387E+00 -0.17766441772E+01  0.12572239123E+03  0.12508717968E+03 0.  0.
          5    1    3    3  502    0 -0.34270855879E+01  0.46469046084E+02 -0.41146781098E+02  0.62302866341E+02  0.41800000000E+01 0. -1.
         -5    1    3    3    0  502  0.15915461743E+02 -0.46917524808E+02  0.39370136921E+02  0.63419524894E+02  0.41800000000E+01 0. -1.
        -11    1    1    2    0    0 -0.22621115005E+02  0.42177502953E+02 -0.12834172074E+02  0.49551716138E+02  0.00000000000E+00 0.  1.
         11    1    1    2    0    0  0.10132738850E+02 -0.41729024229E+02  0.81486260547E-01  0.42941710489E+02  0.00000000000E+00 0. -1.
</event>
<event>
 7    1  0.6671761E-006  0.1086923E+03  0.7561462E-02  0.1263011E+00
         -2   -1    0    0    0  501 -0.00000000000E+00  0.00000000000E+00  0.44305658813E+03  0.44305658813E+03  0.00000000000E+00 0.  1.
          2   -1    0    0  501    0  0.00000000000E+00 -0.00000000000E+00 -0.29998882659E+02  0.29998882659E+02  0.00000000000E+00 0. -1.
         23    2    1    2    0    0  0.25496713223E+02  0.34069728118E+02  0.23551185927E+03  0.27004480400E+03  0.12509009374E+03 0.  0.
          5    1    3    3  502    0  0.25311266383E+02  0.79577038880E+02  0.12423716622E+03  0.14975149813E+03  0.41800000000E+01 0. -1.
         -5    1    3    3    0  502  0.18544683960E+00 -0.45507310762E+02  0.11127469305E+03  0.12029330587E+03  0.41800000000E+01 0. -1.
        -11    1    1    2    0    0 -0.25856940697E+02  0.20812115403E+02  0.11549863744E+03  0.12017346121E+03  0.00000000000E+00 0.  1.
         11    1    1    2    0    0  0.36022747449E+00 -0.54881843521E+02  0.62047208766E+02  0.82837205577E+02  0.00000000000E+00 0. -1.
</event>
<event>
 7    1  0.6671761E-006  0.1433530E+03  0.7561462E-02  0.1208887E+00
         -1   -1    0    0    0  501 -0.00000000000E+00  0.00000000000E+00  0.57138225428E+02  0.57138225428E+02  0.00000000000E+00 0.  1.
          1   -1    0    0  501    0  0.00000000000E+00 -0.00000000000E+00 -0.59070820737E+03  0.59070820737E+03  0.00000000000E+00 0. -1.
         23    2    1    2    0    0 -0.28581814480E+02  0.13016760229E+03 -0.17162355499E+03  0.25073267396E+03  0.12510677183E+03 0.  0.
          5    1    3    3  502    0 -0.16406577250E+02  0.10585680311E+03 -0.18964433405E+03  0.21784692878E+03  0.41800000000E+01 0.  1.
         -5    1    3    3    0  502 -0.12175237230E+02  0.24310799176E+02  0.18020779056E+02  0.32885745178E+02  0.41800000000E+01 0.  1.
        -11    1    1    2    0    0 -0.66832070535E+01 -0.11223260108E+03 -0.19087274736E+03  0.22152477894E+03  0.00000000000E+00 0.  1.
         11    1    1    2    0    0  0.35265021533E+02 -0.17935001209E+02 -0.17107367959E+03  0.17558897990E+03  0.00000000000E+00 0. -1.
</event>
<event>
 7    1  0.6671761E-006  0.6058998E+02  0.7561462E-02  0.1395372E+00
          2   -1    0    0  501    0  0.00000000000E+00  0.00000000000E+00  0.97268236063E+02  0.97268236063E+02  0.00000000000E+00 0. -1.
         -2   -1    0    0    0  501 -0.00000000000E+00 -0.00000000000E+00 -0.15075904581E+03  0.15075904581E+03  0.00000000000E+00 0.  1.
         23    2    1    2    0    0  0.91014674340E+00 -0.75867225109E+01 -0.85160130955E+02  0.15151862819E+03  0.12508900855E+03 0.  0.
          5    1    3    3  502    0  0.34636952341E+02 -0.25076321968E+02 -0.10129576237E+03  0.11003110590E+03  0.41800000000E+01 0.  1.
         -5    1    3    3    0  502 -0.33726805598E+02  0.17489599457E+02  0.16135631414E+02  0.41487522294E+02  0.41800000000E+01 0.  1.
        -11    1    1    2    0    0 -0.14881091965E+02  0.17418706029E+02 -0.26995810505E+02  0.35406666076E+02  0.00000000000E+00 0.  1.
         11    1    1    2    0    0  0.13970945222E+02 -0.98319835179E+01  0.58665131714E+02  0.61101987605E+02  0.00000000000E+00 0. -1.
</event>
<event>
 7    1  0.6671761E-006  0.1146075E+03  0.7561462E-02  0.1252268E+00
         -3   -1    0    0    0  501 -0.00000000000E+00  0.00000000000E+00  0.29262149754E+03  0.29262149754E+03  0.00000000000E+00 0.  1.
          3   -1    0    0  501    0  0.00000000000E+00 -0.00000000000E+00 -0.69207202796E+02  0.69207202796E+02  0.00000000000E+00 0. -1.
         23    2    1    2    0    0  0.57328967628E+02 -0.16220579094E+02  0.21095175355E+03  0.25238611474E+03  0.12509352851E+03 0.  0.
          5    1    3    3  502    0 -0.87804080743E+01 -0.50710713902E+02  0.38345218795E+02  0.64315630098E+02  0.41800000000E+01 0.  1.
         -5    1    3    3    0  502  0.66109375702E+02  0.34490134808E+02  0.17260653475E+03  0.18807048464E+03  0.41800000000E+01 0.  1.
        -11    1    1    2    0    0  0.20286114718E+02  0.15074910330E+02  0.18890124536E+02  0.31553386138E+02  0.00000000000E+00 0.  1.
         11    1    1    2    0    0 -0.77615082346E+02  0.11456687643E+01 -0.64275833394E+01  0.77889199457E+02  0.00000000000E+00 0. -1.
</event>
<event>
 7    1  0.6671761E-006  0.9549626E+02  0.7561462E-02  0.1290062E+00
          1   -1    0    0  501    0  0.00000000000E+00  0.00000000000E+00  0.15031802930E+02  0.15031802930E+02  0.00000000000E+00 0. -1.
         -1   -1    0    0    0  501 -0.00000000000E+00 -0.00000000000E+00 -0.78438179600E+03  0.78438179600E+03  0.00000000000E+00 0.  1.
         23    2    1    2    0    0  0.14863240131E+02  0.55774968134E+01 -0.50447782563E+03  0.51999397211E+03  0.12507529774E+03 0.  0.
          5    1    3    3  502    0 -0.39599179319E+02 -0.29330279627E+02 -0.11536768916E+03  0.12552105962E+03  0.41800000000E+01 0.  1.
         -5    1    3    3    0  502  0.54462419450E+02  0.34907776440E+02 -0.38911013647E+03  0.39447291250E+03  0.41800000000E+01 0.  1.
        -11    1    1    2    0    0  0.23779299468E+00 -0.39541970116E+02 -0.64709677148E+02  0.75835125521E+02  0.00000000000E+00 0.  1.
         11    1    1    2    0    0 -0.15101033126E+02  0.33964473303E+02 -0.20016249029E+03  0.20358450130E+03  0.00000000000E+00 0. -1.
</event>
<event>
 7    1  0.6671761E-006  0.9152877E+02  0.7561462E-02  0.1299191E+00
          1   -1    0    0  501    0  0.00000000000E+00  0.00000000000E+00  0.61446717353E+03  0.61446717353E+03  0.00000000000E+00 0. -1.
         -1   -1    0    0    0  501 -0.00000000000E+00 -0.00000000000E+00 -0.25763637180E+02  0.25763637180E+02  0.00000000000E+00 0.  1.
         23    2    1    2    0    0  0.71251617839E+02  0.88064650876E+01  0.29690264813E+03  0.33007968706E+03  0.12508825071E+03 0.  0.
          5    1    3    3  502    0  0.29692752334E+02  0.19774631327E+02  0.65229574396E+01  0.36506396139E+02  0.41800000000E+01 0. -1.
         -5    1    3    3    0  502  0.41558865504E+02 -0.10968166239E+02  0.29037969069E+03  0.29357329092E+03  0.41800000000E+01 0. -1.
        -11    1    1    2    0    0 -0.87408865068E+02 -0.80563105247E+01  0.26093503548E+03  0.27530402571E+03  0.00000000000E+00 0. -1.
         11    1    1    2    0    0  0.16157247229E+02 -0.75015456286E+00  0.30865852733E+02  0.34847097940E+02  0.00000000000E+00 0.  1.
</event>
<event>
 7    1  0.6671761E-006  0.8257304E+02  0.7561462E-02  0.1321904E+00
          2   -1    0    0  501    0  0.00000000000E+00  0.00000000000E+00  0.34774503971E+03  0.34774503971E+03  0.00000000000E+00 0. -1.
         -2   -1    0    0    0  501 -0.00000000000E+00 -0.00000000000E+00 -0.41037348322E+02  0.41037348322E+02  0.00000000000E+00 0.  1.
         23    2    1    2    0    0  0.27541327483E+02  0.37827725744E+02  0.13823715088E+03  0.19220854448E+03  0.12508058656E+03 0.  0.
          5    1    3    3  502    0  0.32938150366E+01  0.39179202571E+02 -0.10928208613E+02  0.41021424586E+02  0.41800000000E+01 0. -1.
         -5    1    3    3    0  502  0.24247512446E+02 -0.13514768270E+01  0.14916535949E+03  0.15118711989E+03  0.41800000000E+01 0. -1.
        -11    1    1    2    0    0  0.16208495143E+02  0.21702576449E+02  0.52386961590E+02  0.58975510884E+02  0.00000000000E+00 0.  1.
         11    1    1    2    0    0 -0.43749822626E+02 -0.59530302193E+02  0.11608357893E+03  0.13759833268E+03  0.00000000000E+00 0. -1.
</event>
<event>
 7    1  0.6671761E-006  0.1099901E+03  0.7561462E-02  0.1260588E+00
         -1   -1    0    0    0  501 -0.00000000000E+00  0.00000000000E+00  0.11205184727E+03  0.11205184727E+03  0.00000000000E+00 0.  1.
          1   -1    0    0  501    0  0.00000000000E+00 -0.00000000000E+00 -0.16346246598E+03  0.16346246598E+03  0.00000000000E+00 0. -1.
         23    2    1    2    0    0  0.59517002519E+02 -0.30528016573E+02  0.34574522853E+02  0.14600356178E+03  0.12508960404E+03 0.  0.
          5    1    3    3  502    0  0.94611386693E+02 -0.26848885419E+02  0.30207467085E+01  0.98482356038E+02  0.41800000000E+01 0. -1.
         -5    1    3    3    0  502 -0.35094384173E+02 -0.36791311539E+01  0.31553776145E+02  0.47521205746E+02  0.41800000000E+01 0. -1.
        -11    1    1    2    0    0 -0.11473036481E+02  0.35879934940E+02 -0.92015736233E+01  0.38777174401E+02  0.00000000000E+00 0.  1.
         11    1    1    2    0    0 -0.48043966038E+02 -0.53519183669E+01 -0.76783567935E+02  0.90733577069E+02  0.00000000000E+00 0. -1.
</event>
<event>
 7    1  0.6671761E-006  0.1880330E+03  0.7561462E-02  0.1160248E+00
          1   -1    0    0  501    0  0.00000000000E+00  0.00000000000E+00  0.17380230078E+03  0.17380230078E+03  0.00000000000E+00 0. -1.
         -1   -1    0    0    0  501 -0.00000000000E+00 -0.00000000000E+00 -0.28444575125E+03  0.28444575125E+03  0.00000000000E+00 0.  1.
         23    2    1    2    0    0 -0.45731520993E+02  0.15957132934E+03 -0.16049549693E+03  0.26260213932E+03  0.12508676142E+03 0.  0.
          5    1    3    3  502    0 -0.56352824621E+02  0.43011144894E+02 -0.11856362995E+03  0.13820421910E+03  0.41800000000E+01 0.  1.
         -5    1    3    3    0  502  0.10621303628E+02  0.11656018445E+03 -0.41931866976E+02  0.12439792023E+03  0.41800000000E+01 0.  1.
        -11    1    1    2    0    0 -0.13866077603E+02 -0.10868879196E+03  0.40102131037E+02  0.11667777217E+03  0.00000000000E+00 0. -1.
         11    1    1    2    0    0  0.59597598596E+02 -0.50882537384E+02  0.97499154282E+01  0.78968140538E+02  0.00000000000E+00 0.  1.
</event>
<event>
 7    1  0.6671761E-006  0.8415976E+02  0.7561462E-02  0.1317645E+00
         -3   -1    0    0    0  501 -0.00000000000E+00  0.00000000000E+00  0.43939548848E+03  0.43939548848E+03  0.00000000000E+00 0.  1.
          3   -1    0    0  501    0  0.00000000000E+00 -0.00000000000E+00 -0.39245734588E+02  0.39245734588E+02  0.00000000000E+00 0. -1.
         23    2    1    2    0    0  0.56181560015E+02  0.46962110585E+02  0.21311856529E+03  0.25773419044E+03  0.12508230305E+03 0.  0.
          5    1    3    3  502    0  0.56713138768E+02  0.36230075526E+02  0.29240055238E+02  0.73494569268E+02  0.41800000000E+01 0.  1.
         -5    1    3    3    0  502 -0.53157875357E+00  0.10732035059E+02  0.18387851005E+03  0.18423962117E+03  0.41800000000E+01 0.  1.
        -11    1    1    2    0    0 -0.47253759531E+02 -0.62291997179E+01  0.25449850813E+02  0.54031616905E+02  0.00000000000E+00 0. -1.
         11    1    1    2    0    0 -0.89278004833E+01 -0.40732910867E+02  0.16158133780E+03  0.16687541572E+03  0.00000000000E+00 0.  1.
</event>
<event>
 7    1  0.6671761E-006  0.1542743E+03  0.7561462E-02  0.1195317E+00
         -1   -1    0    0    0  501 -0.00000000000E+00  0.00000000000E+00  0.11455907470E+03  0.11455907470E+03  0.00000000000E+00 0.  1.
          1   -1    0    0  501    0  0.00000000000E+00 -0.00000000000E+00 -0.26782098674E+03  0.26782098674E+03  0.00000000000E+00 0. -1.
         23    2    1    2    0    0  0.20156732673E+02 -0.10145520158E+03 -0.43521418997E+01  0.16237505697E+03  0.12508903304E+03 0.  0.
          5    1    3    3  502    0  0.70242563868E+02 -0.68011231043E+02 -0.20274664332E+02  0.99940380930E+02  0.41800000000E+01 0.  1.
         -5    1    3    3    0  502 -0.50085831195E+02 -0.33443970542E+02  0.15922522433E+02  0.62434676044E+02  0.41800000000E+01 0.  1.
        -11    1    1    2    0    0  0.72651417786E+01 -0.22354772416E+02  0.11566480112E+01  0.23534144757E+02  0.00000000000E+00 0.  1.
         11    1    1    2    0    0 -0.27421874452E+02  0.12380997400E+03 -0.15006641815E+03  0.19647085971E+03  0.00000000000E+00 0. -1.
</event>
<event>
 7    1  0.6671761E-006  0.9781261E+02  0.7561462E-02  0.1284964E+00
         -3   -1    0    0    0  501 -0.00000000000E+00  0.00000000000E+00  0.25944427344E+03  0.25944427344E+03  0.00000000000E+00 0.  1.
          3   -1    0    0  501    0  0.00000000000E+00 -0.00000000000E+00 -0.56389385243E+02  0.56389385243E+02  0.00000000000E+00 0. -1.
         23    2    1    2    0    0  0.26892629484E+02  0.43404245836E+02  0.10958244245E+03  0.17396267042E+03  0.12509019518E+03 0.  0.
          5    1    3    3  502    0  0.62501154278E+02  0.61357160056E+02  0.46595489709E+02  0.99296059526E+02  0.41800000000E+01 0.  1.
         -5    1    3    3    0  502 -0.35608524794E+02 -0.17952914220E+02  0.62986952739E+02  0.74666610894E+02  0.41800000000E+01 0.  1.
        -11    1    1    2    0    0 -0.20590504807E+02  0.31807082347E+01  0.92535848908E+02  0.94852354353E+02  0.00000000000E+00 0.  1.
         11    1    1    2    0    0 -0.63021246770E+01 -0.46584954071E+02  0.93659684224E+00  0.47018633911E+02  0.00000000000E+00 0. -1.
</event>
<event>
 7    1  0.6671761E-006  0.9869649E+02  0.7561462E-02  0.1283061E+00
         -2   -1    0    0    0  501 -0.00000000000E+00  0.00000000000E+00  0.34960530792E+02  0.34960530792E+02  0.00000000000E+00 0.  1.
          2   -1    0    0  501    0  0.00000000000E+00 -0.00000000000E+00 -0.40091214863E+03  0.40091214863E+03  0.00000000000E+00 0. -1.
         23    2    1    2    0    0  0.36030698141E+02 -0.25089186045E+02 -0.16268926745E+03  0.20987920554E+03  0.12511516579E+03 0.  0.
          5    1    3    3  502    0 -0.22599428356E+02 -0.45348673613E+02 -0.20733049629E+02  0.54905082709E+02  0.41800000000E+01 0. -1.
         -5    1    3    3    0  502  0.58630126497E+02  0.20259487568E+02 -0.14195621782E+03  0.15497412283E+03  0.41800000000E+01 0. -1.
        -11    1    1    2    0    0  0.14190019612E+02  0.30726050762E+02 -0.29059057768E+02  0.44608022713E+02  0.00000000000E+00 0.  1.
         11    1    1    2    0    0 -0.50220717753E+02 -0.56368647167E+01 -0.17420329262E+03  0.18138545117E+03  0.00000000000E+00 0. -1.
</event>
<event>
 7    1  0.6671761E-006  0.1009047E+03  0.7561462E-02  0.1278405E+00
          2   -1    0    0  501    0  0.00000000000E+00  0.00000000000E+00  0.38593999499E+02  0.38593999499E+02  0.00000000000E+00 0. -1.
         -2   -1    0    0    0  501 -0.00000000000E+00 -0.00000000000E+00 -0.36386101288E+03  0.36386101288E+03  0.00000000000E+00 0.  1.
         23    2    1    2    0    0 -0.51583055023E+01  0.45368884586E+02 -0.21345345161E+03  0.25158438791E+03  0.12508950569E+03 0.  0.
          5    1    3    3  502    0 -0.12228910133E+02  0.85788248158E+02 -0.10919561910E+03  0.13946442340E+03  0.41800000000E+01 0. -1.
         -5    1    3    3    0  502  0.70706046311E+01 -0.40419363572E+02 -0.10425783251E+03  0.11211996451E+03  0.41800000000E+01 0. -1.
        -11    1    1    2    0    0  0.20780782294E+02  0.47445818196E+01  0.57865865825E+01  0.22087022291E+02  0.00000000000E+00 0. -1.
         11    1    1    2    0    0 -0.15622476792E+02 -0.50113466406E+02 -0.11760014835E+03  0.12878360218E+03  0.00000000000E+00 0.  1.
</event>
<event>
 7    1  0.6671761E-006  0.1748780E+03  0.7561462E-02  0.1172854E+00
          1   -1    0    0  501    0  0.00000000000E+00  0.00000000000E+00  0.69418098825E+03  0.69418098825E+03  0.00000000000E+00 0. -1.
         -1   -1    0    0    0  501 -0.00000000000E+00 -0.00000000000E+00 -0.52941400888E+02  0.52941400888E+02  0.00000000000E+00 0.  1.
         23    2    1    2    0    0 -0.14481968811E+03  0.36828607347E+02  0.24012198258E+03  0.30924941995E+03  0.12509016283E+03 0.  0.
          5    1    3    3  502    0 -0.84728249257E+01 -0.31720536197E+02  0.86740446307E+02  0.92840500884E+02  0.41800000000E+01 0. -1.
         -5    1    3    3    0  502 -0.13634686319E+03  0.68549143544E+02  0.15338153627E+03  0.21640891906E+03  0.41800000000E+01 0. -1.
        -11    1    1    2    0    0  0.20549808819E+02 -0.33955025595E+02  0.41704531541E+02  0.57571749641E+02  0.00000000000E+00 0.  1.
         11    1    1    2    0    0  0.12426987929E+03 -0.28735817520E+01  0.35941307325E+03  0.38030121955E+03  0.00000000000E+00 0. -1.
</event>
<event>
 7    1  0.6671761E-006  0.1222522E+03  0.7561462E-02  0.1239427E+00
         -1   -1    0    0    0  501 -0.00000000000E+00  0.00000000000E+00  0.10571996785E+03  0.10571996785E+03  0.00000000000E+00 0.  1.
          1   -1    0    0  501    0  0.00000000000E+00 -0.00000000000E+00 -0.16314324850E+03  0.16314324850E+03  0.00000000000E+00 0. -1.
         23    2    1    2    0    0 -0.37973782715E+02 -0.65015419000E+02 -0.21719586671E+02  0.14761817153E+03  0.12510144379E+03 0.  0.
          5    1    3    3  502    0 -0.71327624929E+02 -0.18717629792E+02 -0.44279648515E+02  0.86117010026E+02  0.41800000000E+01 0. -1.
         -5    1    3    3    0  502  0.33353842214E+02 -0.46297789208E+02  0.22560061844E+02  0.61501161504E+02  0.41800000000E+01 0. -1.
        -11    1    1    2    0    0  0.40076554716E+01  0.77229941998E+02 -0.35635539497E+02  0.85149380025E+02  0.00000000000E+00 0. -1.
         11    1    1    2    0    0  0.33966127244E+02 -0.12214522998E+02 -0.68154482723E-01  0.36095664796E+02  0.00000000000E+00 0.  1.
</event>
<event>
 7    1  0.6671761E-006  0.1333371E+03  0.7561462E-02  0.1222586E+00
          2   -1    0    0  501    0  0.00000000000E+00  0.00000000000E+00  0.21698104511E+03  0.21698104511E+03  0.00000000000E+00 0. -1.
         -2   -1    0    0    0  501 -0.00000000000E+00 -0.00000000000E+00 -0.11673391379E+03  0.11673391379E+03  0.00000000000E+00 0.  1.
         23    2    1    2    0    0 -0.81288698163E+01 -0.91851199679E+02 -0.20626908625E+02  0.15676299306E+03  0.12508575149E+03 0.  0.
          5    1    3    3  502    0  0.26130921828E+02 -0.10989184077E+03 -0.29502404400E+02  0.11681997264E+03  0.41800000000E+01 0. -1.
         -5    1    3    3    0  502 -0.34259791645E+02  0.18040641091E+02  0.88754957748E+01  0.39943020414E+02  0.41800000000E+01 0. -1.
        -11    1    1    2    0    0 -0.30280391518E+02  0.39987564159E+02  0.94984864790E+02  0.10741523140E+03  0.00000000000E+00 0. -1.
         11    1    1    2    0    0  0.38409261334E+02  0.51863635520E+02  0.25889175161E+02  0.69536734437E+02  0.00000000000E+00 0.  1.
</event>
<event>
 7    1  0.6746122E-006  0.2845336E+03  0.7561462E-02  0.1093238E+00
         -2   -1    0    0    0  501 -0.00000000000E+00  0.00000000000E+00  0.18606733341E+03  0.18606733341E+03  0.00000000000E+00 0.  1.
          2   -1    0    0  501    0  0.00000000000E+00 -0.00000000000E+00 -0.57891208457E+03  0.57891208457E+03  0.00000000000E+00 0. -1.
         23    2    1    2    0    0 -0.20344546771E+03 -0.18784295793E+03 -0.39036334372E+02  0.30634325819E+03  0.12508925320E+03 0.  0.
          5    1    3    3  502    0 -0.11218890464E+03 -0.82396353591E+02 -0.80431596610E+02  0.16081736083E+03  0.41800000000E+01 0.  1.
         -5    1    3    3    0  502 -0.91256563065E+02 -0.10544660434E+03  0.41395262238E+02  0.14552589737E+03  0.41800000000E+01 0.  1.
        -11    1    1    2    0    0  0.16807198217E+03  0.99939820632E+02 -0.25975067980E+03  0.32512547515E+03  0.00000000000E+00 0. -1.
         11    1    1    2    0    0  0.35373485540E+02  0.87903137295E+02 -0.94057736982E+02  0.13351068463E+03  0.00000000000E+00 0.  1.
</event>
<event>
 7    1  0.6671761E-006  0.1438385E+03  0.7561462E-02  0.1208255E+00
          1   -1    0    0  501    0  0.00000000000E+00  0.00000000000E+00  0.10362067090E+04  0.10362067090E+04  0.00000000000E+00 0. -1.
         -1   -1    0    0    0  501 -0.00000000000E+00 -0.00000000000E+00 -0.21179463640E+02  0.21179463640E+02  0.00000000000E+00 0.  1.
         23    2    1    2    0    0  0.33105074651E+02  0.91425354777E+02  0.47212493340E+03  0.49800037549E+03  0.12509148567E+03 0.  0.
          5    1    3    3  502    0  0.42588619148E+02 -0.15814266464E+02  0.88957381707E+02  0.99973844904E+02  0.41800000000E+01 0.  1.
         -5    1    3    3    0  502 -0.94835444963E+01  0.10723962124E+03  0.38316755169E+03  0.39802653059E+03  0.41800000000E+01 0.  1.
        -11    1    1    2    0    0 -0.36441002842E+02  0.59153744543E+01  0.12904326662E+03  0.13422035242E+03  0.00000000000E+00 0.  1.
         11    1    1    2    0    0  0.33359281904E+01 -0.97340729232E+02  0.41385904529E+03  0.42516544469E+03  0.00000000000E+00 0. -1.
</event>
<event>
 7    1  0.6671761E-006  0.1369653E+03  0.7561462E-02  0.1217472E+00
         -1   -1    0    0    0  501 -0.00000000000E+00  0.00000000000E+00  0.21920761884E+02  0.21920761884E+02  0.00000000000E+00 0.  1.
          1   -1    0    0  501    0  0.00000000000E+00 -0.00000000000E+00 -0.86246870833E+03  0.86246870833E+03  0.00000000000E+00 0. -1.
         23    2    1    2    0    0 -0.19783457210E+02 -0.81636339914E+02 -0.45149520842E+03  0.47597801078E+03  0.12510502129E+03 0.  0.
          5    1    3    3  502    0 -0.71999894483E+02 -0.33571827621E+02 -0.24414430864E+03  0.25677805253E+03  0.41800000000E+01 0. -1.
         -5    1    3    3    0  502  0.52216437272E+02 -0.48064512293E+02 -0.20735089977E+03  0.21919995826E+03  0.41800000000E+01 0. -1.
        -11    1    1    2    0    0 -0.29697190646E+02  0.23030461012E+01 -0.11734317817E+03  0.12106464643E+03  0.00000000000E+00 0.  1.
         11    1    1    2    0    0  0.49480647856E+02  0.79333293813E+02 -0.27170955986E+03  0.28734681300E+03  0.00000000000E+00 0. -1.
</event>
<event>
 7    1  0.6671761E-006  0.1167151E+03  0.7561462E-02  0.1248617E+00
         -1   -1    0    0    0  501 -0.00000000000E+00  0.00000000000E+00  0.10299164371E+04  0.10299164371E+04  0.00000000000E+00 0.  1.
          1   -1    0    0  501    0  0.00000000000E+00 -0.00000000000E+00 -0.21347410571E+02  0.21347410571E+02  0.00000000000E+00 0. -1.
         23    2    1    2    0    0  0.21604061029E+02 -0.75438939311E+02  0.77304063505E+03  0.78701781937E+03  0.12508978993E+03 0.  0.
          5    1    3    3  502    0  0.89370215139E+01 -0.10999722865E+03  0.59543067841E+03  0.60558601854E+03  0.41800000000E+01 0. -1.
         -5    1    3    3    0  502  0.12667039515E+02  0.34558289339E+02  0.17760995664E+03  0.18143180083E+03  0.41800000000E+01 0. -1.
        -11    1    1    2    0    0  0.66181409057E+01  0.40487984576E+02  0.20700874602E+03  0.21103482559E+03  0.00000000000E+00 0.  1.
         11    1    1    2    0    0 -0.28222201934E+02  0.34950954735E+02  0.28519645501E+02  0.53211202753E+02  0.00000000000E+00 0. -1.
</event>
<event>
 7    1  0.6671761E-006  0.1462220E+03  0.7561462E-02  0.1205194E+00
          2   -1    0    0  501    0  0.00000000000E+00  0.00000000000E+00  0.67082366544E+03  0.67082366544E+03  0.00000000000E+00 0. -1.
         -2   -1    0    0    0  501 -0.00000000000E+00 -0.00000000000E+00 -0.43418997620E+02  0.43418997620E+02  0.00000000000E+00 0.  1.
         23    2    1    2    0    0  0.23169503060E+02 -0.10656053621E+03  0.18216460923E+03  0.24641940073E+03  0.12508637996E+03 0.  0.
          5    1    3    3  502    0  0.10342769367E+02 -0.12528436879E+03  0.98870689184E+02  0.15998759802E+03  0.41800000000E+01 0.  1.
         -5    1    3    3    0  502  0.12826733693E+02  0.18723832573E+02  0.83293920046E+02  0.86431802712E+02  0.41800000000E+01 0.  1.
        -11    1    1    2    0    0  0.31611232678E+02  0.11061007907E+02  0.10619348310E+03  0.11134932321E+03  0.00000000000E+00 0.  1.
         11    1    1    2    0    0 -0.54780735738E+02  0.95499528308E+02  0.33904657550E+03  0.35647393912E+03  0.00000000000E+00 0. -1.
</event>
<event>
 7    1  0.6671761E-006  0.1630368E+03  0.7561462E-02  0.1185310E+00
         -1   -1    0    0    0  501 -0.00000000000E+00  0.00000000000E+00  0.19131114908E+03  0.19131114908E+03  0.00000000000E+00 0.  1.
          1   -1    0    0  501    0  0.00000000000E+00 -0.00000000000E+00 -0.14257193007E+03  0.14257193007E+03  0.00000000000E+00 0. -1.
         23    2    1    2    0    0 -0.10787463677E+03 -0.57181601058E+02  0.21201676944E+01  0.17481538671E+03  0.12509696864E+03 0.  0.
          5    1    3    3  502    0 -0.90205128882E+02 -0.95598410512E+02  0.88140213308E+01  0.13179977519E+03  0.41800000000E+01 0. -1.
         -5    1    3    3    0  502 -0.17669507891E+02  0.38416809455E+02 -0.66938536364E+01  0.43015611518E+02  0.41800000000E+01 0. -1.
        -11    1    1    2    0    0  0.12166410063E+03  0.36137196439E+02  0.38400423459E+02  0.13259955834E+03  0.00000000000E+00 0.  1.
         11    1    1    2    0    0 -0.13789463860E+02  0.21044404619E+02  0.82186278575E+01  0.26468134108E+02  0.00000000000E+00 0. -1.
</event>
<event>
 7    1  0.6671761E-006  0.1193523E+03  0.7561462E-02  0.1244169E+00
         -1   -1    0    0    0  501 -0.00000000000E+00  0.00000000000E+00  0.17134576341E+03  0.17134576341E+03  0.00000000000E+00 0.  1.
          1   -1    0    0  501    0  0.00000000000E+00 -0.00000000000E+00 -0.94598207860E+02  0.94598207860E+02  0.00000000000E+00 0. -1.
         23    2    1    2    0    0  0.65054484864E+02  0.45984343831E+01  0.32546283655E+02  0.14476641231E+03  0.12507926269E+03 0.  0.
          5    1    3    3  502    0 -0.35620775941E+02  0.15360881250E+02  0.15622705314E+02  0.42027820224E+02  0.41800000000E+01 0. -1.
         -5    1    3    3    0  502  0.10067526080E+03 -0.10762446867E+02  0.16923578340E+02  0.10273859209E+03  0.41800000000E+01 0. -1.
        -11    1    1    2    0    0  0.77015168146E+01  0.20095472443E+02  0.38534138560E+02  0.44136393243E+02  0.00000000000E+00 0.  1.
         11    1    1    2    0    0 -0.72756001679E+02 -0.24693906826E+02  0.56671333386E+01  0.77041165716E+02  0.00000000000E+00 0. -1.
</event>
<event>
 7    1  0.6671761E-006  0.8702413E+02  0.7561462E-02  0.1310223E+00
          1   -1    0    0  501    0  0.00000000000E+00  0.00000000000E+00  0.23350359573E+03  0.23350359573E+03  0.00000000000E+00 0. -1.
         -1   -1    0    0    0  501 -0.00000000000E+00 -0.00000000000E+00 -0.60854958420E+02  0.60854958420E+02  0.00000000000E+00 0.  1.
         23    2    1    2    0    0  0.25994787803E+01 -0.71035474149E+01  0.21228046389E+02  0.11795118762E+03  0.11577838758E+03 0.  0.
          5    1    3    3  502    0 -0.16795191776E+02 -0.48148480868E+02  0.43551508428E+02  0.67190482682E+02  0.41800000000E+01 0. -1.
         -5    1    3    3    0  502  0.19394670557E+02  0.41044933453E+02 -0.22323462039E+02  0.50760704936E+02  0.41800000000E+01 0.  1.
        -11    1    1    2    0    0  0.34132840393E+01  0.41871804281E+02  0.12627434053E+03  0.13307932814E+03  0.00000000000E+00 0.  1.
         11    1    1    2    0    0 -0.60127628197E+01 -0.34768256867E+02  0.25146250392E+02  0.43328038394E+02  0.00000000000E+00 0. -1.
</event>
<event>
 7    1  0.9487328E-006  0.1266169E+03  0.7561462E-02  0.1232564E+00
         -1   -1    0    0    0  501 -0.00000000000E+00  0.00000000000E+00  0.30526794927E+03  0.30526794927E+03  0.00000000000E+00 0.  1.
          1   -1    0    0  501    0  0.00000000000E+00 -0.00000000000E+00 -0.84320149614E+02  0.84320149614E+02  0.00000000000E+00 0. -1.
         23    2    1    2    0    0 -0.35756556693E+01  0.11466680685E+03  0.15187479672E+03  0.22776026074E+03  0.12509004990E+03 0.  0.
          5    1    3    3  502    0  0.22620684798E+02  0.10014717452E+03  0.37386405287E+02  0.10934517660E+03  0.41800000000E+01 0.  1.
         -5    1    3    3    0  502 -0.26196340468E+02  0.14519632325E+02  0.11448839144E+03  0.11841508413E+03  0.41800000000E+01 0.  1.
        -11    1    1    2    0    0  0.18100472147E+02 -0.88283417359E+02  0.88241816358E+02  0.12612774091E+03  0.00000000000E+00 0.  1.
         11    1    1    2    0    0 -0.14524816478E+02 -0.26383389488E+02 -0.19168813427E+02  0.35700097238E+02  0.00000000000E+00 0. -1.
</event>
<event>
 7    1  0.6671761E-006  0.1046841E+03  0.7561462E-02  0.1270743E+00
          4   -1    0    0  501    0  0.00000000000E+00  0.00000000000E+00  0.26749285947E+03  0.26749285947E+03  0.00000000000E+00 0. -1.
         -4   -1    0    0    0  501 -0.00000000000E+00 -0.00000000000E+00 -0.47713636403E+02  0.47713636403E+02  0.00000000000E+00 0.  1.
         23    2    1    2    0    0 -0.20984282393E+01 -0.14269877685E+02  0.79070759237E+02  0.14868733942E+03  0.12509079554E+03 0.  0.
          5    1    3    3  502    0 -0.57098158044E+02 -0.29833398669E+02  0.23065238018E+02  0.68554423147E+02  0.41800000000E+01 0.  1.
         -5    1    3    3    0  502  0.54999729805E+02  0.15563520984E+02  0.56005521220E+02  0.80132916278E+02  0.41800000000E+01 0.  1.
        -11    1    1    2    0    0  0.41294759142E+02  0.23104400258E+02  0.91317216206E+02  0.10284893981E+03  0.00000000000E+00 0. -1.
         11    1    1    2    0    0 -0.39196330903E+02 -0.88345225734E+01  0.49391247622E+02  0.63670216640E+02  0.00000000000E+00 0.  1.
</event>
<event>
 7    1  0.6671761E-006  0.7253056E+02  0.7561462E-02  0.1351693E+00
          2   -1    0    0  501    0  0.00000000000E+00  0.00000000000E+00  0.18444388859E+03  0.18444388859E+03  0.00000000000E+00 0. -1.
         -2   -1    0    0    0  501 -0.00000000000E+00 -0.00000000000E+00 -0.85626359346E+02  0.85626359346E+02  0.00000000000E+00 0.  1.
         23    2    1    2    0    0  0.42002426197E+02  0.51159274244E+01  0.60423039486E+01  0.13219020511E+03  0.12508942550E+03 0.  0.
          5    1    3    3  502    0  0.14446090744E+02  0.13875382946E+02  0.64050862744E+02  0.67239878108E+02  0.41800000000E+01 0.  1.
         -5    1    3    3    0  502  0.27556335453E+02 -0.87594555215E+01 -0.58008558795E+02  0.64950327006E+02  0.41800000000E+01 0.  1.
        -11    1    1    2    0    0  0.22385618056E+02 -0.19178711097E+02  0.53706659077E+02  0.61264541819E+02  0.00000000000E+00 0. -1.
         11    1    1    2    0    0 -0.64388044253E+02  0.14062783673E+02  0.39068566215E+02  0.76615501000E+02  0.00000000000E+00 0.  1.
</event>
<event>
 7    1  0.6671761E-006  0.9407334E+02  0.7561462E-02  0.1293277E+00
         -2   -1    0    0    0  501 -0.00000000000E+00  0.00000000000E+00  0.19800797160E+03  0.19800797160E+03  0.00000000000E+00 0.  1.
          2   -1    0    0  501    0  0.00000000000E+00 -0.00000000000E+00 -0.13401763395E+03  0.13401763395E+03  0.00000000000E+00 0. -1.
         23    2    1    2    0    0 -0.72032552399E+02  0.56753281523E+01  0.13966573968E+03  0.19312399985E+03  0.11211361435E+03 0.  0.
          5    1    3    3  502    0 -0.44844814625E+02  0.64327883101E+01 -0.50862075782E+01  0.45779690603E+02  0.41800000000E+01 0. -1.
         -5    1    3    3    0  502 -0.27187737774E+02 -0.75746015785E+00  0.14475194726E+03  0.14734430924E+03  0.41800000000E+01 0.  1.
        -11    1    1    2    0    0  0.76519530241E+02 -0.35938469084E+02 -0.64483960719E+02  0.10632494185E+03  0.00000000000E+00 0. -1.
         11    1    1    2    0    0 -0.44869778421E+01  0.30263140932E+02 -0.11191441317E+02  0.32576663856E+02  0.00000000000E+00 0.  1.
</event>
<event>
 7    1  0.6671761E-006  0.6889681E+02  0.7561462E-02  0.1363885E+00
         -2   -1    0    0    0  501 -0.00000000000E+00  0.00000000000E+00  0.54556939984E+03  0.54556939984E+03  0.00000000000E+00 0.  1.
          2   -1    0    0  501    0  0.00000000000E+00 -0.00000000000E+00 -0.21138229259E+02  0.21138229259E+02  0.00000000000E+00 0. -1.
         23    2    1    2    0    0  0.28046060012E+02  0.58017712687E+02  0.30894044436E+03  0.33436569991E+03  0.11046984499E+03 0.  0.
          5    1    3    3  502    0  0.24791295559E+02  0.46675241029E+02  0.43356355938E+02  0.68486732005E+02  0.41800000000E+01 0. -1.
         -5    1    3    3    0  502  0.32547644533E+01  0.11342471659E+02  0.26558408842E+03  0.26587896791E+03  0.41800000000E+01 0.  1.
        -11    1    1    2    0    0 -0.22583482466E+02 -0.11354139148E+02  0.22914594761E+02  0.34117573318E+02  0.00000000000E+00 0. -1.
         11    1    1    2    0    0 -0.54625775461E+01 -0.46663573540E+02  0.19257613147E+03  0.19822435587E+03  0.00000000000E+00 0.  1.
</event>
<event>
 7    1  0.6671761E-006  0.1462191E+03  0.7561462E-02  0.1205197E+00
         -1   -1    0    0    0  501 -0.00000000000E+00  0.00000000000E+00  0.69981538507E+02  0.69981538507E+02  0.00000000000E+00 0.  1.
          1   -1    0    0  501    0  0.00000000000E+00 -0.00000000000E+00 -0.47163848560E+03  0.47163848560E+03  0.00000000000E+00 0. -1.
         23    2    1    2    0    0  0.22736927937E+02  0.10554497966E+03 -0.68515262474E+02  0.17998736429E+03  0.12666648921E+03 0.  0.
          5    1    3    3  502    0 -0.36933297920E+02  0.94046933068E+02 -0.62261933181E+02  0.11875569392E+03  0.41800000000E+01 0. -1.
         -5    1    3    3    0  502  0.59670225857E+02  0.11498046590E+02 -0.62533292935E+01  0.61231670371E+02  0.41800000000E+01 0.  1.
        -11    1    1    2    0    0  0.11698224248E+02  0.63617704428E+01 -0.68603089571E+01  0.14979466369E+02  0.00000000000E+00 0. -1.
         11    1    1    2    0    0 -0.34435152184E+02 -0.11190675010E+03 -0.32628137567E+03  0.34665319345E+03  0.00000000000E+00 0.  1.
</event>
<event>
 7    1  0.6671761E-006  0.1136110E+03  0.7561462E-02  0.1254025E+00
         -2   -1    0    0    0  501 -0.00000000000E+00  0.00000000000E+00  0.24758567896E+03  0.24758567896E+03  0.00000000000E+00 0.  1.
          2   -1    0    0  501    0  0.00000000000E+00 -0.00000000000E+00 -0.59085645602E+02  0.59085645602E+02  0.00000000000E+00 0. -1.
         23    2    1    2    0    0 -0.62790750076E+01 -0.35050260337E+02  0.15732708480E+03  0.20412524621E+03  0.12508939602E+03 0.  0.
          5    1    3    3  502    0  0.30996495145E+01  0.46781312854E+02  0.48598161951E+02  0.67656136488E+02  0.41800000000E+01 0.  1.
         -5    1    3    3    0  502 -0.93787245221E+01 -0.81831573191E+02  0.10872892285E+03  0.13646910972E+03  0.41800000000E+01 0.  1.
        -11    1    1    2    0    0  0.18906823935E+02  0.63658934664E+02  0.20376353538E+02  0.69463110623E+02  0.00000000000E+00 0.  1.
         11    1    1    2    0    0 -0.12627748927E+02 -0.28608674328E+02  0.10796595021E+02  0.33082967730E+02  0.00000000000E+00 0. -1.
</event>
<event>
 7    1  0.6671761E-006  0.9446137E+02  0.7561462E-02  0.1292394E+00
         -3   -1    0    0    0  501 -0.00000000000E+00  0.00000000000E+00  0.33702590999E+03  0.33702590999E+03  0.00000000000E+00 0. -1.
          3   -1    0    0  501    0  0.00000000000E+00 -0.00000000000E+00 -0.51759866776E+02  0.51759866776E+02  0.00000000000E+00 0.  1.
         23    2    1    2    0    0  0.69259720862E+02 -0.28707352375E+02  0.15818112311E+03  0.21515308758E+03  0.12509421399E+03 0.  0.
          5    1    3    3  502    0 -0.11218018538E+02  0.73230273267E+01  0.11683667771E+03  0.11767647312E+03  0.41800000000E+01 0. -1.
         -5    1    3    3    0  502  0.80477739400E+02 -0.36030379702E+02  0.41344445403E+02  0.97476614457E+02  0.41800000000E+01 0. -1.
        -11    1    1    2    0    0 -0.27192728806E+02  0.34740600776E+02  0.50449241545E+01  0.44405012126E+02  0.00000000000E+00 0.  1.
         11    1    1    2    0    0 -0.42066992056E+02 -0.60332484007E+01  0.12203999595E+03  0.12922767706E+03  0.00000000000E+00 0. -1.
</event>
<event>
 7    1  0.6671761E-006  0.1339036E+03  0.7561462E-02  0.1221776E+00
         -1   -1    0    0    0  501 -0.00000000000E+00  0.00000000000E+00  0.51385978894E+02  0.51385978894E+02  0.00000000000E+00 0.  1.
          1   -1    0    0  501    0  0.00000000000E+00 -0.00000000000E+00 -0.59798157799E+03  0.59798157799E+03  0.00000000000E+00 0. -1.
         23    2    1    2    0    0  0.81124644416E+02  0.33597094003E+02 -0.94575846025E+02  0.17972790828E+03  0.12509019829E+03 0.  0.
          5    1    3    3  502    0 -0.22843846407E+02 -0.23801453574E+02 -0.13600632575E+02  0.35927706820E+02  0.41800000000E+01 0.  1.
         -5    1    3    3    0  502  0.10396849082E+03  0.57398547577E+02 -0.80975213450E+02  0.14380020146E+03  0.41800000000E+01 0.  1.
        -11    1    1    2    0    0  0.75440734008E+01 -0.25602590042E+02 -0.39838489887E+02  0.47953216125E+02  0.00000000000E+00 0.  1.
         11    1    1    2    0    0 -0.88668717817E+02 -0.79945039616E+01 -0.41218126319E+03  0.42168643248E+03  0.00000000000E+00 0. -1.
</event>
<event>
 7    1  0.6671761E-006  0.1787485E+03  0.7561462E-02  0.1169020E+00
         -1   -1    0    0    0  501 -0.00000000000E+00  0.00000000000E+00  0.28727228238E+02  0.28727228238E+02  0.00000000000E+00 0.  1.
          1   -1    0    0  501    0  0.00000000000E+00 -0.00000000000E+00 -0.11640584034E+04  0.11640584034E+04  0.00000000000E+00 0. -1.
         23    2    1    2    0    0 -0.22909595341E+02  0.14469461940E+03 -0.54435923476E+03  0.57743886573E+03  0.12508910720E+03 0.  0.
          5    1    3    3  502    0 -0.62445982091E+02  0.38923463908E+02 -0.28800736219E+03  0.29728815954E+03  0.41800000000E+01 0.  1.
         -5    1    3    3    0  502  0.39536386750E+02  0.10577115549E+03 -0.25635187257E+03  0.28015070619E+03  0.41800000000E+01 0.  1.
        -11    1    1    2    0    0 -0.12611049119E+02  0.73928611852E+01 -0.67919572120E+02  0.69474896425E+02  0.00000000000E+00 0.  1.
         11    1    1    2    0    0  0.35520644459E+02 -0.15208748058E+03 -0.52305236831E+03  0.54587186951E+03  0.00000000000E+00 0. -1.
</event>
<event>
 7    1  0.6671761E-006  0.1068270E+03  0.7561462E-02  0.1266561E+00
         -1   -1    0    0    0  501 -0.00000000000E+00  0.00000000000E+00  0.96772161444E+02  0.96772161444E+02  0.00000000000E+00 0.  1.
          1   -1    0    0  501    0  0.00000000000E+00 -0.00000000000E+00 -0.16948546821E+03  0.16948546821E+03  0.00000000000E+00 0. -1.
         23    2    1    2    0    0 -0.57383264588E+02 -0.94200488421E+01 -0.40892878668E+01  0.13799896118E+03  0.12508163190E+03 0.  0.
          5    1    3    3  502    0 -0.33422925810E+02  0.43748862268E+02  0.37063915316E+02  0.66500083744E+02  0.41800000000E+01 0.  1.
         -5    1    3    3    0  502 -0.23960338778E+02 -0.53168911110E+02 -0.41153203182E+02  0.71498877440E+02  0.41800000000E+01 0.  1.
        -11    1    1    2    0    0  0.62395466856E+02  0.36597716543E+02 -0.69902701922E+02  0.10059311545E+03  0.00000000000E+00 0.  1.
         11    1    1    2    0    0 -0.50122022678E+01 -0.27177667701E+02  0.12786830272E+01  0.27665553013E+02  0.00000000000E+00 0. -1.
</event>
<event>
 7    1  0.6671761E-006  0.1889919E+03  0.7561462E-02  0.1159374E+00
          2   -1    0    0  501    0  0.00000000000E+00  0.00000000000E+00  0.55324182556E+03  0.55324182556E+03  0.00000000000E+00 0. -1.
         -2   -1    0    0    0  501 -0.00000000000E+00 -0.00000000000E+00 -0.70170785249E+02  0.70170785249E+02  0.00000000000E+00 0.  1.
         23    2    1    2    0    0 -0.16000443210E+03  0.30430547675E+02  0.24587104811E+03  0.32035482946E+03  0.12508880020E+03 0.  0.
          5    1    3    3  502    0 -0.17209202682E+03  0.36307872454E+02  0.24998891473E+03  0.30568915123E+03  0.41800000000E+01 0. -1.
         -5    1    3    3    0  502  0.12087594713E+02 -0.58773247789E+01 -0.41178666119E+01  0.14665678230E+02  0.41800000000E+01 0. -1.
        -11    1    1    2    0    0  0.17666175070E+02 -0.41606508845E+02  0.46712124904E+02  0.65001676385E+02  0.00000000000E+00 0.  1.
         11    1    1    2    0    0  0.14233825703E+03  0.11175961170E+02  0.19048786729E+03  0.23805610496E+03  0.00000000000E+00 0. -1.
</event>
<event>
 7    1  0.6671761E-006  0.1457618E+03  0.7561462E-02  0.1205780E+00
         -1   -1    0    0    0  501 -0.00000000000E+00  0.00000000000E+00  0.15348865263E+03  0.15348865263E+03  0.00000000000E+00 0.  1.
          1   -1    0    0  501    0  0.00000000000E+00 -0.00000000000E+00 -0.20382376901E+03  0.20382376901E+03  0.00000000000E+00 0. -1.
         23    2    1    2    0    0 -0.56077569214E+01  0.11924951905E+03 -0.99097366782E+02  0.19930154365E+03  0.12509565327E+03 0.  0.
          5    1    3    3  502    0  0.45261705705E+02  0.35897072970E+01 -0.35492205483E+02  0.57781286346E+02  0.41800000000E+01 0. -1.
         -5    1    3    3    0  502 -0.50869462627E+02  0.11565981175E+03 -0.63605161299E+02  0.14152025730E+03  0.41800000000E+01 0. -1.
        -11    1    1    2    0    0  0.22153457144E+01 -0.11977194332E+02  0.49198686647E+02  0.50684038005E+02  0.00000000000E+00 0.  1.
         11    1    1    2    0    0  0.33924112070E+01 -0.10727232472E+03 -0.43643624220E+00  0.10732683998E+03  0.00000000000E+00 0. -1.
</event>
<event>
 7    1  0.6671761E-006  0.1416587E+03  0.7561462E-02  0.1211114E+00
         -2   -1    0    0    0  501 -0.00000000000E+00  0.00000000000E+00  0.26442965731E+02  0.26442965731E+02  0.00000000000E+00 0.  1.
          2   -1    0    0  501    0  0.00000000000E+00 -0.00000000000E+00 -0.99848900321E+03  0.99848900321E+03  0.00000000000E+00 0. -1.
         23    2    1    2    0    0  0.37259086690E+02 -0.11417583451E+03 -0.49391787295E+03  0.52347575216E+03  0.12509051585E+03 0.  0.
          5    1    3    3  502    0  0.10494459344E+01 -0.88820812465E+02 -0.13395332572E+03  0.16078309593E+03  0.41800000000E+01 0. -1.
         -5    1    3    3    0  502  0.36209640755E+02 -0.25355022043E+02 -0.35996454722E+03  0.36269265623E+03  0.41800000000E+01 0. -1.
        -11    1    1    2    0    0  0.22959578158E+02  0.24763572948E+01 -0.53475140818E+02  0.58248306930E+02  0.00000000000E+00 0. -1.
         11    1    1    2    0    0 -0.60218664848E+02  0.11169947721E+03 -0.42465302371E+03  0.44320790985E+03  0.00000000000E+00 0.  1.
</event>
<event>
 7    1  0.6671761E-006  0.1417427E+03  0.7561462E-02  0.1211003E+00
         -2   -1    0    0    0  501 -0.00000000000E+00  0.00000000000E+00  0.97760236634E+02  0.97760236634E+02  0.00000000000E+00 0.  1.
          2   -1    0    0  501    0  0.00000000000E+00 -0.00000000000E+00 -0.22912811043E+03  0.22912811043E+03  0.00000000000E+00 0. -1.
         23    2    1    2    0    0  0.10057763321E+03  0.48130745700E+01 -0.52593075569E+02  0.16904191410E+03  0.12518031448E+03 0.  0.
          5    1    3    3  502    0  0.11354899641E+03  0.40904802457E+02 -0.30388458545E+02  0.12452914624E+03  0.41800000000E+01 0. -1.
         -5    1    3    3    0  502 -0.12971363201E+02 -0.36091727887E+02 -0.22204617024E+02  0.44512767858E+02  0.41800000000E+01 0. -1.
        -11    1    1    2    0    0 -0.67823688651E+02  0.31891989755E+02 -0.13570937739E+02  0.76166410602E+02  0.00000000000E+00 0.  1.
         11    1    1    2    0    0 -0.32753944559E+02 -0.36705064325E+02 -0.65203860487E+02  0.81680022366E+02  0.00000000000E+00 0. -1.
</event>
<event>
 7    1  0.6671761E-006  0.1051966E+03  0.7561462E-02  0.1269733E+00
          1   -1    0    0  501    0  0.00000000000E+00  0.00000000000E+00  0.60432593609E+03  0.60432593609E+03  0.00000000000E+00 0. -1.
         -1   -1    0    0    0  501 -0.00000000000E+00 -0.00000000000E+00 -0.20951499724E+02  0.20951499724E+02  0.00000000000E+00 0.  1.
         23    2    1    2    0    0  0.10638971240E+02 -0.34058614905E+02  0.31495934170E+03  0.34076459103E+03  0.12509173680E+03 0.  0.
          5    1    3    3  502    0  0.78548830878E+00  0.40503130943E+02  0.19430511642E+03  0.19852725574E+03  0.41800000000E+01 0. -1.
         -5    1    3    3    0  502  0.98534829310E+01 -0.74561745848E+02  0.12065422529E+03  0.14223733529E+03  0.41800000000E+01 0. -1.
        -11    1    1    2    0    0  0.35956930873E+02  0.31286787938E+02  0.13442558645E+03  0.14262539139E+03  0.00000000000E+00 0.  1.
         11    1    1    2    0    0 -0.46595902113E+02  0.27718269669E+01  0.13398950822E+03  0.14188745339E+03  0.00000000000E+00 0. -1.
</event>
<event>
 6    1  0.6671761E-006  0.2996520E+03  0.7561462E-02  0.1085415E+00
          2   -1    0    0  501    0  0.00000000000E+00  0.00000000000E+00  0.21100054590E+04  0.21100054590E+04  0.00000000000E+00 0. -1.
         -2   -1    0    0    0  501 -0.00000000000E+00 -0.00000000000E+00 -0.82695067974E+02  0.82695067974E+02  0.00000000000E+00 0.  1.
          5    1    1    2  502    0 -0.36847633333E+02 -0.38248939243E+02  0.49156188022E+03  0.49444037449E+03  0.41800000000E+01 0. -1.
         -5    1    1    2    0  502  0.88409910472E+02 -0.23652042282E+03  0.17861780731E+03  0.30932186500E+03  0.41800000000E+01 0.  1.
        -11    1    1    2    0    0 -0.21585510799E+02  0.51255982274E+01  0.66600571573E+02  0.70198590922E+02  0.00000000000E+00 0.  1.
         11    1    1    2    0    0 -0.29976766339E+02  0.26964376384E+03  0.12905301320E+04  0.13187396966E+04  0.00000000000E+00 0. -1.
</event>
<event>
 7    1  0.6671761E-006  0.1090241E+03  0.7561462E-02  0.1262388E+00
         -1   -1    0    0    0  501 -0.00000000000E+00  0.00000000000E+00  0.28648848070E+02  0.28648848070E+02  0.00000000000E+00 0.  1.
          1   -1    0    0  501    0  0.00000000000E+00 -0.00000000000E+00 -0.58316301505E+03  0.58316301505E+03  0.00000000000E+00 0. -1.
         23    2    1    2    0    0 -0.62271681812E+02  0.13237130993E+02 -0.23616651327E+03  0.27472698276E+03  0.12508920445E+03 0.  0.
          5    1    3    3  502    0 -0.62147012165E+02 -0.26679193839E+02 -0.22208710257E+03  0.23219428080E+03  0.41800000000E+01 0.  1.
         -5    1    3    3    0  502 -0.12466964741E+00  0.39916324831E+02 -0.14079410700E+02  0.42532701963E+02  0.41800000000E+01 0.  1.
        -11    1    1    2    0    0  0.23820033915E+02 -0.50981529623E+02 -0.18104390912E+03  0.18958746638E+03  0.00000000000E+00 0.  1.
         11    1    1    2    0    0  0.38451647897E+02  0.37744398631E+02 -0.13730374459E+03  0.14749741398E+03  0.00000000000E+00 0. -1.
</event>
<event>
 7    1  0.6671761E-006  0.8675695E+02  0.7561462E-02  0.1310901E+00
         -2   -1    0    0    0  501 -0.00000000000E+00  0.00000000000E+00  0.24268877078E+03  0.24268877078E+03  0.00000000000E+00 0.  1.
          2   -1    0    0  501    0  0.00000000000E+00 -0.00000000000E+00 -0.64959890020E+02  0.64959890020E+02  0.00000000000E+00 0. -1.
         23    2    1    2    0    0 -0.38480371600E+02  0.27718391973E+02  0.14774404780E+03  0.19930985441E+03  0.12508823347E+03 0.  0.
          5    1    3    3  502    0  0.13023464708E+02 -0.12535890944E+02  0.13017765335E+03  0.13149316722E+03  0.41800000000E+01 0.  1.
         -5    1    3    3    0  502 -0.51503836308E+02  0.40254282917E+02  0.17566394452E+02  0.67816687192E+02  0.41800000000E+01 0.  1.
        -11    1    1    2    0    0  0.10523019114E+02  0.26468875332E+02 -0.15350957139E+02  0.32357181239E+02  0.00000000000E+00 0. -1.
         11    1    1    2    0    0  0.27957352486E+02 -0.54187267306E+02  0.45335790099E+02  0.75981625147E+02  0.00000000000E+00 0.  1.
</event>
<event>
 7    1  0.6671761E-006  0.8130083E+02  0.7561462E-02  0.1325400E+00
          3   -1    0    0  501    0  0.00000000000E+00  0.00000000000E+00  0.59989068078E+03  0.59989068078E+03  0.00000000000E+00 0. -1.
         -3   -1    0    0    0  501 -0.00000000000E+00 -0.00000000000E+00 -0.19403918713E+02  0.19403918713E+02  0.00000000000E+00 0.  1.
         23    2    1    2    0    0  0.88453995730E+01  0.12868305319E+02  0.33815087847E+03  0.36088493535E+03  0.12509230822E+03 0.  0.
          5    1    3    3  502    0  0.11024676945E+02  0.51156459520E+02  0.30656194996E+03  0.31102448202E+03  0.41800000000E+01 0. -1.
         -5    1    3    3    0  502 -0.21792773718E+01 -0.38288154201E+02  0.31588928515E+02  0.49860453334E+02  0.41800000000E+01 0. -1.
        -11    1    1    2    0    0  0.14461344128E+02  0.23934887664E+02  0.27568091206E+02  0.39268422100E+02  0.00000000000E+00 0.  1.
         11    1    1    2    0    0 -0.23306743701E+02 -0.36803192983E+02  0.21476779239E+03  0.21914124204E+03  0.00000000000E+00 0. -1.
</event>
<event>
 7    1  0.6671761E-006  0.1088005E+03  0.7561462E-02  0.1262807E+00
         -1   -1    0    0    0  501 -0.00000000000E+00  0.00000000000E+00  0.16542089872E+03  0.16542089872E+03  0.00000000000E+00 0.  1.
          1   -1    0    0  501    0  0.00000000000E+00 -0.00000000000E+00 -0.13414543197E+03  0.13414543197E+03  0.00000000000E+00 0. -1.
         23    2    1    2    0    0  0.92240257167E+02 -0.47121308314E+02  0.25178433915E+02  0.16434630269E+03  0.12508825258E+03 0.  0.
          5    1    3    3  502    0  0.86429814298E+02 -0.40397485614E+02 -0.36244634570E+02  0.10214311322E+03  0.41800000000E+01 0. -1.
         -5    1    3    3    0  502  0.58104428691E+01 -0.67238227005E+01  0.61423068485E+02  0.62203189469E+02  0.41800000000E+01 0. -1.
        -11    1    1    2    0    0 -0.64604765303E+02  0.90432350680E+01  0.40634186528E+02  0.76855012297E+02  0.00000000000E+00 0.  1.
         11    1    1    2    0    0 -0.27635491864E+02  0.38078073246E+02 -0.34537153689E+02  0.58365015700E+02  0.00000000000E+00 0. -1.
</event>
<event>
 7    1  0.6671761E-006  0.1010350E+03  0.7561462E-02  0.1278134E+00
         -3   -1    0    0    0  501 -0.00000000000E+00  0.00000000000E+00  0.88344442029E+02  0.88344442029E+02  0.00000000000E+00 0.  1.
          3   -1    0    0  501    0  0.00000000000E+00 -0.00000000000E+00 -0.22703001068E+03  0.22703001068E+03  0.00000000000E+00 0. -1.
         23    2    1    2    0    0 -0.18604851291E+02  0.52553134202E+02  0.36402252231E+01  0.13700019800E+03  0.12509128909E+03 0.  0.
          5    1    3    3  502    0 -0.97305968815E+01 -0.28327483289E+02 -0.35481256707E+02  0.46621055358E+02  0.41800000000E+01 0.  1.
         -5    1    3    3    0  502 -0.88742544092E+01  0.80880617491E+02  0.39121481930E+02  0.90379142646E+02  0.41800000000E+01 0.  1.
        -11    1    1    2    0    0  0.45613063014E+02 -0.39582167079E+02 -0.13445602046E+03  0.14739647521E+03  0.00000000000E+00 0. -1.
         11    1    1    2    0    0 -0.27008211724E+02 -0.12970967123E+02 -0.78697734183E+01  0.30977779492E+02  0.00000000000E+00 0.  1.
</event>
<event>
 7    1  0.6671761E-006  0.1302191E+03  0.7561462E-02  0.1227131E+00
          2   -1    0    0  501    0  0.00000000000E+00  0.00000000000E+00  0.19986409923E+03  0.19986409923E+03  0.00000000000E+00 0. -1.
         -2   -1    0    0    0  501 -0.00000000000E+00 -0.00000000000E+00 -0.10540456052E+03  0.10540456052E+03  0.00000000000E+00 0.  1.
         23    2    1    2    0    0 -0.15543106246E+01 -0.81812681044E+02  0.10448471650E+03  0.18238843382E+03  0.12511096734E+03 0.  0.
          5    1    3    3  502    0 -0.56861559266E+02 -0.73936544121E+02  0.68609954804E+02  0.11586478230E+03  0.41800000000E+01 0.  1.
         -5    1    3    3    0  502  0.55307248642E+02 -0.78761369228E+01  0.35874761697E+02  0.66523651523E+02  0.41800000000E+01 0.  1.
        -11    1    1    2    0    0 -0.34168453762E+02  0.60418282847E+02 -0.31275854878E+02  0.76131670368E+02  0.00000000000E+00 0.  1.
         11    1    1    2    0    0  0.35722764386E+02  0.21394398197E+02  0.21250677086E+02  0.46748555552E+02  0.00000000000E+00 0. -1.
</event>
<event>
 7    1  0.6671761E-006  0.1878363E+03  0.7561462E-02  0.1160427E+00
          1   -1    0    0  501    0  0.00000000000E+00  0.00000000000E+00  0.83193295388E+03  0.83193295388E+03  0.00000000000E+00 0. -1.
         -1   -1    0    0    0  501 -0.00000000000E+00 -0.00000000000E+00 -0.80791202934E+02  0.80791202934E+02  0.00000000000E+00 0.  1.
         23    2    1    2    0    0  0.97314682807E+02  0.13853479827E+03  0.98556904005E+02  0.23242759087E+03  0.12508830421E+03 0.  0.
          5    1    3    3  502    0  0.68358527642E+02  0.13818542978E+03  0.12061200078E+03  0.19578771268E+03  0.41800000000E+01 0. -1.
         -5    1    3    3    0  502  0.28956155164E+02  0.34936848020E+00 -0.22055096770E+02  0.36639878190E+02  0.41800000000E+01 0. -1.
        -11    1    1    2    0    0 -0.39259511853E+02 -0.12709029149E+03  0.45198573773E+03  0.47115216074E+03  0.00000000000E+00 0. -1.
         11    1    1    2    0    0 -0.58055170954E+02 -0.11444506775E+02  0.20059910921E+03  0.20914440520E+03  0.00000000000E+00 0.  1.
</event>
<event>
 7    1  0.6671761E-006  0.1102765E+03  0.7561462E-02  0.1260059E+00
          1   -1    0    0  501    0  0.00000000000E+00  0.00000000000E+00  0.70399341614E+03  0.70399341614E+03  0.00000000000E+00 0. -1.
         -1   -1    0    0    0  501 -0.00000000000E+00 -0.00000000000E+00 -0.23885508927E+02  0.23885508927E+02  0.00000000000E+00 0.  1.
         23    2    1    2    0    0 -0.52250323135E+02 -0.58777241567E+01  0.23226342480E+03  0.26899359062E+03  0.12508640767E+03 0.  0.
          5    1    3    3  502    0 -0.65158842092E+02 -0.45664746775E+02  0.87913891254E+02  0.11864766528E+03  0.41800000000E+01 0.  1.
         -5    1    3    3    0  502  0.12908518957E+02  0.39787022619E+02  0.14434953355E+03  0.15034592534E+03  0.41800000000E+01 0.  1.
        -11    1    1    2    0    0  0.70920037149E+02  0.21913164186E+02  0.30264430365E+03  0.31161420533E+03  0.00000000000E+00 0.  1.
         11    1    1    2    0    0 -0.18669714015E+02 -0.16035440029E+02  0.14520017876E+03  0.14727112912E+03  0.00000000000E+00 0. -1.
</event>
<event>
 7    1  0.6671761E-006  0.1258178E+03  0.7561462E-02  0.1233797E+00
          1   -1    0    0  501    0  0.00000000000E+00  0.00000000000E+00  0.89571380715E+02  0.89571380715E+02  0.00000000000E+00 0. -1.
         -1   -1    0    0    0  501 -0.00000000000E+00 -0.00000000000E+00 -0.22324725574E+03  0.22324725574E+03  0.00000000000E+00 0.  1.
         23    2    1    2    0    0 -0.26044696887E+02  0.67235107253E+02 -0.12965829185E+03  0.19632252045E+03  0.12857827774E+03 0.  0.
          5    1    3    3  502    0 -0.55948302108E+01 -0.37407633933E+02 -0.18764047357E+02  0.42428705787E+02  0.41800000000E+01 0. -1.
         -5    1    3    3    0  502 -0.20449866676E+02  0.10464274119E+03 -0.11089424450E+03  0.15389381467E+03  0.41800000000E+01 0.  1.
        -11    1    1    2    0    0  0.32441047966E+02  0.63147512116E+01 -0.23002430403E+02  0.40266729200E+02  0.00000000000E+00 0.  1.
         11    1    1    2    0    0 -0.63963510792E+01 -0.73549858465E+02  0.18984847235E+02  0.76229386800E+02  0.00000000000E+00 0. -1.
</event>
<event>
 7    1  0.6671761E-006  0.7927651E+02  0.7561462E-02  0.1331117E+00
         -1   -1    0    0    0  501 -0.00000000000E+00  0.00000000000E+00  0.62496984904E+02  0.62496984904E+02  0.00000000000E+00 0.  1.
          1   -1    0    0  501    0  0.00000000000E+00 -0.00000000000E+00 -0.23058924168E+03  0.23058924168E+03  0.00000000000E+00 0. -1.
         23    2    1    2    0    0  0.20419591160E+02 -0.24770314929E+00 -0.52516457890E+02  0.13719466946E+03  0.12508947965E+03 0.  0.
          5    1    3    3  502    0  0.18501646847E+02 -0.26369601389E+02  0.33809915012E+02  0.46885494202E+02  0.41800000000E+01 0.  1.
         -5    1    3    3    0  502  0.19179443130E+01  0.26121898239E+02 -0.86326372903E+02  0.90309175262E+02  0.41800000000E+01 0.  1.
        -11    1    1    2    0    0 -0.17950275782E+01 -0.47894026275E+02 -0.79801789148E+02  0.93088052015E+02  0.00000000000E+00 0. -1.
         11    1    1    2    0    0 -0.18624563581E+02  0.48141729424E+02 -0.35774009736E+02  0.62803505102E+02  0.00000000000E+00 0.  1.
</event>
<event>
 7    1  0.6671761E-006  0.1029458E+03  0.7561462E-02  0.1274221E+00
          2   -1    0    0  501    0  0.00000000000E+00  0.00000000000E+00  0.21893350989E+03  0.21893350989E+03  0.00000000000E+00 0. -1.
         -2   -1    0    0    0  501 -0.00000000000E+00 -0.00000000000E+00 -0.57504621930E+02  0.57504621930E+02  0.00000000000E+00 0.  1.
         23    2    1    2    0    0 -0.29868882908E+01  0.96496703316E+01  0.52844379679E+02  0.13618187190E+03  0.12510370151E+03 0.  0.
          5    1    3    3  502    0 -0.54404363688E+02  0.33306951730E+02  0.91955518428E+01  0.64584970353E+02  0.41800000000E+01 0. -1.
         -5    1    3    3    0  502  0.51417475397E+02 -0.23657281398E+02  0.43648827836E+02  0.71596901545E+02  0.41800000000E+01 0. -1.
        -11    1    1    2    0    0 -0.36905275233E+02  0.13252790173E+02  0.69923516752E+02  0.80168160652E+02  0.00000000000E+00 0.  1.
         11    1    1    2    0    0  0.39892163524E+02 -0.22902460504E+02  0.38660991531E+02  0.60088099270E+02  0.00000000000E+00 0. -1.
</event>
<event>
 7    1  0.6671761E-006  0.2425552E+03  0.7561462E-02  0.1118102E+00
         -2   -1    0    0    0  501 -0.00000000000E+00  0.00000000000E+00  0.52627858001E+02  0.52627858001E+02  0.00000000000E+00 0.  1.
          2   -1    0    0  501    0  0.00000000000E+00 -0.00000000000E+00 -0.11432394591E+04  0.11432394591E+04  0.00000000000E+00 0. -1.
         23    2    1    2    0    0  0.83524439919E+02  0.20249891874E+03 -0.58787748036E+03  0.63971287649E+03  0.12510191160E+03 0.  0.
          5    1    3    3  502    0 -0.40549836932E+01 -0.13363876648E+02 -0.13457191836E+02  0.19839468338E+02  0.41800000000E+01 0. -1.
         -5    1    3    3    0  502  0.87579423613E+02  0.21586279539E+03 -0.57442028852E+03  0.61987340816E+03  0.41800000000E+01 0. -1.
        -11    1    1    2    0    0 -0.31534036926E+02 -0.33411098758E+01 -0.76979928009E+02  0.83255437158E+02  0.00000000000E+00 0.  1.
         11    1    1    2    0    0 -0.51990402993E+02 -0.19915780887E+03 -0.42575419275E+03  0.47289900347E+03  0.00000000000E+00 0. -1.
</event>
<event>
 7    1  0.6671761E-006  0.1059981E+03  0.7561462E-02  0.1268166E+00
          1   -1    0    0  501    0  0.00000000000E+00  0.00000000000E+00  0.53968546893E+03  0.53968546893E+03  0.00000000000E+00 0. -1.
         -1   -1    0    0    0  501 -0.00000000000E+00 -0.00000000000E+00 -0.24773481611E+02  0.24773481611E+02  0.00000000000E+00 0.  1.
         23    2    1    2    0    0 -0.45844631665E+02 -0.57340190294E+01  0.27707552475E+03  0.30749393222E+03  0.12508821970E+03 0.  0.
          5    1    3    3  502    0  0.13952752394E+00 -0.57209441202E+02  0.78515039170E+02  0.97236944658E+02  0.41800000000E+01 0.  1.
         -5    1    3    3    0  502 -0.45984159189E+02  0.51475422172E+02  0.19856048558E+03  0.21025698756E+03  0.41800000000E+01 0.  1.
        -11    1    1    2    0    0  0.37626009785E+02 -0.30434140235E+02  0.19198362873E+03  0.19798905829E+03  0.00000000000E+00 0. -1.
         11    1    1    2    0    0  0.82186218801E+01  0.36168159264E+02  0.45852833838E+02  0.58975960028E+02  0.00000000000E+00 0.  1.
</event>
<event>
 7    1  0.6671761E-006  0.1066181E+03  0.7561462E-02  0.1266964E+00
          3   -1    0    0  501    0  0.00000000000E+00  0.00000000000E+00  0.24126268916E+02  0.24126268916E+02  0.00000000000E+00 0. -1.
         -3   -1    0    0    0  501 -0.00000000000E+00 -0.00000000000E+00 -0.72343351218E+03  0.72343351218E+03  0.00000000000E+00 0.  1.
         23    2    1    2    0    0 -0.62966827661E+01  0.30341792670E+01 -0.59684119379E+03  0.60984894952E+03  0.12508987239E+03 0.  0.
          5    1    3    3  502    0 -0.59869548206E+02 -0.22219226862E+02 -0.36233352431E+03  0.36794172376E+03  0.41800000000E+01 0.  1.
         -5    1    3    3    0  502  0.53572865440E+02  0.25253406129E+02 -0.23450766948E+03  0.24190722577E+03  0.41800000000E+01 0.  1.
        -11    1    1    2    0    0 -0.41658069510E+02  0.15934832974E+01 -0.32978560105E+02  0.53155614670E+02  0.00000000000E+00 0.  1.
         11    1    1    2    0    0  0.47954752276E+02 -0.46276625643E+01 -0.69487489374E+02  0.84555216906E+02  0.00000000000E+00 0. -1.
</event>
<event>
 7    1  0.6671761E-006  0.1049514E+03  0.7561462E-02  0.1270215E+00
         -4   -1    0    0    0  501 -0.00000000000E+00  0.00000000000E+00  0.16744472879E+03  0.16744472879E+03  0.00000000000E+00 0.  1.
          4   -1    0    0  501    0  0.00000000000E+00 -0.00000000000E+00 -0.73876840878E+02  0.73876840878E+02  0.00000000000E+00 0. -1.
         23    2    1    2    0    0  0.82631862857E+01 -0.13583273948E+01  0.67217295117E+02  0.14225685712E+03  0.12509485734E+03 0.  0.
          5    1    3    3  502    0  0.62565996787E+02 -0.21899434316E+02  0.43532758785E+02  0.79414499084E+02  0.41800000000E+01 0.  1.
         -5    1    3    3    0  502 -0.54302810501E+02  0.20541106921E+02  0.23684536332E+02  0.62842358033E+02  0.41800000000E+01 0.  1.
        -11    1    1    2    0    0 -0.46594114651E+02  0.45251841286E+01  0.36414222021E+02  0.59308383698E+02  0.00000000000E+00 0.  1.
         11    1    1    2    0    0  0.38330928365E+02 -0.31668567337E+01 -0.10063629223E+02  0.39756328855E+02  0.00000000000E+00 0. -1.
</event>
<event>
 7    1  0.1364731E-005  0.1533529E+03  0.7561462E-02  0.1196412E+00
          1   -1    0    0  501    0  0.00000000000E+00  0.00000000000E+00  0.78850899491E+03  0.78850899491E+03  0.00000000000E+00 0. -1.
         -1   -1    0    0    0  501 -0.00000000000E+00 -0.00000000000E+00 -0.32152152620E+02  0.32152152620E+02  0.00000000000E+00 0.  1.
         23    2    1    2    0    0  0.10484372172E+03  0.42858178495E+02  0.34104126073E+03  0.38050673799E+03  0.12508879522E+03 0.  0.
          5    1    3    3  502    0  0.12422690605E+03  0.93589917038E+01  0.21422464574E+03  0.24784992668E+03  0.41800000000E+01 0.  1.
         -5    1    3    3    0  502 -0.19383184328E+02  0.33499186791E+02  0.12681661499E+03  0.13265681131E+03  0.41800000000E+01 0.  1.
        -11    1    1    2    0    0 -0.41529561915E+02  0.26463931491E+02  0.18491775220E+03  0.19136253358E+03  0.00000000000E+00 0. -1.
         11    1    1    2    0    0 -0.63314159805E+02 -0.69322109987E+02  0.23039782937E+03  0.24879187596E+03  0.00000000000E+00 0.  1.
</event>
<event>
 7    1  0.6671761E-006  0.1334248E+03  0.7561462E-02  0.1222461E+00
         -2   -1    0    0    0  501 -0.00000000000E+00  0.00000000000E+00  0.31371381660E+02  0.31371381660E+02  0.00000000000E+00 0.  1.
          2   -1    0    0  501    0  0.00000000000E+00 -0.00000000000E+00 -0.81886584648E+03  0.81886584648E+03  0.00000000000E+00 0. -1.
         23    2    1    2    0    0 -0.11590626910E+03  0.13355531396E+02 -0.38433988264E+03  0.42068664415E+03  0.12508986266E+03 0.  0.
          5    1    3    3  502    0 -0.10031782815E+02 -0.83456079647E+01 -0.23964604764E+03  0.24003746872E+03  0.41800000000E+01 0. -1.
         -5    1    3    3    0  502 -0.10587448629E+03  0.21701139360E+02 -0.14469383500E+03  0.18064917543E+03  0.41800000000E+01 0. -1.
        -11    1    1    2    0    0  0.96781382642E+02  0.26876829041E+02 -0.31742888567E+03  0.33294158260E+03  0.00000000000E+00 0. -1.
         11    1    1    2    0    0  0.19124886461E+02 -0.40232360437E+02 -0.85725696502E+02  0.96609001388E+02  0.00000000000E+00 0.  1.
</event>
<event>
 6    1  0.6671761E-006  0.6924113E+02  0.7561462E-02  0.1362693E+00
         -3   -1    0    0    0  501 -0.00000000000E+00  0.00000000000E+00  0.20305545864E+03  0.20305545864E+03  0.00000000000E+00 0.  1.
          3   -1    0    0  501    0  0.00000000000E+00 -0.00000000000E+00 -0.14992630073E+03  0.14992630073E+03  0.00000000000E+00 0. -1.
          5    1    1    2  502    0  0.23178099815E+02 -0.26739472956E+02 -0.80599186174E+02  0.88124485456E+02  0.41800000000E+01 0. -1.
         -5    1    1    2    0  502 -0.39235163244E+01 -0.11092554912E+02  0.16236900429E+03  0.16284841021E+03  0.41800000000E+01 0.  1.
        -11    1    1    2    0    0  0.17413183255E+02 -0.17042333629E+02 -0.26468037130E+02  0.35975228646E+02  0.00000000000E+00 0. -1.
         11    1    1    2    0    0 -0.36667766746E+02  0.54874361496E+02 -0.21726230775E+01  0.66033635057E+02  0.00000000000E+00 0.  1.
</event>
<event>
 7    1  0.6671761E-006  0.1749371E+03  0.7561462E-02  0.1172795E+00
         -1   -1    0    0    0  501 -0.00000000000E+00  0.00000000000E+00  0.34629998151E+03  0.34629998151E+03  0.00000000000E+00 0.  1.
          1   -1    0    0  501    0  0.00000000000E+00 -0.00000000000E+00 -0.13826181072E+03  0.13826181072E+03  0.00000000000E+00 0. -1.
         23    2    1    2    0    0 -0.32106224722E+01  0.16630054850E+03  0.20957708308E+03  0.29535700509E+03  0.12508807368E+03 0.  0.
          5    1    3    3  502    0 -0.32961162801E+02  0.37686418850E+02  0.32099465502E+01  0.50343624977E+02  0.41800000000E+01 0.  1.
         -5    1    3    3    0  502  0.29750540329E+02  0.12861412965E+03  0.20636713653E+03  0.24501338012E+03  0.41800000000E+01 0.  1.
        -11    1    1    2    0    0  0.79944396878E+01 -0.26625500282E+02 -0.35783802754E+02  0.45313451322E+02  0.00000000000E+00 0. -1.
         11    1    1    2    0    0 -0.47838172156E+01 -0.13967504822E+03  0.34244890455E+02  0.14389133582E+03  0.00000000000E+00 0.  1.
</event>
<event>
 7    1  0.6671761E-006  0.1103830E+03  0.7561462E-02  0.1259862E+00
         -2   -1    0    0    0  501 -0.00000000000E+00  0.00000000000E+00  0.78109601329E+02  0.78109601329E+02  0.00000000000E+00 0.  1.
          2   -1    0    0  501    0  0.00000000000E+00 -0.00000000000E+00 -0.20680948223E+03  0.20680948223E+03  0.00000000000E+00 0. -1.
         23    2    1    2    0    0 -0.75551803637E+01  0.60403774175E+02 -0.42148087711E+02  0.14536166239E+03  0.12509138623E+03 0.  0.
          5    1    3    3  502    0 -0.57006231103E+01 -0.27039941091E+02  0.23020890454E+02  0.36208967334E+02  0.41800000000E+01 0.  1.
         -5    1    3    3    0  502 -0.18545572534E+01  0.87443715267E+02 -0.65168978165E+02  0.10915269505E+03  0.41800000000E+01 0.  1.
        -11    1    1    2    0    0 -0.34855757949E+02 -0.51065388170E+02 -0.69188067982E+02  0.92787857407E+02  0.00000000000E+00 0. -1.
         11    1    1    2    0    0  0.42410938312E+02 -0.93383860054E+01 -0.17363725208E+02  0.46769563766E+02  0.00000000000E+00 0.  1.
</event>
<event>
 7    1  0.6671761E-006  0.9744713E+02  0.7561462E-02  0.1285758E+00
          2   -1    0    0  501    0  0.00000000000E+00  0.00000000000E+00  0.13251482780E+03  0.13251482780E+03  0.00000000000E+00 0. -1.
         -2   -1    0    0    0  501 -0.00000000000E+00 -0.00000000000E+00 -0.13975256755E+03  0.13975256755E+03  0.00000000000E+00 0.  1.
         23    2    1    2    0    0  0.20462024626E+01  0.12331035897E+02 -0.82413178055E+02  0.15030894145E+03  0.12507839371E+03 0.  0.
          5    1    3    3  502    0 -0.48970875895E+02  0.12931953887E+02 -0.85019199603E+02  0.99051091959E+02  0.41800000000E+01 0.  1.
         -5    1    3    3    0  502  0.51017078358E+02 -0.60091798938E+00  0.26060215472E+01  0.51257849495E+02  0.41800000000E+01 0.  1.
        -11    1    1    2    0    0  0.14159243746E+02 -0.49950979147E+02  0.57131572822E+02  0.77198452797E+02  0.00000000000E+00 0. -1.
         11    1    1    2    0    0 -0.16205446208E+02  0.37619943250E+02  0.18043865476E+02  0.44760001097E+02  0.00000000000E+00 0.  1.
</event>
<event>
 7    1  0.6671761E-006  0.2867333E+03  0.7561462E-02  0.1092067E+00
          4   -1    0    0  501    0  0.00000000000E+00  0.00000000000E+00  0.59198718084E+03  0.59198718084E+03  0.00000000000E+00 0. -1.
         -4   -1    0    0    0  501 -0.00000000000E+00 -0.00000000000E+00 -0.17751058383E+03  0.17751058383E+03  0.00000000000E+00 0.  1.
         23    2    1    2    0    0  0.27435082993E+03 -0.12800644042E+02  0.53093834867E+02  0.30642825815E+03  0.12508831967E+03 0.  0.
          5    1    3    3  502    0  0.22579592404E+03 -0.44545425501E+02  0.38474428373E+01  0.23021809108E+03  0.41800000000E+01 0. -1.
         -5    1    3    3    0  502  0.48554905892E+02  0.31744781460E+02  0.49246392029E+02  0.76210167065E+02  0.41800000000E+01 0. -1.
        -11    1    1    2    0    0 -0.18396030633E+03 -0.27763723195E+02  0.19567119293E+03  0.26999895254E+03  0.00000000000E+00 0.  1.
         11    1    1    2    0    0 -0.90390523595E+02  0.40564367237E+02  0.16571156921E+03  0.19307055398E+03  0.00000000000E+00 0. -1.
</event>
<event>
 7    1  0.9269988E-006  0.1496714E+03  0.7561462E-02  0.1200877E+00
         -1   -1    0    0    0  501 -0.00000000000E+00  0.00000000000E+00  0.16427886775E+02  0.16427886775E+02  0.00000000000E+00 0.  1.
          1   -1    0    0  501    0  0.00000000000E+00 -0.00000000000E+00 -0.15983132585E+04  0.15983132585E+04  0.00000000000E+00 0. -1.
         23    2    1    2    0    0  0.84560748407E+02  0.79932251205E+02 -0.94893215593E+03  0.96418871554E+03  0.12509179695E+03 0.  0.
          5    1    3    3  502    0  0.77647872449E+02  0.11268986256E+03 -0.74256587451E+03  0.75508260979E+03  0.41800000000E+01 0. -1.
         -5    1    3    3    0  502  0.69128759585E+01 -0.32757611352E+02 -0.20636628142E+03  0.20910610575E+03  0.41800000000E+01 0. -1.
        -11    1    1    2    0    0 -0.25751509242E+02  0.41473713874E+01 -0.33887791329E+02  0.42763574673E+02  0.00000000000E+00 0.  1.
         11    1    1    2    0    0 -0.58809239165E+02 -0.84079622592E+02 -0.59906542442E+03  0.60778885502E+03  0.00000000000E+00 0. -1.
</event>
<event>
 7    1  0.6671761E-006  0.1001451E+03  0.7561462E-02  0.1279991E+00
          2   -1    0    0  501    0  0.00000000000E+00  0.00000000000E+00  0.19080505714E+03  0.19080505714E+03  0.00000000000E+00 0.  1.
         -2   -1    0    0    0  501 -0.00000000000E+00 -0.00000000000E+00 -0.68459779486E+02  0.68459779486E+02  0.00000000000E+00 0. -1.
         23    2    1    2    0    0  0.23307342775E+02 -0.25602635807E+02  0.58575038951E+02  0.14240120588E+03  0.12509332940E+03 0.  0.
          5    1    3    3  502    0  0.63538305499E+02 -0.36162763559E+02  0.35715484605E+01  0.73315005916E+02  0.41800000000E+01 0.  1.
         -5    1    3    3    0  502 -0.40230962725E+02  0.10560127752E+02  0.55003490491E+02  0.69086199968E+02  0.41800000000E+01 0.  1.
        -11    1    1    2    0    0  0.16276842870E+02  0.39962851989E+02  0.60926490090E+02  0.74659241542E+02  0.00000000000E+00 0.  1.
         11    1    1    2    0    0 -0.39584185644E+02 -0.14360216182E+02  0.28437486167E+01  0.42204389204E+02  0.00000000000E+00 0. -1.
</event>
<event>
 7    1  0.6671761E-006  0.2124380E+03  0.7561462E-02  0.1139650E+00
          1   -1    0    0  501    0  0.00000000000E+00  0.00000000000E+00  0.43070710362E+02  0.43070710362E+02  0.00000000000E+00 0. -1.
         -1   -1    0    0    0  501 -0.00000000000E+00 -0.00000000000E+00 -0.11295883669E+04  0.11295883669E+04  0.00000000000E+00 0.  1.
         23    2    1    2    0    0 -0.18800929414E+03 -0.37064064015E+02 -0.57644924089E+03  0.62021097517E+03  0.12508671743E+03 0.  0.
          5    1    3    3  502    0 -0.12329599792E+03 -0.71796696852E+02 -0.46707912445E+03  0.48840254881E+03  0.41800000000E+01 0.  1.
         -5    1    3    3    0  502 -0.64713296219E+02  0.34732632837E+02 -0.10937011643E+03  0.13180842636E+03  0.41800000000E+01 0.  1.
        -11    1    1    2    0    0  0.51829116680E+02 -0.26589481115E+02 -0.19208394548E+03  0.20072244506E+03  0.00000000000E+00 0.  1.
         11    1    1    2    0    0  0.13618017746E+03  0.63653545130E+02 -0.31798447020E+03  0.35172565706E+03  0.00000000000E+00 0. -1.
</event>
<event>
 7    1  0.6671761E-006  0.1578680E+03  0.7561462E-02  0.1191125E+00
          1   -1    0    0  501    0  0.00000000000E+00  0.00000000000E+00  0.90172366734E+03  0.90172366734E+03  0.00000000000E+00 0. -1.
         -1   -1    0    0    0  501 -0.00000000000E+00 -0.00000000000E+00 -0.35396848623E+02  0.35396848623E+02  0.00000000000E+00 0.  1.
         23    2    1    2    0    0 -0.14194078576E+03 -0.55742500977E+01  0.45504457771E+03  0.49283757726E+03  0.12508017800E+03 0.  0.
          5    1    3    3  502    0 -0.35826695656E+02  0.42195317464E+02  0.25845331548E+03  0.26434747137E+03  0.41800000000E+01 0. -1.
         -5    1    3    3    0  502 -0.10611409011E+03 -0.47769567562E+02  0.19659126223E+03  0.22849010589E+03  0.41800000000E+01 0. -1.
        -11    1    1    2    0    0  0.24740668152E+02  0.95294486836E+01  0.13851709936E+02  0.29912888877E+02  0.00000000000E+00 0.  1.
         11    1    1    2    0    0  0.11720011761E+03 -0.39551985859E+01  0.39743053108E+03  0.41437004983E+03  0.00000000000E+00 0. -1.
</event>
<event>
 7    1  0.6671761E-006  0.1034477E+03  0.7561462E-02  0.1273208E+00
          2   -1    0    0  501    0  0.00000000000E+00  0.00000000000E+00  0.97314108569E+02  0.97314108569E+02  0.00000000000E+00 0.  1.
         -2   -1    0    0    0  501 -0.00000000000E+00 -0.00000000000E+00 -0.15784388171E+03  0.15784388171E+03  0.00000000000E+00 0. -1.
         23    2    1    2    0    0 -0.44456162398E+02 -0.11700765252E+02 -0.74319785082E+02  0.15259340856E+03  0.12509220439E+03 0.  0.
          5    1    3    3  502    0  0.29999241263E+02 -0.23424953432E+02 -0.66453974475E+02  0.76696062762E+02  0.41800000000E+01 0. -1.
         -5    1    3    3    0  502 -0.74455403660E+02  0.11724188180E+02 -0.78658106066E+01  0.75897345798E+02  0.41800000000E+01 0. -1.
        -11    1    1    2    0    0  0.46242113076E+02 -0.27548753007E+02  0.28137205239E+02  0.60736884450E+02  0.00000000000E+00 0.  1.
         11    1    1    2    0    0 -0.17859506789E+01  0.39249518259E+02 -0.14347193300E+02  0.41827697271E+02  0.00000000000E+00 0. -1.
</event>
<event>
 7    1  0.6671761E-006  0.1263771E+03  0.7561462E-02  0.1232933E+00
          2   -1    0    0  501    0  0.00000000000E+00  0.00000000000E+00  0.74781784042E+03  0.74781784042E+03  0.00000000000E+00 0. -1.
         -2   -1    0    0    0  501 -0.00000000000E+00 -0.00000000000E+00 -0.26856124745E+02  0.26856124745E+02  0.00000000000E+00 0.  1.
         23    2    1    2    0    0 -0.24498306818E+01 -0.80495447631E+02  0.28106338142E+03  0.31800961756E+03  0.12509186116E+03 0.  0.
          5    1    3    3  502    0  0.94565693903E+01 -0.10908515728E+03  0.16696724947E+03  0.19971112397E+03  0.41800000000E+01 0.  1.
         -5    1    3    3    0  502 -0.11906400072E+02  0.28589709647E+02  0.11409613194E+03  0.11829849359E+03  0.41800000000E+01 0.  1.
        -11    1    1    2    0    0 -0.24444373723E+02  0.81429198580E+02  0.39717184315E+03  0.40616956407E+03  0.00000000000E+00 0.  1.
         11    1    1    2    0    0  0.26894204405E+02 -0.93375094953E+00  0.42726491117E+02  0.50494783539E+02  0.00000000000E+00 0. -1.
</event>
<event>
 7    1  0.6671761E-006  0.1685281E+03  0.7561462E-02  0.1179392E+00
         -2   -1    0    0    0  501 -0.00000000000E+00  0.00000000000E+00  0.77483539750E+02  0.77483539750E+02  0.00000000000E+00 0. -1.
          2   -1    0    0  501    0  0.00000000000E+00 -0.00000000000E+00 -0.45805252327E+03  0.45805252327E+03  0.00000000000E+00 0.  1.
         23    2    1    2    0    0  0.97330879289E+02  0.97526529271E+02 -0.10352555167E+03  0.21295666036E+03  0.12509306682E+03 0.  0.
          5    1    3    3  502    0  0.46203627330E+02 -0.14792835686E+02  0.44901391775E+01  0.48900275213E+02  0.41800000000E+01 0. -1.
         -5    1    3    3    0  502  0.51127251960E+02  0.11231936496E+03 -0.10801569085E+03  0.16405638514E+03  0.41800000000E+01 0. -1.
        -11    1    1    2    0    0  0.24077665477E+01 -0.57279982982E+02 -0.86413343749E+02  0.10370178286E+03  0.00000000000E+00 0. -1.
         11    1    1    2    0    0 -0.99738645837E+02 -0.40246546290E+02 -0.19063008810E+03  0.21887761981E+03  0.00000000000E+00 0.  1.
</event>
<event>
 7    1  0.6886276E-006  0.1841225E+03  0.7561462E-02  0.1163872E+00
          1   -1    0    0  501    0  0.00000000000E+00  0.00000000000E+00  0.44812293384E+03  0.44812293384E+03  0.00000000000E+00 0. -1.
         -1   -1    0    0    0  501 -0.00000000000E+00 -0.00000000000E+00 -0.89317901612E+02  0.89317901612E+02  0.00000000000E+00 0.  1.
         23    2    1    2    0    0 -0.11495578323E+03  0.11493877041E+03  0.13174172321E+03  0.24378013250E+03  0.12508844201E+03 0.  0.
          5    1    3    3  502    0 -0.52882502878E+02  0.17609837659E+01  0.96131102813E+02  0.10981038886E+03  0.41800000000E+01 0.  1.
         -5    1    3    3    0  502 -0.62073280353E+02  0.11317778665E+03  0.35610620392E+02  0.13396974363E+03  0.41800000000E+01 0.  1.
        -11    1    1    2    0    0  0.56727492441E+02  0.49511266214E+00  0.63009264348E+02  0.84784555957E+02  0.00000000000E+00 0.  1.
         11    1    1    2    0    0  0.58228290791E+02 -0.11543388308E+03  0.16405404468E+03  0.20887614700E+03  0.00000000000E+00 0. -1.
</event>
<event>
 6    1  0.6671761E-006  0.1944710E+03  0.7561462E-02  0.1154489E+00
         -1   -1    0    0    0  501 -0.00000000000E+00  0.00000000000E+00  0.27622701876E+03  0.27622701876E+03  0.00000000000E+00 0.  1.
          1   -1    0    0  501    0  0.00000000000E+00 -0.00000000000E+00 -0.38036662504E+03  0.38036662504E+03  0.00000000000E+00 0. -1.
          5    1    1    2  502    0  0.55510452076E+02  0.10854132829E+03  0.78835140121E+02  0.14524146087E+03  0.41800000000E+01 0. -1.
         -5    1    1    2    0  502 -0.58277894010E+02  0.32181428317E+02  0.12502997570E+03  0.14171070701E+03  0.41800000000E+01 0.  1.
        -11    1    1    2    0    0 -0.77252356658E+01  0.29099716999E+02 -0.23717516393E+02  0.38327449425E+02  0.00000000000E+00 0.  1.
         11    1    1    2    0    0  0.10492677599E+02 -0.16982247361E+03 -0.28428720570E+03  0.33131402649E+03  0.00000000000E+00 0. -1.
</event>
<event>
 7    1  0.6671761E-006  0.1291221E+03  0.7561462E-02  0.1228764E+00
         -3   -1    0    0    0  501 -0.00000000000E+00  0.00000000000E+00  0.89905320348E+02  0.89905320348E+02  0.00000000000E+00 0.  1.
          3   -1    0    0  501    0  0.00000000000E+00 -0.00000000000E+00 -0.19346727144E+03  0.19346727144E+03  0.00000000000E+00 0. -1.
         23    2    1    2    0    0  0.73438592907E+02 -0.78344563115E+01 -0.69164495534E+02  0.16089241473E+03  0.12509211022E+03 0.  0.
          5    1    3    3  502    0  0.52114556231E+02 -0.65095976289E+02 -0.46641371101E+02  0.95636305859E+02  0.41800000000E+01 0.  1.
         -5    1    3    3    0  502  0.21324036676E+02  0.57261519977E+02 -0.22523124433E+02  0.65256108867E+02  0.41800000000E+01 0.  1.
        -11    1    1    2    0    0  0.14950035934E+02 -0.16063540433E+02  0.54689963279E+01  0.22615278608E+02  0.00000000000E+00 0.  1.
         11    1    1    2    0    0 -0.88388628842E+02  0.23897996745E+02 -0.39866451883E+02  0.99864898451E+02  0.00000000000E+00 0. -1.
</event>
<event>
 7    1  0.6671761E-006  0.9673150E+02  0.7561462E-02  0.1287323E+00
         -4   -1    0    0    0  501 -0.00000000000E+00  0.00000000000E+00  0.13949248659E+03  0.13949248659E+03  0.00000000000E+00 0.  1.
          4   -1    0    0  501    0  0.00000000000E+00 -0.00000000000E+00 -0.92685916551E+02  0.92685916551E+02  0.00000000000E+00 0. -1.
         23    2    1    2    0    0  0.12847001227E+02 -0.27618244031E+02  0.25415612086E+02  0.13124088383E+03  0.12510157236E+03 0.  0.
          5    1    3    3  502    0  0.12763844599E+02 -0.63543258285E+02 -0.24658884558E+02  0.69470816823E+02  0.41800000000E+01 0.  1.
         -5    1    3    3    0  502  0.83156628411E-01  0.35925014254E+02  0.50074496645E+02  0.61770067010E+02  0.41800000000E+01 0.  1.
        -11    1    1    2    0    0  0.36943075790E+02  0.19905376482E+02  0.27518289857E+02  0.50182378763E+02  0.00000000000E+00 0.  1.
         11    1    1    2    0    0 -0.49790077018E+02  0.77128675493E+01 -0.61273319051E+01  0.50755140543E+02  0.00000000000E+00 0. -1.
</event>
<event>
 7    1  0.6671761E-006  0.1278533E+03  0.7561462E-02  0.1230676E+00
         -3   -1    0    0    0  501 -0.00000000000E+00  0.00000000000E+00  0.87597191641E+02  0.87597191641E+02  0.00000000000E+00 0.  1.
          3   -1    0    0  501    0  0.00000000000E+00 -0.00000000000E+00 -0.24402838039E+03  0.24402838039E+03  0.00000000000E+00 0. -1.
         23    2    1    2    0    0 -0.25879060299E+02  0.83819825919E+02 -0.37328731264E+02  0.15727799628E+03  0.12508974761E+03 0.  0.
          5    1    3    3  502    0 -0.54552914968E+02  0.83078800546E+02  0.11862862576E+02  0.10018137322E+03  0.41800000000E+01 0.  1.
         -5    1    3    3    0  502  0.28673854669E+02  0.74102537301E+00 -0.49191593840E+02  0.57096623059E+02  0.41800000000E+01 0.  1.
        -11    1    1    2    0    0 -0.10870120385E+02  0.16863527539E+02 -0.16559616376E+02  0.26014591535E+02  0.00000000000E+00 0.  1.
         11    1    1    2    0    0  0.36749180684E+02 -0.10068335346E+03 -0.10254284111E+03  0.14833298422E+03  0.00000000000E+00 0. -1.
</event>
<event>
 7    1  0.6671761E-006  0.1090162E+03  0.7561462E-02  0.1262403E+00
         -2   -1    0    0    0  501 -0.00000000000E+00  0.00000000000E+00  0.27735615859E+02  0.27735615859E+02  0.00000000000E+00 0.  1.
          2   -1    0    0  501    0  0.00000000000E+00 -0.00000000000E+00 -0.62150414635E+03  0.62150414635E+03  0.00000000000E+00 0. -1.
         23    2    1    2    0    0  0.44281254420E+02  0.85728741869E+01 -0.17586479950E+03  0.22047750913E+03  0.12509029006E+03 0.  0.
          5    1    3    3  502    0 -0.30285927579E+02 -0.27808310742E+02 -0.99074920807E+02  0.10734920535E+03  0.41800000000E+01 0. -1.
         -5    1    3    3    0  502  0.74567181999E+02  0.36381184929E+02 -0.76789878689E+02  0.11312830378E+03  0.41800000000E+01 0. -1.
        -11    1    1    2    0    0 -0.36988960688E+02  0.34117843786E+02 -0.17779888055E+03  0.18478271673E+03  0.00000000000E+00 0. -1.
         11    1    1    2    0    0 -0.72922937318E+01 -0.42690717973E+02 -0.24010485044E+03  0.24397953635E+03  0.00000000000E+00 0.  1.
</event>
<event>
 7    1  0.6671761E-006  0.9284248E+02  0.7561462E-02  0.1296111E+00
         -1   -1    0    0    0  501 -0.00000000000E+00  0.00000000000E+00  0.23539873270E+02  0.23539873270E+02  0.00000000000E+00 0.  1.
          1   -1    0    0  501    0  0.00000000000E+00 -0.00000000000E+00 -0.67830206099E+03  0.67830206099E+03  0.00000000000E+00 0. -1.
         23    2    1    2    0    0  0.58443475882E+02 -0.27627027730E+02 -0.38497052635E+03  0.40991460175E+03  0.12509509197E+03 0.  0.
          5    1    3    3  502    0  0.21701897671E+02 -0.55065022242E+02 -0.34141346293E+03  0.34653102906E+03  0.41800000000E+01 0. -1.
         -5    1    3    3    0  502  0.36741578212E+02  0.27437994512E+02 -0.43557063421E+02  0.63383572684E+02  0.41800000000E+01 0. -1.
        -11    1    1    2    0    0 -0.29162888813E+02 -0.11573231528E+02 -0.19595651807E+02  0.36991936171E+02  0.00000000000E+00 0.  1.
         11    1    1    2    0    0 -0.29280587069E+02  0.39200259258E+02 -0.25019600956E+03  0.25493539634E+03  0.00000000000E+00 0. -1.
</event>
<event>
 7    1  0.6671761E-006  0.1561130E+03  0.7561462E-02  0.1193156E+00
         -1   -1    0    0    0  501 -0.00000000000E+00  0.00000000000E+00  0.11118911151E+03  0.11118911151E+03  0.00000000000E+00 0.  1.
          1   -1    0    0  501    0  0.00000000000E+00 -0.00000000000E+00 -0.22332016455E+03  0.22332016455E+03  0.00000000000E+00 0. -1.
         23    2    1    2    0    0  0.10833298235E+02  0.11354940643E+03 -0.46394396944E+02  0.17553096615E+03  0.12509137444E+03 0.  0.
          5    1    3    3  502    0  0.43054624448E+02  0.12639932708E+03 -0.29938756872E+02  0.13690979562E+03  0.41800000000E+01 0. -1.
         -5    1    3    3    0  502 -0.32221326213E+02 -0.12849920647E+02 -0.16455640071E+02  0.38621170538E+02  0.41800000000E+01 0. -1.
        -11    1    1    2    0    0 -0.44012195797E+02 -0.97202701808E+02 -0.40163296124E+02  0.11401109145E+03  0.00000000000E+00 0.  1.
         11    1    1    2    0    0  0.33178897562E+02 -0.16346704623E+02 -0.25573359978E+02  0.44967218460E+02  0.00000000000E+00 0. -1.
</event>
<event>
 7    1  0.6671761E-006  0.1506496E+03  0.7561462E-02  0.1199677E+00
         -2   -1    0    0    0  501 -0.00000000000E+00  0.00000000000E+00  0.26283659391E+02  0.26283659391E+02  0.00000000000E+00 0.  1.
          2   -1    0    0  501    0  0.00000000000E+00 -0.00000000000E+00 -0.95843556870E+03  0.95843556870E+03  0.00000000000E+00 0. -1.
         23    2    1    2    0    0  0.55426806650E+02 -0.10063520337E+03 -0.47442925685E+03  0.50391447371E+03  0.12508837674E+03 0.  0.
          5    1    3    3  502    0  0.76277532614E+02 -0.13494588980E+02 -0.17698102303E+03  0.19323592013E+03  0.41800000000E+01 0. -1.
         -5    1    3    3    0  502 -0.20850725963E+02 -0.87140614394E+02 -0.29744823382E+03  0.31067855358E+03  0.41800000000E+01 0. -1.
        -11    1    1    2    0    0 -0.25830654628E+02  0.10118017207E+03 -0.42036397571E+03  0.43314030292E+03  0.00000000000E+00 0. -1.
         11    1    1    2    0    0 -0.29596152023E+02 -0.54496869593E+00 -0.37358676744E+02  0.47664451465E+02  0.00000000000E+00 0.  1.
</event>
<event>
 7    1  0.6671761E-006  0.1821917E+03  0.7561462E-02  0.1165699E+00
         -2   -1    0    0    0  501 -0.00000000000E+00  0.00000000000E+00  0.80036663116E+02  0.80036663116E+02  0.00000000000E+00 0.  1.
          2   -1    0    0  501    0  0.00000000000E+00 -0.00000000000E+00 -0.65330860513E+03  0.65330860513E+03  0.00000000000E+00 0. -1.
         23    2    1    2    0    0 -0.48313038050E+02 -0.14353870555E+03 -0.84760315461E+02  0.21393959335E+03  0.12509328075E+03 0.  0.
          5    1    3    3  502    0 -0.75131400957E+02 -0.14253748545E+03 -0.47888589334E+02  0.16814413922E+03  0.41800000000E+01 0.  1.
         -5    1    3    3    0  502  0.26818362907E+02 -0.10012201032E+01 -0.36871726127E+02  0.45795454122E+02  0.41800000000E+01 0.  1.
        -11    1    1    2    0    0  0.49478319462E+02  0.21416350806E+02 -0.13356157610E+03  0.14403283927E+03  0.00000000000E+00 0.  1.
         11    1    1    2    0    0 -0.11652814124E+01  0.12212235474E+03 -0.35495005045E+03  0.37537283563E+03  0.00000000000E+00 0. -1.
</event>
<event>
 7    1  0.6671761E-006  0.9892138E+02  0.7561462E-02  0.1282581E+00
          2   -1    0    0  501    0  0.00000000000E+00  0.00000000000E+00  0.23045903481E+03  0.23045903481E+03  0.00000000000E+00 0. -1.
         -2   -1    0    0    0  501 -0.00000000000E+00 -0.00000000000E+00 -0.71706663991E+02  0.71706663991E+02  0.00000000000E+00 0.  1.
         23    2    1    2    0    0  0.17171402338E+02  0.13851081039E+02  0.10482426645E+02  0.12744624746E+03  0.12508379279E+03 0.  0.
          5    1    3    3  502    0  0.19097294835E+02  0.66304025249E+02 -0.12058462147E+02  0.70169860650E+02  0.41800000000E+01 0. -1.
         -5    1    3    3    0  502 -0.19258924968E+01 -0.52452944210E+02  0.22540888792E+02  0.57276386808E+02  0.41800000000E+01 0. -1.
        -11    1    1    2    0    0  0.24001109121E+02 -0.23697575992E+02  0.11787162847E+03  0.12260240269E+03  0.00000000000E+00 0.  1.
         11    1    1    2    0    0 -0.41172511459E+02  0.98464949525E+01  0.30398315701E+02  0.52117048652E+02  0.00000000000E+00 0. -1.
</event>
<event>
 7    1  0.6671761E-006  0.1100043E+03  0.7561462E-02  0.1260562E+00
         -2   -1    0    0    0  501 -0.00000000000E+00  0.00000000000E+00  0.11560641983E+03  0.11560641983E+03  0.00000000000E+00 0.  1.
          2   -1    0    0  501    0  0.00000000000E+00 -0.00000000000E+00 -0.15839528691E+03  0.15839528691E+03  0.00000000000E+00 0. -1.
         23    2    1    2    0    0 -0.74505979674E+02 -0.42064421317E+02  0.82472873914E+01  0.15177706366E+03  0.12509077806E+03 0.  0.
          5    1    3    3  502    0 -0.56138731454E+02 -0.63375788036E+02 -0.41570070703E+02  0.94411815239E+02  0.41800000000E+01 0.  1.
         -5    1    3    3    0  502 -0.18367248221E+02  0.21311366719E+02  0.49817358095E+02  0.57365248419E+02  0.41800000000E+01 0.  1.
        -11    1    1    2    0    0 -0.42357305029E+01 -0.11038717992E+02  0.39684592013E+01  0.12471703020E+02  0.00000000000E+00 0.  1.
         11    1    1    2    0    0  0.78741710177E+02  0.53103139309E+02 -0.55004613674E+02  0.10975294006E+03  0.00000000000E+00 0. -1.
</event>
<event>
 6    1  0.6671761E-006  0.2548050E+03  0.7561462E-02  0.1110305E+00
          1   -1    0    0  501    0  0.00000000000E+00  0.00000000000E+00  0.17864467089E+03  0.17864467089E+03  0.00000000000E+00 0. -1.
         -1   -1    0    0    0  501 -0.00000000000E+00 -0.00000000000E+00 -0.41578369976E+03  0.41578369976E+03  0.00000000000E+00 0.  1.
          5    1    1    2  502    0 -0.40972223245E+02  0.13275265963E+03 -0.72263101592E+02  0.15665701379E+03  0.41800000000E+01 0. -1.
         -5    1    1    2    0  502  0.11996963363E+03  0.71727744175E+02 -0.14756658066E+03  0.20330014856E+03  0.41800000000E+01 0.  1.
        -11    1    1    2    0    0 -0.91346576602E+02 -0.15627530794E+03 -0.29082624727E+02  0.18333567026E+03  0.00000000000E+00 0. -1.
         11    1    1    2    0    0  0.12349166218E+02 -0.48205095860E+02  0.11773278111E+02  0.51135538039E+02  0.00000000000E+00 0.  1.
</event>
<event>
 6    1  0.6671761E-006  0.1138258E+03  0.7561462E-02  0.1253645E+00
         -1   -1    0    0    0  501 -0.00000000000E+00  0.00000000000E+00  0.20524695542E+03  0.20524695542E+03  0.00000000000E+00 0.  1.
          1   -1    0    0  501    0  0.00000000000E+00 -0.00000000000E+00 -0.22735779860E+03  0.22735779860E+03  0.00000000000E+00 0. -1.
          5    1    1    2  502    0  0.70114823739E+02 -0.90164719393E+01  0.34386788717E+02  0.78722988462E+02  0.41800000000E+01 0. -1.
         -5    1    1    2    0  502 -0.83525314356E+02 -0.63901886273E+01  0.12500940724E+03  0.15053948634E+03  0.41800000000E+01 0.  1.
        -11    1    1    2    0    0  0.23055784588E+02  0.40209233529E+02 -0.16641376138E+03  0.17274805829E+03  0.00000000000E+00 0. -1.
         11    1    1    2    0    0 -0.96452939704E+01 -0.24802572962E+02 -0.15093277747E+02  0.30594220932E+02  0.00000000000E+00 0.  1.
</event>
<event>
 7    1  0.6671761E-006  0.1112479E+03  0.7561462E-02  0.1258276E+00
          2   -1    0    0  501    0  0.00000000000E+00  0.00000000000E+00  0.82176852418E+03  0.82176852418E+03  0.00000000000E+00 0. -1.
         -2   -1    0    0    0  501 -0.00000000000E+00 -0.00000000000E+00 -0.16392369235E+02  0.16392369235E+02  0.00000000000E+00 0.  1.
         23    2    1    2    0    0  0.19409877136E+02  0.23389481547E+02  0.36083148288E+03  0.38310364390E+03  0.12508090085E+03 0.  0.
          5    1    3    3  502    0  0.64358008964E+02  0.41503894510E+02  0.26129614748E+03  0.27231906959E+03  0.41800000000E+01 0. -1.
         -5    1    3    3    0  502 -0.44948131828E+02 -0.18114412962E+02  0.99535335403E+02  0.11078457431E+03  0.41800000000E+01 0. -1.
        -11    1    1    2    0    0 -0.40446766706E+02 -0.49310837178E+02  0.30082903303E+03  0.30751521380E+03  0.00000000000E+00 0. -1.
         11    1    1    2    0    0  0.21036889570E+02  0.25921355630E+02  0.14371563903E+03  0.14754203571E+03  0.00000000000E+00 0.  1.
</event>
<event>
 7    1  0.6671761E-006  0.1246854E+03  0.7561462E-02  0.1235562E+00
          1   -1    0    0  501    0  0.00000000000E+00  0.00000000000E+00  0.49375985502E+03  0.49375985502E+03  0.00000000000E+00 0. -1.
         -1   -1    0    0    0  501 -0.00000000000E+00 -0.00000000000E+00 -0.37347378750E+02  0.37347378750E+02  0.00000000000E+00 0.  1.
         23    2    1    2    0    0 -0.74340320069E+02 -0.13605150698E+02  0.19675655915E+03  0.24509688423E+03  0.12509098999E+03 0.  0.
          5    1    3    3  502    0 -0.73748028517E+02 -0.56712162484E+02  0.17097307043E+03  0.19469027787E+03  0.41800000000E+01 0.  1.
         -5    1    3    3    0  502 -0.59229155198E+00  0.43107011786E+02  0.25783488725E+02  0.50406606365E+02  0.41800000000E+01 0.  1.
        -11    1    1    2    0    0 -0.37396039309E+01 -0.25383899047E+02  0.25739210804E+02  0.36343279175E+02  0.00000000000E+00 0.  1.
         11    1    1    2    0    0  0.78079924000E+02  0.38989049745E+02  0.23391670631E+03  0.24966707036E+03  0.00000000000E+00 0. -1.
</event>
<event>
 7    1  0.6671761E-006  0.1174388E+03  0.7561462E-02  0.1247383E+00
          1   -1    0    0  501    0  0.00000000000E+00  0.00000000000E+00  0.69287826288E+03  0.69287826288E+03  0.00000000000E+00 0. -1.
         -1   -1    0    0    0  501 -0.00000000000E+00 -0.00000000000E+00 -0.40704293861E+02  0.40704293861E+02  0.00000000000E+00 0.  1.
         23    2    1    2    0    0  0.20412508324E+02  0.81658128662E+02  0.13728634579E+03  0.20391163394E+03  0.12509074004E+03 0.  0.
          5    1    3    3  502    0  0.46291426596E+02  0.39475574920E+02  0.33604288115E+01  0.61073579176E+02  0.41800000000E+01 0.  1.
         -5    1    3    3    0  502 -0.25878918272E+02  0.42182553742E+02  0.13392591698E+03  0.14283805477E+03  0.41800000000E+01 0.  1.
        -11    1    1    2    0    0 -0.35535099457E+02  0.53359129827E+01  0.15458656950E+03  0.15870797941E+03  0.00000000000E+00 0.  1.
         11    1    1    2    0    0  0.15122591133E+02 -0.86994041645E+02  0.36030105373E+03  0.37096294338E+03  0.00000000000E+00 0. -1.
</event>
<event>
 7    1  0.6671761E-006  0.1208280E+03  0.7561462E-02  0.1241737E+00
          1   -1    0    0  501    0  0.00000000000E+00  0.00000000000E+00  0.10583747749E+03  0.10583747749E+03  0.00000000000E+00 0. -1.
         -1   -1    0    0    0  501 -0.00000000000E+00 -0.00000000000E+00 -0.28318063713E+03  0.28318063713E+03  0.00000000000E+00 0.  1.
         23    2    1    2    0    0  0.48593525489E+02 -0.84459802287E+02 -0.19930588128E+03  0.25468839976E+03  0.12509419545E+03 0.  0.
          5    1    3    3  502    0  0.38196567459E+02 -0.10952610770E+03 -0.10517216314E+03  0.15663206036E+03  0.41800000000E+01 0.  1.
         -5    1    3    3    0  502  0.10396958030E+02  0.25066305417E+02 -0.94133718147E+02  0.98056339396E+02  0.41800000000E+01 0.  1.
        -11    1    1    2    0    0 -0.23924491213E+02  0.53000707792E+02 -0.32618212233E+02  0.66673863511E+02  0.00000000000E+00 0. -1.
         11    1    1    2    0    0 -0.24669034276E+02  0.31459094495E+02  0.54580933875E+02  0.67655851345E+02  0.00000000000E+00 0.  1.
</event>
<event>
 7    1  0.6671761E-006  0.1695956E+03  0.7561462E-02  0.1178270E+00
          1   -1    0    0  501    0  0.00000000000E+00  0.00000000000E+00  0.18053636503E+03  0.18053636503E+03  0.00000000000E+00 0. -1.
         -1   -1    0    0    0  501 -0.00000000000E+00 -0.00000000000E+00 -0.22057679700E+03  0.22057679700E+03  0.00000000000E+00 0.  1.
         23    2    1    2    0    0  0.13916548277E+03 -0.20917789063E+02 -0.11230689945E+03  0.21923589346E+03  0.12508777648E+03 0.  0.
          5    1    3    3  502    0  0.15103635796E+03 -0.46245449288E+02 -0.10595662857E+03  0.19024957961E+03  0.41800000000E+01 0. -1.
         -5    1    3    3    0  502 -0.11870875188E+02  0.25327660225E+02 -0.63502708759E+01  0.28986313846E+02  0.41800000000E+01 0. -1.
        -11    1    1    2    0    0 -0.84016889964E+02  0.41906907195E+02  0.73886028011E+01  0.94178650029E+02  0.00000000000E+00 0.  1.
         11    1    1    2    0    0 -0.55148592806E+02 -0.20989118132E+02  0.64877864682E+02  0.87698618542E+02  0.00000000000E+00 0. -1.
</event>
<event>
 7    1  0.6671761E-006  0.1120680E+03  0.7561462E-02  0.1256788E+00
         -4   -1    0    0    0  501 -0.00000000000E+00  0.00000000000E+00  0.65297364514E+03  0.65297364514E+03  0.00000000000E+00 0.  1.
          4   -1    0    0  501    0  0.00000000000E+00 -0.00000000000E+00 -0.26115136463E+02  0.26115136463E+02  0.00000000000E+00 0. -1.
         23    2    1    2    0    0 -0.27310246561E+02 -0.18215795594E+02  0.50413792191E+03  0.52046189930E+03  0.12509148467E+03 0.  0.
          5    1    3    3  502    0 -0.51308129010E+02  0.36948203348E+02  0.18166084522E+03  0.19239498153E+03  0.41800000000E+01 0. -1.
         -5    1    3    3    0  502  0.23997882450E+02 -0.55163998942E+02  0.32247707669E+03  0.32806691776E+03  0.41800000000E+01 0. -1.
        -11    1    1    2    0    0  0.16493960829E+02  0.57449521566E+02  0.75241336630E+02  0.96092439920E+02  0.00000000000E+00 0. -1.
         11    1    1    2    0    0  0.10816285732E+02 -0.39233725972E+02  0.47479250135E+02  0.62534442382E+02  0.00000000000E+00 0.  1.
</event>
<event>
 7    1  0.6671761E-006  0.4483115E+03  0.7561462E-02  0.1028227E+00
          2   -1    0    0  501    0  0.00000000000E+00  0.00000000000E+00  0.25439388943E+04  0.25439388943E+04  0.00000000000E+00 0. -1.
         -2   -1    0    0    0  501 -0.00000000000E+00 -0.00000000000E+00 -0.84523420920E+02  0.84523420920E+02  0.00000000000E+00 0.  1.
         23    2    1    2    0    0 -0.17067833159E+03 -0.41044037186E+03  0.10326759879E+04  0.11312239041E+04  0.12512167513E+03 0.  0.
          5    1    3    3  502    0 -0.38643685648E+02 -0.12795932263E+03  0.46123852397E+03  0.48023470416E+03  0.41800000000E+01 0.  1.
         -5    1    3    3    0  502 -0.13203464594E+03 -0.28248104924E+03  0.57143746391E+03  0.65098919996E+03  0.41800000000E+01 0.  1.
        -11    1    1    2    0    0  0.19962973853E+02  0.14025349180E+03  0.53110795230E+03  0.54967737746E+03  0.00000000000E+00 0. -1.
         11    1    1    2    0    0  0.15071535774E+03  0.27018688006E+03  0.89563153320E+03  0.94756103364E+03  0.00000000000E+00 0.  1.
</event>
<event>
 7    1  0.6671761E-006  0.1016562E+03  0.7561462E-02  0.1276851E+00
          2   -1    0    0  501    0  0.00000000000E+00  0.00000000000E+00  0.26407778324E+02  0.26407778324E+02  0.00000000000E+00 0. -1.
         -2   -1    0    0    0  501 -0.00000000000E+00 -0.00000000000E+00 -0.61128510192E+03  0.61128510192E+03  0.00000000000E+00 0.  1.
         23    2    1    2    0    0 -0.29335832274E+02 -0.44965283638E+02 -0.44199541364E+03  0.45960719588E+03  0.11400158350E+03 0.  0.
          5    1    3    3  502    0 -0.41549759623E+02 -0.68457092312E+02 -0.19052754717E+03  0.20671471802E+03  0.41800000000E+01 0. -1.
         -5    1    3    3    0  502  0.12213927349E+02  0.23491808674E+02 -0.25146786646E+03  0.25289247786E+03  0.41800000000E+01 0.  1.
        -11    1    1    2    0    0 -0.83365241329E+01  0.56350136813E+02 -0.11931121166E+03  0.13221195400E+03  0.00000000000E+00 0.  1.
         11    1    1    2    0    0  0.37672356407E+02 -0.11384853175E+02 -0.23570698302E+02  0.45873730364E+02  0.00000000000E+00 0. -1.
</event>
<event>
 7    1  0.6671761E-006  0.1425463E+03  0.7561462E-02  0.1209943E+00
         -2   -1    0    0    0  501 -0.00000000000E+00  0.00000000000E+00  0.16105488166E+02  0.16105488166E+02  0.00000000000E+00 0. -1.
          2   -1    0    0  501    0  0.00000000000E+00 -0.00000000000E+00 -0.12998137840E+04  0.12998137840E+04  0.00000000000E+00 0.  1.
         23    2    1    2    0    0  0.56242752547E+02  0.75647596715E+02 -0.77131300430E+03  0.78705446876E+03  0.12508069429E+03 0.  0.
          5    1    3    3  502    0  0.28576095747E+02 -0.32856050689E+02 -0.18202884948E+03  0.18721134517E+03  0.41800000000E+01 0.  1.
         -5    1    3    3    0  502  0.27666656800E+02  0.10850364740E+03 -0.58928415482E+03  0.59984312359E+03  0.41800000000E+01 0.  1.
        -11    1    1    2    0    0 -0.12919849771E+02  0.20275496550E+02 -0.13225443416E+03  0.13442192393E+03  0.00000000000E+00 0.  1.
         11    1    1    2    0    0 -0.43322902776E+02 -0.95923093265E+02 -0.38014085738E+03  0.39444287949E+03  0.00000000000E+00 0. -1.
</event>
<event>
 7    1  0.6671761E-006  0.1648456E+03  0.7561462E-02  0.1183332E+00
          2   -1    0    0  501    0  0.00000000000E+00  0.00000000000E+00  0.12743843670E+03  0.12743843670E+03  0.00000000000E+00 0. -1.
         -2   -1    0    0    0  501 -0.00000000000E+00 -0.00000000000E+00 -0.23476167165E+03  0.23476167165E+03  0.00000000000E+00 0.  1.
         23    2    1    2    0    0 -0.63804466124E+02 -0.11103629694E+03 -0.10390063587E+03  0.20698742498E+03  0.12509349636E+03 0.  0.
          5    1    3    3  502    0 -0.98647422680E+02 -0.10153385798E+03 -0.73318817714E+02  0.15947902605E+03  0.41800000000E+01 0. -1.
         -5    1    3    3    0  502  0.34842956556E+02 -0.95024389580E+01 -0.30581818157E+02  0.47508398936E+02  0.41800000000E+01 0. -1.
        -11    1    1    2    0    0 -0.18981389155E+02  0.32270547652E+02  0.13288958785E+02  0.39727544671E+02  0.00000000000E+00 0. -1.
         11    1    1    2    0    0  0.82785855278E+02  0.78765749287E+02 -0.16711557861E+02  0.11548513870E+03  0.00000000000E+00 0.  1.
</event>
<event>
 7    1  0.6671761E-006  0.1028366E+03  0.7561462E-02  0.1274442E+00
         -2   -1    0    0    0  501 -0.00000000000E+00  0.00000000000E+00  0.17767700531E+02  0.17767700531E+02  0.00000000000E+00 0.  1.
          2   -1    0    0  501    0  0.00000000000E+00 -0.00000000000E+00 -0.92090114705E+03  0.92090114705E+03  0.00000000000E+00 0. -1.
         23    2    1    2    0    0 -0.49694688678E+02 -0.40444105971E+02 -0.58423813798E+03  0.60090607007E+03  0.12509442588E+03 0.  0.
          5    1    3    3  502    0  0.26372694148E+01 -0.41561767026E+02 -0.49927095528E+03  0.50102224986E+03  0.41800000000E+01 0.  1.
         -5    1    3    3    0  502 -0.52331958093E+02  0.11176610551E+01 -0.84967182703E+02  0.99883820214E+02  0.41800000000E+01 0.  1.
        -11    1    1    2    0    0  0.67633171587E+02  0.55810867444E+02 -0.25109436238E+03  0.26596518126E+03  0.00000000000E+00 0.  1.
         11    1    1    2    0    0 -0.17938482909E+02 -0.15366761472E+02 -0.67800946151E+02  0.71797596243E+02  0.00000000000E+00 0. -1.
</event>
<event>
 7    1  0.6671761E-006  0.1320815E+03  0.7561462E-02  0.1224399E+00
         -1   -1    0    0    0  501 -0.00000000000E+00  0.00000000000E+00  0.24372509992E+03  0.24372509992E+03  0.00000000000E+00 0.  1.
          1   -1    0    0  501    0  0.00000000000E+00 -0.00000000000E+00 -0.11520862252E+03  0.11520862252E+03  0.00000000000E+00 0. -1.
         23    2    1    2    0    0  0.10419943822E+03 -0.36289286388E+02  0.13697672466E+03  0.21585354722E+03  0.12512272182E+03 0.  0.
          5    1    3    3  502    0  0.59890876645E+01  0.20427055666E+02  0.90758864600E+02  0.93315473946E+02  0.41800000000E+01 0. -1.
         -5    1    3    3    0  502  0.98210350558E+02 -0.56716342054E+02  0.46217860057E+02  0.12253807327E+03  0.41800000000E+01 0. -1.
        -11    1    1    2    0    0 -0.61883123444E+02  0.54926311354E+02 -0.34915645767E+02  0.89808256667E+02  0.00000000000E+00 0. -1.
         11    1    1    2    0    0 -0.42316314778E+02 -0.18637024965E+02  0.26455398518E+02  0.53271918557E+02  0.00000000000E+00 0.  1.
</event>
<event>
 7    1  0.6671761E-006  0.1687494E+03  0.7561462E-02  0.1179158E+00
          2   -1    0    0  501    0  0.00000000000E+00  0.00000000000E+00  0.76051846792E+03  0.76051846792E+03  0.00000000000E+00 0. -1.
         -2   -1    0    0    0  501 -0.00000000000E+00 -0.00000000000E+00 -0.44609686099E+02  0.44609686099E+02  0.00000000000E+00 0.  1.
         23    2    1    2    0    0  0.53446352573E+02  0.12979548332E+03  0.27516687032E+03  0.33327016589E+03  0.12509523114E+03 0.  0.
          5    1    3    3  502    0 -0.18727426810E+02  0.10099623875E+03  0.10926932544E+03  0.15002737962E+03  0.41800000000E+01 0. -1.
         -5    1    3    3    0  502  0.72173779382E+02  0.28799244577E+02  0.16589754489E+03  0.18324278627E+03  0.41800000000E+01 0. -1.
        -11    1    1    2    0    0 -0.64928991128E+02 -0.67989552505E+02  0.17362573424E+03  0.19744429272E+03  0.00000000000E+00 0.  1.
         11    1    1    2    0    0  0.11482638556E+02 -0.61805930819E+02  0.26711617726E+03  0.27441369541E+03  0.00000000000E+00 0. -1.
</event>
<event>
 7    1  0.6671761E-006  0.1857971E+03  0.7561462E-02  0.1162308E+00
         -2   -1    0    0    0  501 -0.00000000000E+00  0.00000000000E+00  0.33716108664E+02  0.33716108664E+02  0.00000000000E+00 0.  1.
          2   -1    0    0  501    0  0.00000000000E+00 -0.00000000000E+00 -0.14034427492E+04  0.14034427492E+04  0.00000000000E+00 0. -1.
         23    2    1    2    0    0  0.18334620543E+03  0.13246091243E+02 -0.83332360192E+03  0.86247613962E+03  0.12508227655E+03 0.  0.
          5    1    3    3  502    0  0.88764683825E+02 -0.15825229642E+01 -0.16589114952E+03  0.18819941382E+03  0.41800000000E+01 0. -1.
         -5    1    3    3    0  502  0.94581521601E+02  0.14828614207E+02 -0.66743245240E+03  0.67427672579E+03  0.41800000000E+01 0. -1.
        -11    1    1    2    0    0 -0.49081494002E+02  0.11382649945E+02 -0.27710736078E+03  0.28165057638E+03  0.00000000000E+00 0. -1.
         11    1    1    2    0    0 -0.13426471142E+03 -0.24628741188E+02 -0.25929567779E+03  0.29303214183E+03  0.00000000000E+00 0.  1.
</event>
<event>
 7    1  0.6671761E-006  0.1047195E+03  0.7561462E-02  0.1270673E+00
          1   -1    0    0  501    0  0.00000000000E+00  0.00000000000E+00  0.52521856795E+02  0.52521856795E+02  0.00000000000E+00 0. -1.
         -1   -1    0    0    0  501 -0.00000000000E+00 -0.00000000000E+00 -0.40006795063E+03  0.40006795063E+03  0.00000000000E+00 0.  1.
         23    2    1    2    0    0  0.89929980447E+02 -0.29320053568E+02 -0.21778809162E+03  0.26837993537E+03  0.12509624267E+03 0.  0.
          5    1    3    3  502    0  0.41645930800E+02  0.18393367883E+02 -0.62080859964E+01  0.46137969895E+02  0.41800000000E+01 0. -1.
         -5    1    3    3    0  502  0.48284049647E+02 -0.47713421451E+02 -0.21158000562E+03  0.22224196547E+03  0.41800000000E+01 0. -1.
        -11    1    1    2    0    0 -0.64134195718E+02  0.27709914391E+02 -0.13995594745E+03  0.15642474754E+03  0.00000000000E+00 0.  1.
         11    1    1    2    0    0 -0.25795784729E+02  0.16101391767E+01  0.10197945230E+02  0.27785124525E+02  0.00000000000E+00 0. -1.
</event>
<event>
 7    1  0.6671761E-006  0.1041136E+03  0.7561462E-02  0.1271876E+00
         -2   -1    0    0    0  501 -0.00000000000E+00  0.00000000000E+00  0.11074099433E+03  0.11074099433E+03  0.00000000000E+00 0.  1.
          2   -1    0    0  501    0  0.00000000000E+00 -0.00000000000E+00 -0.26628462924E+03  0.26628462924E+03  0.00000000000E+00 0. -1.
         23    2    1    2    0    0 -0.37921279549E+02 -0.53015614186E+02  0.44203429523E+02  0.14781920605E+03  0.12509154929E+03 0.  0.
          5    1    3    3  502    0  0.41800400546E+01 -0.58951975220E+02 -0.26742019883E+02  0.65003201034E+02  0.41800000000E+01 0.  1.
         -5    1    3    3    0  502 -0.42101319603E+02  0.59363610340E+01  0.70945449406E+02  0.82816005012E+02  0.41800000000E+01 0.  1.
        -11    1    1    2    0    0  0.44943481110E+02 -0.73011769368E+01 -0.12417769957E+03  0.13226233307E+03  0.00000000000E+00 0. -1.
         11    1    1    2    0    0 -0.70222015614E+01  0.60316791123E+02 -0.75569364856E+02  0.96944084455E+02  0.00000000000E+00 0.  1.
</event>
<event>
 7    1  0.6671761E-006  0.1361756E+03  0.7561462E-02  0.1218570E+00
         -1   -1    0    0    0  501 -0.00000000000E+00  0.00000000000E+00  0.66717179483E+02  0.66717179483E+02  0.00000000000E+00 0.  1.
          1   -1    0    0  501    0  0.00000000000E+00 -0.00000000000E+00 -0.45264380861E+03  0.45264380861E+03  0.00000000000E+00 0. -1.
         23    2    1    2    0    0 -0.88883131399E+02  0.92984892829E+02 -0.26295718836E+03  0.31834077211E+03  0.12509181802E+03 0.  0.
          5    1    3    3  502    0 -0.23884110418E+02  0.18487389752E+02 -0.19716706009E+03  0.19951079243E+03  0.41800000000E+01 0. -1.
         -5    1    3    3    0  502 -0.64999020981E+02  0.74497503077E+02 -0.65790128267E+02  0.11882997968E+03  0.41800000000E+01 0. -1.
        -11    1    1    2    0    0  0.20181560735E+02 -0.66129496963E+02 -0.15806865970E+02  0.70924345425E+02  0.00000000000E+00 0.  1.
         11    1    1    2    0    0  0.68701570664E+02 -0.26855395866E+02 -0.10716257479E+03  0.13009587055E+03  0.00000000000E+00 0. -1.
</event>
<event>
 7    1  0.6671761E-006  0.2545777E+03  0.7561462E-02  0.1110446E+00
          2   -1    0    0  501    0  0.00000000000E+00  0.00000000000E+00  0.16759912679E+04  0.16759912679E+04  0.00000000000E+00 0. -1.
         -2   -1    0    0    0  501 -0.00000000000E+00 -0.00000000000E+00 -0.42712894116E+02  0.42712894116E+02  0.00000000000E+00 0.  1.
         23    2    1    2    0    0 -0.12045738104E+03 -0.21125293499E+03  0.91180944743E+03  0.95193611189E+03  0.12509240386E+03 0.  0.
          5    1    3    3  502    0  0.60363907652E+01 -0.81110719875E+02  0.41695652193E+03  0.42483596890E+03  0.41800000000E+01 0.  1.
         -5    1    3    3    0  502 -0.12649377181E+03 -0.13014221511E+03  0.49485292551E+03  0.52710014299E+03  0.41800000000E+01 0.  1.
        -11    1    1    2    0    0  0.10671874267E+03  0.15442499507E+03  0.63668784048E+03  0.66378262659E+03  0.00000000000E+00 0. -1.
         11    1    1    2    0    0  0.13738638366E+02  0.56827939911E+02  0.84781085825E+02  0.10298542349E+03  0.00000000000E+00 0.  1.
</event>
<event>
 7    1  0.6671761E-006  0.1060956E+03  0.7561462E-02  0.1267976E+00
          2   -1    0    0  501    0  0.00000000000E+00  0.00000000000E+00  0.21695340978E+03  0.21695340978E+03  0.00000000000E+00 0. -1.
         -2   -1    0    0    0  501 -0.00000000000E+00 -0.00000000000E+00 -0.65009602058E+02  0.65009602058E+02  0.00000000000E+00 0.  1.
         23    2    1    2    0    0 -0.27260450165E+02  0.16200144095E+01  0.33438599611E+02  0.12995560132E+03  0.12257471917E+03 0.  0.
          5    1    3    3  502    0 -0.61397883456E+02  0.34089078249E+02 -0.27452799877E+01  0.70404362868E+02  0.41800000000E+01 0. -1.
         -5    1    3    3    0  502  0.34137433290E+02 -0.32469063839E+02  0.36183879599E+02  0.59551238452E+02  0.41800000000E+01 0.  1.
        -11    1    1    2    0    0 -0.33229274364E+02  0.53332578004E+01  0.50953717030E+02  0.61064798310E+02  0.00000000000E+00 0. -1.
         11    1    1    2    0    0  0.60489724529E+02 -0.69532722099E+01  0.67551491084E+02  0.90942612211E+02  0.00000000000E+00 0.  1.
</event>
<event>
 7    1  0.6671761E-006  0.8207186E+02  0.7561462E-02  0.1323273E+00
          1   -1    0    0  501    0  0.00000000000E+00  0.00000000000E+00  0.29806332794E+02  0.29806332794E+02  0.00000000000E+00 0. -1.
         -1   -1    0    0    0  501 -0.00000000000E+00 -0.00000000000E+00 -0.72624038258E+03  0.72624038258E+03  0.00000000000E+00 0.  1.
         23    2    1    2    0    0 -0.34333131999E+02  0.65879364529E+02 -0.55036051645E+03  0.56926558106E+03  0.12509096326E+03 0.  0.
          5    1    3    3  502    0 -0.30213037893E+02  0.55770432692E+02 -0.55351911841E+03  0.55715711937E+03  0.41800000000E+01 0. -1.
         -5    1    3    3    0  502 -0.41200941060E+01  0.10108931837E+02  0.31586019537E+01  0.12108461696E+02  0.41800000000E+01 0. -1.
        -11    1    1    2    0    0  0.46315521958E+02 -0.43690489110E+02 -0.14837443908E+03  0.16145885106E+03  0.00000000000E+00 0.  1.
         11    1    1    2    0    0 -0.11982389959E+02 -0.22188875419E+02  0.23009057534E+01  0.25322283246E+02  0.00000000000E+00 0. -1.
</event>
<event>
 7    1  0.6671761E-006  0.6969640E+02  0.7561462E-02  0.1361129E+00
         -3   -1    0    0    0  501 -0.00000000000E+00  0.00000000000E+00  0.68419941719E+02  0.68419941719E+02  0.00000000000E+00 0.  1.
          3   -1    0    0  501    0  0.00000000000E+00 -0.00000000000E+00 -0.19461748756E+03  0.19461748756E+03  0.00000000000E+00 0. -1.
         23    2    1    2    0    0  0.82610411082E+01  0.11429242630E+02 -0.31006518743E+02  0.12964573920E+03  0.12509093133E+03 0.  0.
          5    1    3    3  502    0  0.50758625144E+02  0.27416382237E+02 -0.53511163255E+02  0.78797290780E+02  0.41800000000E+01 0.  1.
         -5    1    3    3    0  502 -0.42497584036E+02 -0.15987139607E+02  0.22504644512E+02  0.50848448416E+02  0.41800000000E+01 0.  1.
        -11    1    1    2    0    0  0.73049051362E+01  0.81481645840E+01  0.16021061314E+02  0.19401768754E+02  0.00000000000E+00 0.  1.
         11    1    1    2    0    0 -0.15565946244E+02 -0.19577407214E+02 -0.11121208841E+03  0.11398992133E+03  0.00000000000E+00 0. -1.
</event>
<event>
 7    1  0.6671761E-006  0.1861286E+03  0.7561462E-02  0.1162000E+00
         -1   -1    0    0    0  501 -0.00000000000E+00  0.00000000000E+00  0.12015746252E+03  0.12015746252E+03  0.00000000000E+00 0.  1.
          1   -1    0    0  501    0  0.00000000000E+00 -0.00000000000E+00 -0.56487757850E+03  0.56487757850E+03  0.00000000000E+00 0. -1.
         23    2    1    2    0    0 -0.11452153862E+03 -0.12608567438E+03 -0.10295980527E+02  0.21157989088E+03  0.12508901998E+03 0.  0.
          5    1    3    3  502    0  0.91819739298E+01 -0.57788458179E+02  0.28166710065E+02  0.65074192272E+02  0.41800000000E+01 0.  1.
         -5    1    3    3    0  502 -0.12370351255E+03 -0.68297216198E+02 -0.38462690592E+02  0.14650569861E+03  0.41800000000E+01 0.  1.
        -11    1    1    2    0    0  0.52214333359E+02  0.39109244312E+02 -0.79962042256E+02  0.10319785754E+03  0.00000000000E+00 0.  1.
         11    1    1    2    0    0  0.62307205260E+02  0.86976430065E+02 -0.35446209320E+03  0.37025729260E+03  0.00000000000E+00 0. -1.
</event>
<event>
 7    1  0.6671761E-006  0.1307768E+03  0.7561462E-02  0.1226308E+00
          1   -1    0    0  501    0  0.00000000000E+00  0.00000000000E+00  0.12388284003E+03  0.12388284003E+03  0.00000000000E+00 0. -1.
         -1   -1    0    0    0  501 -0.00000000000E+00 -0.00000000000E+00 -0.14961514435E+03  0.14961514435E+03  0.00000000000E+00 0.  1.
         23    2    1    2    0    0 -0.52543577612E+02 -0.39827421502E+02 -0.17355310638E+02  0.14246381323E+03  0.12509068799E+03 0.  0.
          5    1    3    3  502    0 -0.48180882039E+02 -0.82581449557E+02  0.59549934369E+00  0.95702247750E+02  0.41800000000E+01 0. -1.
         -5    1    3    3    0  502 -0.43626955738E+01  0.42754028055E+02 -0.17950809982E+02  0.46761565485E+02  0.41800000000E+01 0. -1.
        -11    1    1    2    0    0  0.45996674591E+01  0.67273366088E+02  0.18035689767E+02  0.69800779586E+02  0.00000000000E+00 0. -1.
         11    1    1    2    0    0  0.47943910153E+02 -0.27445944586E+02 -0.26412683450E+02  0.61233391561E+02  0.00000000000E+00 0.  1.
</event>
<event>
 7    1  0.6671761E-006  0.9543140E+02  0.7561462E-02  0.1290207E+00
         -1   -1    0    0    0  501 -0.00000000000E+00  0.00000000000E+00  0.10563680891E+03  0.10563680891E+03  0.00000000000E+00 0.  1.
          1   -1    0    0  501    0  0.00000000000E+00 -0.00000000000E+00 -0.10374266265E+03  0.10374266265E+03  0.00000000000E+00 0. -1.
         23    2    1    2    0    0 -0.23116243483E+01  0.97728764172E+01  0.99352949825E+01  0.11617896985E+03  0.11531691215E+03 0.  0.
          5    1    3    3  502    0 -0.44720698351E+02  0.37489721151E+02  0.24302836817E+02  0.63352350630E+02  0.41800000000E+01 0. -1.
         -5    1    3    3    0  502  0.42409074003E+02 -0.27716844734E+02 -0.14367541834E+02  0.52826619220E+02  0.41800000000E+01 0.  1.
        -11    1    1    2    0    0  0.13236063913E+02 -0.43814674362E+02  0.17776671834E+02  0.49101213212E+02  0.00000000000E+00 0.  1.
         11    1    1    2    0    0 -0.10924439565E+02  0.34041797945E+02 -0.25817820561E+02  0.44099288493E+02  0.00000000000E+00 0. -1.
</event>
<event>
 7    1  0.6671761E-006  0.1575248E+03  0.7561462E-02  0.1191520E+00
         -2   -1    0    0    0  501 -0.00000000000E+00  0.00000000000E+00  0.24181676534E+02  0.24181676534E+02  0.00000000000E+00 0.  1.
          2   -1    0    0  501    0  0.00000000000E+00 -0.00000000000E+00 -0.12736221299E+04  0.12736221299E+04  0.00000000000E+00 0. -1.
         23    2    1    2    0    0 -0.28820016187E+01  0.13820590190E+03 -0.68931995667E+03  0.71408539229E+03  0.12508703995E+03 0.  0.
          5    1    3    3  502    0  0.22840761648E+02  0.13795430527E+03 -0.40317248255E+03  0.42675357506E+03  0.41800000000E+01 0.  1.
         -5    1    3    3    0  502 -0.25722763267E+02  0.25159663136E+00 -0.28614747412E+03  0.28733181724E+03  0.41800000000E+01 0.  1.
        -11    1    1    2    0    0  0.28246302698E+02 -0.51306549283E+02 -0.11036037248E+03  0.12493849458E+03  0.00000000000E+00 0.  1.
         11    1    1    2    0    0 -0.25364301079E+02 -0.86899352621E+02 -0.44976012426E+03  0.45877991960E+03  0.00000000000E+00 0. -1.
</event>
<event>
 7    1  0.6671761E-006  0.1859874E+03  0.7561462E-02  0.1162131E+00
          2   -1    0    0  501    0  0.00000000000E+00  0.00000000000E+00  0.59366354739E+03  0.59366354739E+03  0.00000000000E+00 0. -1.
         -2   -1    0    0    0  501 -0.00000000000E+00 -0.00000000000E+00 -0.91809563189E+02  0.91809563189E+02  0.00000000000E+00 0.  1.
         23    2    1    2    0    0 -0.91012642319E+02 -0.15823091955E+03  0.11662531147E+03  0.25013890828E+03  0.12509070788E+03 0.  0.
          5    1    3    3  502    0 -0.51353023657E+02 -0.53290615877E+02 -0.16559635421E+02  0.75952068468E+02  0.41800000000E+01 0.  1.
         -5    1    3    3    0  502 -0.39659618662E+02 -0.10494030367E+03  0.13318494689E+03  0.17418683982E+03  0.41800000000E+01 0.  1.
        -11    1    1    2    0    0  0.63124410723E+02  0.76224683836E+02  0.11583134105E+03  0.15235417035E+03  0.00000000000E+00 0.  1.
         11    1    1    2    0    0  0.27888231596E+02  0.82006235716E+02  0.26939733169E+03  0.28298003194E+03  0.00000000000E+00 0. -1.
</event>
<event>
 7    1  0.6671761E-006  0.3000206E+03  0.7561462E-02  0.1085230E+00
          4   -1    0    0  501    0  0.00000000000E+00  0.00000000000E+00  0.35961733430E+03  0.35961733430E+03  0.00000000000E+00 0. -1.
         -4   -1    0    0    0  501 -0.00000000000E+00 -0.00000000000E+00 -0.36838418197E+03  0.36838418197E+03  0.00000000000E+00 0.  1.
         23    2    1    2    0    0 -0.28513765586E+03 -0.37084582475E+02 -0.19893823503E+03  0.37135353919E+03  0.12509308799E+03 0.  0.
          5    1    3    3  502    0 -0.85808555093E+02  0.41946460624E+02 -0.87793180675E+02  0.12979880068E+03  0.41800000000E+01 0. -1.
         -5    1    3    3    0  502 -0.19932910077E+03 -0.79031043099E+02 -0.11114505435E+03  0.24155473851E+03  0.41800000000E+01 0. -1.
        -11    1    1    2    0    0  0.22414462084E+03  0.44532781601E+02  0.18671595304E+03  0.29510477259E+03  0.00000000000E+00 0.  1.
         11    1    1    2    0    0  0.60993035025E+02 -0.74481991266E+01  0.34554343214E+01  0.61543204484E+02  0.00000000000E+00 0. -1.
</event>
<event>
 7    1  0.6671761E-006  0.1383781E+03  0.7561462E-02  0.1215528E+00
          2   -1    0    0  501    0  0.00000000000E+00  0.00000000000E+00  0.13170620215E+03  0.13170620215E+03  0.00000000000E+00 0. -1.
         -2   -1    0    0    0  501 -0.00000000000E+00 -0.00000000000E+00 -0.17080590582E+03  0.17080590582E+03  0.00000000000E+00 0.  1.
         23    2    1    2    0    0 -0.86233203396E+02 -0.53071208256E+02  0.16136662816E+01  0.16094503288E+03  0.12509189094E+03 0.  0.
          5    1    3    3  502    0 -0.10369148245E+03 -0.70536737963E+02  0.23528053654E+02  0.12766517397E+03  0.41800000000E+01 0.  1.
         -5    1    3    3    0  502  0.17458279057E+02  0.17465529707E+02 -0.21914387372E+02  0.33279858916E+02  0.41800000000E+01 0.  1.
        -11    1    1    2    0    0  0.93050693862E+02  0.64292612322E+02 -0.51784021375E+02  0.12439275098E+03  0.00000000000E+00 0.  1.
         11    1    1    2    0    0 -0.68174904660E+01 -0.11221404066E+02  0.11070651428E+02  0.17174324106E+02  0.00000000000E+00 0. -1.
</event>
<event>
 7    1  0.6671761E-006  0.1620587E+03  0.7561462E-02  0.1186392E+00
          2   -1    0    0  501    0  0.00000000000E+00  0.00000000000E+00  0.27754180132E+02  0.27754180132E+02  0.00000000000E+00 0. -1.
         -2   -1    0    0    0  501 -0.00000000000E+00 -0.00000000000E+00 -0.11773928341E+04  0.11773928341E+04  0.00000000000E+00 0.  1.
         23    2    1    2    0    0  0.14009085044E+03 -0.47800407545E+01 -0.71825401927E+03  0.74241799508E+03  0.12508936028E+03 0.  0.
          5    1    3    3  502    0  0.48723225052E+02  0.34315126128E+02 -0.48738837789E+03  0.49103603111E+03  0.41800000000E+01 0. -1.
         -5    1    3    3    0  502  0.91367625388E+02 -0.39095166882E+02 -0.23086564138E+03  0.25138196397E+03  0.41800000000E+01 0. -1.
        -11    1    1    2    0    0 -0.12100271582E+03 -0.30507253742E+02 -0.28879256262E+03  0.31460053082E+03  0.00000000000E+00 0.  1.
         11    1    1    2    0    0 -0.19088134622E+02  0.35287294497E+02 -0.14259207204E+03  0.14812848829E+03  0.00000000000E+00 0. -1.
</event>
<event>
 7    1  0.6671761E-006  0.1433347E+03  0.7561462E-02  0.1208911E+00
         -2   -1    0    0    0  501 -0.00000000000E+00  0.00000000000E+00  0.17421049222E+03  0.17421049222E+03  0.00000000000E+00 0.  1.
          2   -1    0    0  501    0  0.00000000000E+00 -0.00000000000E+00 -0.13956006421E+03  0.13956006421E+03  0.00000000000E+00 0. -1.
         23    2    1    2    0    0 -0.10909307335E+03 -0.24077589633E+02  0.89723146416E+01  0.16795897928E+03  0.12509471337E+03 0.  0.
          5    1    3    3  502    0 -0.51901519516E+02 -0.64834758098E+02  0.38531811221E+02  0.91648712275E+02  0.41800000000E+01 0. -1.
         -5    1    3    3    0  502 -0.57191553838E+02  0.40757168465E+02 -0.29559496580E+02  0.76310267001E+02  0.41800000000E+01 0. -1.
        -11    1    1    2    0    0  0.76709662965E+02 -0.19232121292E+02  0.41707779066E+02  0.89407973449E+02  0.00000000000E+00 0. -1.
         11    1    1    2    0    0  0.32383410388E+02  0.43309710925E+02 -0.16029665693E+02  0.56403603705E+02  0.00000000000E+00 0.  1.
</event>
<event>
 7    1  0.6671761E-006  0.1313867E+03  0.7561462E-02  0.1225412E+00
          2   -1    0    0  501    0  0.00000000000E+00  0.00000000000E+00  0.10603915020E+04  0.10603915020E+04  0.00000000000E+00 0. -1.
         -2   -1    0    0    0  501 -0.00000000000E+00 -0.00000000000E+00 -0.17649943300E+02  0.17649943300E+02  0.00000000000E+00 0.  1.
         23    2    1    2    0    0  0.64295519828E+02 -0.49852578891E+02  0.50609202070E+03  0.52763297035E+03  0.12509286347E+03 0.  0.
          5    1    3    3  502    0  0.95590974421E+02 -0.78687822413E+01  0.35060499730E+03  0.36351188242E+03  0.41800000000E+01 0.  1.
         -5    1    3    3    0  502 -0.31295454593E+02 -0.41983796650E+02  0.15548702340E+03  0.16412108793E+03  0.41800000000E+01 0.  1.
        -11    1    1    2    0    0 -0.28794643439E+02 -0.20559857352E+02  0.87386473735E+02  0.94277436415E+02  0.00000000000E+00 0.  1.
         11    1    1    2    0    0 -0.35500876389E+02  0.70412436243E+02  0.44926306428E+03  0.45613103855E+03  0.00000000000E+00 0. -1.
</event>
<event>
 7    1  0.6671761E-006  0.1125142E+03  0.7561462E-02  0.1255984E+00
         -4   -1    0    0    0  501 -0.00000000000E+00  0.00000000000E+00  0.70592125108E+02  0.70592125108E+02  0.00000000000E+00 0.  1.
          4   -1    0    0  501    0  0.00000000000E+00 -0.00000000000E+00 -0.50123467061E+03  0.50123467061E+03  0.00000000000E+00 0. -1.
         23    2    1    2    0    0 -0.64540449513E+02  0.32687016925E+02 -0.21064868548E+02  0.14603061006E+03  0.12508916695E+03 0.  0.
          5    1    3    3  502    0 -0.72809701566E+02 -0.19924440808E+01 -0.58982471515E+02  0.93816985783E+02  0.41800000000E+01 0.  1.
         -5    1    3    3    0  502  0.82692520528E+01  0.34679461006E+02  0.37917602967E+02  0.52213624275E+02  0.41800000000E+01 0.  1.
        -11    1    1    2    0    0  0.73015331394E+02  0.90616767685E+01 -0.24650157842E+03  0.25724770314E+03  0.00000000000E+00 0. -1.
         11    1    1    2    0    0 -0.84748818817E+01 -0.41748693694E+02 -0.16307609853E+03  0.16854848252E+03  0.00000000000E+00 0.  1.
</event>
<event>
 7    1  0.6671761E-006  0.1506767E+03  0.7561462E-02  0.1199644E+00
          1   -1    0    0  501    0  0.00000000000E+00  0.00000000000E+00  0.12366137182E+03  0.12366137182E+03  0.00000000000E+00 0. -1.
         -1   -1    0    0    0  501 -0.00000000000E+00 -0.00000000000E+00 -0.22040857670E+03  0.22040857670E+03  0.00000000000E+00 0.  1.
         23    2    1    2    0    0 -0.12014457544E+03 -0.24639561323E+02 -0.37273399133E+02  0.17910687446E+03  0.12509252257E+03 0.  0.
          5    1    3    3  502    0 -0.17169194057E+02 -0.62225989692E+02 -0.22125833619E+02  0.68365780410E+02  0.41800000000E+01 0.  1.
         -5    1    3    3    0  502 -0.10297538139E+03  0.37586428369E+02 -0.15147565514E+02  0.11074109405E+03  0.41800000000E+01 0.  1.
        -11    1    1    2    0    0  0.63960417976E+02  0.29769465263E+02  0.14406229616E+02  0.72004830264E+02  0.00000000000E+00 0. -1.
         11    1    1    2    0    0  0.56184157468E+02 -0.51299039392E+01 -0.73880035369E+02  0.92958243803E+02  0.00000000000E+00 0.  1.
</event>
<event>
 7    1  0.6671761E-006  0.2487978E+03  0.7561462E-02  0.1114067E+00
         -1   -1    0    0    0  501 -0.00000000000E+00  0.00000000000E+00  0.19614780461E+03  0.19614780461E+03  0.00000000000E+00 0.  1.
          1   -1    0    0  501    0  0.00000000000E+00 -0.00000000000E+00 -0.33607231485E+03  0.33607231485E+03  0.00000000000E+00 0. -1.
         23    2    1    2    0    0 -0.67902321086E+02 -0.21758609575E+03 -0.21692265898E+02  0.26090715192E+03  0.12509018048E+03 0.  0.
          5    1    3    3  502    0  0.36574262310E+02 -0.67936068866E+02 -0.10840054124E+02  0.78025414385E+02  0.41800000000E+01 0. -1.
         -5    1    3    3    0  502 -0.10447658340E+03 -0.14965002688E+03 -0.10852211774E+02  0.18288173754E+03  0.41800000000E+01 0. -1.
        -11    1    1    2    0    0 -0.51916824941E+01  0.94294036716E+02 -0.77887799421E+02  0.12241253296E+03  0.00000000000E+00 0. -1.
         11    1    1    2    0    0  0.73094003580E+02  0.12329205903E+03 -0.40344444924E+02  0.14890043457E+03  0.00000000000E+00 0.  1.
</event>
<event>
 7    1  0.6671761E-006  0.1308962E+03  0.7561462E-02  0.1226132E+00
          2   -1    0    0  501    0  0.00000000000E+00  0.00000000000E+00  0.80266728535E+02  0.80266728535E+02  0.00000000000E+00 0. -1.
         -2   -1    0    0    0  501 -0.00000000000E+00 -0.00000000000E+00 -0.32504686114E+03  0.32504686114E+03  0.00000000000E+00 0.  1.
         23    2    1    2    0    0 -0.49621532907E+02  0.78964341694E+02 -0.22549599463E+03  0.27421417991E+03  0.12508920450E+03 0.  0.
          5    1    3    3  502    0 -0.62997972263E+02  0.10450076382E+03 -0.20497647028E+03  0.23858327669E+03  0.41800000000E+01 0. -1.
         -5    1    3    3    0  502  0.13376439356E+02 -0.25536422123E+02 -0.20519524342E+02  0.35630903215E+02  0.41800000000E+01 0. -1.
        -11    1    1    2    0    0 -0.13282740449E+02 -0.22041323564E+02 -0.36376061534E+02  0.44558601762E+02  0.00000000000E+00 0.  1.
         11    1    1    2    0    0  0.62904273356E+02 -0.56923018130E+02  0.17091923555E+02  0.86540808006E+02  0.00000000000E+00 0. -1.
</event>
<event>
 7    1  0.6671761E-006  0.1175949E+03  0.7561462E-02  0.1247118E+00
          1   -1    0    0  501    0  0.00000000000E+00  0.00000000000E+00  0.62238241643E+02  0.62238241643E+02  0.00000000000E+00 0. -1.
         -1   -1    0    0    0  501 -0.00000000000E+00 -0.00000000000E+00 -0.37715948441E+03  0.37715948441E+03  0.00000000000E+00 0.  1.
         23    2    1    2    0    0  0.90577814473E+02 -0.10355527594E+02 -0.89216767681E+02  0.17866241066E+03  0.12509615470E+03 0.  0.
          5    1    3    3  502    0  0.79044699888E+02  0.12142020435E+02  0.57616543959E+01  0.80287996002E+02  0.41800000000E+01 0. -1.
         -5    1    3    3    0  502  0.11533114585E+02 -0.22497548029E+02 -0.94978422077E+02  0.98374414659E+02  0.41800000000E+01 0. -1.
        -11    1    1    2    0    0 -0.84564810720E+02 -0.29207569661E+02 -0.17056262348E+03  0.19260295394E+03  0.00000000000E+00 0.  1.
         11    1    1    2    0    0 -0.60130037526E+01  0.39563097255E+02 -0.55141851605E+02  0.68132361452E+02  0.00000000000E+00 0. -1.
</event>
<event>
 7    1  0.6671761E-006  0.8073315E+02  0.7561462E-02  0.1326984E+00
          2   -1    0    0  501    0  0.00000000000E+00  0.00000000000E+00  0.43578705802E+03  0.43578705802E+03  0.00000000000E+00 0. -1.
         -2   -1    0    0    0  501 -0.00000000000E+00 -0.00000000000E+00 -0.34895920600E+02  0.34895920600E+02  0.00000000000E+00 0.  1.
         23    2    1    2    0    0  0.48667642455E+02 -0.12892753636E+01  0.16129411628E+03  0.20984213841E+03  0.12509088478E+03 0.  0.
          5    1    3    3  502    0  0.60537685796E+02  0.11561604939E+02  0.16505347581E+02  0.63940448928E+02  0.41800000000E+01 0.  1.
         -5    1    3    3    0  502 -0.11870043342E+02 -0.12850880303E+02  0.14478876870E+03  0.14590168948E+03  0.41800000000E+01 0.  1.
        -11    1    1    2    0    0 -0.11090348244E+02 -0.30520543441E+02  0.18285964003E+03  0.18572061638E+03  0.00000000000E+00 0. -1.
         11    1    1    2    0    0 -0.37577294210E+02  0.31809818805E+02  0.56737381103E+02  0.75120223822E+02  0.00000000000E+00 0.  1.
</event>
<event>
 6    1  0.6671761E-006  0.8694649E+02  0.7561462E-02  0.1310419E+00
         -2   -1    0    0    0  501 -0.00000000000E+00  0.00000000000E+00  0.31345873237E+02  0.31345873237E+02  0.00000000000E+00 0.  1.
          2   -1    0    0  501    0  0.00000000000E+00 -0.00000000000E+00 -0.59742063663E+03  0.59742063663E+03  0.00000000000E+00 0. -1.
          5    1    1    2  502    0 -0.48476257762E+01  0.12789965845E+01 -0.26096788530E+03  0.26104950654E+03  0.41800000000E+01 0. -1.
         -5    1    1    2    0  502 -0.21862794368E+02  0.66410488246E+02 -0.44275780357E+02  0.82862246246E+02  0.41800000000E+01 0.  1.
        -11    1    1    2    0    0  0.95347283054E+01 -0.77135269821E+02 -0.25132718643E+03  0.26307055238E+03  0.00000000000E+00 0. -1.
         11    1    1    2    0    0  0.17175691838E+02  0.94457849904E+01 -0.95039113162E+01  0.21784204703E+02  0.00000000000E+00 0.  1.
</event>
<event>
 7    1  0.6671761E-006  0.8354043E+02  0.7561462E-02  0.1319294E+00
         -1   -1    0    0    0  501 -0.00000000000E+00  0.00000000000E+00  0.10853948080E+03  0.10853948080E+03  0.00000000000E+00 0.  1.
          1   -1    0    0  501    0  0.00000000000E+00 -0.00000000000E+00 -0.16992464828E+03  0.16992464828E+03  0.00000000000E+00 0. -1.
         23    2    1    2    0    0 -0.58175750800E+02  0.39620528955E+02  0.85751582039E+01  0.14378810532E+03  0.12508909464E+03 0.  0.
          5    1    3    3  502    0 -0.25619592660E+02  0.20507136828E+02  0.66642376292E+02  0.74401511455E+02  0.41800000000E+01 0.  1.
         -5    1    3    3    0  502 -0.32556158140E+02  0.19113392126E+02 -0.58067218088E+02  0.69386593863E+02  0.41800000000E+01 0.  1.
        -11    1    1    2    0    0  0.11616101227E+02 -0.47407837236E+02 -0.72502022564E+02  0.87401259230E+02  0.00000000000E+00 0.  1.
         11    1    1    2    0    0  0.46559649572E+02  0.77873082816E+01  0.25416968842E+01  0.47274764533E+02  0.00000000000E+00 0. -1.
</event>
<event>
 7    1  0.6671761E-006  0.8902285E+02  0.7561462E-02  0.1305235E+00
         -1   -1    0    0    0  501 -0.00000000000E+00  0.00000000000E+00  0.34896732424E+03  0.34896732424E+03  0.00000000000E+00 0.  1.
          1   -1    0    0  501    0  0.00000000000E+00 -0.00000000000E+00 -0.40112331287E+02  0.40112331287E+02  0.00000000000E+00 0. -1.
         23    2    1    2    0    0  0.22111691806E+02 -0.38502611936E+02  0.19356575719E+03  0.23471087598E+03  0.12510041929E+03 0.  0.
          5    1    3    3  502    0 -0.48238742733E+02 -0.24818728596E+02  0.12081872690E+03  0.13250502919E+03  0.41800000000E+01 0. -1.
         -5    1    3    3    0  502  0.70350434539E+02 -0.13683883340E+02  0.72747030287E+02  0.10220584679E+03  0.41800000000E+01 0. -1.
        -11    1    1    2    0    0 -0.28262345052E+02  0.28751094093E+02  0.12975306501E+03  0.13587215844E+03  0.00000000000E+00 0.  1.
         11    1    1    2    0    0  0.61506532461E+01  0.97515178429E+01 -0.14463829252E+02  0.18496621103E+02  0.00000000000E+00 0. -1.
</event>
<event>
 7    1  0.6671761E-006  0.1102693E+03  0.7561462E-02  0.1260072E+00
         -2   -1    0    0    0  501 -0.00000000000E+00  0.00000000000E+00  0.57021474760E+02  0.57021474760E+02  0.00000000000E+00 0.  1.
          2   -1    0    0  501    0  0.00000000000E+00 -0.00000000000E+00 -0.26457154958E+03  0.26457154958E+03  0.00000000000E+00 0. -1.
         23    2    1    2    0    0  0.16421930242E+02  0.51873276882E+02 -0.54952233186E+02  0.13635416583E+03  0.11230402468E+03 0.  0.
          5    1    3    3  502    0 -0.48176386133E+02  0.27168039487E+02 -0.22793742856E+02  0.59967438363E+02  0.41800000000E+01 0.  1.
         -5    1    3    3    0  502  0.64598316375E+02  0.24705237395E+02 -0.32158490329E+02  0.76386727469E+02  0.41800000000E+01 0. -1.
        -11    1    1    2    0    0  0.10050312134E+02 -0.65322930416E+02 -0.13603159017E+03  0.15123718966E+03  0.00000000000E+00 0. -1.
         11    1    1    2    0    0 -0.26472242376E+02  0.13449653534E+02 -0.16566251456E+02  0.34001668840E+02  0.00000000000E+00 0.  1.
</event>
<event>
 7    1  0.6671761E-006  0.1309162E+03  0.7561462E-02  0.1226103E+00
         -2   -1    0    0    0  501 -0.00000000000E+00  0.00000000000E+00  0.37657897068E+02  0.37657897068E+02  0.00000000000E+00 0.  1.
          2   -1    0    0  501    0  0.00000000000E+00 -0.00000000000E+00 -0.61531014274E+03  0.61531014274E+03  0.00000000000E+00 0. -1.
         23    2    1    2    0    0 -0.37533524401E+02  0.96123963458E+02 -0.26175909728E+03  0.30792810518E+03  0.12511319333E+03 0.  0.
          5    1    3    3  502    0 -0.17364527509E+02  0.12199904648E+03 -0.23501443848E+03  0.26539508822E+03  0.41800000000E+01 0.  1.
         -5    1    3    3    0  502 -0.20168996892E+02 -0.25875083024E+02 -0.26744658802E+02  0.42533016958E+02  0.41800000000E+01 0.  1.
        -11    1    1    2    0    0  0.34887614488E+02 -0.61271557901E+02 -0.29710680267E+03  0.30535848055E+03  0.00000000000E+00 0. -1.
         11    1    1    2    0    0  0.26459099125E+01 -0.34852405557E+02 -0.18786345727E+02  0.39681454083E+02  0.00000000000E+00 0.  1.
</event>
<event>
 7    1  0.6671761E-006  0.1152550E+03  0.7561462E-02  0.1251137E+00
          2   -1    0    0  501    0  0.00000000000E+00  0.00000000000E+00  0.21797944889E+03  0.21797944889E+03  0.00000000000E+00 0. -1.
         -2   -1    0    0    0  501 -0.00000000000E+00 -0.00000000000E+00 -0.10990094260E+03  0.10990094260E+03  0.00000000000E+00 0.  1.
         23    2    1    2    0    0 -0.16540497514E+02  0.78476285361E+02 -0.22238798190E+02  0.15024502201E+03  0.12508751765E+03 0.  0.
          5    1    3    3  502    0  0.19099968295E+02 -0.96015679536E+01 -0.47142147880E+02  0.51931237255E+02  0.41800000000E+01 0. -1.
         -5    1    3    3    0  502 -0.35640465809E+02  0.88077853315E+02  0.24903349691E+02  0.98313784758E+02  0.41800000000E+01 0. -1.
        -11    1    1    2    0    0 -0.11888061068E+01 -0.91571388022E+02  0.75968220267E+02  0.11898698607E+03  0.00000000000E+00 0.  1.
         11    1    1    2    0    0  0.17729303621E+02  0.13095102661E+02  0.54349084213E+02  0.58648383399E+02  0.00000000000E+00 0. -1.
</event>
<event>
 7    1  0.6671761E-006  0.8873948E+02  0.7561462E-02  0.1305933E+00
         -1   -1    0    0    0  501 -0.00000000000E+00  0.00000000000E+00  0.81319282959E+02  0.81319282959E+02  0.00000000000E+00 0.  1.
          1   -1    0    0  501    0  0.00000000000E+00 -0.00000000000E+00 -0.19889415741E+03  0.19889415741E+03  0.00000000000E+00 0. -1.
         23    2    1    2    0    0  0.58100053435E+01  0.62501080920E+02 -0.50946181096E+01  0.12870143635E+03  0.11224064908E+03 0.  0.
          5    1    3    3  502    0 -0.22621933917E+02  0.62509589458E+02 -0.44371202767E+02  0.80034222076E+02  0.41800000000E+01 0. -1.
         -5    1    3    3    0  502  0.28431939260E+02 -0.85085384158E-02  0.39276584657E+02  0.48667214270E+02  0.41800000000E+01 0.  1.
        -11    1    1    2    0    0  0.20819394130E+02 -0.96390398369E+01 -0.81573021961E+02  0.84737926413E+02  0.00000000000E+00 0.  1.
         11    1    1    2    0    0 -0.26629399473E+02 -0.52862041083E+02 -0.30907234383E+02  0.66774077612E+02  0.00000000000E+00 0. -1.
</event>
<event>
 6    1  0.6671761E-006  0.8380904E+02  0.7561462E-02  0.1318577E+00
          2   -1    0    0  501    0  0.00000000000E+00  0.00000000000E+00  0.10868455069E+03  0.10868455069E+03  0.00000000000E+00 0. -1.
         -2   -1    0    0    0  501 -0.00000000000E+00 -0.00000000000E+00 -0.12204133145E+03  0.12204133145E+03  0.00000000000E+00 0.  1.
          5    1    1    2  502    0 -0.10230407762E+02  0.74123297027E+02 -0.62402618508E+02  0.97521708362E+02  0.41800000000E+01 0. -1.
         -5    1    1    2    0  502  0.22557367153E+02 -0.49849035592E+02 -0.14435163369E+02  0.56741585313E+02  0.41800000000E+01 0.  1.
        -11    1    1    2    0    0 -0.26739834929E+01 -0.27494941624E+02  0.59379906037E+02  0.65491184472E+02  0.00000000000E+00 0. -1.
         11    1    1    2    0    0 -0.96529758987E+01  0.32206801886E+01  0.41010950826E+01  0.10971403987E+02  0.00000000000E+00 0.  1.
</event>
<event>
 6    1  0.6671761E-006  0.1299077E+03  0.7561462E-02  0.1227593E+00
         -1   -1    0    0    0  501 -0.00000000000E+00  0.00000000000E+00  0.93173727045E+02  0.93173727045E+02  0.00000000000E+00 0.  1.
          1   -1    0    0  501    0  0.00000000000E+00 -0.00000000000E+00 -0.20969908586E+03  0.20969908586E+03  0.00000000000E+00 0. -1.
          5    1    1    2  502    0  0.90962189826E+02  0.53681173343E+02  0.33277369719E+01  0.10575601440E+03  0.41800000000E+01 0. -1.
         -5    1    1    2    0  502 -0.26182313382E+02 -0.32538225819E+02 -0.36341815147E+02  0.55519812695E+02  0.41800000000E+01 0.  1.
        -11    1    1    2    0    0  0.19118647895E+02  0.11274387924E+02 -0.28652482731E+02  0.36243610293E+02  0.00000000000E+00 0. -1.
         11    1    1    2    0    0 -0.83898524339E+02 -0.32417335448E+02 -0.54858797906E+02  0.10535337551E+03  0.00000000000E+00 0.  1.
</event>
<event>
 7    1  0.6671761E-006  0.1612829E+03  0.7561462E-02  0.1187256E+00
          2   -1    0    0  501    0  0.00000000000E+00  0.00000000000E+00  0.56708527496E+03  0.56708527496E+03  0.00000000000E+00 0. -1.
         -2   -1    0    0    0  501 -0.00000000000E+00 -0.00000000000E+00 -0.63373725609E+02  0.63373725609E+02  0.00000000000E+00 0.  1.
         23    2    1    2    0    0  0.13948739013E+03 -0.57239879652E+02  0.19928291665E+03  0.27945320087E+03  0.12508906740E+03 0.  0.
          5    1    3    3  502    0  0.35587318640E+02 -0.35670081299E+02 -0.33578955601E+01  0.50671094427E+02  0.41800000000E+01 0. -1.
         -5    1    3    3    0  502  0.10390007149E+03 -0.21569798352E+02  0.20264081221E+03  0.22878210644E+03  0.41800000000E+01 0. -1.
        -11    1    1    2    0    0 -0.11594407397E+02 -0.14972427165E+02  0.87540101266E+01  0.20862323729E+02  0.00000000000E+00 0.  1.
         11    1    1    2    0    0 -0.12789298273E+03  0.72212306816E+02  0.29567462257E+03  0.33014347597E+03  0.00000000000E+00 0. -1.
</event>
<event>
 7    1  0.6671761E-006  0.1518179E+03  0.7561462E-02  0.1198257E+00
         -2   -1    0    0    0  501 -0.00000000000E+00  0.00000000000E+00  0.51417098828E+02  0.51417098828E+02  0.00000000000E+00 0.  1.
          2   -1    0    0  501    0  0.00000000000E+00 -0.00000000000E+00 -0.59888073676E+03  0.59888073676E+03  0.00000000000E+00 0. -1.
         23    2    1    2    0    0 -0.42969504181E+02 -0.12559376215E+03 -0.20929232648E+03  0.27762112924E+03  0.12510012829E+03 0.  0.
          5    1    3    3  502    0 -0.12628965289E+02 -0.13675493120E+03 -0.11950541942E+03  0.18210002647E+03  0.41800000000E+01 0.  1.
         -5    1    3    3    0  502 -0.30340538892E+02  0.11161169050E+02 -0.89786907059E+02  0.95521102768E+02  0.41800000000E+01 0.  1.
        -11    1    1    2    0    0  0.19952088710E+02  0.81397144229E+02 -0.29523439073E+03  0.30689888628E+03  0.00000000000E+00 0. -1.
         11    1    1    2    0    0  0.23017415471E+02  0.44196617920E+02 -0.42936920722E+02  0.65777820059E+02  0.00000000000E+00 0.  1.
</event>
<event>
 7    1  0.6671761E-006  0.1215836E+03  0.7561462E-02  0.1240507E+00
         -3   -1    0    0    0  501 -0.00000000000E+00  0.00000000000E+00  0.13689449010E+03  0.13689449010E+03  0.00000000000E+00 0.  1.
          3   -1    0    0  501    0  0.00000000000E+00 -0.00000000000E+00 -0.15419929159E+03  0.15419929159E+03  0.00000000000E+00 0. -1.
         23    2    1    2    0    0 -0.49089833501E+02  0.81358901705E+02 -0.25473555767E+02  0.15913825447E+03  0.12508796645E+03 0.  0.
          5    1    3    3  502    0 -0.74863161585E+02  0.72793487879E+02  0.19622849640E+02  0.10632926910E+03  0.41800000000E+01 0. -1.
         -5    1    3    3    0  502  0.25773328084E+02  0.85654138261E+01 -0.45096405407E+02  0.52808985364E+02  0.41800000000E+01 0. -1.
        -11    1    1    2    0    0  0.50783662507E+02 -0.28373231795E+02 -0.31117863112E+02  0.65972282549E+02  0.00000000000E+00 0. -1.
         11    1    1    2    0    0 -0.16938290054E+01 -0.52985669910E+02  0.39286617388E+02  0.65983244679E+02  0.00000000000E+00 0.  1.
</event>
<event>
 7    1  0.6671761E-006  0.1003482E+03  0.7561462E-02  0.1279565E+00
         -1   -1    0    0    0  501 -0.00000000000E+00  0.00000000000E+00  0.32785320214E+03  0.32785320214E+03  0.00000000000E+00 0.  1.
          1   -1    0    0  501    0  0.00000000000E+00 -0.00000000000E+00 -0.59456026076E+02  0.59456026076E+02  0.00000000000E+00 0. -1.
         23    2    1    2    0    0  0.25708902287E+02 -0.53057916414E+02  0.23658526992E+03  0.27403361330E+03  0.12508293697E+03 0.  0.
          5    1    3    3  502    0  0.64328039228E+02 -0.70628423401E+02  0.16597468811E+03  0.19155035974E+03  0.41800000000E+01 0. -1.
         -5    1    3    3    0  502 -0.38619136941E+02  0.17570506987E+02  0.70610581806E+02  0.82483253553E+02  0.41800000000E+01 0. -1.
        -11    1    1    2    0    0 -0.12478478291E+02  0.65650045059E+01  0.57034872743E+02  0.58751922636E+02  0.00000000000E+00 0.  1.
         11    1    1    2    0    0 -0.13230423996E+02  0.46492911908E+02 -0.25222966595E+02  0.54523692288E+02  0.00000000000E+00 0. -1.
</event>
<event>
 7    1  0.6671761E-006  0.8996734E+02  0.7561462E-02  0.1302931E+00
          3   -1    0    0  501    0  0.00000000000E+00  0.00000000000E+00  0.25328368275E+03  0.25328368275E+03  0.00000000000E+00 0. -1.
         -3   -1    0    0    0  501 -0.00000000000E+00 -0.00000000000E+00 -0.44697413366E+02  0.44697413366E+02  0.00000000000E+00 0.  1.
         23    2    1    2    0    0 -0.93655897510E+01  0.19463110943E+02  0.81816082997E+02  0.13903382132E+03  0.11031774596E+03 0.  0.
          5    1    3    3  502    0 -0.85094207242E+01 -0.35645732903E+02  0.74691740887E+02  0.83302803506E+02  0.41800000000E+01 0. -1.
         -5    1    3    3    0  502 -0.85616902686E+00  0.55108843847E+02  0.71243421101E+01  0.55731017809E+02  0.41800000000E+01 0.  1.
        -11    1    1    2    0    0  0.24519681943E+02  0.28429695105E+02  0.24003560604E+02  0.44560445330E+02  0.00000000000E+00 0.  1.
         11    1    1    2    0    0 -0.15154092192E+02 -0.47892806048E+02  0.10276662578E+03  0.11438682947E+03  0.00000000000E+00 0. -1.
</event>
<event>
 7    1  0.6671761E-006  0.1664376E+03  0.7561462E-02  0.1181615E+00
          1   -1    0    0  501    0  0.00000000000E+00  0.00000000000E+00  0.39924569142E+03  0.39924569142E+03  0.00000000000E+00 0. -1.
         -1   -1    0    0    0  501 -0.00000000000E+00 -0.00000000000E+00 -0.13683255878E+03  0.13683255878E+03  0.00000000000E+00 0.  1.
         23    2    1    2    0    0  0.12592586372E+03  0.65921047720E+02 -0.36320562270E+02  0.19279336627E+03  0.12508873310E+03 0.  0.
          5    1    3    3  502    0  0.86911845833E+02 -0.24617144546E+02 -0.22205374070E+02  0.93114036478E+02  0.41800000000E+01 0. -1.
         -5    1    3    3    0  502  0.39014017887E+02  0.90538192266E+02 -0.14115188200E+02  0.99679329795E+02  0.41800000000E+01 0. -1.
        -11    1    1    2    0    0 -0.48955302209E+02 -0.37709236014E+02  0.44470581837E+02  0.76133046333E+02  0.00000000000E+00 0.  1.
         11    1    1    2    0    0 -0.76970561512E+02 -0.28211811706E+02  0.25426311308E+03  0.26715183760E+03  0.00000000000E+00 0. -1.
</event>
<event>
 7    1  0.6671761E-006  0.1856563E+03  0.7561462E-02  0.1162438E+00
         -2   -1    0    0    0  501 -0.00000000000E+00  0.00000000000E+00  0.60922145040E+02  0.60922145040E+02  0.00000000000E+00 0.  1.
          2   -1    0    0  501    0  0.00000000000E+00 -0.00000000000E+00 -0.63508048674E+03  0.63508048674E+03  0.00000000000E+00 0. -1.
         23    2    1    2    0    0 -0.30162463470E+02 -0.16083323011E+03 -0.32708288574E+03  0.38653329886E+03  0.12509066661E+03 0.  0.
          5    1    3    3  502    0 -0.72343796489E+02 -0.62182789531E+02 -0.18767202120E+03  0.21056729125E+03  0.41800000000E+01 0. -1.
         -5    1    3    3    0  502  0.42181333019E+02 -0.98650440575E+02 -0.13941086455E+03  0.17596600761E+03  0.41800000000E+01 0. -1.
        -11    1    1    2    0    0 -0.96238957952E+01  0.43728724182E+02 -0.16315239809E+02  0.47655091427E+02  0.00000000000E+00 0.  1.
         11    1    1    2    0    0  0.39786359266E+02  0.11710450592E+03 -0.23076021614E+03  0.26181424149E+03  0.00000000000E+00 0. -1.
</event>
<event>
 7    1  0.6671761E-006  0.1364188E+03  0.7561462E-02  0.1218231E+00
         -3   -1    0    0    0  501 -0.00000000000E+00  0.00000000000E+00  0.95060563414E+02  0.95060563414E+02  0.00000000000E+00 0.  1.
          3   -1    0    0  501    0  0.00000000000E+00 -0.00000000000E+00 -0.25884105737E+03  0.25884105737E+03  0.00000000000E+00 0. -1.
         23    2    1    2    0    0  0.31688713011E+02 -0.10536170633E+03 -0.47822737339E+02  0.17332159957E+03  0.12509236178E+03 0.  0.
          5    1    3    3  502    0 -0.18672306963E+02  0.17610696189E+02 -0.29153362268E+02  0.39066387076E+02  0.41800000000E+01 0. -1.
         -5    1    3    3    0  502  0.50361019975E+02 -0.12297240252E+03 -0.18669375071E+02  0.13425521249E+03  0.41800000000E+01 0. -1.
        -11    1    1    2    0    0 -0.22019797760E+01  0.58325754741E+02 -0.76404718321E+01  0.58865263024E+02  0.00000000000E+00 0.  1.
         11    1    1    2    0    0 -0.29486733235E+02  0.47035951594E+02 -0.10831728479E+03  0.12171475820E+03  0.00000000000E+00 0. -1.
</event>
<event>
 7    1  0.6671761E-006  0.9841511E+02  0.7561462E-02  0.1283664E+00
          1   -1    0    0  501    0  0.00000000000E+00  0.00000000000E+00  0.31303773520E+03  0.31303773520E+03  0.00000000000E+00 0. -1.
         -1   -1    0    0    0  501 -0.00000000000E+00 -0.00000000000E+00 -0.38802607390E+02  0.38802607390E+02  0.00000000000E+00 0.  1.
         23    2    1    2    0    0  0.18137757990E+02  0.98359442978E+01  0.17462396561E+03  0.21579470369E+03  0.12509236871E+03 0.  0.
          5    1    3    3  502    0  0.11627610083E+01 -0.48002325565E+02  0.24711847289E+02  0.54163853899E+02  0.41800000000E+01 0. -1.
         -5    1    3    3    0  502  0.16974996981E+02  0.57838269863E+02  0.14991211832E+03  0.16163084979E+03  0.41800000000E+01 0. -1.
        -11    1    1    2    0    0  0.18994464339E+02 -0.37412014896E+02  0.26801055653E+02  0.49786997481E+02  0.00000000000E+00 0.  1.
         11    1    1    2    0    0 -0.37132222329E+02  0.27576070598E+02  0.72810106547E+02  0.86258641423E+02  0.00000000000E+00 0. -1.
</event>
<event>
 7    1  0.6671761E-006  0.6056625E+02  0.7561462E-02  0.1395471E+00
          1   -1    0    0  501    0  0.00000000000E+00  0.00000000000E+00  0.10510745466E+03  0.10510745466E+03  0.00000000000E+00 0. -1.
         -1   -1    0    0    0  501 -0.00000000000E+00 -0.00000000000E+00 -0.13026764720E+03  0.13026764720E+03  0.00000000000E+00 0.  1.
         23    2    1    2    0    0  0.32570780250E+02  0.33520097078E+01 -0.48620287897E+02  0.13811868372E+03  0.12506297095E+03 0.  0.
          5    1    3    3  502    0  0.33128718930E+02  0.91834087207E+01 -0.89835731323E+02  0.96279686518E+02  0.41800000000E+01 0. -1.
         -5    1    3    3    0  502 -0.55793867978E+00 -0.58313990129E+01  0.41215443426E+02  0.41838997202E+02  0.41800000000E+01 0. -1.
        -11    1    1    2    0    0 -0.76469978938E+01  0.33751737969E+02  0.36892795282E+02  0.50583937534E+02  0.00000000000E+00 0. -1.
         11    1    1    2    0    0 -0.24923782356E+02 -0.37103747676E+02 -0.13432699931E+02  0.46672480607E+02  0.00000000000E+00 0.  1.
</event>
<event>
 7    1  0.6671761E-006  0.1624821E+03  0.7561462E-02  0.1185923E+00
         -2   -1    0    0    0  501 -0.00000000000E+00  0.00000000000E+00  0.78206821320E+02  0.78206821320E+02  0.00000000000E+00 0.  1.
          2   -1    0    0  501    0  0.00000000000E+00 -0.00000000000E+00 -0.36986415780E+03  0.36986415780E+03  0.00000000000E+00 0. -1.
         23    2    1    2    0    0 -0.11929121718E+03 -0.50131052094E+02 -0.13207754857E+03  0.22324373233E+03  0.12509903400E+03 0.  0.
          5    1    3    3  502    0 -0.10490506120E+03  0.19574110204E+02 -0.94732691508E+02  0.14275844247E+03  0.41800000000E+01 0.  1.
         -5    1    3    3    0  502 -0.14386155982E+02 -0.69705162298E+02 -0.37344857063E+02  0.80485289861E+02  0.41800000000E+01 0.  1.
        -11    1    1    2    0    0  0.62911513235E+02  0.63007839417E+02 -0.53137559750E+02  0.10368918257E+03  0.00000000000E+00 0.  1.
         11    1    1    2    0    0  0.56379703944E+02 -0.12876787323E+02 -0.10644222816E+03  0.12113806422E+03  0.00000000000E+00 0. -1.
</event>
<event>
 7    1  0.6671761E-006  0.1735736E+03  0.7561462E-02  0.1174172E+00
          2   -1    0    0  501    0  0.00000000000E+00  0.00000000000E+00  0.87459543606E+02  0.87459543606E+02  0.00000000000E+00 0. -1.
         -2   -1    0    0    0  501 -0.00000000000E+00 -0.00000000000E+00 -0.35757457656E+03  0.35757457656E+03  0.00000000000E+00 0.  1.
         23    2    1    2    0    0 -0.79736481478E+02 -0.11395973962E+03 -0.14941854358E+03  0.23941250678E+03  0.12509084101E+03 0.  0.
          5    1    3    3  502    0 -0.86224505703E+02 -0.13739354739E+03 -0.13262361972E+03  0.20956657452E+03  0.41800000000E+01 0. -1.
         -5    1    3    3    0  502  0.64880242250E+01  0.23433807772E+02 -0.16794923859E+02  0.29845932260E+02  0.41800000000E+01 0. -1.
        -11    1    1    2    0    0  0.26535087877E+02 -0.75315770352E+01 -0.20355002281E+01  0.27658250170E+02  0.00000000000E+00 0.  1.
         11    1    1    2    0    0  0.53201393601E+02  0.12149131665E+03 -0.11866098915E+03  0.17796336322E+03  0.00000000000E+00 0. -1.
</event>
<event>
 7    1  0.6671761E-006  0.1019327E+03  0.7561462E-02  0.1276283E+00
          1   -1    0    0  501    0  0.00000000000E+00  0.00000000000E+00  0.78309450714E+03  0.78309450714E+03  0.00000000000E+00 0. -1.
         -1   -1    0    0    0  501 -0.00000000000E+00 -0.00000000000E+00 -0.20665031254E+02  0.20665031254E+02  0.00000000000E+00 0.  1.
         23    2    1    2    0    0 -0.46184264095E+02 -0.30234076682E+02  0.28911298657E+03  0.31981387524E+03  0.12509000820E+03 0.  0.
          5    1    3    3  502    0 -0.51464089830E+02 -0.61111550224E+02  0.27271853906E+03  0.28421127363E+03  0.41800000000E+01 0. -1.
         -5    1    3    3    0  502  0.52798257359E+01  0.30877473542E+02  0.16394447506E+02  0.35602601607E+02  0.41800000000E+01 0. -1.
        -11    1    1    2    0    0  0.65635886844E+02  0.31423458136E+02  0.43406484244E+03  0.44012247250E+03  0.00000000000E+00 0. -1.
         11    1    1    2    0    0 -0.19451622750E+02 -0.11893814543E+01  0.39251646883E+02  0.43823190651E+02  0.00000000000E+00 0.  1.
</event>
<event>
 7    1  0.6671761E-006  0.1600312E+03  0.7561462E-02  0.1188661E+00
          1   -1    0    0  501    0  0.00000000000E+00  0.00000000000E+00  0.23642594665E+02  0.23642594665E+02  0.00000000000E+00 0. -1.
         -1   -1    0    0    0  501 -0.00000000000E+00 -0.00000000000E+00 -0.13784435889E+04  0.13784435889E+04  0.00000000000E+00 0.  1.
         23    2    1    2    0    0  0.11133026418E+03 -0.35541487179E+02 -0.10355250683E+04  0.10495800429E+04  0.12509386288E+03 0.  0.
          5    1    3    3  502    0  0.76522142224E+02 -0.82143393141E+02 -0.64142194269E+03  0.65118565421E+03  0.41800000000E+01 0.  1.
         -5    1    3    3    0  502  0.34808121955E+02  0.46601905962E+02 -0.39410312557E+03  0.39839438874E+03  0.41800000000E+01 0.  1.
        -11    1    1    2    0    0 -0.13050754131E+02 -0.29017468610E+02 -0.69302743390E+02  0.76257497397E+02  0.00000000000E+00 0.  1.
         11    1    1    2    0    0 -0.98279510049E+02  0.64558955790E+02 -0.24997318258E+03  0.27624864321E+03  0.00000000000E+00 0. -1.
</event>
<event>
 7    1  0.6671761E-006  0.1713917E+03  0.7561462E-02  0.1176404E+00
          2   -1    0    0  501    0  0.00000000000E+00  0.00000000000E+00  0.14318377686E+04  0.14318377686E+04  0.00000000000E+00 0. -1.
         -2   -1    0    0    0  501 -0.00000000000E+00 -0.00000000000E+00 -0.28987200892E+02  0.28987200892E+02  0.00000000000E+00 0.  1.
         23    2    1    2    0    0 -0.90158695415E+02  0.13169312249E+03  0.50178157922E+03  0.54120624786E+03  0.12509108922E+03 0.  0.
          5    1    3    3  502    0 -0.36730660297E+02  0.75255010440E+02  0.42008971942E+03  0.42837518925E+03  0.41800000000E+01 0.  1.
         -5    1    3    3    0  502 -0.53428035119E+02  0.56438112052E+02  0.81691859799E+02  0.11283105861E+03  0.41800000000E+01 0.  1.
        -11    1    1    2    0    0  0.97778712001E+01 -0.90056111633E+02  0.37265895085E+03  0.38351063044E+03  0.00000000000E+00 0.  1.
         11    1    1    2    0    0  0.80380824215E+02 -0.41637010860E+02  0.52841003767E+03  0.53610809124E+03  0.00000000000E+00 0. -1.
</event>
<event>
 6    1  0.6671761E-006  0.1325270E+03  0.7561462E-02  0.1223754E+00
          3   -1    0    0  501    0  0.00000000000E+00  0.00000000000E+00  0.22128343412E+03  0.22128343412E+03  0.00000000000E+00 0. -1.
         -3   -1    0    0    0  501 -0.00000000000E+00 -0.00000000000E+00 -0.10501737473E+03  0.10501737473E+03  0.00000000000E+00 0.  1.
          5    1    1    2  502    0 -0.24113653679E+02  0.61115236174E+02  0.65155335884E+02  0.92624136058E+02  0.41800000000E+01 0. -1.
         -5    1    1    2    0  502 -0.45805013115E+02 -0.87295679743E+02 -0.10981037224E+02  0.99280866771E+02  0.41800000000E+01 0.  1.
        -11    1    1    2    0    0 -0.13581070633E+02  0.37284207295E+01 -0.13527686883E+02  0.19528054514E+02  0.00000000000E+00 0. -1.
         11    1    1    2    0    0  0.83499737428E+02  0.22452022839E+02  0.75619447608E+02  0.11486775151E+03  0.00000000000E+00 0.  1.
</event>
<event>
 7    1  0.7550375E-006  0.2505150E+03  0.7561462E-02  0.1112980E+00
          1   -1    0    0  501    0  0.00000000000E+00  0.00000000000E+00  0.16598942646E+04  0.16598942646E+04  0.00000000000E+00 0. -1.
         -1   -1    0    0    0  501 -0.00000000000E+00 -0.00000000000E+00 -0.44639567193E+02  0.44639567193E+02  0.00000000000E+00 0.  1.
         23    2    1    2    0    0 -0.15854154299E+03 -0.16902920513E+03  0.54096430113E+03  0.60166116567E+03  0.12508992821E+03 0.  0.
          5    1    3    3  502    0 -0.10177148040E+03 -0.17452862254E+03  0.37290967149E+03  0.42414239331E+03  0.41800000000E+01 0.  1.
         -5    1    3    3    0  502 -0.56770062588E+02  0.54994174157E+01  0.16805462964E+03  0.17751877236E+03  0.41800000000E+01 0.  1.
        -11    1    1    2    0    0  0.86078957149E+02  0.13863648203E+03  0.84153510225E+03  0.85721116963E+03  0.00000000000E+00 0. -1.
         11    1    1    2    0    0  0.72462585839E+02  0.30392723091E+02  0.23275529402E+03  0.24566149649E+03  0.00000000000E+00 0.  1.
</event>
<event>
 7    1  0.6671761E-006  0.1704513E+03  0.7561462E-02  0.1177378E+00
         -2   -1    0    0    0  501 -0.00000000000E+00  0.00000000000E+00  0.24336886277E+03  0.24336886277E+03  0.00000000000E+00 0.  1.
          2   -1    0    0  501    0  0.00000000000E+00 -0.00000000000E+00 -0.12119354974E+03  0.12119354974E+03  0.00000000000E+00 0. -1.
         23    2    1    2    0    0 -0.49887951458E+02  0.12226684965E+03  0.81521612003E+02  0.19932606424E+03  0.12508843447E+03 0.  0.
          5    1    3    3  502    0  0.25024192514E+02  0.99979931307E+02  0.39187480897E+02  0.11034186846E+03  0.41800000000E+01 0.  1.
         -5    1    3    3    0  502 -0.74912143972E+02  0.22286918344E+02  0.42334131106E+02  0.88984195789E+02  0.41800000000E+01 0.  1.
        -11    1    1    2    0    0  0.74213595828E+02 -0.10874019927E+03  0.39205816974E+02  0.13736515143E+03  0.00000000000E+00 0.  1.
         11    1    1    2    0    0 -0.24325644371E+02 -0.13526650379E+02  0.14478840603E+01  0.27871196831E+02  0.00000000000E+00 0. -1.
</event>
<event>
 7    1  0.6671761E-006  0.1199155E+03  0.7561462E-02  0.1243237E+00
         -4   -1    0    0    0  501 -0.00000000000E+00  0.00000000000E+00  0.46778168803E+03  0.46778168803E+03  0.00000000000E+00 0.  1.
          4   -1    0    0  501    0  0.00000000000E+00 -0.00000000000E+00 -0.41682193112E+02  0.41682193112E+02  0.00000000000E+00 0. -1.
         23    2    1    2    0    0  0.66236989552E+01  0.86569827216E+02  0.25003158685E+03  0.29274486755E+03  0.12508219172E+03 0.  0.
          5    1    3    3  502    0  0.16799424273E+02  0.10168658022E+03  0.25354284436E+03  0.27372217225E+03  0.41800000000E+01 0.  1.
         -5    1    3    3    0  502 -0.10175725318E+02 -0.15116753007E+02 -0.35112575168E+01  0.19022695302E+02  0.41800000000E+01 0.  1.
        -11    1    1    2    0    0 -0.19373228017E+02 -0.98582611878E+02  0.11272838007E+03  0.15100179138E+03  0.00000000000E+00 0. -1.
         11    1    1    2    0    0  0.12749529062E+02  0.12012784662E+02  0.63339528001E+02  0.65717222202E+02  0.00000000000E+00 0.  1.
</event>
<event>
 7    1  0.6671761E-006  0.1459322E+03  0.7561462E-02  0.1205562E+00
          1   -1    0    0  501    0  0.00000000000E+00  0.00000000000E+00  0.72179402510E+02  0.72179402510E+02  0.00000000000E+00 0. -1.
         -1   -1    0    0    0  501 -0.00000000000E+00 -0.00000000000E+00 -0.34149856887E+03  0.34149856887E+03  0.00000000000E+00 0.  1.
         23    2    1    2    0    0  0.10142904259E+03 -0.16796621353E+02 -0.20735801596E+03  0.26308939945E+03  0.12509479667E+03 0.  0.
          5    1    3    3  502    0  0.12684204163E+03 -0.20872060410E+02 -0.19648807810E+03  0.23483948490E+03  0.41800000000E+01 0.  1.
         -5    1    3    3    0  502 -0.25412999037E+02  0.40754390567E+01 -0.10869937852E+02  0.28249914557E+02  0.41800000000E+01 0.  1.
        -11    1    1    2    0    0 -0.89707233250E+02  0.49482559572E+02 -0.44067920739E+02  0.11152530223E+03  0.00000000000E+00 0.  1.
         11    1    1    2    0    0 -0.11721809344E+02 -0.32685938219E+02 -0.17893229669E+02  0.39063269699E+02  0.00000000000E+00 0. -1.
</event>
<event>
 7    1  0.6671761E-006  0.1024183E+03  0.7561462E-02  0.1275291E+00
          2   -1    0    0  501    0  0.00000000000E+00  0.00000000000E+00  0.64472396509E+03  0.64472396509E+03  0.00000000000E+00 0.  1.
         -2   -1    0    0    0  501 -0.00000000000E+00 -0.00000000000E+00 -0.26108027771E+02  0.26108027771E+02  0.00000000000E+00 0. -1.
         23    2    1    2    0    0 -0.65105927282E+02 -0.25884828515E+02  0.31231685450E+03  0.34365219296E+03  0.12508479527E+03 0.  0.
          5    1    3    3  502    0 -0.20582421426E+01 -0.26231009319E+02  0.26071269713E+03  0.26207038187E+03  0.41800000000E+01 0.  1.
         -5    1    3    3    0  502 -0.63047685140E+02  0.34618080439E+00  0.51604157373E+02  0.81581811090E+02  0.41800000000E+01 0.  1.
        -11    1    1    2    0    0 -0.65826476021E+01 -0.25802624646E+02  0.71887793952E+02  0.76661343632E+02  0.00000000000E+00 0.  1.
         11    1    1    2    0    0  0.71688574884E+02  0.51687453161E+02  0.23441128887E+03  0.25051845627E+03  0.00000000000E+00 0. -1.
</event>
<event>
 7    1  0.6671761E-006  0.1759025E+03  0.7561462E-02  0.1171829E+00
         -2   -1    0    0    0  501 -0.00000000000E+00  0.00000000000E+00  0.35138152972E+02  0.35138152972E+02  0.00000000000E+00 0. -1.
          2   -1    0    0  501    0  0.00000000000E+00 -0.00000000000E+00 -0.96644084324E+03  0.96644084324E+03  0.00000000000E+00 0.  1.
         23    2    1    2    0    0 -0.39069658816E+02 -0.13815349507E+03 -0.38819709722E+03  0.43238589922E+03  0.12509097937E+03 0.  0.
          5    1    3    3  502    0 -0.71216124971E+02 -0.40820172676E+02 -0.22585228146E+03  0.24034298075E+03  0.41800000000E+01 0. -1.
         -5    1    3    3    0  502  0.32146466155E+02 -0.97333322391E+02 -0.16234481575E+03  0.19204291847E+03  0.41800000000E+01 0. -1.
        -11    1    1    2    0    0  0.28849526570E+02  0.36027249201E+00 -0.14356295603E+03  0.14643342283E+03  0.00000000000E+00 0.  1.
         11    1    1    2    0    0  0.10220132246E+02  0.13779322258E+03 -0.39954263702E+03  0.42275967415E+03  0.00000000000E+00 0. -1.
</event>
<event>
 7    1  0.6671761E-006  0.1438735E+03  0.7561462E-02  0.1208210E+00
          1   -1    0    0  501    0  0.00000000000E+00  0.00000000000E+00  0.51452082026E+03  0.51452082026E+03  0.00000000000E+00 0. -1.
         -1   -1    0    0    0  501 -0.00000000000E+00 -0.00000000000E+00 -0.69995865951E+02  0.69995865951E+02  0.00000000000E+00 0.  1.
         23    2    1    2    0    0 -0.97643109142E+02 -0.29073995452E+02  0.52947979666E+02  0.16979365309E+03  0.12508765768E+03 0.  0.
          5    1    3    3  502    0  0.25103319016E+02 -0.14975061985E+02  0.33488507496E+02  0.44647302734E+02  0.41800000000E+01 0. -1.
         -5    1    3    3    0  502 -0.12274642816E+03 -0.14098933467E+02  0.19459472169E+02  0.12514635036E+03  0.41800000000E+01 0. -1.
        -11    1    1    2    0    0  0.94662153196E+02 -0.10198056685E+02  0.24221704506E+03  0.26025760417E+03  0.00000000000E+00 0.  1.
         11    1    1    2    0    0  0.29809559454E+01  0.39272052137E+02  0.14935992958E+03  0.15446542895E+03  0.00000000000E+00 0. -1.
</event>
<event>
 7    1  0.6671761E-006  0.1168229E+03  0.7561462E-02  0.1248432E+00
          2   -1    0    0  501    0  0.00000000000E+00  0.00000000000E+00  0.33259032629E+03  0.33259032629E+03  0.00000000000E+00 0. -1.
         -2   -1    0    0    0  501 -0.00000000000E+00 -0.00000000000E+00 -0.47725863341E+02  0.47725863341E+02  0.00000000000E+00 0.  1.
         23    2    1    2    0    0  0.50482133057E+02  0.39518036683E+02  0.16760766245E+03  0.21874722081E+03  0.12509155494E+03 0.  0.
          5    1    3    3  502    0  0.16813809333E+02 -0.37441947627E+02  0.13902811705E+02  0.43535780683E+02  0.41800000000E+01 0.  1.
         -5    1    3    3    0  502  0.33668323724E+02  0.76959984309E+02  0.15370485075E+03  0.17521144012E+03  0.41800000000E+01 0.  1.
        -11    1    1    2    0    0 -0.74943643110E+02 -0.37324319203E+02  0.10447250326E+03  0.13388113528E+03  0.00000000000E+00 0. -1.
         11    1    1    2    0    0  0.24461510053E+02 -0.21937174798E+01  0.12784297234E+02  0.27687833541E+02  0.00000000000E+00 0.  1.
</event>
<event>
 7    1  0.6671761E-006  0.1421124E+03  0.7561462E-02  0.1210515E+00
          2   -1    0    0  501    0  0.00000000000E+00  0.00000000000E+00  0.62616298338E+03  0.62616298338E+03  0.00000000000E+00 0. -1.
         -2   -1    0    0    0  501 -0.00000000000E+00 -0.00000000000E+00 -0.32747506765E+02  0.32747506765E+02  0.00000000000E+00 0.  1.
         23    2    1    2    0    0  0.92237558526E+02  0.10645780148E+02  0.33414061534E+03  0.36866963720E+03  0.12508497405E+03 0.  0.
          5    1    3    3  502    0 -0.12141075297E+02  0.43857951898E+02  0.11171923337E+03  0.12070453661E+03  0.41800000000E+01 0.  1.
         -5    1    3    3    0  502  0.10437863382E+03 -0.33212171750E+02  0.22242138197E+03  0.24796510059E+03  0.41800000000E+01 0.  1.
        -11    1    1    2    0    0 -0.33875325127E+02 -0.48637931718E+02  0.14158825265E+03  0.15349403683E+03  0.00000000000E+00 0. -1.
         11    1    1    2    0    0 -0.58362233398E+02  0.37992151570E+02  0.11768660862E+03  0.13674681611E+03  0.00000000000E+00 0.  1.
</event>
<event>
 7    1  0.6671761E-006  0.1254602E+03  0.7561462E-02  0.1234352E+00
         -1   -1    0    0    0  501 -0.00000000000E+00  0.00000000000E+00  0.36616560360E+03  0.36616560360E+03  0.00000000000E+00 0. -1.
          1   -1    0    0  501    0  0.00000000000E+00 -0.00000000000E+00 -0.59409769379E+02  0.59409769379E+02  0.00000000000E+00 0.  1.
         23    2    1    2    0    0 -0.69059055438E+02  0.70170849853E+02  0.19138328174E+03  0.24893305314E+03  0.12508798148E+03 0.  0.
          5    1    3    3  502    0  0.20941261451E+02  0.37647817892E+02  0.12529164261E+03  0.13255701690E+03  0.41800000000E+01 0. -1.
         -5    1    3    3    0  502 -0.90000316889E+02  0.32523031961E+02  0.66091639133E+02  0.11637603624E+03  0.41800000000E+01 0. -1.
        -11    1    1    2    0    0  0.13505272303E+02 -0.51502594186E+02  0.73542647882E+01  0.53749370215E+02  0.00000000000E+00 0.  1.
         11    1    1    2    0    0  0.55553783135E+02 -0.18668255666E+02  0.10801828770E+03  0.12289294963E+03  0.00000000000E+00 0. -1.
</event>
<event>
 7    1  0.6671761E-006  0.1786874E+03  0.7561462E-02  0.1169079E+00
          3   -1    0    0  501    0  0.00000000000E+00  0.00000000000E+00  0.29460280060E+03  0.29460280060E+03  0.00000000000E+00 0. -1.
         -3   -1    0    0    0  501 -0.00000000000E+00 -0.00000000000E+00 -0.20399427078E+03  0.20399427078E+03  0.00000000000E+00 0.  1.
         23    2    1    2    0    0  0.22295929123E+02  0.15600826710E+03 -0.11611396372E+03  0.23230454477E+03  0.12508901268E+03 0.  0.
          5    1    3    3  502    0  0.60243363973E+02  0.14865015927E+03 -0.10541769456E+03  0.19198045599E+03  0.41800000000E+01 0.  1.
         -5    1    3    3    0  502 -0.37947434850E+02  0.73581078273E+01 -0.10696269161E+02  0.40324088786E+02  0.41800000000E+01 0.  1.
        -11    1    1    2    0    0 -0.19923644861E+02 -0.98752406397E+02  0.85212079448E+02  0.13194729204E+03  0.00000000000E+00 0.  1.
         11    1    1    2    0    0 -0.23722842621E+01 -0.57255860702E+02  0.12151041409E+03  0.13434523456E+03  0.00000000000E+00 0. -1.
</event>
<event>
 7    1  0.6671761E-006  0.1103084E+03  0.7561462E-02  0.1260000E+00
          1   -1    0    0  501    0  0.00000000000E+00  0.00000000000E+00  0.13224559353E+03  0.13224559353E+03  0.00000000000E+00 0. -1.
         -1   -1    0    0    0  501 -0.00000000000E+00 -0.00000000000E+00 -0.99012324034E+02  0.99012324034E+02  0.00000000000E+00 0.  1.
         23    2    1    2    0    0 -0.18252105635E+02 -0.32520516854E+02  0.58893628732E+01  0.13067541985E+03  0.12510258743E+03 0.  0.
          5    1    3    3  502    0 -0.18943459264E+02 -0.79974505375E+02 -0.23411566193E+01  0.82326967472E+02  0.41800000000E+01 0.  1.
         -5    1    3    3    0  502  0.69135362833E+00  0.47453988521E+02  0.82305194925E+01  0.48348452380E+02  0.41800000000E+01 0.  1.
        -11    1    1    2    0    0  0.11221032284E+01  0.59071956174E+02  0.34175335294E+02  0.68254733641E+02  0.00000000000E+00 0.  1.
         11    1    1    2    0    0  0.17130002407E+02 -0.26551439320E+02 -0.68314286676E+01  0.32327764075E+02  0.00000000000E+00 0. -1.
</event>
<event>
 6    1  0.6671761E-006  0.1315483E+03  0.7561462E-02  0.1225176E+00
          1   -1    0    0  501    0  0.00000000000E+00  0.00000000000E+00  0.17100632470E+03  0.17100632470E+03  0.00000000000E+00 0. -1.
         -1   -1    0    0    0  501 -0.00000000000E+00 -0.00000000000E+00 -0.15592725909E+03  0.15592725909E+03  0.00000000000E+00 0.  1.
          5    1    1    2  502    0  0.50245265711E+02  0.37140231753E+02  0.46276393178E+02  0.77865014652E+02  0.41800000000E+01 0. -1.
         -5    1    1    2    0  502 -0.81932574937E+02 -0.61224338017E+02 -0.87663108227E+02  0.13477262090E+03  0.41800000000E+01 0.  1.
        -11    1    1    2    0    0  0.44828771442E+02  0.51154213055E+02  0.47272774710E+02  0.82831681687E+02  0.00000000000E+00 0. -1.
         11    1    1    2    0    0 -0.13141462217E+02 -0.27070106791E+02  0.91930059524E+01  0.31464266547E+02  0.00000000000E+00 0.  1.
</event>
<event>
 7    1  0.6671761E-006  0.9344933E+02  0.7561462E-02  0.1294707E+00
         -4   -1    0    0    0  501 -0.00000000000E+00  0.00000000000E+00  0.83963604086E+02  0.83963604086E+02  0.00000000000E+00 0.  1.
          4   -1    0    0  501    0  0.00000000000E+00 -0.00000000000E+00 -0.17395770300E+03  0.17395770300E+03  0.00000000000E+00 0. -1.
         23    2    1    2    0    0 -0.58121652251E+01 -0.44634118591E+02 -0.17706505194E+02  0.13411472068E+03  0.12508897701E+03 0.  0.
          5    1    3    3  502    0  0.13887069284E+02  0.27938912824E+02  0.31194198805E+02  0.44316858894E+02  0.41800000000E+01 0.  1.
         -5    1    3    3    0  502 -0.19699234509E+02 -0.72573031415E+02 -0.48900703999E+02  0.89797861782E+02  0.41800000000E+01 0.  1.
        -11    1    1    2    0    0 -0.23351846830E+02  0.45265439292E+02 -0.78884546041E+02  0.93899096635E+02  0.00000000000E+00 0. -1.
         11    1    1    2    0    0  0.29164012055E+02 -0.63132070189E+00  0.65969523185E+01  0.29907489778E+02  0.00000000000E+00 0.  1.
</event>
<event>
 7    1  0.6671761E-006  0.1136625E+03  0.7561462E-02  0.1253934E+00
          1   -1    0    0  501    0  0.00000000000E+00  0.00000000000E+00  0.75675475464E+03  0.75675475464E+03  0.00000000000E+00 0. -1.
         -1   -1    0    0    0  501 -0.00000000000E+00 -0.00000000000E+00 -0.22557031076E+02  0.22557031076E+02  0.00000000000E+00 0.  1.
         23    2    1    2    0    0  0.38647761475E+02  0.31637485653E+00  0.22253835306E+03  0.25819588166E+03  0.12509214668E+03 0.  0.
          5    1    3    3  502    0  0.35183975810E+02 -0.59098130792E+02  0.94647467683E+02  0.11707312568E+03  0.41800000000E+01 0. -1.
         -5    1    3    3    0  502  0.34637856648E+01  0.59414505648E+02  0.12789088538E+03  0.14112275598E+03  0.41800000000E+01 0. -1.
        -11    1    1    2    0    0  0.37954772529E+01 -0.40281320650E+02  0.21918989177E+03  0.22289279732E+03  0.00000000000E+00 0. -1.
         11    1    1    2    0    0 -0.42443238728E+02  0.39964945793E+02  0.29246947872E+03  0.29822310674E+03  0.00000000000E+00 0.  1.
</event>
<event>
 7    1  0.6671761E-006  0.9809102E+02  0.7561462E-02  0.1284362E+00
          2   -1    0    0  501    0  0.00000000000E+00  0.00000000000E+00  0.14567392429E+03  0.14567392429E+03  0.00000000000E+00 0. -1.
         -2   -1    0    0    0  501 -0.00000000000E+00 -0.00000000000E+00 -0.90131099643E+02  0.90131099643E+02  0.00000000000E+00 0.  1.
         23    2    1    2    0    0  0.93305055993E+01  0.15688209493E+02  0.14052108347E+01  0.12642219725E+03  0.12508964420E+03 0.  0.
          5    1    3    3  502    0 -0.15326411842E+02  0.67145876161E+02  0.43228874255E+01  0.69134848963E+02  0.41800000000E+01 0. -1.
         -5    1    3    3    0  502  0.24656917441E+02 -0.51457666668E+02 -0.29176765907E+01  0.57287348283E+02  0.41800000000E+01 0. -1.
        -11    1    1    2    0    0 -0.32540472456E+02  0.11232658441E+02  0.63846632706E+02  0.72535835773E+02  0.00000000000E+00 0.  1.
         11    1    1    2    0    0  0.23209966857E+02 -0.26920867934E+02 -0.97090188915E+01  0.36846990917E+02  0.00000000000E+00 0. -1.
</event>
<event>
 7    1  0.6671761E-006  0.8335376E+02  0.7561462E-02  0.1319795E+00
         -2   -1    0    0    0  501 -0.00000000000E+00  0.00000000000E+00  0.11354230780E+03  0.11354230780E+03  0.00000000000E+00 0. -1.
          2   -1    0    0  501    0  0.00000000000E+00 -0.00000000000E+00 -0.13486132957E+03  0.13486132957E+03  0.00000000000E+00 0.  1.
         23    2    1    2    0    0 -0.41138555564E+02  0.19317450571E+02  0.26232281085E+02  0.13565523016E+03  0.12509462118E+03 0.  0.
          5    1    3    3  502    0  0.23281654487E+02 -0.19470807059E+02 -0.29058611612E+02  0.42225857860E+02  0.41800000000E+01 0. -1.
         -5    1    3    3    0  502 -0.64420210051E+02  0.38788257629E+02  0.55290892697E+02  0.93429372299E+02  0.41800000000E+01 0. -1.
        -11    1    1    2    0    0  0.48791952834E+02 -0.12171216640E+02 -0.71036671708E+02  0.87034486862E+02  0.00000000000E+00 0.  1.
         11    1    1    2    0    0 -0.76533972703E+01 -0.71462339308E+01  0.23485368857E+02  0.25713920345E+02  0.00000000000E+00 0. -1.
</event>
<event>
 7    1  0.6671761E-006  0.9365101E+02  0.7561462E-02  0.1294244E+00
          1   -1    0    0  501    0  0.00000000000E+00  0.00000000000E+00  0.42548720550E+02  0.42548720550E+02  0.00000000000E+00 0. -1.
         -1   -1    0    0    0  501 -0.00000000000E+00 -0.00000000000E+00 -0.34170454593E+03  0.34170454593E+03  0.00000000000E+00 0.  1.
         23    2    1    2    0    0  0.16735456456E+02 -0.27689839021E+02 -0.23226341987E+03  0.26577519421E+03  0.12507339827E+03 0.  0.
          5    1    3    3  502    0 -0.27403198231E+02  0.37346644929E+02 -0.56419212501E+02  0.73118445689E+02  0.41800000000E+01 0. -1.
         -5    1    3    3    0  502  0.44138654687E+02 -0.65036483951E+02 -0.17584420737E+03  0.19265674852E+03  0.41800000000E+01 0. -1.
        -11    1    1    2    0    0 -0.20536993310E+02 -0.10936840708E+02 -0.75258603289E+02  0.78773345416E+02  0.00000000000E+00 0.  1.
         11    1    1    2    0    0  0.38015368539E+01  0.38626679729E+02  0.83661977868E+01  0.39704726856E+02  0.00000000000E+00 0. -1.
</event>
<event>
 7    1  0.6671761E-006  0.1300318E+03  0.7561462E-02  0.1227409E+00
          1   -1    0    0  501    0  0.00000000000E+00  0.00000000000E+00  0.57538975030E+03  0.57538975030E+03  0.00000000000E+00 0. -1.
         -1   -1    0    0    0  501 -0.00000000000E+00 -0.00000000000E+00 -0.32152345737E+02  0.32152345737E+02  0.00000000000E+00 0.  1.
         23    2    1    2    0    0  0.13983859096E+02  0.77502513815E+02  0.32247774736E+03  0.35474480521E+03  0.12509912598E+03 0.  0.
          5    1    3    3  502    0  0.56511148207E+02  0.77593530766E+02  0.27275077471E+03  0.28917939656E+03  0.41800000000E+01 0.  1.
         -5    1    3    3    0  502 -0.42527289111E+02 -0.91016951521E-01  0.49726972643E+02  0.65565408650E+02  0.41800000000E+01 0.  1.
        -11    1    1    2    0    0 -0.53555841362E+02 -0.47568210650E+02  0.15169232114E+03  0.16775435345E+03  0.00000000000E+00 0. -1.
         11    1    1    2    0    0  0.39571982267E+02 -0.29934303164E+02  0.69067336069E+02  0.85042937380E+02  0.00000000000E+00 0.  1.
</event>
<event>
 7    1  0.6671761E-006  0.1031452E+03  0.7561462E-02  0.1273818E+00
          2   -1    0    0  501    0  0.00000000000E+00  0.00000000000E+00  0.64815654250E+03  0.64815654250E+03  0.00000000000E+00 0. -1.
         -2   -1    0    0    0  501 -0.00000000000E+00 -0.00000000000E+00 -0.23949845348E+02  0.23949845348E+02  0.00000000000E+00 0.  1.
         23    2    1    2    0    0  0.18890068682E+02  0.54608737271E+02  0.29651031068E+03  0.32696428728E+03  0.12509329293E+03 0.  0.
          5    1    3    3  502    0 -0.45007341152E+01  0.70312783156E+02  0.28902083992E+03  0.29751413813E+03  0.41800000000E+01 0. -1.
         -5    1    3    3    0  502  0.23390802797E+02 -0.15704045886E+02  0.74894707683E+01  0.29450149151E+02  0.41800000000E+01 0. -1.
        -11    1    1    2    0    0  0.85428629426E+01  0.23201039108E+02  0.56477906112E+02  0.61652433867E+02  0.00000000000E+00 0.  1.
         11    1    1    2    0    0 -0.27432931624E+02 -0.77809776378E+02  0.27121848036E+03  0.28348966670E+03  0.00000000000E+00 0. -1.
</event>
<event>
 6    1  0.6671761E-006  0.1073990E+03  0.7561462E-02  0.1265464E+00
         -1   -1    0    0    0  501 -0.00000000000E+00  0.00000000000E+00  0.32630796609E+03  0.32630796609E+03  0.00000000000E+00 0.  1.
          1   -1    0    0  501    0  0.00000000000E+00 -0.00000000000E+00 -0.10428076908E+03  0.10428076908E+03  0.00000000000E+00 0. -1.
          5    1    1    2  502    0 -0.72244053257E+02  0.58822353750E+02 -0.18289106137E+01  0.93274272153E+02  0.41800000000E+01 0. -1.
         -5    1    1    2    0  502  0.75932898139E+02 -0.16717813414E+02  0.22435222776E+03  0.23747986190E+03  0.41800000000E+01 0.  1.
        -11    1    1    2    0    0 -0.76397436443E+01 -0.26305407855E+02 -0.44867829266E+02  0.52568643395E+02  0.00000000000E+00 0. -1.
         11    1    1    2    0    0  0.39508987623E+01 -0.15799132481E+02  0.44371709132E+02  0.47265957723E+02  0.00000000000E+00 0.  1.
</event>
<event>
 7    1  0.6671761E-006  0.1667197E+03  0.7561462E-02  0.1181312E+00
         -1   -1    0    0    0  501 -0.00000000000E+00  0.00000000000E+00  0.44897603427E+02  0.44897603427E+02  0.00000000000E+00 0.  1.
          1   -1    0    0  501    0  0.00000000000E+00 -0.00000000000E+00 -0.65352505782E+03  0.65352505782E+03  0.00000000000E+00 0. -1.
         23    2    1    2    0    0  0.81933104562E+02  0.10393739951E+03 -0.30880727050E+03  0.35850439602E+03  0.12508978780E+03 0.  0.
          5    1    3    3  502    0  0.51676878505E+02 -0.13249593842E+02 -0.52195545996E+02  0.74752250339E+02  0.41800000000E+01 0. -1.
         -5    1    3    3    0  502  0.30256226057E+02  0.11718699335E+03 -0.25661172451E+03  0.28375214569E+03  0.41800000000E+01 0. -1.
        -11    1    1    2    0    0 -0.80616693627E+02 -0.31777547133E+02 -0.18518262188E+03  0.20445407122E+03  0.00000000000E+00 0.  1.
         11    1    1    2    0    0 -0.13164109346E+01 -0.72159852376E+02 -0.11463756201E+03  0.13546419400E+03  0.00000000000E+00 0. -1.
</event>
<event>
 7    1  0.6671761E-006  0.1849040E+03  0.7561462E-02  0.1163140E+00
          2   -1    0    0  501    0  0.00000000000E+00  0.00000000000E+00  0.41639338033E+03  0.41639338033E+03  0.00000000000E+00 0.  1.
         -2   -1    0    0    0  501 -0.00000000000E+00 -0.00000000000E+00 -0.92508682841E+02  0.92508682841E+02  0.00000000000E+00 0. -1.
         23    2    1    2    0    0 -0.13255448171E+03 -0.88801992187E+02  0.22944684298E+03  0.30618459025E+03  0.12508663045E+03 0.  0.
          5    1    3    3  502    0 -0.12701866959E+03 -0.18707660172E+02  0.11849781656E+03  0.17476533954E+03  0.41800000000E+01 0. -1.
         -5    1    3    3    0  502 -0.55358121210E+01 -0.70094332015E+02  0.11094902641E+03  0.13141925072E+03  0.41800000000E+01 0. -1.
        -11    1    1    2    0    0  0.12819776960E+03  0.59574821722E+02  0.99320281111E+02  0.17276673798E+03  0.00000000000E+00 0.  1.
         11    1    1    2    0    0  0.43567121123E+01  0.29227170464E+02 -0.48824266012E+01  0.29950734938E+02  0.00000000000E+00 0. -1.
</event>
<event>
 7    1  0.6671761E-006  0.1043727E+03  0.7561462E-02  0.1271361E+00
         -2   -1    0    0    0  501 -0.00000000000E+00  0.00000000000E+00  0.72178489343E+02  0.72178489343E+02  0.00000000000E+00 0.  1.
          2   -1    0    0  501    0  0.00000000000E+00 -0.00000000000E+00 -0.22355941970E+03  0.22355941970E+03  0.00000000000E+00 0. -1.
         23    2    1    2    0    0  0.65119158718E+02 -0.47324064519E+01 -0.73870831451E+02  0.15925751323E+03  0.12507260003E+03 0.  0.
          5    1    3    3  502    0  0.72579690474E+02  0.28693418016E+02 -0.47766850189E+00  0.78158967969E+02  0.41800000000E+01 0.  1.
         -5    1    3    3    0  502 -0.74605317561E+01 -0.33425824468E+02 -0.73393162949E+02  0.81098545259E+02  0.41800000000E+01 0.  1.
        -11    1    1    2    0    0  0.14308367918E+02  0.83663519183E+01 -0.49465932647E+02  0.52168992031E+02  0.00000000000E+00 0. -1.
         11    1    1    2    0    0 -0.79427526636E+02 -0.36339454665E+01 -0.28044166263E+02  0.84311403787E+02  0.00000000000E+00 0.  1.
</event>
<event>
 7    1  0.6671761E-006  0.9571384E+02  0.7561462E-02  0.1289576E+00
          2   -1    0    0  501    0  0.00000000000E+00  0.00000000000E+00  0.40496870586E+03  0.40496870586E+03  0.00000000000E+00 0. -1.
         -2   -1    0    0    0  501 -0.00000000000E+00 -0.00000000000E+00 -0.90267555159E+02  0.90267555159E+02  0.00000000000E+00 0.  1.
         23    2    1    2    0    0 -0.69910603743E+02 -0.12654732321E+02 -0.17655279282E+02  0.14493555982E+03  0.12508786051E+03 0.  0.
          5    1    3    3  502    0 -0.23923634916E+02 -0.26416975414E+02  0.50203840556E+02  0.61709763442E+02  0.41800000000E+01 0. -1.
         -5    1    3    3    0  502 -0.45986968828E+02  0.13762243093E+02 -0.67859119838E+02  0.83225796374E+02  0.41800000000E+01 0. -1.
        -11    1    1    2    0    0  0.42255968126E+01 -0.29179670962E+02  0.57413293635E+02  0.64541421985E+02  0.00000000000E+00 0. -1.
         11    1    1    2    0    0  0.65685006931E+02  0.41834403283E+02  0.27494313635E+03  0.28575927921E+03  0.00000000000E+00 0.  1.
</event>
<event>
 7    1  0.6671761E-006  0.9844228E+02  0.7561462E-02  0.1283606E+00
         -2   -1    0    0    0  501 -0.00000000000E+00  0.00000000000E+00  0.76589898785E+02  0.76589898785E+02  0.00000000000E+00 0.  1.
          2   -1    0    0  501    0  0.00000000000E+00 -0.00000000000E+00 -0.16275704763E+03  0.16275704763E+03  0.00000000000E+00 0. -1.
         23    2    1    2    0    0 -0.19591539037E+02 -0.39620711382E+01 -0.30182298674E+02  0.13023177483E+03  0.12509923107E+03 0.  0.
          5    1    3    3  502    0 -0.36882953995E+02 -0.55617891059E+02 -0.34842608131E+02  0.75400144845E+02  0.41800000000E+01 0.  1.
         -5    1    3    3    0  502  0.17291414958E+02  0.51655819920E+02  0.46603094576E+01  0.54831629988E+02  0.41800000000E+01 0.  1.
        -11    1    1    2    0    0  0.45998251618E+02 -0.74852991290E+01 -0.49569777981E+00  0.46605949956E+02  0.00000000000E+00 0.  1.
         11    1    1    2    0    0 -0.26406712581E+02  0.11447370267E+02 -0.55489152394E+02  0.62509221630E+02  0.00000000000E+00 0. -1.
</event>
<event>
 7    1  0.6671761E-006  0.9362993E+02  0.7561462E-02  0.1294292E+00
         -2   -1    0    0    0  501 -0.00000000000E+00  0.00000000000E+00  0.49990114758E+03  0.49990114758E+03  0.00000000000E+00 0.  1.
          2   -1    0    0  501    0  0.00000000000E+00 -0.00000000000E+00 -0.29309700782E+02  0.29309700782E+02  0.00000000000E+00 0. -1.
         23    2    1    2    0    0 -0.15725530552E+02 -0.52644530803E+02  0.26994191261E+03  0.30254847496E+03  0.12509278388E+03 0.  0.
          5    1    3    3  502    0  0.25779064110E+02  0.10086398060E+02  0.19244100647E+03  0.19446672966E+03  0.41800000000E+01 0.  1.
         -5    1    3    3    0  502 -0.41504594661E+02 -0.62730928862E+02  0.77500906137E+02  0.10808174529E+03  0.41800000000E+01 0.  1.
        -11    1    1    2    0    0  0.37698331528E+02  0.48731531760E+02  0.19373731478E+03  0.20329799194E+03  0.00000000000E+00 0.  1.
         11    1    1    2    0    0 -0.21972800977E+02  0.39129990428E+01  0.69122194074E+01  0.23364381469E+02  0.00000000000E+00 0. -1.
</event>
<event>
 7    1  0.6671761E-006  0.1562256E+03  0.7561462E-02  0.1193025E+00
          1   -1    0    0  501    0  0.00000000000E+00  0.00000000000E+00  0.19955973882E+03  0.19955973882E+03  0.00000000000E+00 0. -1.
         -1   -1    0    0    0  501 -0.00000000000E+00 -0.00000000000E+00 -0.25273698335E+03  0.25273698335E+03  0.00000000000E+00 0.  1.
         23    2    1    2    0    0  0.13194755516E+03 -0.65961143816E+02 -0.15810331988E+03  0.24981152638E+03  0.12509240243E+03 0.  0.
          5    1    3    3  502    0  0.13021156089E+03 -0.76540620693E+02 -0.80202794421E+02  0.17106571205E+03  0.41800000000E+01 0. -1.
         -5    1    3    3    0  502  0.17359942690E+01  0.10579476877E+02 -0.77900525460E+02  0.78745814327E+02  0.41800000000E+01 0. -1.
        -11    1    1    2    0    0 -0.18931262266E+02  0.20838438023E+02  0.70659106845E+02  0.76061439444E+02  0.00000000000E+00 0. -1.
         11    1    1    2    0    0 -0.11301629289E+03  0.45122705793E+02  0.34266968504E+02  0.12642375634E+03  0.00000000000E+00 0.  1.
</event>
<event>
 7    1  0.6671761E-006  0.1148727E+03  0.7561462E-02  0.1251803E+00
         -2   -1    0    0    0  501 -0.00000000000E+00  0.00000000000E+00  0.26644612430E+02  0.26644612430E+02  0.00000000000E+00 0.  1.
          2   -1    0    0  501    0  0.00000000000E+00 -0.00000000000E+00 -0.62444047426E+03  0.62444047426E+03  0.00000000000E+00 0. -1.
         23    2    1    2    0    0 -0.52352441406E+02  0.21729336032E+02 -0.22297378680E+03  0.26187393188E+03  0.12509078477E+03 0.  0.
          5    1    3    3  502    0  0.41240293491E+02  0.46224446672E+01 -0.59071437235E+02  0.72312072982E+02  0.41800000000E+01 0. -1.
         -5    1    3    3    0  502 -0.93592734897E+02  0.17106891365E+02 -0.16390234956E+03  0.18956185890E+03  0.41800000000E+01 0. -1.
        -11    1    1    2    0    0  0.61898898856E+02 -0.38934430807E+02 -0.34989192622E+03  0.35745170809E+03  0.00000000000E+00 0.  1.
         11    1    1    2    0    0 -0.95464574505E+01  0.17205094775E+02 -0.24930148809E+02  0.31759446716E+02  0.00000000000E+00 0. -1.
</event>
<event>
 7    1  0.6671761E-006  0.5447785E+02  0.7561462E-02  0.1422584E+00
         -1   -1    0    0    0  501 -0.00000000000E+00  0.00000000000E+00  0.54705446334E+03  0.54705446334E+03  0.00000000000E+00 0.  1.
          1   -1    0    0  501    0  0.00000000000E+00 -0.00000000000E+00 -0.45039503037E+02  0.45039503037E+02  0.00000000000E+00 0. -1.
         23    2    1    2    0    0  0.49541012399E+02 -0.83769465297E+01  0.45841966705E+03  0.47782953797E+03  0.12509193050E+03 0.  0.
          5    1    3    3  502    0  0.26575336389E+02  0.97372472766E+01  0.12989930607E+02  0.31420903645E+02  0.41800000000E+01 0.  1.
         -5    1    3    3    0  502  0.22965676010E+02 -0.18114193806E+02  0.44542973644E+03  0.44640863433E+03  0.41800000000E+01 0.  1.
        -11    1    1    2    0    0 -0.34434950285E+02  0.22853612080E+01 -0.25732961417E+02  0.43048507294E+02  0.00000000000E+00 0. -1.
         11    1    1    2    0    0 -0.15106062113E+02  0.60915853216E+01  0.69328254670E+02  0.71215921112E+02  0.00000000000E+00 0.  1.
</event>
<event>
 7    1  0.6671761E-006  0.1421033E+03  0.7561462E-02  0.1210527E+00
          3   -1    0    0  501    0  0.00000000000E+00  0.00000000000E+00  0.49259524909E+02  0.49259524909E+02  0.00000000000E+00 0. -1.
         -3   -1    0    0    0  501 -0.00000000000E+00 -0.00000000000E+00 -0.55166162482E+03  0.55166162482E+03  0.00000000000E+00 0.  1.
         23    2    1    2    0    0  0.11494010217E+03  0.11767042061E+02 -0.34724109641E+03  0.38675061410E+03  0.12509983256E+03 0.  0.
          5    1    3    3  502    0  0.85748935952E+02 -0.32760030316E+02 -0.10884609734E+03  0.14244663882E+03  0.41800000000E+01 0. -1.
         -5    1    3    3    0  502  0.29191166213E+02  0.44527072377E+02 -0.23839499907E+03  0.24430397529E+03  0.41800000000E+01 0. -1.
        -11    1    1    2    0    0 -0.37749914446E+02  0.32600719624E+02 -0.93173451991E+02  0.10568422359E+03  0.00000000000E+00 0. -1.
         11    1    1    2    0    0 -0.77190187720E+02 -0.44367761684E+02 -0.61987551512E+02  0.10848631204E+03  0.00000000000E+00 0.  1.
</event>
<event>
 7    1  0.6671761E-006  0.1050195E+03  0.7561462E-02  0.1270081E+00
          2   -1    0    0  501    0  0.00000000000E+00  0.00000000000E+00  0.44212303020E+03  0.44212303020E+03  0.00000000000E+00 0.  1.
         -2   -1    0    0    0  501 -0.00000000000E+00 -0.00000000000E+00 -0.41641394882E+02  0.41641394882E+02  0.00000000000E+00 0. -1.
         23    2    1    2    0    0  0.84127999115E+01  0.81492689131E+02  0.19733431406E+03  0.24758526827E+03  0.12508317224E+03 0.  0.
          5    1    3    3  502    0 -0.11483728899E+02  0.10132395093E+02  0.16646486479E+03  0.16722010964E+03  0.41800000000E+01 0.  1.
         -5    1    3    3    0  502  0.19896528810E+02  0.71360294038E+02  0.30869449274E+02  0.80365158635E+02  0.41800000000E+01 0.  1.
        -11    1    1    2    0    0  0.28247085906E+02 -0.78213429609E+02  0.13056764199E+03  0.15480034744E+03  0.00000000000E+00 0. -1.
         11    1    1    2    0    0 -0.36659885817E+02 -0.32792595212E+01  0.72579679264E+02  0.81378809362E+02  0.00000000000E+00 0.  1.
</event>
<event>
 7    1  0.6671761E-006  0.1220773E+03  0.7561462E-02  0.1239709E+00
          1   -1    0    0  501    0  0.00000000000E+00  0.00000000000E+00  0.14662368712E+03  0.14662368712E+03  0.00000000000E+00 0. -1.
         -1   -1    0    0    0  501 -0.00000000000E+00 -0.00000000000E+00 -0.15061450738E+03  0.15061450738E+03  0.00000000000E+00 0.  1.
         23    2    1    2    0    0  0.10847870894E+02 -0.10547343835E+03 -0.27866828730E+02  0.15532078317E+03  0.11002573808E+03 0.  0.
          5    1    3    3  502    0  0.48738942629E+02 -0.64050188596E+02  0.18148962411E+02  0.82612156638E+02  0.41800000000E+01 0. -1.
         -5    1    3    3    0  502 -0.37891071735E+02 -0.41423249758E+02 -0.46015791141E+02  0.72708626531E+02  0.41800000000E+01 0.  1.
        -11    1    1    2    0    0  0.27828106663E+01  0.52274883102E+02  0.57312847863E+02  0.77621968338E+02  0.00000000000E+00 0. -1.
         11    1    1    2    0    0 -0.13630681560E+02  0.53198555251E+02 -0.33436839399E+02  0.64295442992E+02  0.00000000000E+00 0.  1.
</event>
<event>
 7    1  0.6671761E-006  0.1084442E+03  0.7561462E-02  0.1263478E+00
         -2   -1    0    0    0  501 -0.00000000000E+00  0.00000000000E+00  0.23873015608E+02  0.23873015608E+02  0.00000000000E+00 0.  1.
          2   -1    0    0  501    0  0.00000000000E+00 -0.00000000000E+00 -0.53467877250E+03  0.53467877250E+03  0.00000000000E+00 0. -1.
         23    2    1    2    0    0 -0.25627511138E+02  0.20860623553E+02 -0.25170475885E+03  0.28301106967E+03  0.12509214598E+03 0.  0.
          5    1    3    3  502    0 -0.72321603279E+02 -0.50166693691E+01 -0.17496260410E+03  0.18943327719E+03  0.41800000000E+01 0. -1.
         -5    1    3    3    0  502  0.46694092142E+02  0.25877292922E+02 -0.76742154744E+02  0.93577792476E+02  0.41800000000E+01 0. -1.
        -11    1    1    2    0    0  0.56328531589E+02 -0.60967792586E+01 -0.19346576933E+03  0.20159136413E+03  0.00000000000E+00 0.  1.
         11    1    1    2    0    0 -0.30701020452E+02 -0.14763844295E+02 -0.65635228717E+02  0.73949354316E+02  0.00000000000E+00 0. -1.
</event>
<event>
 7    1  0.6671761E-006  0.9356915E+02  0.7561462E-02  0.1294432E+00
         -1   -1    0    0    0  501 -0.00000000000E+00  0.00000000000E+00  0.83864094291E+03  0.83864094291E+03  0.00000000000E+00 0.  1.
          1   -1    0    0  501    0  0.00000000000E+00 -0.00000000000E+00 -0.15372854774E+02  0.15372854774E+02  0.00000000000E+00 0. -1.
         23    2    1    2    0    0  0.10587784749E+02  0.30166151467E+02  0.49108100790E+03  0.50776937285E+03  0.12508829602E+03 0.  0.
          5    1    3    3  502    0  0.47753813723E+02  0.72831177892E+01  0.74508392746E+02  0.88895688981E+02  0.41800000000E+01 0.  1.
         -5    1    3    3    0  502 -0.37166028974E+02  0.22883033678E+02  0.41657261515E+03  0.41887368386E+03  0.41800000000E+01 0.  1.
        -11    1    1    2    0    0 -0.34897906224E+02 -0.51669498961E+02  0.25498571070E+03  0.26249821646E+03  0.00000000000E+00 0. -1.
         11    1    1    2    0    0  0.24310121476E+02  0.21503347493E+02  0.77201369536E+02  0.83746208378E+02  0.00000000000E+00 0.  1.
</event>
<event>
 7    1  0.6671761E-006  0.1228949E+03  0.7561462E-02  0.1238396E+00
          2   -1    0    0  501    0  0.00000000000E+00  0.00000000000E+00  0.24996953437E+03  0.24996953437E+03  0.00000000000E+00 0. -1.
         -2   -1    0    0    0  501 -0.00000000000E+00 -0.00000000000E+00 -0.71568351828E+02  0.71568351828E+02  0.00000000000E+00 0.  1.
         23    2    1    2    0    0 -0.54916536909E+02 -0.54477846738E+02  0.73224305829E+02  0.16429412560E+03  0.12508836449E+03 0.  0.
          5    1    3    3  502    0  0.40395879565E+02 -0.14062797215E+02  0.27642285036E+02  0.51099487995E+02  0.41800000000E+01 0.  1.
         -5    1    3    3    0  502 -0.95312416474E+02 -0.40415049523E+02  0.45582020793E+02  0.11319463760E+03  0.41800000000E+01 0.  1.
        -11    1    1    2    0    0  0.38547986773E+02  0.67869257962E+02  0.37989625614E+02  0.86806653632E+02  0.00000000000E+00 0.  1.
         11    1    1    2    0    0  0.16368550136E+02 -0.13391411224E+02  0.67187251100E+02  0.70437106971E+02  0.00000000000E+00 0. -1.
</event>
<event>
 7    1  0.6671761E-006  0.1293618E+03  0.7561462E-02  0.1228406E+00
          2   -1    0    0  501    0  0.00000000000E+00  0.00000000000E+00  0.36678129955E+03  0.36678129955E+03  0.00000000000E+00 0. -1.
         -2   -1    0    0    0  501 -0.00000000000E+00 -0.00000000000E+00 -0.61367293629E+02  0.61367293629E+02  0.00000000000E+00 0.  1.
         23    2    1    2    0    0 -0.98351863465E+02 -0.19351758313E+02  0.13422588093E+03  0.20907719126E+03  0.12509638364E+03 0.  0.
          5    1    3    3  502    0 -0.50162624811E+01 -0.52453400180E+02  0.80584418358E+02  0.96373455691E+02  0.41800000000E+01 0. -1.
         -5    1    3    3    0  502 -0.93335600984E+02  0.33101641867E+02  0.53641462572E+02  0.11270373557E+03  0.41800000000E+01 0. -1.
        -11    1    1    2    0    0  0.12843592704E+02  0.16868150921E+02 -0.62378174820E+01  0.22099836107E+02  0.00000000000E+00 0.  1.
         11    1    1    2    0    0  0.85508270760E+02  0.24836073925E+01  0.17742594247E+03  0.19697156581E+03  0.00000000000E+00 0. -1.
</event>
<event>
 7    1  0.6671761E-006  0.1994774E+03  0.7561462E-02  0.1150181E+00
          3   -1    0    0  501    0  0.00000000000E+00  0.00000000000E+00  0.32536322162E+02  0.32536322162E+02  0.00000000000E+00 0. -1.
         -3   -1    0    0    0  501 -0.00000000000E+00 -0.00000000000E+00 -0.18838379401E+04  0.18838379401E+04  0.00000000000E+00 0.  1.
         23    2    1    2    0    0  0.12474367635E+03 -0.13239337301E+03 -0.14472025620E+04  0.14639431398E+04  0.12508105874E+03 0.  0.
          5    1    3    3  502    0  0.13193640264E+02 -0.90942884979E+02 -0.42582585636E+03  0.43564872640E+03  0.41800000000E+01 0.  1.
         -5    1    3    3    0  502  0.11155003608E+03 -0.41450488032E+02 -0.10213767056E+04  0.10282944134E+04  0.41800000000E+01 0.  1.
        -11    1    1    2    0    0 -0.10913789248E+03  0.86026371227E+02 -0.20678045838E+03  0.24913806231E+03  0.00000000000E+00 0. -1.
         11    1    1    2    0    0 -0.15605783862E+02  0.46367001784E+02 -0.19731859759E+03  0.20329306014E+03  0.00000000000E+00 0.  1.
</event>
<event>
 7    1  0.9797244E-006  0.1035782E+03  0.7561462E-02  0.1272946E+00
         -1   -1    0    0    0  501 -0.00000000000E+00  0.00000000000E+00  0.14930776462E+03  0.14930776462E+03  0.00000000000E+00 0.  1.
          1   -1    0    0  501    0  0.00000000000E+00 -0.00000000000E+00 -0.12822393757E+03  0.12822393757E+03  0.00000000000E+00 0. -1.
         23    2    1    2    0    0  0.54636552534E+02  0.65979132372E+02  0.12062170414E+02  0.15209136833E+03  0.12509152483E+03 0.  0.
          5    1    3    3  502    0  0.60324069382E+02  0.26182630183E+02  0.60188244191E+02  0.89244723143E+02  0.41800000000E+01 0. -1.
         -5    1    3    3    0  502 -0.56875168478E+01  0.39796502189E+02 -0.48126073776E+02  0.62846645189E+02  0.41800000000E+01 0. -1.
        -11    1    1    2    0    0 -0.51278651480E+02 -0.20471989486E+02 -0.32225353400E+02  0.63930242084E+02  0.00000000000E+00 0. -1.
         11    1    1    2    0    0 -0.33579010536E+01 -0.45507142886E+02  0.41247010035E+02  0.61510091773E+02  0.00000000000E+00 0.  1.
</event>
<event>
 7    1  0.6671761E-006  0.1032407E+03  0.7561462E-02  0.1273625E+00
         -3   -1    0    0    0  501 -0.00000000000E+00  0.00000000000E+00  0.12786688524E+04  0.12786688524E+04  0.00000000000E+00 0.  1.
          3   -1    0    0  501    0  0.00000000000E+00 -0.00000000000E+00 -0.14538994285E+02  0.14538994285E+02  0.00000000000E+00 0. -1.
         23    2    1    2    0    0 -0.27161658836E+02  0.69806677523E+02  0.85924131821E+03  0.87152405086E+03  0.12509116819E+03 0.  0.
          5    1    3    3  502    0 -0.73954568634E+01 -0.73358924685E+01  0.30554524166E+01  0.11632553030E+02  0.41800000000E+01 0. -1.
         -5    1    3    3    0  502 -0.19766201973E+02  0.77142569992E+02  0.85618586580E+03  0.85989149783E+03  0.41800000000E+01 0. -1.
        -11    1    1    2    0    0  0.26339934880E+02  0.15260821846E+02  0.14723842290E+03  0.15035237953E+03  0.00000000000E+00 0. -1.
         11    1    1    2    0    0  0.82172395549E+00 -0.85067499369E+02  0.25765011704E+03  0.27133141633E+03  0.00000000000E+00 0.  1.
</event>
<event>
 7    1  0.6671761E-006  0.1246558E+03  0.7561462E-02  0.1235608E+00
          1   -1    0    0  501    0  0.00000000000E+00  0.00000000000E+00  0.25621478389E+03  0.25621478389E+03  0.00000000000E+00 0. -1.
         -1   -1    0    0    0  501 -0.00000000000E+00 -0.00000000000E+00 -0.71170048200E+02  0.71170048200E+02  0.00000000000E+00 0.  1.
         23    2    1    2    0    0 -0.59087564218E+01 -0.81877001972E+02  0.53532449084E+02  0.15059880845E+03  0.11434824505E+03 0.  0.
          5    1    3    3  502    0 -0.53836109068E+02 -0.49597351157E+02  0.56537045629E+02  0.92585818621E+02  0.41800000000E+01 0. -1.
         -5    1    3    3    0  502  0.47927352646E+02 -0.32279650814E+02 -0.30045965443E+01  0.58012989828E+02  0.41800000000E+01 0.  1.
        -11    1    1    2    0    0 -0.21184119839E+02 -0.91560938359E+01  0.23093114866E+02  0.32648015895E+02  0.00000000000E+00 0.  1.
         11    1    1    2    0    0  0.27092876261E+02  0.91033095808E+02  0.10841917174E+03  0.14413800775E+03  0.00000000000E+00 0. -1.
</event>
<event>
 7    1  0.6671761E-006  0.8649550E+02  0.7561462E-02  0.1311567E+00
         -1   -1    0    0    0  501 -0.00000000000E+00  0.00000000000E+00  0.31834114819E+03  0.31834114819E+03  0.00000000000E+00 0.  1.
          1   -1    0    0  501    0  0.00000000000E+00 -0.00000000000E+00 -0.37293538002E+02  0.37293538002E+02  0.00000000000E+00 0. -1.
         23    2    1    2    0    0  0.96724569104E+01  0.56854961278E+01  0.19338536080E+03  0.23058947454E+03  0.12509087380E+03 0.  0.
          5    1    3    3  502    0 -0.28328499741E+00  0.45592481605E+02  0.16077079698E+02  0.48525246223E+02  0.41800000000E+01 0. -1.
         -5    1    3    3    0  502  0.99557419078E+01 -0.39906985478E+02  0.17730828110E+03  0.18206422832E+03  0.41800000000E+01 0. -1.
        -11    1    1    2    0    0 -0.47670807128E+02 -0.37044523066E+01  0.31683974983E+02  0.57359420237E+02  0.00000000000E+00 0. -1.
         11    1    1    2    0    0  0.37998350218E+02 -0.19810438212E+01  0.55978274409E+02  0.67685791417E+02  0.00000000000E+00 0.  1.
</event>
<event>
 7    1  0.6671761E-006  0.1237081E+03  0.7561462E-02  0.1237102E+00
         -3   -1    0    0    0  501 -0.00000000000E+00  0.00000000000E+00  0.59785399720E+02  0.59785399720E+02  0.00000000000E+00 0.  1.
          3   -1    0    0  501    0  0.00000000000E+00 -0.00000000000E+00 -0.30694628730E+03  0.30694628730E+03  0.00000000000E+00 0. -1.
         23    2    1    2    0    0  0.31505084736E+02 -0.54518806506E+02 -0.68551851526E+02  0.15592890442E+03  0.12509834635E+03 0.  0.
          5    1    3    3  502    0  0.45150137829E+02 -0.88938451787E+02 -0.63531524463E+02  0.11833135744E+03  0.41800000000E+01 0.  1.
         -5    1    3    3    0  502 -0.13645053093E+02  0.34419645282E+02 -0.50203270631E+01  0.37597546982E+02  0.41800000000E+01 0.  1.
        -11    1    1    2    0    0  0.10897781949E+02 -0.21032374132E+02 -0.24959721126E+02  0.34410900769E+02  0.00000000000E+00 0.  1.
         11    1    1    2    0    0 -0.42402866685E+02  0.75551180637E+02 -0.15364931493E+03  0.17639188183E+03  0.00000000000E+00 0. -1.
</event>
<event>
 7    1  0.6671761E-006  0.9754437E+02  0.7561462E-02  0.1285546E+00
          2   -1    0    0  501    0  0.00000000000E+00  0.00000000000E+00  0.23013546598E+03  0.23013546598E+03  0.00000000000E+00 0. -1.
         -2   -1    0    0    0  501 -0.00000000000E+00 -0.00000000000E+00 -0.63915729510E+02  0.63915729510E+02  0.00000000000E+00 0.  1.
         23    2    1    2    0    0  0.27556366040E+02 -0.30685323650E+01  0.36652090346E+02  0.13326537097E+03  0.12509002427E+03 0.  0.
          5    1    3    3  502    0 -0.13730746835E+02 -0.57015189940E+02  0.76770471299E+01  0.59293125615E+02  0.41800000000E+01 0.  1.
         -5    1    3    3    0  502  0.41287112875E+02  0.53946657575E+02  0.28975043216E+02  0.73972245353E+02  0.41800000000E+01 0.  1.
        -11    1    1    2    0    0 -0.45102564854E+02  0.14400905345E+02  0.13154389065E+03  0.13980494483E+03  0.00000000000E+00 0. -1.
         11    1    1    2    0    0  0.17546198814E+02 -0.11332372980E+02 -0.19762445281E+01  0.20980879691E+02  0.00000000000E+00 0.  1.
</event>
<event>
 7    1  0.6671761E-006  0.1340588E+03  0.7561462E-02  0.1221554E+00
         -2   -1    0    0    0  501 -0.00000000000E+00  0.00000000000E+00  0.17093571521E+03  0.17093571521E+03  0.00000000000E+00 0. -1.
          2   -1    0    0  501    0  0.00000000000E+00 -0.00000000000E+00 -0.11341378539E+03  0.11341378539E+03  0.00000000000E+00 0.  1.
         23    2    1    2    0    0 -0.60899190291E+02 -0.56695931598E+02  0.58244045648E+02  0.16113034126E+03  0.12508987962E+03 0.  0.
          5    1    3    3  502    0 -0.42722926596E+02 -0.95803630449E+02  0.52648115247E+02  0.11744309474E+03  0.41800000000E+01 0. -1.
         -5    1    3    3    0  502 -0.18176263695E+02  0.39107698850E+02  0.55959304013E+01  0.43687246518E+02  0.41800000000E+01 0. -1.
        -11    1    1    2    0    0  0.56422489534E+02 -0.61926710443E+01  0.14027866523E+02  0.58469030598E+02  0.00000000000E+00 0.  1.
         11    1    1    2    0    0  0.44767007563E+01  0.62888602642E+02 -0.14749982348E+02  0.64750128735E+02  0.00000000000E+00 0. -1.
</event>
<event>
 7    1  0.6671761E-006  0.1197518E+03  0.7561462E-02  0.1243507E+00
         -4   -1    0    0    0  501 -0.00000000000E+00  0.00000000000E+00  0.29107137490E+03  0.29107137490E+03  0.00000000000E+00 0.  1.
          4   -1    0    0  501    0  0.00000000000E+00 -0.00000000000E+00 -0.69329013206E+02  0.69329013206E+02  0.00000000000E+00 0. -1.
         23    2    1    2    0    0 -0.74938936703E+02 -0.37837387265E+02  0.17770963694E+03  0.23297048171E+03  0.12508804171E+03 0.  0.
          5    1    3    3  502    0 -0.72395017548E+02 -0.62146412464E+02  0.18407070624E+03  0.20737095372E+03  0.41800000000E+01 0.  1.
         -5    1    3    3    0  502 -0.25439191553E+01  0.24309025199E+02 -0.63610693093E+01  0.25599527995E+02  0.41800000000E+01 0.  1.
        -11    1    1    2    0    0  0.90468575504E+02  0.15175728883E+02  0.29553960425E+02  0.96375839699E+02  0.00000000000E+00 0.  1.
         11    1    1    2    0    0 -0.15529638801E+02  0.22661658382E+02  0.14478764338E+02  0.31054066701E+02  0.00000000000E+00 0. -1.
</event>
<event>
 7    1  0.6671761E-006  0.1165666E+03  0.7561462E-02  0.1248871E+00
          3   -1    0    0  501    0  0.00000000000E+00  0.00000000000E+00  0.38541683296E+02  0.38541683296E+02  0.00000000000E+00 0. -1.
         -3   -1    0    0    0  501 -0.00000000000E+00 -0.00000000000E+00 -0.45324778108E+03  0.45324778108E+03  0.00000000000E+00 0.  1.
         23    2    1    2    0    0 -0.71535549480E+02 -0.16202456669E+00 -0.28820247424E+03  0.32222174030E+03  0.12509525440E+03 0.  0.
          5    1    3    3  502    0 -0.97605922503E+02 -0.18950187999E+02 -0.26290972480E+03  0.28111389423E+03  0.41800000000E+01 0.  1.
         -5    1    3    3    0  502  0.26070373023E+02  0.18788163432E+02 -0.25292749437E+02  0.41107846074E+02  0.41800000000E+01 0.  1.
        -11    1    1    2    0    0  0.22434706060E+02 -0.34468427114E+02 -0.16676000280E+02  0.44378795489E+02  0.00000000000E+00 0. -1.
         11    1    1    2    0    0  0.49100843420E+02  0.34630451681E+02 -0.10982762326E+03  0.12518892858E+03  0.00000000000E+00 0.  1.
</event>
<event>
 7    1  0.6671761E-006  0.1980286E+03  0.7561462E-02  0.1151413E+00
         -2   -1    0    0    0  501 -0.00000000000E+00  0.00000000000E+00  0.67240058897E+03  0.67240058897E+03  0.00000000000E+00 0.  1.
          2   -1    0    0  501    0  0.00000000000E+00 -0.00000000000E+00 -0.79113348388E+02  0.79113348388E+02  0.00000000000E+00 0. -1.
         23    2    1    2    0    0 -0.17664056032E+02 -0.19275387166E+03  0.40816596847E+03  0.46873585525E+03  0.12509104791E+03 0.  0.
          5    1    3    3  502    0  0.27149306608E+01 -0.15444638469E+03  0.39348257075E+03  0.42273758110E+03  0.41800000000E+01 0. -1.
         -5    1    3    3    0  502 -0.20378986693E+02 -0.38307486967E+02  0.14683397724E+02  0.45998274153E+02  0.41800000000E+01 0. -1.
        -11    1    1    2    0    0 -0.13665291339E+02  0.56431883518E+02  0.10907588561E+03  0.12356717398E+03  0.00000000000E+00 0. -1.
         11    1    1    2    0    0  0.31329347371E+02  0.13632198814E+03  0.76045386508E+02  0.15921090813E+03  0.00000000000E+00 0.  1.
</event>
<event>
 7    1  0.6671761E-006  0.1429964E+03  0.7561462E-02  0.1209353E+00
         -2   -1    0    0    0  501 -0.00000000000E+00  0.00000000000E+00  0.78417448548E+02  0.78417448548E+02  0.00000000000E+00 0.  1.
          2   -1    0    0  501    0  0.00000000000E+00 -0.00000000000E+00 -0.54957451843E+03  0.54957451843E+03  0.00000000000E+00 0. -1.
         23    2    1    2    0    0  0.11428101469E+02 -0.95103398525E+02 -0.21857412743E+02  0.15906385397E+03  0.12509318620E+03 0.  0.
          5    1    3    3  502    0 -0.56226175098E+02 -0.34058626967E+02 -0.15203892965E+02  0.67601801739E+02  0.41800000000E+01 0. -1.
         -5    1    3    3    0  502  0.67654276567E+02 -0.61044771558E+02 -0.66535197782E+01  0.91462052228E+02  0.41800000000E+01 0. -1.
        -11    1    1    2    0    0 -0.48671257114E+02  0.63841915442E+02 -0.33917952196E+03  0.34855046916E+03  0.00000000000E+00 0.  1.
         11    1    1    2    0    0  0.37243155644E+02  0.31261483083E+02 -0.11012013518E+03  0.12037764385E+03  0.00000000000E+00 0. -1.
</event>
<event>
 7    1  0.6671761E-006  0.1212864E+03  0.7561462E-02  0.1240990E+00
         -2   -1    0    0    0  501 -0.00000000000E+00  0.00000000000E+00  0.29526258443E+02  0.29526258443E+02  0.00000000000E+00 0.  1.
          2   -1    0    0  501    0  0.00000000000E+00 -0.00000000000E+00 -0.75114474963E+03  0.75114474963E+03  0.00000000000E+00 0. -1.
         23    2    1    2    0    0  0.50269026142E+02 -0.64353423933E+02 -0.23454261647E+03  0.27807576641E+03  0.12509018653E+03 0.  0.
          5    1    3    3  502    0  0.74010321142E+02 -0.38309455578E+02 -0.22692395183E+03  0.24177901963E+03  0.41800000000E+01 0. -1.
         -5    1    3    3    0  502 -0.23741295000E+02 -0.26043968355E+02 -0.76186646431E+01  0.36296746781E+02  0.41800000000E+01 0. -1.
        -11    1    1    2    0    0  0.26179626800E+02  0.30037840282E+02 -0.14132356694E+03  0.14683322267E+03  0.00000000000E+00 0. -1.
         11    1    1    2    0    0 -0.76448652943E+02  0.34315583651E+02 -0.34575230778E+03  0.35576201899E+03  0.00000000000E+00 0.  1.
</event>
<event>
 7    1  0.6671761E-006  0.1225194E+03  0.7561462E-02  0.1238998E+00
          2   -1    0    0  501    0  0.00000000000E+00  0.00000000000E+00  0.39946799735E+03  0.39946799735E+03  0.00000000000E+00 0. -1.
         -2   -1    0    0    0  501 -0.00000000000E+00 -0.00000000000E+00 -0.71900687471E+02  0.71900687471E+02  0.00000000000E+00 0.  1.
         23    2    1    2    0    0 -0.79990760927E+02  0.13954194784E+02  0.31974501022E+02  0.15252544189E+03  0.12509356627E+03 0.  0.
          5    1    3    3  502    0 -0.10593893885E+03  0.47968617854E+01  0.52051941503E+02  0.11820721493E+03  0.41800000000E+01 0. -1.
         -5    1    3    3    0  502  0.25948177922E+02  0.91573329986E+01 -0.20077440481E+02  0.34318226956E+02  0.41800000000E+01 0. -1.
        -11    1    1    2    0    0  0.62607587834E+02  0.25779130172E+02  0.23339809705E+03  0.24302046274E+03  0.00000000000E+00 0. -1.
         11    1    1    2    0    0  0.17383173093E+02 -0.39733324956E+02  0.62194711816E+02  0.75822780196E+02  0.00000000000E+00 0.  1.
</event>
<event>
 7    1  0.6671761E-006  0.1290800E+03  0.7561462E-02  0.1228827E+00
          1   -1    0    0  501    0  0.00000000000E+00  0.00000000000E+00  0.21701896088E+02  0.21701896088E+02  0.00000000000E+00 0. -1.
         -1   -1    0    0    0  501 -0.00000000000E+00 -0.00000000000E+00 -0.88264422209E+03  0.88264422209E+03  0.00000000000E+00 0.  1.
         23    2    1    2    0    0  0.67775286590E+01 -0.61415076884E+02 -0.57275937174E+03  0.58950695877E+03  0.12508960774E+03 0.  0.
          5    1    3    3  502    0  0.61546684505E+02 -0.25568077175E+02 -0.38183346973E+03  0.38762867793E+03  0.41800000000E+01 0.  1.
         -5    1    3    3    0  502 -0.54769155846E+02 -0.35846999709E+02 -0.19092590200E+03  0.20187828084E+03  0.41800000000E+01 0.  1.
        -11    1    1    2    0    0 -0.58150131032E+02  0.28296812243E+02 -0.16774046840E+03  0.17977489275E+03  0.00000000000E+00 0.  1.
         11    1    1    2    0    0  0.51372602373E+02  0.33118264641E+02 -0.12044248586E+03  0.13506426666E+03  0.00000000000E+00 0. -1.
</event>
<event>
 7    1  0.6671761E-006  0.1497615E+03  0.7561462E-02  0.1200766E+00
          2   -1    0    0  501    0  0.00000000000E+00  0.00000000000E+00  0.10260771021E+04  0.10260771021E+04  0.00000000000E+00 0.  1.
         -2   -1    0    0    0  501 -0.00000000000E+00 -0.00000000000E+00 -0.23960176769E+02  0.23960176769E+02  0.00000000000E+00 0. -1.
         23    2    1    2    0    0  0.68580773685E+02 -0.38456944222E+02  0.40478820824E+03  0.43090953260E+03  0.12508905901E+03 0.  0.
          5    1    3    3  502    0 -0.24038732928E+02  0.25135622551E+02  0.85074694111E+02  0.92004544344E+02  0.41800000000E+01 0.  1.
         -5    1    3    3    0  502  0.92619506613E+02 -0.63592566773E+02  0.31971351412E+03  0.33890498826E+03  0.41800000000E+01 0.  1.
        -11    1    1    2    0    0 -0.62363232960E+02  0.84824775678E+02  0.50220757215E+03  0.51312460565E+03  0.00000000000E+00 0.  1.
         11    1    1    2    0    0 -0.62175407245E+01 -0.46367831456E+02  0.95121144995E+02  0.10600314067E+03  0.00000000000E+00 0. -1.
</event>
<event>
 7    1  0.6671761E-006  0.1643152E+03  0.7561462E-02  0.1183909E+00
         -1   -1    0    0    0  501 -0.00000000000E+00  0.00000000000E+00  0.82505576843E+02  0.82505576843E+02  0.00000000000E+00 0.  1.
          1   -1    0    0  501    0  0.00000000000E+00 -0.00000000000E+00 -0.42143551548E+03  0.42143551548E+03  0.00000000000E+00 0. -1.
         23    2    1    2    0    0  0.14240890586E+03 -0.39267210239E+02 -0.13689700753E+03  0.23709019376E+03  0.12509500006E+03 0.  0.
          5    1    3    3  502    0  0.12937588984E+03 -0.80342428621E+01 -0.15198691292E+03  0.19980031038E+03  0.41800000000E+01 0.  1.
         -5    1    3    3    0  502  0.13033016018E+02 -0.31232967377E+02  0.15089905393E+02  0.37289883380E+02  0.41800000000E+01 0.  1.
        -11    1    1    2    0    0  0.32819099113E+01  0.17169617717E+02 -0.58833130390E+02  0.61375108446E+02  0.00000000000E+00 0. -1.
         11    1    1    2    0    0 -0.14569081577E+03  0.22097592522E+02 -0.14319980072E+03  0.20547579011E+03  0.00000000000E+00 0.  1.
</event>
<event>
 7    1  0.6671761E-006  0.1068471E+03  0.7561462E-02  0.1266523E+00
          3   -1    0    0  501    0  0.00000000000E+00  0.00000000000E+00  0.92083695682E+02  0.92083695682E+02  0.00000000000E+00 0. -1.
         -3   -1    0    0    0  501 -0.00000000000E+00 -0.00000000000E+00 -0.14340010508E+03  0.14340010508E+03  0.00000000000E+00 0.  1.
         23    2    1    2    0    0 -0.35489573672E+01 -0.10366477545E+02 -0.64714108363E+02  0.14126339350E+03  0.12508945426E+03 0.  0.
          5    1    3    3  502    0 -0.46957616063E+02  0.37824088202E+02 -0.27926126089E+02  0.66580930250E+02  0.41800000000E+01 0.  1.
         -5    1    3    3    0  502  0.43408658696E+02 -0.48190565747E+02 -0.36787982274E+02  0.74682463247E+02  0.41800000000E+01 0.  1.
        -11    1    1    2    0    0  0.39602989833E+02 -0.16897991137E+02 -0.86659549409E+01  0.43920811505E+02  0.00000000000E+00 0.  1.
         11    1    1    2    0    0 -0.36054032466E+02  0.27264468682E+02  0.22063653910E+02  0.50299595758E+02  0.00000000000E+00 0. -1.
</event>
<event>
 7    1  0.6671761E-006  0.9706247E+02  0.7561462E-02  0.1286597E+00
          3   -1    0    0  501    0  0.00000000000E+00  0.00000000000E+00  0.18441905153E+03  0.18441905153E+03  0.00000000000E+00 0. -1.
         -3   -1    0    0    0  501 -0.00000000000E+00 -0.00000000000E+00 -0.87720874405E+02  0.87720874405E+02  0.00000000000E+00 0.  1.
         23    2    1    2    0    0 -0.58522101131E+02  0.18539004259E+02  0.26724681378E+02  0.14188210809E+03  0.12509113878E+03 0.  0.
          5    1    3    3  502    0  0.21083972347E+02 -0.12772019439E+02  0.47567195830E+02  0.53737965068E+02  0.41800000000E+01 0.  1.
         -5    1    3    3    0  502 -0.79606073478E+02  0.31311023698E+02 -0.20842514452E+02  0.88144143018E+02  0.41800000000E+01 0.  1.
        -11    1    1    2    0    0  0.27204664289E+02 -0.37904428802E+02 -0.48070196863E+01  0.46903591762E+02  0.00000000000E+00 0.  1.
         11    1    1    2    0    0  0.31317436842E+02  0.19365424543E+02  0.74780515435E+02  0.83354226088E+02  0.00000000000E+00 0. -1.
</event>
<event>
 7    1  0.6671761E-006  0.1300304E+03  0.7561462E-02  0.1227411E+00
         -2   -1    0    0    0  501 -0.00000000000E+00  0.00000000000E+00  0.26569384178E+03  0.26569384178E+03  0.00000000000E+00 0. -1.
          2   -1    0    0  501    0  0.00000000000E+00 -0.00000000000E+00 -0.11990108049E+03  0.11990108049E+03  0.00000000000E+00 0.  1.
         23    2    1    2    0    0  0.21222227920E+02 -0.95014977818E+02  0.18724597666E+03  0.24533048601E+03  0.12509101736E+03 0.  0.
          5    1    3    3  502    0  0.69129892275E+02 -0.33264720295E+02  0.11811392812E+03  0.14090371194E+03  0.41800000000E+01 0.  1.
         -5    1    3    3    0  502 -0.47907664355E+02 -0.61750257523E+02  0.69132048544E+02  0.10442677408E+03  0.41800000000E+01 0.  1.
        -11    1    1    2    0    0  0.86028727649E+01  0.51466962215E+02 -0.64249389829E+02  0.82769811603E+02  0.00000000000E+00 0.  1.
         11    1    1    2    0    0 -0.29825100685E+02  0.43548015604E+02  0.22796174459E+02  0.57494624652E+02  0.00000000000E+00 0. -1.
</event>
<event>
 7    1  0.6671761E-006  0.8972139E+02  0.7561462E-02  0.1303528E+00
         -2   -1    0    0    0  501 -0.00000000000E+00  0.00000000000E+00  0.38563006456E+02  0.38563006456E+02  0.00000000000E+00 0.  1.
          2   -1    0    0  501    0  0.00000000000E+00 -0.00000000000E+00 -0.34651330519E+03  0.34651330519E+03  0.00000000000E+00 0. -1.
         23    2    1    2    0    0 -0.39443823670E+02 -0.12693958786E+02 -0.17493330145E+03  0.21901139561E+03  0.12508948651E+03 0.  0.
          5    1    3    3  502    0 -0.10050304239E+02 -0.52128666310E+02 -0.20806804444E+02  0.57173437694E+02  0.41800000000E+01 0. -1.
         -5    1    3    3    0  502 -0.29393519431E+02  0.39434707524E+02 -0.15412649701E+03  0.16183795792E+03  0.41800000000E+01 0. -1.
        -11    1    1    2    0    0  0.56266416815E+02  0.18185405253E+02 -0.13583309994E+03  0.14814604167E+03  0.00000000000E+00 0. -1.
         11    1    1    2    0    0 -0.16822593145E+02 -0.54914464668E+01  0.28161026519E+01  0.17918874366E+02  0.00000000000E+00 0.  1.
</event>
<event>
 7    1  0.6671761E-006  0.9516513E+02  0.7561462E-02  0.1290805E+00
         -1   -1    0    0    0  501 -0.00000000000E+00  0.00000000000E+00  0.95216492985E+02  0.95216492985E+02  0.00000000000E+00 0. -1.
          1   -1    0    0  501    0  0.00000000000E+00 -0.00000000000E+00 -0.13504281780E+03  0.13504281780E+03  0.00000000000E+00 0.  1.
         23    2    1    2    0    0  0.22490365706E+02 -0.18091163602E+02 -0.35095954096E+01  0.12842671250E+03  0.12509195207E+03 0.  0.
          5    1    3    3  502    0  0.28153863183E+02 -0.68336150239E+02  0.12818732412E+02  0.75128301872E+02  0.41800000000E+01 0. -1.
         -5    1    3    3    0  502 -0.56634974765E+01  0.50244986637E+02 -0.16328327822E+02  0.53298410626E+02  0.41800000000E+01 0. -1.
        -11    1    1    2    0    0 -0.39164563502E+02 -0.22943627138E+01  0.16697396272E+02  0.42637192412E+02  0.00000000000E+00 0. -1.
         11    1    1    2    0    0  0.16674197796E+02  0.20385526316E+02 -0.53014125676E+02  0.59195405874E+02  0.00000000000E+00 0.  1.
</event>
<event>
 7    1  0.6671761E-006  0.1577360E+03  0.7561462E-02  0.1191277E+00
          2   -1    0    0  501    0  0.00000000000E+00  0.00000000000E+00  0.22580201573E+03  0.22580201573E+03  0.00000000000E+00 0. -1.
         -2   -1    0    0    0  501 -0.00000000000E+00 -0.00000000000E+00 -0.14641022480E+03  0.14641022480E+03  0.00000000000E+00 0.  1.
         23    2    1    2    0    0 -0.14075458023E+03  0.35835442583E+02  0.34814056360E+02  0.19480511505E+03  0.12506391777E+03 0.  0.
          5    1    3    3  502    0 -0.12429291203E+03  0.55862923508E+02 -0.16335384572E+02  0.13730881761E+03  0.41800000000E+01 0. -1.
         -5    1    3    3    0  502 -0.16461668204E+02 -0.20027480924E+02  0.51149440932E+02  0.57496297445E+02  0.41800000000E+01 0. -1.
        -11    1    1    2    0    0  0.12795732815E+03 -0.15556233162E+02  0.66389230267E+02  0.14499173809E+03  0.00000000000E+00 0. -1.
         11    1    1    2    0    0  0.12797252079E+02 -0.20279209421E+02 -0.21811495698E+02  0.32415387397E+02  0.00000000000E+00 0.  1.
</event>
<event>
 7    1  0.6671761E-006  0.8490772E+02  0.7561462E-02  0.1315674E+00
          2   -1    0    0  501    0  0.00000000000E+00  0.00000000000E+00  0.36981600465E+02  0.36981600465E+02  0.00000000000E+00 0. -1.
         -2   -1    0    0    0  501 -0.00000000000E+00 -0.00000000000E+00 -0.41723144548E+03  0.41723144548E+03  0.00000000000E+00 0.  1.
         23    2    1    2    0    0 -0.13083274378E+02  0.45934046579E+02 -0.27697735192E+03  0.30764419154E+03  0.12508951357E+03 0.  0.
          5    1    3    3  502    0  0.31847052229E+02 -0.54785552551E+01 -0.13225635814E+02  0.35165880425E+02  0.41800000000E+01 0.  1.
         -5    1    3    3    0  502 -0.44930326607E+02  0.51412601834E+02 -0.26375171611E+03  0.27247831111E+03  0.41800000000E+01 0.  1.
        -11    1    1    2    0    0  0.26125970520E+02 -0.48906735724E+02 -0.11570612931E+03  0.12830566431E+03  0.00000000000E+00 0.  1.
         11    1    1    2    0    0 -0.13042696143E+02  0.29726891451E+01  0.12433636208E+02  0.18263190104E+02  0.00000000000E+00 0. -1.
</event>
<event>
 7    1  0.6671761E-006  0.1198203E+03  0.7561462E-02  0.1243394E+00
         -2   -1    0    0    0  501 -0.00000000000E+00  0.00000000000E+00  0.13409385658E+04  0.13409385658E+04  0.00000000000E+00 0.  1.
          2   -1    0    0  501    0  0.00000000000E+00 -0.00000000000E+00 -0.19004173289E+02  0.19004173289E+02  0.00000000000E+00 0. -1.
         23    2    1    2    0    0 -0.70298906272E+02 -0.51415139189E+02  0.10478813682E+04  0.10589085801E+04  0.12508623586E+03 0.  0.
          5    1    3    3  502    0 -0.80102154768E+02 -0.61326376967E+02  0.10335941389E+04  0.10385141290E+04  0.41800000000E+01 0.  1.
         -5    1    3    3    0  502  0.98032484960E+01  0.99112377776E+01  0.14287229316E+02  0.20394451130E+02  0.41800000000E+01 0.  1.
        -11    1    1    2    0    0 -0.17347702299E+02  0.28766149843E+02  0.85958489655E+02  0.92289198152E+02  0.00000000000E+00 0. -1.
         11    1    1    2    0    0  0.87646608571E+02  0.22648989346E+02  0.18809453467E+03  0.20874496086E+03  0.00000000000E+00 0.  1.
</event>
<event>
 7    1  0.6671761E-006  0.1080125E+03  0.7561462E-02  0.1264295E+00
         -1   -1    0    0    0  501 -0.00000000000E+00  0.00000000000E+00  0.96699046382E+03  0.96699046382E+03  0.00000000000E+00 0.  1.
          1   -1    0    0  501    0  0.00000000000E+00 -0.00000000000E+00 -0.19748647526E+02  0.19748647526E+02  0.00000000000E+00 0. -1.
         23    2    1    2    0    0  0.33187550549E+02  0.58478388775E+02  0.69147013334E+03  0.70590398235E+03  0.12509337121E+03 0.  0.
          5    1    3    3  502    0  0.60363161685E+02  0.12572408179E+02  0.56780485526E+03  0.57115812416E+03  0.41800000000E+01 0.  1.
         -5    1    3    3    0  502 -0.27175611135E+02  0.45905980596E+02  0.12366527808E+03  0.13474585818E+03  0.41800000000E+01 0.  1.
        -11    1    1    2    0    0 -0.12624803904E+02 -0.73925724672E+02  0.23809652680E+03  0.24962843291E+03  0.00000000000E+00 0. -1.
         11    1    1    2    0    0 -0.20562746646E+02  0.15447335897E+02  0.17675156147E+02  0.31206696089E+02  0.00000000000E+00 0.  1.
</event>
<event>
 6    1  0.6671761E-006  0.1182038E+03  0.7561462E-02  0.1246090E+00
         -2   -1    0    0    0  501 -0.00000000000E+00  0.00000000000E+00  0.18553335086E+03  0.18553335086E+03  0.00000000000E+00 0.  1.
          2   -1    0    0  501    0  0.00000000000E+00 -0.00000000000E+00 -0.18206050275E+03  0.18206050275E+03  0.00000000000E+00 0. -1.
          5    1    1    2  502    0 -0.80706747478E+02  0.33133591069E+02 -0.90480498153E+02  0.12576011646E+03  0.41800000000E+01 0. -1.
         -5    1    1    2    0  502  0.95523971885E+02 -0.21827390922E+02  0.10952037533E+03  0.14701513260E+03  0.41800000000E+01 0.  1.
        -11    1    1    2    0    0 -0.21730184462E+02  0.13268237904E+02 -0.47525488537E+02  0.53915852163E+02  0.00000000000E+00 0. -1.
         11    1    1    2    0    0  0.69129600553E+01 -0.24574438051E+02  0.31958459466E+02  0.40902752397E+02  0.00000000000E+00 0.  1.
</event>
<event>
 7    1  0.6671761E-006  0.2029985E+03  0.7561462E-02  0.1147234E+00
         -1   -1    0    0    0  501 -0.00000000000E+00  0.00000000000E+00  0.24957660251E+03  0.24957660251E+03  0.00000000000E+00 0.  1.
          1   -1    0    0  501    0  0.00000000000E+00 -0.00000000000E+00 -0.19173475397E+03  0.19173475397E+03  0.00000000000E+00 0. -1.
         23    2    1    2    0    0  0.29714867115E+02 -0.18365864121E+03  0.52933393180E+02  0.23035484327E+03  0.12509172589E+03 0.  0.
          5    1    3    3  502    0 -0.13665173936E+01 -0.15955178966E+03  0.83714268838E+02  0.18023371538E+03  0.41800000000E+01 0. -1.
         -5    1    3    3    0  502  0.31081384508E+02 -0.24106851552E+02 -0.30780875658E+02  0.50121127890E+02  0.41800000000E+01 0. -1.
        -11    1    1    2    0    0 -0.62012974295E+02  0.13305015124E+03 -0.15353614005E+02  0.14759297134E+03  0.00000000000E+00 0. -1.
         11    1    1    2    0    0  0.32298107180E+02  0.50608489973E+02  0.20262069367E+02  0.63363541882E+02  0.00000000000E+00 0.  1.
</event>
<event>
 7    1  0.6671761E-006  0.1028722E+03  0.7561462E-02  0.1274370E+00
          3   -1    0    0  501    0  0.00000000000E+00  0.00000000000E+00  0.28604908433E+02  0.28604908433E+02  0.00000000000E+00 0. -1.
         -3   -1    0    0    0  501 -0.00000000000E+00 -0.00000000000E+00 -0.44977304706E+03  0.44977304706E+03  0.00000000000E+00 0.  1.
         23    2    1    2    0    0 -0.29007631013E+01  0.30858506573E+02 -0.27312878090E+03  0.30255600769E+03  0.12641259817E+03 0.  0.
          5    1    3    3  502    0 -0.31083691767E+02 -0.39540112926E+02 -0.75282034809E+02  0.90633733174E+02  0.41800000000E+01 0. -1.
         -5    1    3    3    0  502  0.28182928665E+02  0.70398619499E+02 -0.19784674609E+03  0.21192227451E+03  0.41800000000E+01 0.  1.
        -11    1    1    2    0    0 -0.30103842070E+02 -0.34887989522E+02 -0.34639731745E+02  0.57648279555E+02  0.00000000000E+00 0. -1.
         11    1    1    2    0    0  0.33004605171E+02  0.40294829496E+01 -0.11339962598E+03  0.11817366825E+03  0.00000000000E+00 0.  1.
</event>
<event>
 7    1  0.6671761E-006  0.1635187E+03  0.7561462E-02  0.1184781E+00
          1   -1    0    0  501    0  0.00000000000E+00  0.00000000000E+00  0.83097393407E+03  0.83097393407E+03  0.00000000000E+00 0. -1.
         -1   -1    0    0    0  501 -0.00000000000E+00 -0.00000000000E+00 -0.47774529989E+02  0.47774529989E+02  0.00000000000E+00 0.  1.
         23    2    1    2    0    0  0.11608264675E+03  0.62278155476E+02  0.18430061344E+03  0.25878147280E+03  0.12508950805E+03 0.  0.
          5    1    3    3  502    0  0.28279319391E+02 -0.28560227496E+02  0.69640399390E+01  0.41004594280E+02  0.41800000000E+01 0. -1.
         -5    1    3    3    0  502  0.87803327359E+02  0.90838382972E+02  0.17733657350E+03  0.21777687852E+03  0.41800000000E+01 0. -1.
        -11    1    1    2    0    0 -0.63142306331E+01 -0.49284681442E+02  0.19086585692E+03  0.19722734260E+03  0.00000000000E+00 0.  1.
         11    1    1    2    0    0 -0.10976841612E+03 -0.12993474034E+02  0.40803293373E+03  0.42273964866E+03  0.00000000000E+00 0. -1.
</event>
<event>
 7    1  0.6671761E-006  0.9270696E+02  0.7561462E-02  0.1296426E+00
          1   -1    0    0  501    0  0.00000000000E+00  0.00000000000E+00  0.71268023602E+02  0.71268023602E+02  0.00000000000E+00 0. -1.
         -1   -1    0    0    0  501 -0.00000000000E+00 -0.00000000000E+00 -0.44495340039E+03  0.44495340039E+03  0.00000000000E+00 0.  1.
         23    2    1    2    0    0 -0.24533550798E+02  0.74325669831E+02 -0.36784694886E+03  0.39634009813E+03  0.12509154763E+03 0.  0.
          5    1    3    3  502    0 -0.32120505993E+02  0.44354758537E+01 -0.14020547253E+02  0.35573142911E+02  0.41800000000E+01 0.  1.
         -5    1    3    3    0  502  0.75869551958E+01  0.69890193977E+02 -0.35382640161E+03  0.36076695522E+03  0.41800000000E+01 0.  1.
        -11    1    1    2    0    0  0.21491554279E+02 -0.25387732181E+02  0.40505723175E+02  0.52413142060E+02  0.00000000000E+00 0. -1.
         11    1    1    2    0    0  0.30419965183E+01 -0.48937937649E+02 -0.46344151099E+02  0.67468183800E+02  0.00000000000E+00 0.  1.
</event>
<event>
 7    1  0.6671761E-006  0.1047139E+03  0.7561462E-02  0.1270684E+00
          1   -1    0    0  501    0  0.00000000000E+00  0.00000000000E+00  0.78341530286E+03  0.78341530286E+03  0.00000000000E+00 0. -1.
         -1   -1    0    0    0  501 -0.00000000000E+00 -0.00000000000E+00 -0.16111683250E+02  0.16111683250E+02  0.00000000000E+00 0.  1.
         23    2    1    2    0    0 -0.23158564770E+02 -0.36944768344E+00  0.36710991104E+03  0.38852775091E+03  0.12509065045E+03 0.  0.
          5    1    3    3  502    0  0.44143212881E+02 -0.15178847934E+02  0.23326264957E+03  0.23792426684E+03  0.41800000000E+01 0. -1.
         -5    1    3    3    0  502 -0.67301777650E+02  0.14809400251E+02  0.13384726147E+03  0.15060348407E+03  0.41800000000E+01 0. -1.
        -11    1    1    2    0    0  0.38260132196E+02 -0.36995452776E+02  0.21822822010E+03  0.22462425801E+03  0.00000000000E+00 0. -1.
         11    1    1    2    0    0 -0.15101567427E+02  0.37364900460E+02  0.18196548847E+03  0.18637497718E+03  0.00000000000E+00 0.  1.
</event>
<event>
 7    1  0.6671761E-006  0.1133045E+03  0.7561462E-02  0.1254570E+00
         -2   -1    0    0    0  501 -0.00000000000E+00  0.00000000000E+00  0.63702010420E+02  0.63702010420E+02  0.00000000000E+00 0. -1.
          2   -1    0    0  501    0  0.00000000000E+00 -0.00000000000E+00 -0.27521358686E+03  0.27521358686E+03  0.00000000000E+00 0.  1.
         23    2    1    2    0    0 -0.28653570678E+02  0.34393737186E+02 -0.43465515730E+02  0.13978909659E+03  0.12509110359E+03 0.  0.
          5    1    3    3  502    0  0.40915614892E+02 -0.26518729790E+01 -0.44767213560E+02  0.60849780462E+02  0.41800000000E+01 0. -1.
         -5    1    3    3    0  502 -0.69569185570E+02  0.37045610165E+02  0.13016978297E+01  0.78939316127E+02  0.41800000000E+01 0. -1.
        -11    1    1    2    0    0 -0.18007789935E+02 -0.53194393703E+02 -0.96766948222E+02  0.11188282392E+03  0.00000000000E+00 0. -1.
         11    1    1    2    0    0  0.46661360613E+02  0.18800656518E+02 -0.71279112490E+02  0.87243676775E+02  0.00000000000E+00 0.  1.
</event>
<event>
 7    1  0.6671761E-006  0.6344873E+02  0.7561462E-02  0.1383904E+00
          3   -1    0    0  501    0  0.00000000000E+00  0.00000000000E+00  0.40548725404E+02  0.40548725404E+02  0.00000000000E+00 0. -1.
         -3   -1    0    0    0  501 -0.00000000000E+00 -0.00000000000E+00 -0.30444538621E+03  0.30444538621E+03  0.00000000000E+00 0.  1.
         23    2    1    2    0    0 -0.22274407893E+01  0.19667083031E+02 -0.17193151566E+03  0.21354490805E+03  0.12509686660E+03 0.  0.
          5    1    3    3  502    0  0.23463787670E+02  0.29230904936E+02 -0.18059608802E+03  0.18449231568E+03  0.41800000000E+01 0.  1.
         -5    1    3    3    0  502 -0.25691228460E+02 -0.95638219048E+01  0.86645723696E+01  0.29052592372E+02  0.41800000000E+01 0.  1.
        -11    1    1    2    0    0  0.29957184057E+02 -0.60639477176E+01 -0.95583424504E+02  0.10035135962E+03  0.00000000000E+00 0.  1.
         11    1    1    2    0    0 -0.27729743268E+02 -0.13603135313E+02  0.36182793539E+01  0.31097843937E+02  0.00000000000E+00 0. -1.
</event>
<event>
 7    1  0.6671761E-006  0.1982539E+03  0.7561462E-02  0.1151221E+00
         -2   -1    0    0    0  501 -0.00000000000E+00  0.00000000000E+00  0.10260121345E+03  0.10260121345E+03  0.00000000000E+00 0. -1.
          2   -1    0    0  501    0  0.00000000000E+00 -0.00000000000E+00 -0.82862449898E+03  0.82862449898E+03  0.00000000000E+00 0.  1.
         23    2    1    2    0    0  0.48885514011E+02  0.17219782372E+03 -0.46844074747E+02  0.22334738160E+03  0.12509117296E+03 0.  0.
          5    1    3    3  502    0  0.49344035962E+02  0.98854625549E+01 -0.33144730670E+02  0.60403657390E+02  0.41800000000E+01 0. -1.
         -5    1    3    3    0  502 -0.45852195085E+00  0.16231236117E+03 -0.13699344077E+02  0.16294372421E+03  0.41800000000E+01 0. -1.
        -11    1    1    2    0    0 -0.48813455210E+02 -0.98369854829E+02 -0.53205189772E+03  0.54326660454E+03  0.00000000000E+00 0.  1.
         11    1    1    2    0    0 -0.72058800653E-01 -0.73827968892E+02 -0.14712731306E+03  0.16461172629E+03  0.00000000000E+00 0. -1.
</event>
<event>
 7    1  0.6671761E-006  0.1180893E+03  0.7561462E-02  0.1246283E+00
          1   -1    0    0  501    0  0.00000000000E+00  0.00000000000E+00  0.88518247054E+03  0.88518247054E+03  0.00000000000E+00 0. -1.
         -1   -1    0    0    0  501 -0.00000000000E+00 -0.00000000000E+00 -0.16796122416E+02  0.16796122416E+02  0.00000000000E+00 0.  1.
         23    2    1    2    0    0  0.50133963012E+02 -0.57444687466E+00  0.40314710941E+03  0.42507611913E+03  0.12509344904E+03 0.  0.
          5    1    3    3  502    0  0.75931110330E+02  0.39132782751E+02  0.22531903893E+03  0.24100425288E+03  0.41800000000E+01 0.  1.
         -5    1    3    3    0  502 -0.25797147318E+02 -0.39707229626E+02  0.17782807048E+03  0.18407186625E+03  0.41800000000E+01 0.  1.
        -11    1    1    2    0    0 -0.71815495417E+02  0.19416744967E+02  0.37088690397E+03  0.37827446505E+03  0.00000000000E+00 0. -1.
         11    1    1    2    0    0  0.21681532405E+02 -0.18842298092E+02  0.94352334737E+02  0.98628008776E+02  0.00000000000E+00 0.  1.
</event>
<event>
 7    1  0.6671761E-006  0.7000195E+02  0.7561462E-02  0.1360086E+00
         -2   -1    0    0    0  501 -0.00000000000E+00  0.00000000000E+00  0.30678849771E+02  0.30678849771E+02  0.00000000000E+00 0.  1.
          2   -1    0    0  501    0  0.00000000000E+00 -0.00000000000E+00 -0.49872123959E+03  0.49872123959E+03  0.00000000000E+00 0. -1.
         23    2    1    2    0    0 -0.22375422589E+02 -0.29937002979E+02 -0.16745026213E+03  0.21232924712E+03  0.12508890923E+03 0.  0.
          5    1    3    3  502    0 -0.69201476374E+01 -0.48957773322E+01 -0.17986892642E+03  0.18011707351E+03  0.41800000000E+01 0.  1.
         -5    1    3    3    0  502 -0.15455274951E+02 -0.25041225647E+02  0.12418664291E+02  0.32212173607E+02  0.41800000000E+01 0.  1.
        -11    1    1    2    0    0  0.45878174374E+02 -0.16523928847E+02 -0.14004612873E+03  0.14829283625E+03  0.00000000000E+00 0.  1.
         11    1    1    2    0    0 -0.23502751785E+02  0.46460931826E+02 -0.16054599895E+03  0.16877800599E+03  0.00000000000E+00 0. -1.
</event>
<event>
 7    1  0.6671761E-006  0.7740166E+02  0.7561462E-02  0.1336591E+00
          2   -1    0    0  501    0  0.00000000000E+00  0.00000000000E+00  0.24852858623E+03  0.24852858623E+03  0.00000000000E+00 0. -1.
         -2   -1    0    0    0  501 -0.00000000000E+00 -0.00000000000E+00 -0.62759283066E+02  0.62759283066E+02  0.00000000000E+00 0.  1.
         23    2    1    2    0    0  0.46758158760E+01  0.55733418150E+02  0.70584084372E+02  0.15413619371E+03  0.12509107120E+03 0.  0.
          5    1    3    3  502    0 -0.28313902839E+02  0.48274239745E+02  0.96288418543E+02  0.11144959068E+03  0.41800000000E+01 0.  1.
         -5    1    3    3    0  502  0.32989718715E+02  0.74591784045E+01 -0.25704334171E+02  0.42686603033E+02  0.41800000000E+01 0.  1.
        -11    1    1    2    0    0  0.10858443803E+02 -0.43485540339E+02  0.12660885327E+03  0.13430822665E+03  0.00000000000E+00 0. -1.
         11    1    1    2    0    0 -0.15534259679E+02 -0.12247877810E+02 -0.11423634475E+02  0.22843448935E+02  0.00000000000E+00 0.  1.
</event>
<event>
 7    1  0.6671761E-006  0.1145232E+03  0.7561462E-02  0.1252416E+00
          2   -1    0    0  501    0  0.00000000000E+00  0.00000000000E+00  0.20308612951E+03  0.20308612951E+03  0.00000000000E+00 0. -1.
         -2   -1    0    0    0  501 -0.00000000000E+00 -0.00000000000E+00 -0.82788801661E+02  0.82788801661E+02  0.00000000000E+00 0.  1.
         23    2    1    2    0    0 -0.34461180012E+02  0.60298164606E+02  0.83466913974E+02  0.16564236549E+03  0.12508887214E+03 0.  0.
          5    1    3    3  502    0  0.19500936885E+02 -0.13536323362E+02 -0.17171330837E+02  0.29594688582E+02  0.41800000000E+01 0.  1.
         -5    1    3    3    0  502 -0.53962116897E+02  0.73834487967E+02  0.10063824481E+03  0.13604767691E+03  0.41800000000E+01 0.  1.
        -11    1    1    2    0    0 -0.14703924881E+02 -0.62474967220E+02  0.28883879368E+02  0.70381854361E+02  0.00000000000E+00 0. -1.
         11    1    1    2    0    0  0.49165104893E+02  0.21768026140E+01  0.79465345105E+01  0.49850711323E+02  0.00000000000E+00 0.  1.
</event>
<event>
 7    1  0.6671761E-006  0.1307142E+03  0.7561462E-02  0.1226400E+00
         -1   -1    0    0    0  501 -0.00000000000E+00  0.00000000000E+00  0.10360784641E+03  0.10360784641E+03  0.00000000000E+00 0.  1.
          1   -1    0    0  501    0  0.00000000000E+00 -0.00000000000E+00 -0.20265118376E+03  0.20265118376E+03  0.00000000000E+00 0. -1.
         23    2    1    2    0    0 -0.93903988902E+01  0.83149039279E+02 -0.50623347862E+01  0.15057975261E+03  0.12508673926E+03 0.  0.
          5    1    3    3  502    0  0.49094933073E+02  0.71666170480E+02  0.13505808397E+02  0.88012679229E+02  0.41800000000E+01 0.  1.
         -5    1    3    3    0  502 -0.58485331963E+02  0.11482868799E+02 -0.18568143183E+02  0.62567073385E+02  0.41800000000E+01 0.  1.
        -11    1    1    2    0    0  0.43058205562E+02 -0.60000718910E+02 -0.87185304815E+02  0.11426010989E+03  0.00000000000E+00 0.  1.
         11    1    1    2    0    0 -0.33667806671E+02 -0.23148320369E+02 -0.67956977503E+01  0.41419167663E+02  0.00000000000E+00 0. -1.
</event>
<event>
 7    1  0.6671761E-006  0.7846977E+02  0.7561462E-02  0.1333451E+00
          1   -1    0    0  501    0  0.00000000000E+00  0.00000000000E+00  0.64717011012E+02  0.64717011012E+02  0.00000000000E+00 0. -1.
         -1   -1    0    0    0  501 -0.00000000000E+00 -0.00000000000E+00 -0.21985367683E+03  0.21985367683E+03  0.00000000000E+00 0.  1.
         23    2    1    2    0    0  0.31939545195E+02  0.15291564809E+02 -0.13057591370E+03  0.18425381124E+03  0.12508169817E+03 0.  0.
          5    1    3    3  502    0 -0.13680599209E+02 -0.34574174184E+01 -0.13384017241E+03  0.13464685915E+03  0.41800000000E+01 0.  1.
         -5    1    3    3    0  502  0.45620144404E+02  0.18748982227E+02  0.32642587115E+01  0.49606952083E+02  0.41800000000E+01 0.  1.
        -11    1    1    2    0    0 -0.61691780267E+02 -0.96841415773E+01 -0.30446433576E+02  0.69474050321E+02  0.00000000000E+00 0.  1.
         11    1    1    2    0    0  0.29752235071E+02 -0.56074232313E+01  0.58856814537E+01  0.30842826284E+02  0.00000000000E+00 0. -1.
</event>
<event>
 7    1  0.6671761E-006  0.1567029E+03  0.7561462E-02  0.1192470E+00
         -1   -1    0    0    0  501 -0.00000000000E+00  0.00000000000E+00  0.29512478983E+03  0.29512478983E+03  0.00000000000E+00 0.  1.
          1   -1    0    0  501    0  0.00000000000E+00 -0.00000000000E+00 -0.55311771583E+03  0.55311771583E+03  0.00000000000E+00 0. -1.
         23    2    1    2    0    0  0.44076010743E+02 -0.12876036487E+03  0.25100008615E+03  0.31290436631E+03  0.12800848769E+03 0.  0.
          5    1    3    3  502    0  0.48417169402E+02 -0.16019385991E+02  0.18445962880E+02  0.54392728990E+02  0.41800000000E+01 0. -1.
         -5    1    3    3    0  502 -0.43411586593E+01 -0.11274097888E+03  0.23255412327E+03  0.25851163732E+03  0.41800000000E+01 0.  1.
        -11    1    1    2    0    0 -0.25940377282E+02  0.78938461849E+01 -0.27671898553E+02  0.38742095331E+02  0.00000000000E+00 0.  1.
         11    1    1    2    0    0 -0.18135633461E+02  0.12086651869E+03 -0.48132111360E+03  0.49659604402E+03  0.00000000000E+00 0. -1.
</event>
<event>
 7    1  0.6671761E-006  0.1560302E+03  0.7561462E-02  0.1193253E+00
         -3   -1    0    0    0  501 -0.00000000000E+00  0.00000000000E+00  0.82270816000E+02  0.82270816000E+02  0.00000000000E+00 0.  1.
          3   -1    0    0  501    0  0.00000000000E+00 -0.00000000000E+00 -0.41261832014E+03  0.41261832014E+03  0.00000000000E+00 0. -1.
         23    2    1    2    0    0 -0.12480111301E+02 -0.14698930416E+03 -0.18823643515E+03  0.26989231629E+03  0.12508916084E+03 0.  0.
          5    1    3    3  502    0 -0.36419654986E+02 -0.85261395310E+02 -0.18068230237E+03  0.20312425652E+03  0.41800000000E+01 0. -1.
         -5    1    3    3    0  502  0.23939543685E+02 -0.61727908851E+02 -0.75541327787E+01  0.66768059767E+02  0.41800000000E+01 0. -1.
        -11    1    1    2    0    0  0.26211437912E+02  0.11743037373E+03 -0.55591474562E+02  0.13254185828E+03  0.00000000000E+00 0.  1.
         11    1    1    2    0    0 -0.13731326611E+02  0.29558930431E+02 -0.86519594436E+02  0.92454961576E+02  0.00000000000E+00 0. -1.
</event>
<event>
 7    1  0.6671761E-006  0.1083292E+03  0.7561462E-02  0.1263696E+00
         -2   -1    0    0    0  501 -0.00000000000E+00  0.00000000000E+00  0.42100121551E+02  0.42100121551E+02  0.00000000000E+00 0.  1.
          2   -1    0    0  501    0  0.00000000000E+00 -0.00000000000E+00 -0.43083086493E+03  0.43083086493E+03  0.00000000000E+00 0. -1.
         23    2    1    2    0    0  0.33471460993E+02 -0.39713373869E+02 -0.10788056905E+03  0.17315897852E+03  0.12509326080E+03 0.  0.
          5    1    3    3  502    0 -0.34814978947E+02 -0.22108841671E+02  0.31366331155E+01  0.41571558864E+02  0.41800000000E+01 0. -1.
         -5    1    3    3    0  502  0.68286439940E+02 -0.17604532198E+02 -0.11101720217E+03  0.13158741965E+03  0.41800000000E+01 0. -1.
        -11    1    1    2    0    0 -0.51054366584E+02 -0.98294534919E+01 -0.12922820838E+03  0.13929499756E+03  0.00000000000E+00 0.  1.
         11    1    1    2    0    0  0.17582905591E+02  0.49542827361E+02 -0.15162196595E+03  0.16047701041E+03  0.00000000000E+00 0. -1.
</event>
<event>
 7    1  0.6671761E-006  0.1749195E+03  0.7561462E-02  0.1172813E+00
         -1   -1    0    0    0  501 -0.00000000000E+00  0.00000000000E+00  0.10365070048E+03  0.10365070048E+03  0.00000000000E+00 0.  1.
          1   -1    0    0  501    0  0.00000000000E+00 -0.00000000000E+00 -0.36856740947E+03  0.36856740947E+03  0.00000000000E+00 0. -1.
         23    2    1    2    0    0 -0.60105055400E+02 -0.14744459271E+03 -0.10560603934E+03  0.22836859540E+03  0.12508818575E+03 0.  0.
          5    1    3    3  502    0 -0.65056600349E+02 -0.14988013427E+03 -0.12629421715E+03  0.20655294136E+03  0.41800000000E+01 0.  1.
         -5    1    3    3    0  502  0.49515449486E+01  0.24355415607E+01  0.20688177809E+02  0.21815654038E+02  0.41800000000E+01 0.  1.
        -11    1    1    2    0    0  0.82679948959E+01  0.12099561437E+03 -0.79258695980E+02  0.14488008602E+03  0.00000000000E+00 0. -1.
         11    1    1    2    0    0  0.51837060504E+02  0.26448978346E+02 -0.80051973675E+02  0.98969428545E+02  0.00000000000E+00 0.  1.
</event>
<event>
 7    1  0.6671761E-006  0.1061095E+03  0.7561462E-02  0.1267949E+00
         -2   -1    0    0    0  501 -0.00000000000E+00  0.00000000000E+00  0.36863385496E+03  0.36863385496E+03  0.00000000000E+00 0. -1.
          2   -1    0    0  501    0  0.00000000000E+00 -0.00000000000E+00 -0.43992671082E+02  0.43992671082E+02  0.00000000000E+00 0.  1.
         23    2    1    2    0    0 -0.47912230959E+02 -0.85205325043E+01  0.25454837911E+03  0.28776747217E+03  0.12508820641E+03 0.  0.
          5    1    3    3  502    0  0.28433953093E+02 -0.18827251616E+02  0.17656885113E+02  0.38628915126E+02  0.41800000000E+01 0. -1.
         -5    1    3    3    0  502 -0.76346184052E+02  0.10306719112E+02  0.23689149399E+03  0.24913855704E+03  0.41800000000E+01 0. -1.
        -11    1    1    2    0    0 -0.11636455894E+02  0.34002011861E+02  0.12102996963E+02  0.37921319226E+02  0.00000000000E+00 0.  1.
         11    1    1    2    0    0  0.59548686853E+02 -0.25481479356E+02  0.57989807805E+02  0.86937734646E+02  0.00000000000E+00 0. -1.
</event>
<event>
 7    1  0.6671761E-006  0.2197857E+03  0.7561462E-02  0.1134043E+00
         -1   -1    0    0    0  501 -0.00000000000E+00  0.00000000000E+00  0.10177937858E+03  0.10177937858E+03  0.00000000000E+00 0.  1.
          1   -1    0    0  501    0  0.00000000000E+00 -0.00000000000E+00 -0.49618891430E+03  0.49618891430E+03  0.00000000000E+00 0. -1.
         23    2    1    2    0    0  0.12398156150E+03 -0.14881434760E+03 -0.15577062521E+03  0.27825975681E+03  0.12508743717E+03 0.  0.
          5    1    3    3  502    0  0.35894068722E+02 -0.13261472352E+03 -0.11727941605E+03  0.18068476110E+03  0.41800000000E+01 0. -1.
         -5    1    3    3    0  502  0.88087492782E+02 -0.16199624077E+02 -0.38491209151E+02  0.97574995705E+02  0.41800000000E+01 0. -1.
        -11    1    1    2    0    0 -0.56359797406E+02  0.88967720631E+01 -0.56760353783E+02  0.80481781034E+02  0.00000000000E+00 0.  1.
         11    1    1    2    0    0 -0.67621764099E+02  0.13991757554E+03 -0.18187855673E+03  0.23922675503E+03  0.00000000000E+00 0. -1.
</event>
<event>
 7    1  0.6671761E-006  0.1108329E+03  0.7561462E-02  0.1259035E+00
         -2   -1    0    0    0  501 -0.00000000000E+00  0.00000000000E+00  0.21727946788E+03  0.21727946788E+03  0.00000000000E+00 0.  1.
          2   -1    0    0  501    0  0.00000000000E+00 -0.00000000000E+00 -0.96647195137E+02  0.96647195137E+02  0.00000000000E+00 0. -1.
         23    2    1    2    0    0  0.43143600979E+02 -0.42748608792E+02  0.14687601181E+03  0.20225964398E+03  0.12509031488E+03 0.  0.
          5    1    3    3  502    0  0.50003257545E+02  0.33905994227E+02  0.79128061204E+02  0.99642685028E+02  0.41800000000E+01 0. -1.
         -5    1    3    3    0  502 -0.68596565656E+01 -0.76654603018E+02  0.67747950608E+02  0.10261695895E+03  0.41800000000E+01 0. -1.
        -11    1    1    2    0    0  0.14479077692E+02  0.11440748075E+02  0.23123031551E+02  0.29583931372E+02  0.00000000000E+00 0.  1.
         11    1    1    2    0    0 -0.57622678671E+02  0.31307860717E+02 -0.49366770621E+02  0.82083087670E+02  0.00000000000E+00 0. -1.
</event>
<event>
 7    1  0.6671761E-006  0.9533095E+02  0.7561462E-02  0.1290432E+00
          2   -1    0    0  501    0  0.00000000000E+00  0.00000000000E+00  0.34656547844E+02  0.34656547844E+02  0.00000000000E+00 0.  1.
         -2   -1    0    0    0  501 -0.00000000000E+00 -0.00000000000E+00 -0.47703125154E+03  0.47703125154E+03  0.00000000000E+00 0. -1.
         23    2    1    2    0    0 -0.15038780655E+02  0.63555276126E+01 -0.38294872160E+03  0.40319072013E+03  0.12508587356E+03 0.  0.
          5    1    3    3  502    0  0.33843216167E+02  0.30131190780E+02 -0.58101358149E+02  0.73800353367E+02  0.41800000000E+01 0. -1.
         -5    1    3    3    0  502 -0.48881996822E+02 -0.23775663167E+02 -0.32484736346E+03  0.32939036676E+03  0.41800000000E+01 0. -1.
        -11    1    1    2    0    0  0.52555815306E+01  0.41480735803E+02 -0.24454415676E+02  0.48438528323E+02  0.00000000000E+00 0.  1.
         11    1    1    2    0    0  0.97831991247E+01 -0.47836263416E+02 -0.34971566420E+02  0.60058550936E+02  0.00000000000E+00 0. -1.
</event>
<event>
 7    1  0.6671761E-006  0.9234226E+02  0.7561462E-02  0.1297277E+00
          1   -1    0    0  501    0  0.00000000000E+00  0.00000000000E+00  0.78849805567E+02  0.78849805567E+02  0.00000000000E+00 0. -1.
         -1   -1    0    0    0  501 -0.00000000000E+00 -0.00000000000E+00 -0.19950645987E+03  0.19950645987E+03  0.00000000000E+00 0.  1.
         23    2    1    2    0    0  0.26694084529E+02  0.56519777159E+02 -0.72824132723E+02  0.15766348218E+03  0.12508940782E+03 0.  0.
          5    1    3    3  502    0 -0.20771287916E+02 -0.20020387224E+02  0.14138870867E+02  0.32398184760E+02  0.41800000000E+01 0.  1.
         -5    1    3    3    0  502  0.47465372445E+02  0.76540164383E+02 -0.86963003590E+02  0.12526529742E+03  0.41800000000E+01 0.  1.
        -11    1    1    2    0    0 -0.18571318370E+02 -0.17498309591E+02 -0.70405521731E+02  0.74886729097E+02  0.00000000000E+00 0.  1.
         11    1    1    2    0    0 -0.81227661590E+01 -0.39021467568E+02  0.22573000154E+02  0.45806054154E+02  0.00000000000E+00 0. -1.
</event>
<event>
 7    1  0.6671761E-006  0.1170327E+03  0.7561462E-02  0.1248074E+00
         -2   -1    0    0    0  501 -0.00000000000E+00  0.00000000000E+00  0.55104398477E+02  0.55104398477E+02  0.00000000000E+00 0.  1.
          2   -1    0    0  501    0  0.00000000000E+00 -0.00000000000E+00 -0.26375467772E+03  0.26375467772E+03  0.00000000000E+00 0. -1.
         23    2    1    2    0    0 -0.41302609376E+02  0.29456813850E+02 -0.11829121597E+03  0.17948167709E+03  0.12508897318E+03 0.  0.
          5    1    3    3  502    0  0.41840327509E+02  0.97286772400E+01 -0.15764510064E+02  0.45948366070E+02  0.41800000000E+01 0. -1.
         -5    1    3    3    0  502 -0.83142936885E+02  0.19728136610E+02 -0.10252670591E+03  0.13353331102E+03  0.41800000000E+01 0. -1.
        -11    1    1    2    0    0  0.42389092369E+02 -0.60729838994E+02 -0.55602402024E+02  0.92609802974E+02  0.00000000000E+00 0.  1.
         11    1    1    2    0    0 -0.10864829938E+01  0.31273025144E+02 -0.34756661249E+02  0.46767596134E+02  0.00000000000E+00 0. -1.
</event>
<event>
 7    1  0.6671761E-006  0.2362272E+03  0.7561462E-02  0.1122332E+00
         -2   -1    0    0    0  501 -0.00000000000E+00  0.00000000000E+00  0.21834911489E+03  0.21834911489E+03  0.00000000000E+00 0.  1.
          2   -1    0    0  501    0  0.00000000000E+00 -0.00000000000E+00 -0.25819226203E+03  0.25819226203E+03  0.00000000000E+00 0. -1.
         23    2    1    2    0    0  0.84065800134E+02 -0.19384582381E+03 -0.12575155673E+02  0.24586221097E+03  0.12508728985E+03 0.  0.
          5    1    3    3  502    0  0.32267545080E+02  0.10477334522E+02  0.38323509943E+01  0.34396632369E+02  0.41800000000E+01 0.  1.
         -5    1    3    3    0  502  0.51798255054E+02 -0.20432315834E+03 -0.16407506667E+02  0.21146557860E+03  0.41800000000E+01 0.  1.
        -11    1    1    2    0    0  0.12312369757E+02  0.67081351958E+02  0.43041511984E+01  0.68337602732E+02  0.00000000000E+00 0.  1.
         11    1    1    2    0    0 -0.96378169891E+02  0.12676447185E+03 -0.31572142669E+02  0.16234156322E+03  0.00000000000E+00 0. -1.
</event>
<event>
 7    1  0.6671761E-006  0.7970599E+02  0.7561462E-02  0.1329888E+00
          1   -1    0    0  501    0  0.00000000000E+00  0.00000000000E+00  0.11691941547E+03  0.11691941547E+03  0.00000000000E+00 0. -1.
         -1   -1    0    0    0  501 -0.00000000000E+00 -0.00000000000E+00 -0.13540620673E+03  0.13540620673E+03  0.00000000000E+00 0.  1.
         23    2    1    2    0    0 -0.50189689470E+02  0.20635798519E+02 -0.40949982744E+02  0.14236727768E+03  0.12508676812E+03 0.  0.
          5    1    3    3  502    0 -0.52483045211E+02  0.11333224633E+02  0.35955398853E+02  0.64754730498E+02  0.41800000000E+01 0. -1.
         -5    1    3    3    0  502  0.22933557416E+01  0.93025738869E+01 -0.76905381597E+02  0.77612547182E+02  0.41800000000E+01 0. -1.
        -11    1    1    2    0    0  0.95555086411E+01 -0.46146268662E+02  0.36902111742E+02  0.59854420955E+02  0.00000000000E+00 0. -1.
         11    1    1    2    0    0  0.40634180829E+02  0.25510470142E+02 -0.14438920263E+02  0.50103923567E+02  0.00000000000E+00 0.  1.
</event>
<event>
 7    1  0.6671761E-006  0.1041331E+03  0.7561462E-02  0.1271837E+00
          2   -1    0    0  501    0  0.00000000000E+00  0.00000000000E+00  0.13063594108E+03  0.13063594108E+03  0.00000000000E+00 0. -1.
         -2   -1    0    0    0  501 -0.00000000000E+00 -0.00000000000E+00 -0.14155695456E+03  0.14155695456E+03  0.00000000000E+00 0.  1.
         23    2    1    2    0    0  0.53264068309E+02 -0.63588815350E+02 -0.14838904278E+02  0.15082147430E+03  0.12508527340E+03 0.  0.
          5    1    3    3  502    0  0.55380207605E+02 -0.74240539351E+02 -0.55818949196E+02  0.10822131291E+03  0.41800000000E+01 0. -1.
         -5    1    3    3    0  502 -0.21161392963E+01  0.10651724001E+02  0.40980044918E+02  0.42600161399E+02  0.41800000000E+01 0. -1.
        -11    1    1    2    0    0 -0.42884219602E+02  0.36007581963E+01 -0.29258302076E+02  0.52039119812E+02  0.00000000000E+00 0.  1.
         11    1    1    2    0    0 -0.10379848707E+02  0.59988057153E+02  0.33176192878E+02  0.69332301520E+02  0.00000000000E+00 0. -1.
</event>
<event>
 7    1  0.6671761E-006  0.1089888E+03  0.7561462E-02  0.1262454E+00
         -1   -1    0    0    0  501 -0.00000000000E+00  0.00000000000E+00  0.30172620376E+02  0.30172620376E+02  0.00000000000E+00 0.  1.
          1   -1    0    0  501    0  0.00000000000E+00 -0.00000000000E+00 -0.51068983657E+03  0.51068983657E+03  0.00000000000E+00 0. -1.
         23    2    1    2    0    0  0.51467472281E+02  0.24738816956E+02 -0.21947229211E+03  0.25899144251E+03  0.12509024951E+03 0.  0.
          5    1    3    3  502    0 -0.24747961216E+02 -0.26569605931E+02 -0.26257695912E+02  0.45003828041E+02  0.41800000000E+01 0. -1.
         -5    1    3    3    0  502  0.76215433497E+02  0.51308422887E+02 -0.19321459620E+03  0.21398761447E+03  0.41800000000E+01 0. -1.
        -11    1    1    2    0    0 -0.23138727814E+02 -0.47683424019E+02 -0.72346763608E+02  0.89683687790E+02  0.00000000000E+00 0.  1.
         11    1    1    2    0    0 -0.28328744467E+02  0.22944607063E+02 -0.18869816048E+03  0.19218732665E+03  0.00000000000E+00 0. -1.
</event>
<event>
 7    1  0.6671761E-006  0.2464570E+03  0.7561462E-02  0.1115565E+00
          1   -1    0    0  501    0  0.00000000000E+00  0.00000000000E+00  0.63755385345E+03  0.63755385345E+03  0.00000000000E+00 0. -1.
         -1   -1    0    0    0  501 -0.00000000000E+00 -0.00000000000E+00 -0.19187841296E+03  0.19187841296E+03  0.00000000000E+00 0.  1.
         23    2    1    2    0    0 -0.46169992692E+02 -0.23815719531E+03 -0.43230039046E+02  0.27634362980E+03  0.12508576080E+03 0.  0.
          5    1    3    3  502    0 -0.23860858304E+02 -0.11046474838E+03  0.42570944963E+02  0.12083691054E+03  0.41800000000E+01 0.  1.
         -5    1    3    3    0  502 -0.22309134388E+02 -0.12769244693E+03 -0.85800984009E+02  0.15550671926E+03  0.41800000000E+01 0.  1.
        -11    1    1    2    0    0 -0.60659584671E+01  0.12874939381E+03  0.32165081213E+03  0.34651471427E+03  0.00000000000E+00 0.  1.
         11    1    1    2    0    0  0.52235951159E+02  0.10940780150E+03  0.16725466741E+03  0.20657392234E+03  0.00000000000E+00 0. -1.
</event>
<event>
 7    1  0.6671761E-006  0.1602567E+03  0.7561462E-02  0.1188407E+00
         -1   -1    0    0    0  501 -0.00000000000E+00  0.00000000000E+00  0.17170084229E+03  0.17170084229E+03  0.00000000000E+00 0.  1.
          1   -1    0    0  501    0  0.00000000000E+00 -0.00000000000E+00 -0.16951270339E+03  0.16951270339E+03  0.00000000000E+00 0. -1.
         23    2    1    2    0    0  0.62163908948E+02 -0.11431778259E+03 -0.77388751698E+01  0.18066742291E+03  0.12509164849E+03 0.  0.
          5    1    3    3  502    0 -0.31614885211E+02 -0.53475617683E+02 -0.25722145326E+02  0.67366488803E+02  0.41800000000E+01 0.  1.
         -5    1    3    3    0  502  0.93778794159E+02 -0.60842164907E+02  0.17983270156E+02  0.11330093411E+03  0.41800000000E+01 0.  1.
        -11    1    1    2    0    0 -0.32997273393E+02  0.11241473758E+03  0.34746320012E+02  0.12220147311E+03  0.00000000000E+00 0. -1.
         11    1    1    2    0    0 -0.29166635555E+02  0.19030450105E+01 -0.24819305936E+02  0.38344649654E+02  0.00000000000E+00 0.  1.
</event>
<event>
 7    1  0.6671761E-006  0.1247444E+03  0.7561462E-02  0.1235469E+00
          1   -1    0    0  501    0  0.00000000000E+00  0.00000000000E+00  0.50393907821E+03  0.50393907821E+03  0.00000000000E+00 0. -1.
         -1   -1    0    0    0  501 -0.00000000000E+00 -0.00000000000E+00 -0.37314897492E+02  0.37314897492E+02  0.00000000000E+00 0.  1.
         23    2    1    2    0    0 -0.68063538000E+02  0.33759759799E+02  0.18329824653E+03  0.23455998913E+03  0.12509106575E+03 0.  0.
          5    1    3    3  502    0  0.28839887682E+02  0.25684450543E+02  0.96973559475E+02  0.10446422238E+03  0.41800000000E+01 0. -1.
         -5    1    3    3    0  502 -0.96903425681E+02  0.80753092559E+01  0.86324687058E+02  0.13009576674E+03  0.41800000000E+01 0. -1.
        -11    1    1    2    0    0  0.43315284204E+02  0.24678727717E+02  0.85892503138E+02  0.99311507604E+02  0.00000000000E+00 0.  1.
         11    1    1    2    0    0  0.24748253796E+02 -0.58438487515E+02  0.19743343104E+03  0.20738247897E+03  0.00000000000E+00 0. -1.
</event>
<event>
 7    1  0.6671761E-006  0.1231590E+03  0.7561462E-02  0.1237975E+00
          2   -1    0    0  501    0  0.00000000000E+00  0.00000000000E+00  0.37374157584E+03  0.37374157584E+03  0.00000000000E+00 0. -1.
         -2   -1    0    0    0  501 -0.00000000000E+00 -0.00000000000E+00 -0.61405775027E+02  0.61405775027E+02  0.00000000000E+00 0.  1.
         23    2    1    2    0    0 -0.28008503051E+02 -0.74851930106E+02  0.68041665780E+02  0.16329334055E+03  0.12509100329E+03 0.  0.
          5    1    3    3  502    0 -0.40768704567E+02  0.98123730784E+01  0.65064461024E+02  0.77519200369E+02  0.41800000000E+01 0.  1.
         -5    1    3    3    0  502  0.12760201516E+02 -0.84664303184E+02  0.29772047555E+01  0.85774140185E+02  0.41800000000E+01 0.  1.
        -11    1    1    2    0    0 -0.21365132117E+02  0.64582132562E+02  0.15572013747E+03  0.16992963817E+03  0.00000000000E+00 0. -1.
         11    1    1    2    0    0  0.49373635168E+02  0.10269797543E+02  0.88573997568E+02  0.10192437214E+03  0.00000000000E+00 0.  1.
</event>
<event>
 7    1  0.6671761E-006  0.1033548E+03  0.7561462E-02  0.1273395E+00
          2   -1    0    0  501    0  0.00000000000E+00  0.00000000000E+00  0.39297661341E+03  0.39297661341E+03  0.00000000000E+00 0. -1.
         -2   -1    0    0    0  501 -0.00000000000E+00 -0.00000000000E+00 -0.46883584618E+02  0.46883584618E+02  0.00000000000E+00 0.  1.
         23    2    1    2    0    0 -0.49924547463E+02  0.90749921625E+01  0.77770994788E+02  0.15197738592E+03  0.12030786458E+03 0.  0.
          5    1    3    3  502    0 -0.86173979343E+02  0.24867842635E+02  0.62435119439E+02  0.10936169737E+03  0.41800000000E+01 0. -1.
         -5    1    3    3    0  502  0.36249431880E+02 -0.15792850473E+02  0.15335875349E+02  0.42615688547E+02  0.41800000000E+01 0.  1.
        -11    1    1    2    0    0  0.33530229799E+02  0.23327971064E+02  0.23523693022E+03  0.23875695568E+03  0.00000000000E+00 0.  1.
         11    1    1    2    0    0  0.16394317664E+02 -0.32402963227E+02  0.33085103778E+02  0.49125856425E+02  0.00000000000E+00 0. -1.
</event>
<event>
 7    1  0.6671761E-006  0.1466017E+03  0.7561462E-02  0.1204712E+00
          1   -1    0    0  501    0  0.00000000000E+00  0.00000000000E+00  0.55193865158E+02  0.55193865158E+02  0.00000000000E+00 0. -1.
         -1   -1    0    0    0  501 -0.00000000000E+00 -0.00000000000E+00 -0.46499552508E+03  0.46499552508E+03  0.00000000000E+00 0.  1.
         23    2    1    2    0    0  0.43367264329E+02  0.10786162255E+03 -0.26133350023E+03  0.31218239191E+03  0.12509115972E+03 0.  0.
          5    1    3    3  502    0 -0.22269375719E+02  0.16320535914E+01 -0.12584787493E+03  0.12788177633E+03  0.41800000000E+01 0. -1.
         -5    1    3    3    0  502  0.65636640048E+02  0.10622956895E+03 -0.13548562530E+03  0.18430061557E+03  0.41800000000E+01 0. -1.
        -11    1    1    2    0    0  0.16013486441E+02 -0.76953363975E+02 -0.84711568883E+02  0.11556081463E+03  0.00000000000E+00 0.  1.
         11    1    1    2    0    0 -0.59380750770E+02 -0.30908258570E+02 -0.63756590808E+02  0.92446183704E+02  0.00000000000E+00 0. -1.
</event>
<event>
 7    1  0.6671761E-006  0.1515432E+03  0.7561462E-02  0.1198589E+00
         -2   -1    0    0    0  501 -0.00000000000E+00  0.00000000000E+00  0.18130196461E+03  0.18130196461E+03  0.00000000000E+00 0.  1.
          2   -1    0    0  501    0  0.00000000000E+00 -0.00000000000E+00 -0.15912180294E+03  0.15912180294E+03  0.00000000000E+00 0. -1.
         23    2    1    2    0    0 -0.10195091500E+03 -0.65018404159E+02  0.60560429087E+02  0.18421273686E+03  0.12508151302E+03 0.  0.
          5    1    3    3  502    0 -0.11349928752E+03 -0.78546646701E+02  0.78300896852E+02  0.15874560411E+03  0.41800000000E+01 0. -1.
         -5    1    3    3    0  502  0.11548372516E+02  0.13528242542E+02 -0.17740467765E+02  0.25467132751E+02  0.41800000000E+01 0. -1.
        -11    1    1    2    0    0  0.46050450404E+02  0.76844261712E+02 -0.43168380253E+01  0.89690131180E+02  0.00000000000E+00 0.  1.
         11    1    1    2    0    0  0.55900464600E+02 -0.11825857553E+02 -0.34063429390E+02  0.66520899507E+02  0.00000000000E+00 0. -1.
</event>
<event>
 7    1  0.6671761E-006  0.1640050E+03  0.7561462E-02  0.1184248E+00
          2   -1    0    0  501    0  0.00000000000E+00  0.00000000000E+00  0.11856202582E+04  0.11856202582E+04  0.00000000000E+00 0. -1.
         -2   -1    0    0    0  501 -0.00000000000E+00 -0.00000000000E+00 -0.33638970560E+02  0.33638970560E+02  0.00000000000E+00 0.  1.
         23    2    1    2    0    0 -0.13728226422E+03 -0.88357620772E+02  0.49088000369E+03  0.53222589065E+03  0.12509089269E+03 0.  0.
          5    1    3    3  502    0 -0.13071108141E+03 -0.85580681399E+02  0.27594385516E+03  0.31713076709E+03  0.41800000000E+01 0.  1.
         -5    1    3    3    0  502 -0.65711828173E+01 -0.27769393736E+01  0.21493614853E+03  0.21509512357E+03  0.41800000000E+01 0.  1.
        -11    1    1    2    0    0  0.44110609282E+02  0.24048746512E+02  0.76166893659E+02  0.91244088848E+02  0.00000000000E+00 0.  1.
         11    1    1    2    0    0  0.93171654942E+02  0.64308874260E+02  0.58493439027E+03  0.59578924924E+03  0.00000000000E+00 0. -1.
</event>
<event>
 7    1  0.6671761E-006  0.9850017E+02  0.7561462E-02  0.1283482E+00
          2   -1    0    0  501    0  0.00000000000E+00  0.00000000000E+00  0.14750244712E+03  0.14750244712E+03  0.00000000000E+00 0.  1.
         -2   -1    0    0    0  501 -0.00000000000E+00 -0.00000000000E+00 -0.10622008232E+03  0.10622008232E+03  0.00000000000E+00 0. -1.
         23    2    1    2    0    0 -0.33554820835E+02 -0.46011206171E+02  0.81949086848E+01  0.13769217400E+03  0.12509604773E+03 0.  0.
          5    1    3    3  502    0  0.92978455387E+01 -0.81177419685E+02  0.65283829687E+01  0.82075060661E+02  0.41800000000E+01 0. -1.
         -5    1    3    3    0  502 -0.42852666373E+02  0.35166213514E+02  0.16665257161E+01  0.55617113339E+02  0.41800000000E+01 0. -1.
        -11    1    1    2    0    0  0.17351660902E+02  0.37433782248E+02  0.66302124607E+02  0.78091868442E+02  0.00000000000E+00 0.  1.
         11    1    1    2    0    0  0.16203159932E+02  0.85774239238E+01 -0.33214668484E+02  0.37938486995E+02  0.00000000000E+00 0. -1.
</event>
<event>
 7    1  0.6671761E-006  0.2877002E+03  0.7561462E-02  0.1091556E+00
         -1   -1    0    0    0  501 -0.00000000000E+00  0.00000000000E+00  0.12039432597E+04  0.12039432597E+04  0.00000000000E+00 0.  1.
          1   -1    0    0  501    0  0.00000000000E+00 -0.00000000000E+00 -0.83803349711E+02  0.83803349711E+02  0.00000000000E+00 0. -1.
         23    2    1    2    0    0 -0.57260818241E+02 -0.27402770383E+03  0.77912659021E+03  0.83729033417E+03  0.12508747480E+03 0.  0.
          5    1    3    3  502    0 -0.22663999450E+02 -0.44760225457E+01  0.19551730424E+02  0.30552155594E+02  0.41800000000E+01 0. -1.
         -5    1    3    3    0  502 -0.34596818791E+02 -0.26955168128E+03  0.75957485978E+03  0.80673817857E+03  0.41800000000E+01 0. -1.
        -11    1    1    2    0    0  0.39829941535E+02  0.21144616104E+03  0.19392192431E+03  0.28965775665E+03  0.00000000000E+00 0. -1.
         11    1    1    2    0    0  0.17430876706E+02  0.62581542784E+02  0.14709139551E+03  0.16079851863E+03  0.00000000000E+00 0.  1.
</event>
<event>
 7    1  0.6671761E-006  0.1251651E+03  0.7561462E-02  0.1234812E+00
         -2   -1    0    0    0  501 -0.00000000000E+00  0.00000000000E+00  0.12485836683E+03  0.12485836683E+03  0.00000000000E+00 0.  1.
          2   -1    0    0  501    0  0.00000000000E+00 -0.00000000000E+00 -0.15750504507E+03  0.15750504507E+03  0.00000000000E+00 0. -1.
         23    2    1    2    0    0  0.58242754427E+02 -0.63553467358E+02 -0.34812665854E+02  0.15585538859E+03  0.12509084216E+03 0.  0.
          5    1    3    3  502    0  0.74395724434E+02 -0.91284957653E+02 -0.36751401305E+02  0.12343340393E+03  0.41800000000E+01 0.  1.
         -5    1    3    3    0  502 -0.16152970007E+02  0.27731490295E+02  0.19387354507E+01  0.32421984658E+02  0.41800000000E+01 0.  1.
        -11    1    1    2    0    0 -0.35751405216E+02  0.34029572253E+01  0.38560545268E+02  0.52694010515E+02  0.00000000000E+00 0.  1.
         11    1    1    2    0    0 -0.22491349211E+02  0.60150510133E+02 -0.36394557655E+02  0.73814012799E+02  0.00000000000E+00 0. -1.
</event>
<event>
 7    1  0.6671761E-006  0.9163392E+02  0.7561462E-02  0.1298942E+00
         -2   -1    0    0    0  501 -0.00000000000E+00  0.00000000000E+00  0.34481843915E+02  0.34481843915E+02  0.00000000000E+00 0.  1.
          2   -1    0    0  501    0  0.00000000000E+00 -0.00000000000E+00 -0.39620538363E+03  0.39620538363E+03  0.00000000000E+00 0. -1.
         23    2    1    2    0    0  0.13770091589E+02 -0.34132439036E+02 -0.15767562825E+03  0.20460953104E+03  0.12509523425E+03 0.  0.
          5    1    3    3  502    0 -0.37225855534E+02 -0.49911398888E+02 -0.13029872716E+03  0.14447194454E+03  0.41800000000E+01 0.  1.
         -5    1    3    3    0  502  0.50995947122E+02  0.15778959853E+02 -0.27376901087E+02  0.60137586500E+02  0.41800000000E+01 0.  1.
        -11    1    1    2    0    0 -0.66928597824E+01  0.49736152917E+02 -0.20277951285E+03  0.20889712806E+03  0.00000000000E+00 0. -1.
         11    1    1    2    0    0 -0.70772318063E+01 -0.15603713882E+02 -0.12683986110E+01  0.17180568442E+02  0.00000000000E+00 0.  1.
</event>
<event>
 7    1  0.6671761E-006  0.1889676E+03  0.7561462E-02  0.1159396E+00
          2   -1    0    0  501    0  0.00000000000E+00  0.00000000000E+00  0.71225459299E+03  0.71225459299E+03  0.00000000000E+00 0. -1.
         -2   -1    0    0    0  501 -0.00000000000E+00 -0.00000000000E+00 -0.88358626165E+02  0.88358626165E+02  0.00000000000E+00 0.  1.
         23    2    1    2    0    0  0.10972530475E+03  0.12725213803E+03  0.74833401026E+02  0.22244182928E+03  0.12509028888E+03 0.  0.
          5    1    3    3  502    0  0.86944910083E+02  0.15114172233E+03  0.73125561341E+02  0.18912445040E+03  0.41800000000E+01 0. -1.
         -5    1    3    3    0  502  0.22780394663E+02 -0.23889584304E+02  0.17078396855E+01  0.33317378882E+02  0.41800000000E+01 0. -1.
        -11    1    1    2    0    0 -0.87523498615E+02 -0.82441297617E+02  0.46558846449E+03  0.48086333675E+03  0.00000000000E+00 0. -1.
         11    1    1    2    0    0 -0.22201806131E+02 -0.44810840408E+02  0.83474101314E+02  0.97308053129E+02  0.00000000000E+00 0.  1.
</event>
<event>
 7    1  0.6671761E-006  0.1196728E+03  0.7561462E-02  0.1243638E+00
          2   -1    0    0  501    0  0.00000000000E+00  0.00000000000E+00  0.89459110653E+03  0.89459110653E+03  0.00000000000E+00 0. -1.
         -2   -1    0    0    0  501 -0.00000000000E+00 -0.00000000000E+00 -0.27040849700E+02  0.27040849700E+02  0.00000000000E+00 0.  1.
         23    2    1    2    0    0  0.97219323626E+02 -0.45201980149E+02  0.37829911743E+03  0.41261699579E+03  0.12509095519E+03 0.  0.
          5    1    3    3  502    0  0.20676123284E+02 -0.62880634728E+01  0.28461973416E+03  0.28546962586E+03  0.41800000000E+01 0.  1.
         -5    1    3    3    0  502  0.76543200343E+02 -0.38913916676E+02  0.93679383269E+02  0.12714736993E+03  0.41800000000E+01 0.  1.
        -11    1    1    2    0    0 -0.18185236559E+02  0.48973746101E+02  0.11240287685E+03  0.12394973723E+03  0.00000000000E+00 0.  1.
         11    1    1    2    0    0 -0.79034087068E+02 -0.37717659521E+01  0.37684826255E+03  0.38506522321E+03  0.00000000000E+00 0. -1.
</event>
<event>
 7    1  0.6671761E-006  0.1481040E+03  0.7561462E-02  0.1202822E+00
         -2   -1    0    0    0  501 -0.00000000000E+00  0.00000000000E+00  0.11729735182E+03  0.11729735182E+03  0.00000000000E+00 0.  1.
          2   -1    0    0  501    0  0.00000000000E+00 -0.00000000000E+00 -0.25372746028E+03  0.25372746028E+03  0.00000000000E+00 0. -1.
         23    2    1    2    0    0 -0.10453636773E+03 -0.43944177828E+02  0.22962180909E+01  0.16885369359E+03  0.12508938516E+03 0.  0.
          5    1    3    3  502    0  0.10390397349E+02 -0.51013380139E+02 -0.93070218306E+01  0.53051092031E+02  0.41800000000E+01 0.  1.
         -5    1    3    3    0  502 -0.11492676507E+03  0.70692023115E+01  0.11603239922E+02  0.11580260156E+03  0.41800000000E+01 0.  1.
        -11    1    1    2    0    0  0.55414051248E+01  0.27934319962E+02 -0.82336981867E+02  0.87122970481E+02  0.00000000000E+00 0. -1.
         11    1    1    2    0    0  0.98994962601E+02  0.16009857866E+02 -0.56389344684E+02  0.11504814802E+03  0.00000000000E+00 0.  1.
</event>
<event>
 7    1  0.6671761E-006  0.9443039E+02  0.7561462E-02  0.1292464E+00
          2   -1    0    0  501    0  0.00000000000E+00  0.00000000000E+00  0.13513698405E+03  0.13513698405E+03  0.00000000000E+00 0. -1.
         -2   -1    0    0    0  501 -0.00000000000E+00 -0.00000000000E+00 -0.12472619858E+03  0.12472619858E+03  0.00000000000E+00 0.  1.
         23    2    1    2    0    0  0.43826746267E+02  0.54602191312E+02 -0.47537250020E+01  0.14342968438E+03  0.12508914212E+03 0.  0.
          5    1    3    3  502    0  0.52217181434E+02  0.29111868678E+01 -0.51200010660E+02  0.73307724951E+02  0.41800000000E+01 0. -1.
         -5    1    3    3    0  502 -0.83904351664E+01  0.51691004445E+02  0.46446285658E+02  0.70121959429E+02  0.41800000000E+01 0. -1.
        -11    1    1    2    0    0 -0.19639301858E+02  0.43720012455E+01  0.42542972523E+02  0.47060823234E+02  0.00000000000E+00 0. -1.
         11    1    1    2    0    0 -0.24187444410E+02 -0.58974192558E+02 -0.27378462048E+02  0.69372675017E+02  0.00000000000E+00 0.  1.
</event>
<event>
 7    1  0.6671761E-006  0.1386050E+03  0.7561462E-02  0.1215218E+00
         -1   -1    0    0    0  501 -0.00000000000E+00  0.00000000000E+00  0.13693638190E+03  0.13693638190E+03  0.00000000000E+00 0.  1.
          1   -1    0    0  501    0  0.00000000000E+00 -0.00000000000E+00 -0.18361080953E+03  0.18361080953E+03  0.00000000000E+00 0. -1.
         23    2    1    2    0    0  0.97713683095E+02 -0.48833715242E+02  0.11767696187E+02  0.16651834205E+03  0.12512866961E+03 0.  0.
          5    1    3    3  502    0  0.62197338878E+02  0.20568248582E+02 -0.36123667120E+02  0.74926320739E+02  0.41800000000E+01 0. -1.
         -5    1    3    3    0  502  0.35516344216E+02 -0.69401963824E+02  0.47891363307E+02  0.91592021315E+02  0.41800000000E+01 0. -1.
        -11    1    1    2    0    0 -0.72499524987E+02 -0.63949114672E+01 -0.46749833800E+01  0.72931004968E+02  0.00000000000E+00 0.  1.
         11    1    1    2    0    0 -0.25214158108E+02  0.55228626710E+02 -0.53767140439E+02  0.81097844412E+02  0.00000000000E+00 0. -1.
</event>
<event>
 6    1  0.6671761E-006  0.1685382E+03  0.7561462E-02  0.1179381E+00
         -1   -1    0    0    0  501 -0.00000000000E+00  0.00000000000E+00  0.15979052402E+03  0.15979052402E+03  0.00000000000E+00 0.  1.
          1   -1    0    0  501    0  0.00000000000E+00 -0.00000000000E+00 -0.46728902033E+03  0.46728902033E+03  0.00000000000E+00 0. -1.
          5    1    1    2  502    0 -0.64184687749E+02  0.15737138255E+02  0.19296762909E+02  0.68972234419E+02  0.41800000000E+01 0. -1.
         -5    1    1    2    0  502  0.14286524493E+03  0.59063479862E+02  0.44621424102E+02  0.16095812111E+03  0.41800000000E+01 0.  1.
        -11    1    1    2    0    0 -0.49672870942E+02 -0.18743774218E+02 -0.28631514174E+03  0.29119595390E+03  0.00000000000E+00 0. -1.
         11    1    1    2    0    0 -0.29007686239E+02 -0.56056843900E+02 -0.85101541583E+02  0.10595323491E+03  0.00000000000E+00 0.  1.
</event>
<event>
 7    1  0.6671761E-006  0.9355461E+02  0.7561462E-02  0.1294465E+00
         -2   -1    0    0    0  501 -0.00000000000E+00  0.00000000000E+00  0.24548738451E+02  0.24548738451E+02  0.00000000000E+00 0.  1.
          2   -1    0    0  501    0  0.00000000000E+00 -0.00000000000E+00 -0.63364032955E+03  0.63364032955E+03  0.00000000000E+00 0. -1.
         23    2    1    2    0    0  0.44513829010E+02  0.18102708347E+02 -0.25299932873E+03  0.28629550296E+03  0.12508903091E+03 0.  0.
          5    1    3    3  502    0  0.11460661528E+02  0.43830555505E+02 -0.23689774795E+03  0.24122702946E+03  0.41800000000E+01 0.  1.
         -5    1    3    3    0  502  0.33053167482E+02 -0.25727847158E+02 -0.16101580779E+02  0.45068473499E+02  0.41800000000E+01 0.  1.
        -11    1    1    2    0    0 -0.22750176259E+02  0.35218174828E+02 -0.85330059559E+02  0.95074231116E+02  0.00000000000E+00 0.  1.
         11    1    1    2    0    0 -0.21763652751E+02 -0.53320883175E+02 -0.27076220281E+03  0.27681933393E+03  0.00000000000E+00 0. -1.
</event>
<event>
 7    1  0.6671761E-006  0.1386243E+03  0.7561462E-02  0.1215192E+00
          1   -1    0    0  501    0  0.00000000000E+00  0.00000000000E+00  0.70185899840E+03  0.70185899840E+03  0.00000000000E+00 0. -1.
         -1   -1    0    0    0  501 -0.00000000000E+00 -0.00000000000E+00 -0.32092867285E+02  0.32092867285E+02  0.00000000000E+00 0.  1.
         23    2    1    2    0    0  0.86703218742E+02  0.48778878922E+02  0.30122264686E+03  0.34098884404E+03  0.12506590905E+03 0.  0.
          5    1    3    3  502    0  0.72275064304E+02 -0.26819342321E+02  0.19517906707E+03  0.20989355079E+03  0.41800000000E+01 0. -1.
         -5    1    3    3    0  502  0.14428154438E+02  0.75598221243E+02  0.10604357980E+03  0.13109529325E+03  0.41800000000E+01 0. -1.
        -11    1    1    2    0    0 -0.69782631433E+02  0.16237713527E+01  0.12024720499E+03  0.13903827743E+03  0.00000000000E+00 0.  1.
         11    1    1    2    0    0 -0.16920587309E+02 -0.50402650275E+02  0.24829627926E+03  0.25392474421E+03  0.00000000000E+00 0. -1.
</event>
<event>
 7    1  0.6671761E-006  0.1100285E+03  0.7561462E-02  0.1260517E+00
         -1   -1    0    0    0  501 -0.00000000000E+00  0.00000000000E+00  0.16454014216E+03  0.16454014216E+03  0.00000000000E+00 0.  1.
          1   -1    0    0  501    0  0.00000000000E+00 -0.00000000000E+00 -0.99544781958E+02  0.99544781958E+02  0.00000000000E+00 0. -1.
         23    2    1    2    0    0  0.59872103132E+02 -0.80952846516E+01  0.68743583560E+02  0.15499314262E+03  0.12508793551E+03 0.  0.
          5    1    3    3  502    0 -0.31493945650E+02  0.26087774595E+02  0.23850585168E+02  0.47526449570E+02  0.41800000000E+01 0. -1.
         -5    1    3    3    0  502  0.91366048782E+02 -0.34183059246E+02  0.44892998392E+02  0.10746669305E+03  0.41800000000E+01 0. -1.
        -11    1    1    2    0    0 -0.58917356689E+02 -0.12881642313E+02  0.31517216511E+02  0.68047972523E+02  0.00000000000E+00 0.  1.
         11    1    1    2    0    0 -0.95474644376E+00  0.20976926965E+02 -0.35265439874E+02  0.41043808975E+02  0.00000000000E+00 0. -1.
</event>
<event>
 7    1  0.6671761E-006  0.1144239E+03  0.7561462E-02  0.1252590E+00
          1   -1    0    0  501    0  0.00000000000E+00  0.00000000000E+00  0.50429537710E+03  0.50429537710E+03  0.00000000000E+00 0. -1.
         -1   -1    0    0    0  501 -0.00000000000E+00 -0.00000000000E+00 -0.33531612529E+02  0.33531612529E+02  0.00000000000E+00 0.  1.
         23    2    1    2    0    0  0.48894440478E-01  0.47687714713E+02  0.15213065809E+03  0.20264750636E+03  0.12509258242E+03 0.  0.
          5    1    3    3  502    0  0.36714735340E+01  0.89768734883E+02  0.88657606320E+02  0.12629152402E+03  0.41800000000E+01 0. -1.
         -5    1    3    3    0  502 -0.36225790935E+01 -0.42081020170E+02  0.63473051771E+02  0.76355982339E+02  0.41800000000E+01 0. -1.
        -11    1    1    2    0    0 -0.28517040305E+02  0.11529104956E+02  0.50643746833E+02  0.59253109134E+02  0.00000000000E+00 0.  1.
         11    1    1    2    0    0  0.28468145864E+02 -0.59216819669E+02  0.26798935965E+03  0.27592637414E+03  0.00000000000E+00 0. -1.
</event>
<event>
 7    1  0.6671761E-006  0.1285530E+03  0.7561462E-02  0.1229619E+00
          2   -1    0    0  501    0  0.00000000000E+00  0.00000000000E+00  0.11404987395E+04  0.11404987395E+04  0.00000000000E+00 0. -1.
         -2   -1    0    0    0  501 -0.00000000000E+00 -0.00000000000E+00 -0.21342010446E+02  0.21342010446E+02  0.00000000000E+00 0.  1.
         23    2    1    2    0    0  0.11229710989E+03  0.18488475373E+02  0.63157480912E+03  0.65382468665E+03  0.12509003457E+03 0.  0.
          5    1    3    3  502    0  0.92445078688E+02  0.17410427418E+02  0.19266166329E+03  0.21444161084E+03  0.41800000000E+01 0. -1.
         -5    1    3    3    0  502  0.19852031197E+02  0.10780479552E+01  0.43891314583E+03  0.43938307581E+03  0.41800000000E+01 0. -1.
        -11    1    1    2    0    0 -0.11108877396E+02 -0.37986352133E+02  0.13321316659E+03  0.13896804617E+03  0.00000000000E+00 0.  1.
         11    1    1    2    0    0 -0.10118823249E+03  0.19497876760E+02  0.35436875336E+03  0.36904801713E+03  0.00000000000E+00 0. -1.
</event>
<event>
 7    1  0.6671761E-006  0.9228606E+02  0.7561462E-02  0.1297408E+00
         -1   -1    0    0    0  501 -0.00000000000E+00  0.00000000000E+00  0.20742633411E+02  0.20742633411E+02  0.00000000000E+00 0.  1.
          1   -1    0    0  501    0  0.00000000000E+00 -0.00000000000E+00 -0.63682724767E+03  0.63682724767E+03  0.00000000000E+00 0. -1.
         23    2    1    2    0    0  0.30399929592E+02 -0.20537054164E+01 -0.35216041418E+03  0.37495790187E+03  0.12509235563E+03 0.  0.
          5    1    3    3  502    0  0.38333668990E+02 -0.41316977222E+02 -0.31541938354E+03  0.32044254196E+03  0.41800000000E+01 0.  1.
         -5    1    3    3    0  502 -0.79337393981E+01  0.39263271805E+02 -0.36741030634E+02  0.54515359906E+02  0.41800000000E+01 0.  1.
        -11    1    1    2    0    0 -0.55585945539E+02  0.17452690287E+02 -0.97429895654E+02  0.11352082764E+03  0.00000000000E+00 0.  1.
         11    1    1    2    0    0  0.25186015948E+02 -0.15398984870E+02 -0.16649430443E+03  0.16909115157E+03  0.00000000000E+00 0. -1.
</event>
<event>
 7    1  0.6671761E-006  0.1178704E+03  0.7561462E-02  0.1246652E+00
         -1   -1    0    0    0  501 -0.00000000000E+00  0.00000000000E+00  0.16240120170E+04  0.16240120170E+04  0.00000000000E+00 0.  1.
          1   -1    0    0  501    0  0.00000000000E+00 -0.00000000000E+00 -0.14128270291E+02  0.14128270291E+02  0.00000000000E+00 0. -1.
         23    2    1    2    0    0 -0.35766002597E+02  0.37429241602E+02  0.13754441880E+04  0.13820908311E+04  0.12509274969E+03 0.  0.
          5    1    3    3  502    0 -0.75878487479E+02 -0.28577590870E+01  0.65639359425E+03  0.66078418158E+03  0.41800000000E+01 0. -1.
         -5    1    3    3    0  502  0.40112484882E+02  0.40287000689E+02  0.71905059372E+03  0.72130664949E+03  0.41800000000E+01 0. -1.
        -11    1    1    2    0    0 -0.93545595993E+01 -0.53862658812E+02  0.13392264353E+03  0.14465119512E+03  0.00000000000E+00 0. -1.
         11    1    1    2    0    0  0.45120562196E+02  0.16433417210E+02  0.10051691520E+03  0.11139826110E+03  0.00000000000E+00 0.  1.
</event>
<event>
 7    1  0.6671761E-006  0.1356149E+03  0.7561462E-02  0.1219354E+00
          1   -1    0    0  501    0  0.00000000000E+00  0.00000000000E+00  0.21705200060E+03  0.21705200060E+03  0.00000000000E+00 0. -1.
         -1   -1    0    0    0  501 -0.00000000000E+00 -0.00000000000E+00 -0.94935946062E+02  0.94935946062E+02  0.00000000000E+00 0.  1.
         23    2    1    2    0    0  0.84069483925E+02  0.40886853350E+02  0.69460370468E+02  0.17091459790E+03  0.12509054243E+03 0.  0.
          5    1    3    3  502    0 -0.32169414960E+02  0.19643816517E+02  0.17206898024E+02  0.41644933976E+02  0.41800000000E+01 0.  1.
         -5    1    3    3    0  502  0.11623889889E+03  0.21243036833E+02  0.52253472443E+02  0.12926966392E+03  0.41800000000E+01 0.  1.
        -11    1    1    2    0    0 -0.55724534529E+02  0.10194411323E+02  0.59619310911E+02  0.82241181924E+02  0.00000000000E+00 0. -1.
         11    1    1    2    0    0 -0.28344949396E+02 -0.51081264673E+02 -0.69636268373E+01  0.58832166844E+02  0.00000000000E+00 0.  1.
</event>
<event>
 7    1  0.6671761E-006  0.1085067E+03  0.7561462E-02  0.1263361E+00
          2   -1    0    0  501    0  0.00000000000E+00  0.00000000000E+00  0.94787360988E+02  0.94787360988E+02  0.00000000000E+00 0. -1.
         -2   -1    0    0    0  501 -0.00000000000E+00 -0.00000000000E+00 -0.15112838092E+03  0.15112838092E+03  0.00000000000E+00 0.  1.
         23    2    1    2    0    0  0.10226450393E+02  0.41579334059E+02 -0.46914741598E+02  0.14029786283E+03  0.12509626703E+03 0.  0.
          5    1    3    3  502    0  0.54320533696E+02 -0.15902506862E+02 -0.62068698693E+01  0.57092974516E+02  0.41800000000E+01 0.  1.
         -5    1    3    3    0  502 -0.44094083302E+02  0.57481840922E+02 -0.40707871728E+02  0.83204888310E+02  0.41800000000E+01 0.  1.
        -11    1    1    2    0    0  0.14156662106E+02  0.18242955618E+02 -0.29965667560E+02  0.37830645567E+02  0.00000000000E+00 0.  1.
         11    1    1    2    0    0 -0.24383112500E+02 -0.59822289677E+02  0.20539389229E+02  0.67787233513E+02  0.00000000000E+00 0. -1.
</event>
<event>
 7    1  0.6671761E-006  0.1304995E+03  0.7561462E-02  0.1226716E+00
         -1   -1    0    0    0  501 -0.00000000000E+00  0.00000000000E+00  0.29242513493E+03  0.29242513493E+03  0.00000000000E+00 0.  1.
          1   -1    0    0  501    0  0.00000000000E+00 -0.00000000000E+00 -0.97630498160E+02  0.97630498160E+02  0.00000000000E+00 0. -1.
         23    2    1    2    0    0  0.12582785564E+03 -0.49161429369E+01  0.13575360335E+03  0.22346655108E+03  0.12510571895E+03 0.  0.
          5    1    3    3  502    0  0.11070049637E+03  0.10891024672E+02  0.29850808897E+02  0.11524650756E+03  0.41800000000E+01 0. -1.
         -5    1    3    3    0  502  0.15127359271E+02 -0.15807167609E+02  0.10590279445E+03  0.10822004352E+03  0.41800000000E+01 0. -1.
        -11    1    1    2    0    0 -0.67936858141E+02  0.12330063885E+02  0.78986744400E+02  0.10491116700E+03  0.00000000000E+00 0. -1.
         11    1    1    2    0    0 -0.57890997495E+02 -0.74139209482E+01 -0.19945710972E+02  0.61677915018E+02  0.00000000000E+00 0.  1.
</event>
<event>
 7    1  0.6671761E-006  0.1023105E+03  0.7561462E-02  0.1275511E+00
          1   -1    0    0  501    0  0.00000000000E+00  0.00000000000E+00  0.35031169723E+03  0.35031169723E+03  0.00000000000E+00 0. -1.
         -1   -1    0    0    0  501 -0.00000000000E+00 -0.00000000000E+00 -0.39389763227E+02  0.39389763227E+02  0.00000000000E+00 0.  1.
         23    2    1    2    0    0  0.43031281796E+02  0.14288697982E+02  0.11205814044E+03  0.17395026028E+03  0.12508320474E+03 0.  0.
          5    1    3    3  502    0 -0.31396851769E+02 -0.22414532868E+02  0.71813105931E+02  0.81625781271E+02  0.41800000000E+01 0. -1.
         -5    1    3    3    0  502  0.74428133565E+02  0.36703230850E+02  0.40245034510E+02  0.92324479005E+02  0.41800000000E+01 0. -1.
        -11    1    1    2    0    0 -0.31394342832E+02 -0.42136279515E+02  0.11009076276E+03  0.12198789636E+03  0.00000000000E+00 0.  1.
         11    1    1    2    0    0 -0.11636938964E+02  0.27847581532E+02  0.88773030794E+02  0.93763303813E+02  0.00000000000E+00 0. -1.
</event>
<event>
 7    1  0.6671761E-006  0.1149857E+03  0.7561462E-02  0.1251606E+00
          1   -1    0    0  501    0  0.00000000000E+00  0.00000000000E+00  0.34291016662E+03  0.34291016662E+03  0.00000000000E+00 0. -1.
         -1   -1    0    0    0  501 -0.00000000000E+00 -0.00000000000E+00 -0.70516796885E+02  0.70516796885E+02  0.00000000000E+00 0.  1.
         23    2    1    2    0    0  0.71542413486E+02  0.36698631831E+02  0.41869241779E+02  0.15448560676E+03  0.12509061829E+03 0.  0.
          5    1    3    3  502    0 -0.23413824806E+02 -0.25006457450E+02  0.16986320407E+02  0.38464757729E+02  0.41800000000E+01 0.  1.
         -5    1    3    3    0  502  0.94956238292E+02  0.61705089281E+02  0.24882921372E+02  0.11602084903E+03  0.41800000000E+01 0.  1.
        -11    1    1    2    0    0 -0.15087184082E+02 -0.53916475157E+00 -0.35052852121E+01  0.15498414325E+02  0.00000000000E+00 0.  1.
         11    1    1    2    0    0 -0.56455229404E+02 -0.36159467079E+02  0.23402941317E+03  0.24344294242E+03  0.00000000000E+00 0. -1.
</event>
<event>
 7    1  0.6671761E-006  0.2510200E+03  0.7561462E-02  0.1112662E+00
         -1   -1    0    0    0  501 -0.00000000000E+00  0.00000000000E+00  0.23362394318E+03  0.23362394318E+03  0.00000000000E+00 0.  1.
          1   -1    0    0  501    0  0.00000000000E+00 -0.00000000000E+00 -0.28120057199E+03  0.28120057199E+03  0.00000000000E+00 0. -1.
         23    2    1    2    0    0 -0.21563259415E+03  0.84476886437E+02  0.10398970255E+02  0.25836697568E+03  0.11406838097E+03 0.  0.
          5    1    3    3  502    0 -0.80278485777E+02 -0.18076129661E+02  0.29302264599E+02  0.87449853361E+02  0.41800000000E+01 0. -1.
         -5    1    3    3    0  502 -0.13535410837E+03  0.10255301610E+03 -0.18903294344E+02  0.17091712232E+03  0.41800000000E+01 0.  1.
        -11    1    1    2    0    0  0.73565659214E+01 -0.34919736172E+02 -0.66513552489E+01  0.36300792872E+02  0.00000000000E+00 0.  1.
         11    1    1    2    0    0  0.20827602823E+03 -0.49557150265E+02 -0.51324243822E+02  0.22015674662E+03  0.00000000000E+00 0. -1.
</event>
<event>
 7    1  0.6671761E-006  0.7637348E+02  0.7561462E-02  0.1339670E+00
          2   -1    0    0  501    0  0.00000000000E+00  0.00000000000E+00  0.58353415782E+03  0.58353415782E+03  0.00000000000E+00 0. -1.
         -2   -1    0    0    0  501 -0.00000000000E+00 -0.00000000000E+00 -0.25556202793E+02  0.25556202793E+02  0.00000000000E+00 0.  1.
         23    2    1    2    0    0 -0.48804439597E+02 -0.17512591120E+02  0.28426441671E+03  0.31486883057E+03  0.12509019821E+03 0.  0.
          5    1    3    3  502    0 -0.27293938463E+02 -0.17831262700E+02  0.32815447437E+01  0.33032619366E+02  0.41800000000E+01 0. -1.
         -5    1    3    3    0  502 -0.21510501134E+02  0.31867157996E+00  0.28098287196E+03  0.28183621121E+03  0.41800000000E+01 0. -1.
        -11    1    1    2    0    0  0.56976251427E+02 -0.19375160314E+02  0.10225705399E+03  0.11865157038E+03  0.00000000000E+00 0.  1.
         11    1    1    2    0    0 -0.81718118296E+01  0.36887751434E+02  0.17145648433E+03  0.17556995966E+03  0.00000000000E+00 0. -1.
</event>
<event>
 7    1  0.6671761E-006  0.9700471E+02  0.7561462E-02  0.1286724E+00
         -2   -1    0    0    0  501 -0.00000000000E+00  0.00000000000E+00  0.24168272032E+02  0.24168272032E+02  0.00000000000E+00 0. -1.
          2   -1    0    0  501    0  0.00000000000E+00 -0.00000000000E+00 -0.58284510208E+03  0.58284510208E+03  0.00000000000E+00 0.  1.
         23    2    1    2    0    0  0.47513972976E+02 -0.51181317686E+01 -0.31964645418E+03  0.34656106762E+03  0.12508774927E+03 0.  0.
          5    1    3    3  502    0 -0.21274880840E+02  0.79120921136E+01 -0.23719000634E+03  0.23831028778E+03  0.41800000000E+01 0.  1.
         -5    1    3    3    0  502  0.68788853816E+02 -0.13030223882E+02 -0.82456447841E+02  0.10825077983E+03  0.41800000000E+01 0.  1.
        -11    1    1    2    0    0 -0.27430668133E+02 -0.41663169453E+02 -0.89083903268E+02  0.10209898660E+03  0.00000000000E+00 0. -1.
         11    1    1    2    0    0 -0.20083304843E+02  0.46781301222E+02 -0.14994647260E+03  0.15835331990E+03  0.00000000000E+00 0.  1.
</event>
<event>
 7    1  0.6671761E-006  0.1018058E+03  0.7561462E-02  0.1276544E+00
         -1   -1    0    0    0  501 -0.00000000000E+00  0.00000000000E+00  0.22164039697E+02  0.22164039697E+02  0.00000000000E+00 0.  1.
          1   -1    0    0  501    0  0.00000000000E+00 -0.00000000000E+00 -0.54642092328E+03  0.54642092328E+03  0.00000000000E+00 0. -1.
         23    2    1    2    0    0  0.16896645209E+02 -0.10917734284E+02 -0.27407435300E+03  0.30193713807E+03  0.12507833877E+03 0.  0.
          5    1    3    3  502    0  0.40976305002E+02 -0.52952590782E+02 -0.94465342904E+02  0.11586288384E+03  0.41800000000E+01 0.  1.
         -5    1    3    3    0  502 -0.24079659793E+02  0.42034856498E+02 -0.17960901010E+03  0.18607425423E+03  0.41800000000E+01 0.  1.
        -11    1    1    2    0    0 -0.39234468044E+02 -0.24334768411E+02 -0.90427710540E+02  0.10153174513E+03  0.00000000000E+00 0.  1.
         11    1    1    2    0    0  0.22337822835E+02  0.35252502695E+02 -0.15975482004E+03  0.16511607978E+03  0.00000000000E+00 0. -1.
</event>
<event>
 7    1  0.6671761E-006  0.1007615E+03  0.7561462E-02  0.1278703E+00
         -1   -1    0    0    0  501 -0.00000000000E+00  0.00000000000E+00  0.20342736900E+02  0.20342736900E+02  0.00000000000E+00 0. -1.
          1   -1    0    0  501    0  0.00000000000E+00 -0.00000000000E+00 -0.61997847527E+03  0.61997847527E+03  0.00000000000E+00 0.  1.
         23    2    1    2    0    0  0.14416532251E+02 -0.15159099598E+02 -0.30858680652E+03  0.33362926660E+03  0.12508011701E+03 0.  0.
          5    1    3    3  502    0 -0.31745647110E+02  0.28550005903E+02 -0.22212810445E+03  0.22623274770E+03  0.41800000000E+01 0.  1.
         -5    1    3    3    0  502  0.46162179362E+02 -0.43709105501E+02 -0.86458702075E+02  0.10739651890E+03  0.41800000000E+01 0.  1.
        -11    1    1    2    0    0  0.19268391354E+02  0.45605300510E+02 -0.18087745159E+03  0.18753070905E+03  0.00000000000E+00 0.  1.
         11    1    1    2    0    0 -0.33684923605E+02 -0.30446200912E+02 -0.11017148025E+03  0.11916123652E+03  0.00000000000E+00 0. -1.
</event>
<event>
 7    1  0.6671761E-006  0.1284606E+03  0.7561462E-02  0.1229758E+00
          1   -1    0    0  501    0  0.00000000000E+00  0.00000000000E+00  0.16682457925E+03  0.16682457925E+03  0.00000000000E+00 0. -1.
         -1   -1    0    0    0  501 -0.00000000000E+00 -0.00000000000E+00 -0.11608533260E+03  0.11608533260E+03  0.00000000000E+00 0.  1.
         23    2    1    2    0    0  0.24571656138E+02 -0.80715871648E+02  0.10045530783E+02  0.15121689484E+03  0.12508724306E+03 0.  0.
          5    1    3    3  502    0 -0.41219020363E+02 -0.47091185896E+02 -0.27203905869E+02  0.68367480013E+02  0.41800000000E+01 0.  1.
         -5    1    3    3    0  502  0.65790676502E+02 -0.33624685752E+02  0.37249436651E+02  0.82849414828E+02  0.41800000000E+01 0.  1.
        -11    1    1    2    0    0  0.14357084766E+02 -0.12589504221E+02  0.21555507566E+02  0.28796899242E+02  0.00000000000E+00 0. -1.
         11    1    1    2    0    0 -0.38928740905E+02  0.93305375869E+02  0.19138208310E+02  0.10289611777E+03  0.00000000000E+00 0.  1.
</event>
<event>
 7    1  0.6671761E-006  0.1033796E+03  0.7561462E-02  0.1273345E+00
          2   -1    0    0  501    0  0.00000000000E+00  0.00000000000E+00  0.53740594395E+03  0.53740594395E+03  0.00000000000E+00 0. -1.
         -2   -1    0    0    0  501 -0.00000000000E+00 -0.00000000000E+00 -0.27694239397E+02  0.27694239397E+02  0.00000000000E+00 0.  1.
         23    2    1    2    0    0  0.20198738223E+02  0.53781156221E+02  0.29107164253E+03  0.32197940049E+03  0.12509049309E+03 0.  0.
          5    1    3    3  502    0 -0.29744229517E+02 -0.10659337470E+02  0.17235260588E+02  0.36233510352E+02  0.41800000000E+01 0.  1.
         -5    1    3    3    0  502  0.49942967740E+02  0.64440493691E+02  0.27383638195E+03  0.28574589014E+03  0.41800000000E+01 0.  1.
        -11    1    1    2    0    0 -0.47957020983E+02 -0.29014227600E+02  0.18378560734E+03  0.19214278735E+03  0.00000000000E+00 0.  1.
         11    1    1    2    0    0  0.27758282760E+02 -0.24766928621E+02  0.34854454683E+02  0.50977995511E+02  0.00000000000E+00 0. -1.
</event>
<event>
 6    1  0.6671761E-006  0.1029471E+03  0.7561462E-02  0.1274218E+00
          3   -1    0    0  501    0  0.00000000000E+00  0.00000000000E+00  0.39407061813E+02  0.39407061813E+02  0.00000000000E+00 0. -1.
         -3   -1    0    0    0  501 -0.00000000000E+00 -0.00000000000E+00 -0.40190779629E+03  0.40190779629E+03  0.00000000000E+00 0.  1.
          5    1    1    2  502    0  0.20922011153E+02 -0.84167897608E+02 -0.16816773414E+03  0.18926126055E+03  0.41800000000E+01 0. -1.
         -5    1    1    2    0  502  0.21378181424E+02  0.49450687257E+02 -0.81118469350E+02  0.97468331169E+02  0.41800000000E+01 0.  1.
        -11    1    1    2    0    0 -0.19948079692E+02 -0.39784759477E+01  0.10611392167E+02  0.22942445336E+02  0.00000000000E+00 0. -1.
         11    1    1    2    0    0 -0.22352112886E+02  0.38695686299E+02 -0.12382592316E+03  0.13164282105E+03  0.00000000000E+00 0.  1.
</event>
<event>
 7    1  0.6671761E-006  0.9679689E+02  0.7561462E-02  0.1287180E+00
          1   -1    0    0  501    0  0.00000000000E+00  0.00000000000E+00  0.12106311010E+03  0.12106311010E+03  0.00000000000E+00 0. -1.
         -1   -1    0    0    0  501 -0.00000000000E+00 -0.00000000000E+00 -0.10615883954E+03  0.10615883954E+03  0.00000000000E+00 0.  1.
         23    2    1    2    0    0  0.68650153357E+01 -0.10286278970E+02 -0.31212448312E+02  0.12580272095E+03  0.12124014063E+03 0.  0.
          5    1    3    3  502    0  0.27063120571E+02 -0.51339634351E+02  0.15569362056E+02  0.60233279715E+02  0.41800000000E+01 0. -1.
         -5    1    3    3    0  502 -0.20198105236E+02  0.41053355381E+02 -0.46781810368E+02  0.65569441240E+02  0.41800000000E+01 0.  1.
        -11    1    1    2    0    0  0.31563193107E+02  0.32313103764E+02  0.16283966046E+02  0.48016032574E+02  0.00000000000E+00 0. -1.
         11    1    1    2    0    0 -0.38428208443E+02 -0.22026824794E+02  0.29832752824E+02  0.53403196119E+02  0.00000000000E+00 0.  1.
</event>
<event>
 7    1  0.6671761E-006  0.1131476E+03  0.7561462E-02  0.1254850E+00
         -2   -1    0    0    0  501 -0.00000000000E+00  0.00000000000E+00  0.85315272801E+02  0.85315272801E+02  0.00000000000E+00 0. -1.
          2   -1    0    0  501    0  0.00000000000E+00 -0.00000000000E+00 -0.29355643093E+03  0.29355643093E+03  0.00000000000E+00 0.  1.
         23    2    1    2    0    0  0.54360205017E+02  0.54573827020E+02 -0.98559269247E+01  0.14723435982E+03  0.12508989939E+03 0.  0.
          5    1    3    3  502    0  0.75966741944E+02  0.48934595227E+02  0.34966902574E+02  0.96982973594E+02  0.41800000000E+01 0. -1.
         -5    1    3    3    0  502 -0.21606536927E+02  0.56392317928E+01 -0.44822829498E+02  0.50251386224E+02  0.41800000000E+01 0. -1.
        -11    1    1    2    0    0 -0.29611904442E+02  0.19207425342E+02 -0.10092619397E+03  0.10692000141E+03  0.00000000000E+00 0.  1.
         11    1    1    2    0    0 -0.24748300575E+02 -0.73781252362E+02 -0.97459037235E+02  0.12471734250E+03  0.00000000000E+00 0. -1.
</event>
<event>
 7    1  0.6671761E-006  0.1291801E+03  0.7561462E-02  0.1228677E+00
          2   -1    0    0  501    0  0.00000000000E+00  0.00000000000E+00  0.47212699209E+03  0.47212699209E+03  0.00000000000E+00 0.  1.
         -2   -1    0    0    0  501 -0.00000000000E+00 -0.00000000000E+00 -0.53062698587E+02  0.53062698587E+02  0.00000000000E+00 0. -1.
         23    2    1    2    0    0  0.47323365676E+02  0.10432563223E+03  0.20473858992E+03  0.26587487990E+03  0.12509285784E+03 0.  0.
          5    1    3    3  502    0  0.32276254667E+01  0.45792795495E+02 -0.23560127505E+01  0.46156482551E+02  0.41800000000E+01 0. -1.
         -5    1    3    3    0  502  0.44095740210E+02  0.58532836736E+02  0.20709460267E+03  0.21971839735E+03  0.41800000000E+01 0. -1.
        -11    1    1    2    0    0 -0.23837720167E+02  0.71903696139E+01  0.76644569345E+02  0.80587395591E+02  0.00000000000E+00 0.  1.
         11    1    1    2    0    0 -0.23485645509E+02 -0.11151600185E+03  0.13768113424E+03  0.17872741519E+03  0.00000000000E+00 0. -1.
</event>
<event>
 7    1  0.6671761E-006  0.7849099E+02  0.7561462E-02  0.1333389E+00
          1   -1    0    0  501    0  0.00000000000E+00  0.00000000000E+00  0.23713595449E+03  0.23713595449E+03  0.00000000000E+00 0. -1.
         -1   -1    0    0    0  501 -0.00000000000E+00 -0.00000000000E+00 -0.53962405218E+02  0.53962405218E+02  0.00000000000E+00 0.  1.
         23    2    1    2    0    0 -0.27185590295E+01  0.13127457642E+02  0.10726489390E+03  0.16532496181E+03  0.12508742873E+03 0.  0.
          5    1    3    3  502    0  0.18010877839E+02 -0.38528498186E+02 -0.18361176676E+01  0.42774766172E+02  0.41800000000E+01 0. -1.
         -5    1    3    3    0  502 -0.20729436869E+02  0.51655955827E+02  0.10910101157E+03  0.12255019564E+03  0.41800000000E+01 0. -1.
        -11    1    1    2    0    0 -0.83413025627E+01  0.20978196447E+02  0.85685965841E+02  0.88610082929E+02  0.00000000000E+00 0. -1.
         11    1    1    2    0    0  0.11059861592E+02 -0.34105654089E+02 -0.97773104731E+01  0.37163314967E+02  0.00000000000E+00 0.  1.
</event>
<event>
 7    1  0.6671761E-006  0.1342619E+03  0.7561462E-02  0.1221265E+00
         -2   -1    0    0    0  501 -0.00000000000E+00  0.00000000000E+00  0.66204446236E+03  0.66204446236E+03  0.00000000000E+00 0. -1.
          2   -1    0    0  501    0  0.00000000000E+00 -0.00000000000E+00 -0.36476950378E+02  0.36476950378E+02  0.00000000000E+00 0.  1.
         23    2    1    2    0    0 -0.40466025668E+00  0.11006420670E+03  0.38026585828E+03  0.41516590250E+03  0.12508521206E+03 0.  0.
          5    1    3    3  502    0  0.47184106077E+02  0.51015055643E+02  0.28472765005E+03  0.29311462412E+03  0.41800000000E+01 0.  1.
         -5    1    3    3    0  502 -0.47588766334E+02  0.59049151061E+02  0.95538208227E+02  0.12205127838E+03  0.41800000000E+01 0.  1.
        -11    1    1    2    0    0 -0.25302174636E+02 -0.32170977878E+02  0.15944336782E+03  0.16461275589E+03  0.00000000000E+00 0. -1.
         11    1    1    2    0    0  0.25706834893E+02 -0.77893228825E+02  0.85858285883E+02  0.11874275436E+03  0.00000000000E+00 0.  1.
</event>
<event>
 7    1  0.6671761E-006  0.1019601E+03  0.7561462E-02  0.1276227E+00
         -2   -1    0    0    0  501 -0.00000000000E+00  0.00000000000E+00  0.32596637199E+03  0.32596637199E+03  0.00000000000E+00 0.  1.
          2   -1    0    0  501    0  0.00000000000E+00 -0.00000000000E+00 -0.37754647571E+02  0.37754647571E+02  0.00000000000E+00 0. -1.
         23    2    1    2    0    0  0.16141811823E+02 -0.18883642974E+02  0.17808590829E+03  0.21903987693E+03  0.12508687738E+03 0.  0.
          5    1    3    3  502    0 -0.27944688778E+02 -0.49205536817E+02  0.14569173318E+03  0.15635102814E+03  0.41800000000E+01 0.  1.
         -5    1    3    3    0  502  0.44086500600E+02  0.30321893843E+02  0.32394175114E+02  0.62688848791E+02  0.41800000000E+01 0.  1.
        -11    1    1    2    0    0  0.23513732770E+02 -0.25028202444E+02  0.46354605067E+02  0.57689305397E+02  0.00000000000E+00 0.  1.
         11    1    1    2    0    0 -0.39655544593E+02  0.43911845418E+02  0.63771211059E+02  0.86991837232E+02  0.00000000000E+00 0. -1.
</event>
<event>
 7    1  0.6671761E-006  0.1581609E+03  0.7561462E-02  0.1190789E+00
          1   -1    0    0  501    0  0.00000000000E+00  0.00000000000E+00  0.17493266368E+03  0.17493266368E+03  0.00000000000E+00 0. -1.
         -1   -1    0    0    0  501 -0.00000000000E+00 -0.00000000000E+00 -0.23196162964E+03  0.23196162964E+03  0.00000000000E+00 0.  1.
         23    2    1    2    0    0  0.86954016323E+02  0.11343566202E+03 -0.12137713019E+03  0.22540631723E+03  0.12508776816E+03 0.  0.
          5    1    3    3  502    0  0.88399377175E+02  0.84706220621E+02 -0.14364592245E+03  0.18878881623E+03  0.41800000000E+01 0. -1.
         -5    1    3    3    0  502 -0.14453608516E+01  0.28729441396E+02  0.22268792262E+02  0.36617501003E+02  0.41800000000E+01 0. -1.
        -11    1    1    2    0    0 -0.80640277043E+02 -0.38164932335E+02  0.13012658101E+02  0.90159556412E+02  0.00000000000E+00 0.  1.
         11    1    1    2    0    0 -0.63137392805E+01 -0.75270729681E+02  0.51335506126E+02  0.91328419671E+02  0.00000000000E+00 0. -1.
</event>
<event>
 7    1  0.6671761E-006  0.1289185E+03  0.7561462E-02  0.1229069E+00
         -2   -1    0    0    0  501 -0.00000000000E+00  0.00000000000E+00  0.14297158068E+03  0.14297158068E+03  0.00000000000E+00 0.  1.
          2   -1    0    0  501    0  0.00000000000E+00 -0.00000000000E+00 -0.16504533659E+03  0.16504533659E+03  0.00000000000E+00 0. -1.
         23    2    1    2    0    0 -0.34828525481E+02 -0.67743475595E+02  0.65790124386E+02  0.16055442615E+03  0.12508868301E+03 0.  0.
          5    1    3    3  502    0 -0.64307723070E+02  0.78381071489E+01  0.24108253156E+02  0.69250266717E+02  0.41800000000E+01 0. -1.
         -5    1    3    3    0  502  0.29479197589E+02 -0.75581582744E+02  0.41681871229E+02  0.91304159433E+02  0.41800000000E+01 0. -1.
        -11    1    1    2    0    0 -0.25292660344E+02  0.35126696667E+02 -0.11178647382E+02  0.44705320079E+02  0.00000000000E+00 0.  1.
         11    1    1    2    0    0  0.60121185825E+02  0.32616778928E+02 -0.76685232921E+02  0.10275717104E+03  0.00000000000E+00 0. -1.
</event>
<event>
 7    1  0.6671761E-006  0.7760594E+02  0.7561462E-02  0.1335986E+00
          1   -1    0    0  501    0  0.00000000000E+00  0.00000000000E+00  0.27476740647E+03  0.27476740647E+03  0.00000000000E+00 0. -1.
         -1   -1    0    0    0  501 -0.00000000000E+00 -0.00000000000E+00 -0.49119589425E+02  0.49119589425E+02  0.00000000000E+00 0.  1.
         23    2    1    2    0    0  0.23325338735E+02  0.18295542674E+02  0.86368452185E+02  0.15487575120E+03  0.12509272747E+03 0.  0.
          5    1    3    3  502    0 -0.35010709162E+02  0.52272280611E+01 -0.13739630103E+02  0.38201092976E+02  0.41800000000E+01 0. -1.
         -5    1    3    3    0  502  0.58336047897E+02  0.13068314613E+02  0.10010808229E+03  0.11667465822E+03  0.41800000000E+01 0. -1.
        -11    1    1    2    0    0  0.12488170563E+02 -0.20229441147E+02  0.12973788032E+03  0.13189807535E+03  0.00000000000E+00 0. -1.
         11    1    1    2    0    0 -0.35813509298E+02  0.19338984726E+01  0.95414845421E+01  0.37113169345E+02  0.00000000000E+00 0.  1.
</event>
<event>
 7    1  0.6671761E-006  0.1047103E+03  0.7561462E-02  0.1270691E+00
          1   -1    0    0  501    0  0.00000000000E+00  0.00000000000E+00  0.17673041303E+03  0.17673041303E+03  0.00000000000E+00 0. -1.
         -1   -1    0    0    0  501 -0.00000000000E+00 -0.00000000000E+00 -0.91489760595E+02  0.91489760595E+02  0.00000000000E+00 0.  1.
         23    2    1    2    0    0  0.63535593777E+02  0.10905357878E+01  0.31143624385E+02  0.14372341673E+03  0.12509410150E+03 0.  0.
          5    1    3    3  502    0 -0.18210949445E+02 -0.27769582055E+02 -0.23739474043E+02  0.41034417201E+02  0.41800000000E+01 0.  1.
         -5    1    3    3    0  502  0.81746543221E+02  0.28860117843E+02  0.54883098428E+02  0.10268899953E+03  0.41800000000E+01 0.  1.
        -11    1    1    2    0    0 -0.25967700078E+02  0.30511613026E+02 -0.12309512056E+02  0.41914246550E+02  0.00000000000E+00 0.  1.
         11    1    1    2    0    0 -0.37567893699E+02 -0.31602148814E+02  0.66406540108E+02  0.82582510350E+02  0.00000000000E+00 0. -1.
</event>
<event>
 7    1  0.6671761E-006  0.1585523E+03  0.7561462E-02  0.1190341E+00
         -3   -1    0    0    0  501 -0.00000000000E+00  0.00000000000E+00  0.37137276545E+03  0.37137276545E+03  0.00000000000E+00 0.  1.
          3   -1    0    0  501    0  0.00000000000E+00 -0.00000000000E+00 -0.73559552922E+02  0.73559552922E+02  0.00000000000E+00 0. -1.
         23    2    1    2    0    0 -0.32437710749E+02  0.11312936719E+03  0.21691986003E+03  0.27667983646E+03  0.12508815863E+03 0.  0.
          5    1    3    3  502    0 -0.80487509612E+02  0.66233642305E+02  0.13761053736E+03  0.17268256128E+03  0.41800000000E+01 0.  1.
         -5    1    3    3    0  502  0.48049798863E+02  0.46895724884E+02  0.79309322670E+02  0.10399727518E+03  0.41800000000E+01 0.  1.
        -11    1    1    2    0    0 -0.59403551997E+01 -0.10638053701E+03  0.71044219257E+02  0.12806009357E+03  0.00000000000E+00 0.  1.
         11    1    1    2    0    0  0.38378065949E+02 -0.67488301765E+01  0.98491332344E+01  0.40192388336E+02  0.00000000000E+00 0. -1.
</event>
<event>
 6    1  0.6671761E-006  0.1494750E+03  0.7561462E-02  0.1201120E+00
          2   -1    0    0  501    0  0.00000000000E+00  0.00000000000E+00  0.25989167657E+03  0.25989167657E+03  0.00000000000E+00 0. -1.
         -2   -1    0    0    0  501 -0.00000000000E+00 -0.00000000000E+00 -0.97160546292E+02  0.97160546292E+02  0.00000000000E+00 0.  1.
          5    1    1    2  502    0  0.92095858594E+02 -0.76201477395E+01  0.35739250204E+01  0.92574073918E+02  0.41800000000E+01 0. -1.
         -5    1    1    2    0  502 -0.11293225946E+03  0.67142136145E+01  0.11050171461E+03  0.15819885342E+03  0.41800000000E+01 0.  1.
        -11    1    1    2    0    0 -0.36059499753E+02 -0.31432121493E+01  0.10623717975E+02  0.37723078993E+02  0.00000000000E+00 0.  1.
         11    1    1    2    0    0  0.56895900617E+02  0.40491462744E+01  0.38031772669E+02  0.68556216530E+02  0.00000000000E+00 0. -1.
</event>
<event>
 7    1  0.6671761E-006  0.1018797E+03  0.7561462E-02  0.1276392E+00
          3   -1    0    0  501    0  0.00000000000E+00  0.00000000000E+00  0.37400907795E+02  0.37400907795E+02  0.00000000000E+00 0. -1.
         -3   -1    0    0    0  501 -0.00000000000E+00 -0.00000000000E+00 -0.40852074003E+03  0.40852074003E+03  0.00000000000E+00 0.  1.
         23    2    1    2    0    0  0.92812947260E+01  0.23996673333E+02 -0.29998511475E+03  0.32603845022E+03  0.12509204286E+03 0.  0.
          5    1    3    3  502    0  0.38740670576E+02 -0.36694420584E+02 -0.82930202012E+02  0.98702638589E+02  0.41800000000E+01 0. -1.
         -5    1    3    3    0  502 -0.29459375850E+02  0.60691093917E+02 -0.21705491273E+03  0.22733581163E+03  0.41800000000E+01 0. -1.
        -11    1    1    2    0    0  0.31273150531E+02  0.64503403202E+01  0.71525935349E+00  0.31939449436E+02  0.00000000000E+00 0. -1.
         11    1    1    2    0    0 -0.40554445257E+02 -0.30447013653E+02 -0.71849976848E+02  0.87943748178E+02  0.00000000000E+00 0.  1.
</event>
<event>
 7    1  0.6671761E-006  0.1195398E+03  0.7561462E-02  0.1243858E+00
          1   -1    0    0  501    0  0.00000000000E+00  0.00000000000E+00  0.32858906917E+03  0.32858906917E+03  0.00000000000E+00 0.  1.
         -1   -1    0    0    0  501 -0.00000000000E+00 -0.00000000000E+00 -0.71206057471E+02  0.71206057471E+02  0.00000000000E+00 0. -1.
         23    2    1    2    0    0  0.45642602162E+02 -0.83798463842E+02  0.73592012726E+02  0.17369364147E+03  0.12509303368E+03 0.  0.
          5    1    3    3  502    0  0.56100470523E+01  0.16593488016E+02 -0.22634564387E+02  0.28924252410E+02  0.41800000000E+01 0.  1.
         -5    1    3    3    0  502  0.40032555110E+02 -0.10039195186E+03  0.96226577113E+02  0.14476938906E+03  0.41800000000E+01 0.  1.
        -11    1    1    2    0    0  0.15011714271E+02  0.17352880591E+02  0.10188176796E+03  0.10443356104E+03  0.00000000000E+00 0.  1.
         11    1    1    2    0    0 -0.60654316433E+02  0.66445583251E+02  0.81909231014E+02  0.12166792412E+03  0.00000000000E+00 0. -1.
</event>
<event>
 7    1  0.6671761E-006  0.1309816E+03  0.7561462E-02  0.1226006E+00
          1   -1    0    0  501    0  0.00000000000E+00  0.00000000000E+00  0.21355874473E+03  0.21355874473E+03  0.00000000000E+00 0. -1.
         -1   -1    0    0    0  501 -0.00000000000E+00 -0.00000000000E+00 -0.12326353385E+03  0.12326353385E+03  0.00000000000E+00 0.  1.
         23    2    1    2    0    0  0.97077502952E+02 -0.66928823336E+02  0.20223495764E+02  0.17308847779E+03  0.12508845826E+03 0.  0.
          5    1    3    3  502    0  0.45418357113E+02 -0.24730973696E+02  0.71858451494E+02  0.88631583953E+02  0.41800000000E+01 0. -1.
         -5    1    3    3    0  502  0.51659145839E+02 -0.42197849640E+02 -0.51634955730E+02  0.84456893836E+02  0.41800000000E+01 0. -1.
        -11    1    1    2    0    0 -0.49435353558E+02  0.79821097647E+02  0.25647157834E+02  0.97329535681E+02  0.00000000000E+00 0.  1.
         11    1    1    2    0    0 -0.47642149394E+02 -0.12892274310E+02  0.44424557279E+02  0.66404265113E+02  0.00000000000E+00 0. -1.
</event>
<event>
 6    1  0.6671761E-006  0.4214629E+03  0.7561462E-02  0.1036591E+00
          1   -1    0    0  501    0  0.00000000000E+00  0.00000000000E+00  0.10758180589E+04  0.10758180589E+04  0.00000000000E+00 0. -1.
         -1   -1    0    0    0  501 -0.00000000000E+00 -0.00000000000E+00 -0.39359765584E+03  0.39359765584E+03  0.00000000000E+00 0.  1.
          5    1    1    2  502    0  0.46808675956E+02 -0.67468979914E+02  0.71215321506E+02  0.10877596156E+03  0.41800000000E+01 0. -1.
         -5    1    1    2    0  502  0.34860732871E+03  0.68027584141E+02 -0.23263555239E+03  0.42460757703E+03  0.41800000000E+01 0.  1.
        -11    1    1    2    0    0 -0.29904545746E+03  0.38494307957E+02  0.62749299293E+03  0.69617343640E+03  0.00000000000E+00 0. -1.
         11    1    1    2    0    0 -0.96370547215E+02 -0.39052912184E+02  0.21614764103E+03  0.23985873976E+03  0.00000000000E+00 0.  1.
</event>
<event>
 7    1  0.6671761E-006  0.8237494E+02  0.7561462E-02  0.1322444E+00
         -2   -1    0    0    0  501 -0.00000000000E+00  0.00000000000E+00  0.41955996880E+03  0.41955996880E+03  0.00000000000E+00 0.  1.
          2   -1    0    0  501    0  0.00000000000E+00 -0.00000000000E+00 -0.29658818907E+02  0.29658818907E+02  0.00000000000E+00 0. -1.
         23    2    1    2    0    0  0.91245551948E+01  0.12109182640E+02  0.26969695985E+03  0.29768126341E+03  0.12509114525E+03 0.  0.
          5    1    3    3  502    0 -0.44071738006E+02 -0.22064468684E+02  0.18739021565E+03  0.19380847296E+03  0.41800000000E+01 0.  1.
         -5    1    3    3    0  502  0.53196293201E+02  0.34173651324E+02  0.82306744201E+02  0.10387279045E+03  0.41800000000E+01 0.  1.
        -11    1    1    2    0    0  0.31619056196E+01  0.18588768329E+02 -0.69945969761E+01  0.20111298864E+02  0.00000000000E+00 0. -1.
         11    1    1    2    0    0 -0.12286460814E+02 -0.30697950969E+02  0.12719878702E+03  0.13142622543E+03  0.00000000000E+00 0.  1.
</event>
<event>
 7    1  0.1070681E-005  0.1153380E+03  0.7561462E-02  0.1250992E+00
          1   -1    0    0  501    0  0.00000000000E+00  0.00000000000E+00  0.10093787726E+04  0.10093787726E+04  0.00000000000E+00 0. -1.
         -1   -1    0    0    0  501 -0.00000000000E+00 -0.00000000000E+00 -0.17332008549E+02  0.17332008549E+02  0.00000000000E+00 0.  1.
         23    2    1    2    0    0  0.72201499047E+02  0.18335426579E+02  0.49186353262E+03  0.51295887176E+03  0.12509126694E+03 0.  0.
          5    1    3    3  502    0  0.95690526443E+02  0.22339524605E+02  0.23219744730E+03  0.25216831312E+03  0.41800000000E+01 0. -1.
         -5    1    3    3    0  502 -0.23489027396E+02 -0.40040980258E+01  0.25966608533E+03  0.26079055864E+03  0.41800000000E+01 0. -1.
        -11    1    1    2    0    0 -0.42265838038E+01  0.26413605532E+02  0.54632411684E+02  0.60829622506E+02  0.00000000000E+00 0.  1.
         11    1    1    2    0    0 -0.67974915244E+02 -0.44749032110E+02  0.44555081972E+03  0.45292228686E+03  0.00000000000E+00 0. -1.
</event>
<event>
 7    1  0.6671761E-006  0.8615501E+02  0.7561462E-02  0.1312439E+00
          1   -1    0    0  501    0  0.00000000000E+00  0.00000000000E+00  0.15973246419E+03  0.15973246419E+03  0.00000000000E+00 0. -1.
         -1   -1    0    0    0  501 -0.00000000000E+00 -0.00000000000E+00 -0.96929841435E+02  0.96929841435E+02  0.00000000000E+00 0.  1.
         23    2    1    2    0    0 -0.44414361418E+02  0.22610906761E+02 -0.22117152799E+01  0.13467181019E+03  0.12509083168E+03 0.  0.
          5    1    3    3  502    0 -0.41063162669E+02 -0.38997073680E+02  0.30770928306E+02  0.64585428022E+02  0.41800000000E+01 0.  1.
         -5    1    3    3    0  502 -0.33511987491E+01  0.61607980441E+02 -0.32982643586E+02  0.70086382165E+02  0.41800000000E+01 0.  1.
        -11    1    1    2    0    0  0.24023742222E+02 -0.23045599456E+02 -0.17069136663E+02  0.37411165059E+02  0.00000000000E+00 0.  1.
         11    1    1    2    0    0  0.20390619196E+02  0.43469269541E+00  0.82083474701E+02  0.84579330382E+02  0.00000000000E+00 0. -1.
</event>
<event>
 7    1  0.6671761E-006  0.6098725E+02  0.7561462E-02  0.1393735E+00
          1   -1    0    0  501    0  0.00000000000E+00  0.00000000000E+00  0.79805395067E+02  0.79805395067E+02  0.00000000000E+00 0. -1.
         -1   -1    0    0    0  501 -0.00000000000E+00 -0.00000000000E+00 -0.14720778402E+03  0.14720778402E+03  0.00000000000E+00 0.  1.
         23    2    1    2    0    0  0.12673288770E+01 -0.75109884387E+01 -0.45500973987E+02  0.13332420776E+03  0.12508790777E+03 0.  0.
          5    1    3    3  502    0  0.37509923504E+02 -0.34018837988E+02  0.19319580014E+02  0.54359859007E+02  0.41800000000E+01 0. -1.
         -5    1    3    3    0  502 -0.36242594627E+02  0.26507849549E+02 -0.64820554002E+02  0.78964348753E+02  0.41800000000E+01 0. -1.
        -11    1    1    2    0    0 -0.12736541479E+02  0.71199537335E+01 -0.55917128231E+02  0.57789605117E+02  0.00000000000E+00 0.  1.
         11    1    1    2    0    0  0.11469212602E+02  0.39103470516E+00  0.34015713261E+02  0.35899366213E+02  0.00000000000E+00 0. -1.
</event>
<event>
 7    1  0.6671761E-006  0.8947334E+02  0.7561462E-02  0.1304132E+00
         -1   -1    0    0    0  501 -0.00000000000E+00  0.00000000000E+00  0.73579485851E+02  0.73579485851E+02  0.00000000000E+00 0.  1.
          1   -1    0    0  501    0  0.00000000000E+00 -0.00000000000E+00 -0.18282970305E+03  0.18282970305E+03  0.00000000000E+00 0. -1.
         23    2    1    2    0    0  0.22864817988E+02 -0.25366409965E+02 -0.19182690514E+02  0.12443341534E+03  0.11810776681E+03 0.  0.
          5    1    3    3  502    0  0.89088841204E+01  0.45476704924E+02 -0.23207871002E+02  0.51995928528E+02  0.41800000000E+01 0. -1.
         -5    1    3    3    0  502  0.13955933867E+02 -0.70843114890E+02  0.40251804881E+01  0.72437486810E+02  0.41800000000E+01 0.  1.
        -11    1    1    2    0    0 -0.38589545630E+02  0.15894449135E+02 -0.17508271868E+01  0.41771424934E+02  0.00000000000E+00 0.  1.
         11    1    1    2    0    0  0.15724727642E+02  0.94719608301E+01 -0.88316699497E+02  0.90204348628E+02  0.00000000000E+00 0. -1.
</event>
<event>
 7    1  0.6671761E-006  0.1652613E+03  0.7561462E-02  0.1182882E+00
         -1   -1    0    0    0  501 -0.00000000000E+00  0.00000000000E+00  0.16851179856E+03  0.16851179856E+03  0.00000000000E+00 0.  1.
          1   -1    0    0  501    0  0.00000000000E+00 -0.00000000000E+00 -0.26025049170E+03  0.26025049170E+03  0.00000000000E+00 0. -1.
         23    2    1    2    0    0 -0.14029986115E+03 -0.74202921107E+02  0.36668466056E+02  0.20538334828E+03  0.12509044252E+03 0.  0.
          5    1    3    3  502    0 -0.75086663372E+02 -0.73626191464E+02  0.75356222894E+02  0.12944054934E+03  0.41800000000E+01 0. -1.
         -5    1    3    3    0  502 -0.65213197778E+02 -0.57672964232E+00 -0.38687756838E+02  0.75942798939E+02  0.41800000000E+01 0. -1.
        -11    1    1    2    0    0  0.41503233490E+02  0.32400348376E+02  0.41914548164E+01  0.52819212967E+02  0.00000000000E+00 0.  1.
         11    1    1    2    0    0  0.98796627660E+02  0.41802572731E+02 -0.13259861401E+03  0.17055972901E+03  0.00000000000E+00 0. -1.
</event>
<event>
 7    1  0.6671761E-006  0.1171641E+03  0.7561462E-02  0.1247850E+00
         -1   -1    0    0    0  501 -0.00000000000E+00  0.00000000000E+00  0.42245219527E+02  0.42245219527E+02  0.00000000000E+00 0.  1.
          1   -1    0    0  501    0  0.00000000000E+00 -0.00000000000E+00 -0.40808723975E+03  0.40808723975E+03  0.00000000000E+00 0. -1.
         23    2    1    2    0    0 -0.48788813177E+02  0.51007313398E+02 -0.14417285394E+03  0.20095805573E+03  0.12089761801E+03 0.  0.
          5    1    3    3  502    0 -0.52696521854E+02  0.79052273012E+02 -0.14371689207E+03  0.17233166497E+03  0.41800000000E+01 0. -1.
         -5    1    3    3    0  502  0.39077086774E+01 -0.28044959614E+02 -0.45596186414E+00  0.28626390763E+02  0.41800000000E+01 0.  1.
        -11    1    1    2    0    0  0.72182584211E+02 -0.48754375029E+02 -0.19648725120E+03  0.21492918469E+03  0.00000000000E+00 0. -1.
         11    1    1    2    0    0 -0.23393771034E+02 -0.22529383686E+01 -0.25181915083E+02  0.34445218852E+02  0.00000000000E+00 0.  1.
</event>
<event>
 7    1  0.6671761E-006  0.1161814E+03  0.7561462E-02  0.1249533E+00
          1   -1    0    0  501    0  0.00000000000E+00  0.00000000000E+00  0.81252356162E+03  0.81252356162E+03  0.00000000000E+00 0. -1.
         -1   -1    0    0    0  501 -0.00000000000E+00 -0.00000000000E+00 -0.33486577134E+02  0.33486577134E+02  0.00000000000E+00 0.  1.
         23    2    1    2    0    0 -0.52837407257E+01  0.81776154626E+02  0.17710108119E+03  0.23179195380E+03  0.12508980577E+03 0.  0.
          5    1    3    3  502    0 -0.27704936469E+02  0.21533466492E+01  0.13684812006E+03  0.13970354602E+03  0.41800000000E+01 0. -1.
         -5    1    3    3    0  502  0.22421195743E+02  0.79622807977E+02  0.40252961130E+02  0.92088407785E+02  0.41800000000E+01 0. -1.
        -11    1    1    2    0    0  0.40165585435E+02 -0.96351587116E+01  0.17309930304E+03  0.17795920670E+03  0.00000000000E+00 0.  1.
         11    1    1    2    0    0 -0.34881844709E+02 -0.72140995915E+02  0.42883660026E+03  0.43625897825E+03  0.00000000000E+00 0. -1.
</event>
<event>
 7    1  0.6671761E-006  0.1800885E+03  0.7561462E-02  0.1167717E+00
          1   -1    0    0  501    0  0.00000000000E+00  0.00000000000E+00  0.10896517046E+04  0.10896517046E+04  0.00000000000E+00 0. -1.
         -1   -1    0    0    0  501 -0.00000000000E+00 -0.00000000000E+00 -0.32284906121E+02  0.32284906121E+02  0.00000000000E+00 0.  1.
         23    2    1    2    0    0  0.11304920378E+03  0.96398050319E+02  0.45331988165E+03  0.49317213364E+03  0.12508849553E+03 0.  0.
          5    1    3    3  502    0  0.39414492977E+02 -0.27420179889E+02  0.85886505449E+02  0.98485190460E+02  0.41800000000E+01 0. -1.
         -5    1    3    3    0  502  0.73634710806E+02  0.12381823021E+03  0.36743337620E+03  0.39468694318E+03  0.41800000000E+01 0. -1.
        -11    1    1    2    0    0 -0.32894414948E+02 -0.79371921512E+02  0.39488561265E+03  0.40412447530E+03  0.00000000000E+00 0. -1.
         11    1    1    2    0    0 -0.80154788835E+02 -0.17026128807E+02  0.20916130415E+03  0.22464000176E+03  0.00000000000E+00 0.  1.
</event>
<event>
 7    1  0.6671761E-006  0.1603344E+03  0.7561462E-02  0.1188320E+00
          2   -1    0    0  501    0  0.00000000000E+00  0.00000000000E+00  0.12315751335E+03  0.12315751335E+03  0.00000000000E+00 0. -1.
         -2   -1    0    0    0  501 -0.00000000000E+00 -0.00000000000E+00 -0.25291599922E+03  0.25291599922E+03  0.00000000000E+00 0.  1.
         23    2    1    2    0    0  0.99789078596E+02 -0.97497279471E+02 -0.67019814776E+02  0.19900510272E+03  0.12509114927E+03 0.  0.
          5    1    3    3  502    0  0.82868293462E+02 -0.12410063472E+03 -0.73733251779E+02  0.16649980906E+03  0.41800000000E+01 0.  1.
         -5    1    3    3    0  502  0.16920785134E+02  0.26603355247E+02  0.67134370032E+01  0.32505293667E+02  0.41800000000E+01 0.  1.
        -11    1    1    2    0    0 -0.49357415719E+02  0.45162869395E+02 -0.78044839707E+02  0.10279511790E+03  0.00000000000E+00 0.  1.
         11    1    1    2    0    0 -0.50431662877E+02  0.52334410076E+02  0.15306168615E+02  0.74273291944E+02  0.00000000000E+00 0. -1.
</event>
<event>
 7    1  0.6671761E-006  0.1430186E+03  0.7561462E-02  0.1209324E+00
         -2   -1    0    0    0  501 -0.00000000000E+00  0.00000000000E+00  0.78267345293E+02  0.78267345293E+02  0.00000000000E+00 0.  1.
          2   -1    0    0  501    0  0.00000000000E+00 -0.00000000000E+00 -0.75407769670E+03  0.75407769670E+03  0.00000000000E+00 0. -1.
         23    2    1    2    0    0  0.96048926186E+02 -0.10431947070E+03 -0.66955962093E+02  0.20059488407E+03  0.12508900217E+03 0.  0.
          5    1    3    3  502    0  0.63088356100E+02 -0.65189515675E+02  0.25951317857E+02  0.94449758750E+02  0.41800000000E+01 0. -1.
         -5    1    3    3    0  502  0.32960570086E+02 -0.39129955027E+02 -0.92907279950E+02  0.10614512532E+03  0.41800000000E+01 0. -1.
        -11    1    1    2    0    0 -0.20929989087E+02  0.96752035610E+01 -0.19685413197E+02  0.30318138133E+02  0.00000000000E+00 0.  1.
         11    1    1    2    0    0 -0.75118937100E+02  0.94644267141E+02 -0.58916897611E+03  0.60143201979E+03  0.00000000000E+00 0. -1.
</event>
<event>
 7    1  0.6671761E-006  0.7854107E+02  0.7561462E-02  0.1333243E+00
          2   -1    0    0  501    0  0.00000000000E+00  0.00000000000E+00  0.46024569229E+02  0.46024569229E+02  0.00000000000E+00 0. -1.
         -2   -1    0    0    0  501 -0.00000000000E+00 -0.00000000000E+00 -0.31286769371E+03  0.31286769371E+03  0.00000000000E+00 0.  1.
         23    2    1    2    0    0 -0.11081266398E+02 -0.19155856530E+02 -0.19212665077E+03  0.23032483089E+03  0.12508851459E+03 0.  0.
          5    1    3    3  502    0 -0.51326004883E+02 -0.58034092589E+01 -0.17807173136E+03  0.18545903118E+03  0.41800000000E+01 0.  1.
         -5    1    3    3    0  502  0.40244738485E+02 -0.13352447271E+02 -0.14054919411E+02  0.44865799709E+02  0.41800000000E+01 0.  1.
        -11    1    1    2    0    0  0.35096976257E+02  0.15472606188E+02 -0.91381477694E+02  0.99104862394E+02  0.00000000000E+00 0.  1.
         11    1    1    2    0    0 -0.24015709860E+02  0.36832503423E+01  0.16665003982E+02  0.29462569658E+02  0.00000000000E+00 0. -1.
</event>
<event>
 7    1  0.6671761E-006  0.8784933E+02  0.7561462E-02  0.1308145E+00
          1   -1    0    0  501    0  0.00000000000E+00  0.00000000000E+00  0.41165262830E+02  0.41165262830E+02  0.00000000000E+00 0. -1.
         -1   -1    0    0    0  501 -0.00000000000E+00 -0.00000000000E+00 -0.27244482109E+03  0.27244482109E+03  0.00000000000E+00 0.  1.
         23    2    1    2    0    0 -0.18861284559E+02  0.18475074890E+02 -0.12154627852E+03  0.17096272074E+03  0.11729312688E+03 0.  0.
          5    1    3    3  502    0 -0.48993584686E+02 -0.22461840658E+02 -0.20576510322E+02  0.57842638279E+02  0.41800000000E+01 0. -1.
         -5    1    3    3    0  502  0.30132300127E+02  0.40936915548E+02 -0.10096976820E+03  0.11312008246E+03  0.41800000000E+01 0.  1.
        -11    1    1    2    0    0  0.36457692582E+02  0.94206813891E+01 -0.10205958213E+03  0.10878451586E+03  0.00000000000E+00 0.  1.
         11    1    1    2    0    0 -0.17596408024E+02 -0.27895756279E+02 -0.76736976100E+01  0.33862847322E+02  0.00000000000E+00 0. -1.
</event>
<event>
 7    1  0.6671761E-006  0.1232517E+03  0.7561462E-02  0.1237827E+00
          2   -1    0    0  501    0  0.00000000000E+00  0.00000000000E+00  0.39622936792E+03  0.39622936792E+03  0.00000000000E+00 0. -1.
         -2   -1    0    0    0  501 -0.00000000000E+00 -0.00000000000E+00 -0.54781999231E+02  0.54781999231E+02  0.00000000000E+00 0.  1.
         23    2    1    2    0    0  0.58664474018E+02  0.65105260812E+02  0.11120264194E+03  0.18866096745E+03  0.12468647708E+03 0.  0.
          5    1    3    3  502    0  0.39227910699E+02 -0.12180314051E+02 -0.10983419800E+02  0.42723493989E+02  0.41800000000E+01 0.  1.
         -5    1    3    3    0  502  0.19436563319E+02  0.77285574863E+02  0.12218606174E+03  0.14593747346E+03  0.41800000000E+01 0.  1.
        -11    1    1    2    0    0  0.22933534017E+02 -0.26798050880E+02  0.73753524587E+02  0.81753684336E+02  0.00000000000E+00 0. -1.
         11    1    1    2    0    0 -0.81598008035E+02 -0.38307209932E+02  0.15649120216E+03  0.18059671537E+03  0.00000000000E+00 0.  1.
</event>
<event>
 7    1  0.6671761E-006  0.8862413E+02  0.7561462E-02  0.1306218E+00
          1   -1    0    0  501    0  0.00000000000E+00  0.00000000000E+00  0.86800630799E+03  0.86800630799E+03  0.00000000000E+00 0. -1.
         -1   -1    0    0    0  501 -0.00000000000E+00 -0.00000000000E+00 -0.16182015018E+02  0.16182015018E+02  0.00000000000E+00 0.  1.
         23    2    1    2    0    0 -0.30000823636E+02  0.32013921304E+02  0.54794112571E+03  0.56374851416E+03  0.12509184385E+03 0.  0.
          5    1    3    3  502    0  0.98107792584E+01 -0.13310549336E+02  0.54612534805E+01  0.17908651620E+02  0.41800000000E+01 0.  1.
         -5    1    3    3    0  502 -0.39811602894E+02  0.45324470640E+02  0.54247987223E+03  0.54583986254E+03  0.41800000000E+01 0.  1.
        -11    1    1    2    0    0  0.58109920612E+02 -0.13528453540E+01  0.20696870494E+03  0.21497590071E+03  0.00000000000E+00 0.  1.
         11    1    1    2    0    0 -0.28109096976E+02 -0.30661075950E+02  0.96914462324E+02  0.10546390813E+03  0.00000000000E+00 0. -1.
</event>
<event>
 7    1  0.6671761E-006  0.1081616E+03  0.7561462E-02  0.1264013E+00
         -1   -1    0    0    0  501 -0.00000000000E+00  0.00000000000E+00  0.32560653521E+02  0.32560653521E+02  0.00000000000E+00 0.  1.
          1   -1    0    0  501    0  0.00000000000E+00 -0.00000000000E+00 -0.39308432221E+03  0.39308432221E+03  0.00000000000E+00 0. -1.
         23    2    1    2    0    0  0.13727734770E+02  0.25570598357E+02 -0.17560354772E+03  0.21754574703E+03  0.12508892789E+03 0.  0.
          5    1    3    3  502    0 -0.40592111394E+02  0.47649833826E+02 -0.55218664457E+02  0.83575112776E+02  0.41800000000E+01 0. -1.
         -5    1    3    3    0  502  0.54319846164E+02 -0.22079235469E+02 -0.12038488326E+03  0.13397063426E+03  0.41800000000E+01 0. -1.
        -11    1    1    2    0    0  0.10147275458E+02 -0.55555556197E+02 -0.98093605747E+02  0.11318896815E+03  0.00000000000E+00 0.  1.
         11    1    1    2    0    0 -0.23875010228E+02  0.29984957839E+02 -0.86826515230E+02  0.94910260546E+02  0.00000000000E+00 0. -1.
</event>
<event>
 7    1  0.6671761E-006  0.8109236E+02  0.7561462E-02  0.1325980E+00
         -1   -1    0    0    0  501 -0.00000000000E+00  0.00000000000E+00  0.10629766551E+03  0.10629766551E+03  0.00000000000E+00 0.  1.
          1   -1    0    0  501    0  0.00000000000E+00 -0.00000000000E+00 -0.12076780654E+03  0.12076780654E+03  0.00000000000E+00 0. -1.
         23    2    1    2    0    0 -0.28088804313E+02  0.19899607384E+02  0.10714003250E+02  0.13018360524E+03  0.12509198978E+03 0.  0.
          5    1    3    3  502    0  0.28666283695E+02 -0.35908493523E+02 -0.11283825884E+02  0.47497082590E+02  0.41800000000E+01 0.  1.
         -5    1    3    3    0  502 -0.56755088008E+02  0.55808100906E+02  0.21997829134E+02  0.82686522651E+02  0.41800000000E+01 0.  1.
        -11    1    1    2    0    0  0.18752443998E+02 -0.61776883076E+01  0.31854825432E+02  0.37477298355E+02  0.00000000000E+00 0.  1.
         11    1    1    2    0    0  0.93363603150E+01 -0.13721919076E+02 -0.57038969715E+02  0.59404568454E+02  0.00000000000E+00 0. -1.
</event>
<event>
 6    1  0.6671761E-006  0.1307729E+03  0.7561462E-02  0.1226313E+00
         -1   -1    0    0    0  501 -0.00000000000E+00  0.00000000000E+00  0.19681144465E+03  0.19681144465E+03  0.00000000000E+00 0.  1.
          1   -1    0    0  501    0  0.00000000000E+00 -0.00000000000E+00 -0.12791568403E+03  0.12791568403E+03  0.00000000000E+00 0. -1.
          5    1    1    2  502    0 -0.39889871778E+02 -0.45252567201E+02  0.70723990702E+02  0.93050265822E+02  0.41800000000E+01 0. -1.
         -5    1    1    2    0  502  0.75212170595E+02  0.71561943358E+02  0.53182470904E+02  0.11672116327E+03  0.41800000000E+01 0.  1.
        -11    1    1    2    0    0  0.28330042947E+01 -0.51420649489E+02 -0.13510703654E+02  0.53241414523E+02  0.00000000000E+00 0.  1.
         11    1    1    2    0    0 -0.38155303112E+02  0.25111273331E+02 -0.41499997327E+02  0.61714285073E+02  0.00000000000E+00 0. -1.
</event>
<event>
 7    1  0.6671761E-006  0.1344981E+03  0.7561462E-02  0.1220930E+00
          2   -1    0    0  501    0  0.00000000000E+00  0.00000000000E+00  0.72456763917E+03  0.72456763917E+03  0.00000000000E+00 0. -1.
         -2   -1    0    0    0  501 -0.00000000000E+00 -0.00000000000E+00 -0.25166774182E+02  0.25166774182E+02  0.00000000000E+00 0.  1.
         23    2    1    2    0    0 -0.39181141124E+02 -0.75061508153E+02  0.37823409929E+03  0.40727101857E+03  0.12505701451E+03 0.  0.
          5    1    3    3  502    0  0.37622113660E+02 -0.61787928351E+02  0.16542539344E+03  0.18059957010E+03  0.41800000000E+01 0.  1.
         -5    1    3    3    0  502 -0.76803254783E+02 -0.13273579802E+02  0.21280870585E+03  0.22667144847E+03  0.41800000000E+01 0.  1.
        -11    1    1    2    0    0  0.12830273957E+02  0.88135948278E+02  0.22871883346E+03  0.24544829616E+03  0.00000000000E+00 0.  1.
         11    1    1    2    0    0  0.26350867167E+02 -0.13074440126E+02  0.92447932237E+02  0.97015098619E+02  0.00000000000E+00 0. -1.
</event>
<event>
 6    1  0.6671761E-006  0.1080579E+03  0.7561462E-02  0.1264209E+00
         -1   -1    0    0    0  501 -0.00000000000E+00  0.00000000000E+00  0.27055188644E+04  0.27055188644E+04  0.00000000000E+00 0.  1.
          1   -1    0    0  501    0  0.00000000000E+00 -0.00000000000E+00 -0.75464898235E+01  0.75464898235E+01  0.00000000000E+00 0. -1.
          5    1    1    2  502    0  0.19085611574E+02  0.49260131845E+02  0.11760531876E+04  0.11772465305E+04  0.41800000000E+01 0. -1.
         -5    1    1    2    0  502 -0.20256865630E+02 -0.86882630174E+02  0.12739270098E+04  0.12770538089E+04  0.41800000000E+01 0.  1.
        -11    1    1    2    0    0  0.32198029688E+02  0.15701747002E+02  0.11455034232E+03  0.12002099358E+03  0.00000000000E+00 0. -1.
         11    1    1    2    0    0 -0.31026775633E+02  0.21920751327E+02  0.13344183482E+03  0.13874402122E+03  0.00000000000E+00 0.  1.
</event>
<event>
 7    1  0.6671761E-006  0.1114692E+03  0.7561462E-02  0.1257873E+00
         -4   -1    0    0    0  501 -0.00000000000E+00  0.00000000000E+00  0.76727288485E+02  0.76727288485E+02  0.00000000000E+00 0. -1.
          4   -1    0    0  501    0  0.00000000000E+00 -0.00000000000E+00 -0.20646050709E+03  0.20646050709E+03  0.00000000000E+00 0.  1.
         23    2    1    2    0    0 -0.46373147574E+02 -0.25761137174E+02 -0.34635361994E+02  0.14021793883E+03  0.12508939630E+03 0.  0.
          5    1    3    3  502    0 -0.59982908499E+01  0.45371264697E+02  0.98747044695E+01  0.47005460764E+02  0.41800000000E+01 0.  1.
         -5    1    3    3    0  502 -0.40374856724E+02 -0.71132401871E+02 -0.44510066464E+02  0.93212478070E+02  0.41800000000E+01 0.  1.
        -11    1    1    2    0    0  0.44800544759E+02 -0.20165255922E+02 -0.16321304202E+02  0.51769791654E+02  0.00000000000E+00 0.  1.
         11    1    1    2    0    0  0.15726028153E+01  0.45926393096E+02 -0.78776552409E+02  0.91200065086E+02  0.00000000000E+00 0. -1.
</event>
<event>
 7    1  0.6671761E-006  0.8631163E+02  0.7561462E-02  0.1312038E+00
          1   -1    0    0  501    0  0.00000000000E+00  0.00000000000E+00  0.18241241179E+03  0.18241241179E+03  0.00000000000E+00 0. -1.
         -1   -1    0    0    0  501 -0.00000000000E+00 -0.00000000000E+00 -0.20681846269E+03  0.20681846269E+03  0.00000000000E+00 0.  1.
         23    2    1    2    0    0 -0.34043914662E+02 -0.18160538734E+02 -0.17079524072E+03  0.21182644903E+03  0.11920837623E+03 0.  0.
          5    1    3    3  502    0  0.13781310393E+02  0.92630982460E+01  0.11963128081E+02  0.20888234457E+02  0.41800000000E+01 0. -1.
         -5    1    3    3    0  502 -0.47825225055E+02 -0.27423636980E+02 -0.18275836880E+03  0.19093821457E+03  0.41800000000E+01 0.  1.
        -11    1    1    2    0    0 -0.26946813610E+02 -0.14947049361E+02  0.45270275338E+02  0.54762604737E+02  0.00000000000E+00 0.  1.
         11    1    1    2    0    0  0.60990728272E+02  0.33107588096E+02  0.10111891448E+03  0.12264182072E+03  0.00000000000E+00 0. -1.
</event>
<event>
 7    1  0.6671761E-006  0.6143416E+02  0.7561462E-02  0.1391910E+00
         -3   -1    0    0    0  501 -0.00000000000E+00  0.00000000000E+00  0.17469294436E+03  0.17469294436E+03  0.00000000000E+00 0.  1.
          3   -1    0    0  501    0  0.00000000000E+00 -0.00000000000E+00 -0.77404614187E+02  0.77404614187E+02  0.00000000000E+00 0. -1.
         23    2    1    2    0    0  0.39078783780E+02  0.26080136243E+01  0.78103103175E+02  0.15258480996E+03  0.12509227165E+03 0.  0.
          5    1    3    3  502    0  0.32777343175E+02 -0.27388776468E+02 -0.21703585468E+02  0.48093838734E+02  0.41800000000E+01 0. -1.
         -5    1    3    3    0  502  0.63014406052E+01  0.29996790092E+02  0.99806688643E+02  0.10449097122E+03  0.41800000000E+01 0. -1.
        -11    1    1    2    0    0 -0.60935829455E+01 -0.13061419290E+02  0.50700831215E+02  0.52709645350E+02  0.00000000000E+00 0.  1.
         11    1    1    2    0    0 -0.32985200835E+02  0.10453405666E+02 -0.31515604214E+02  0.46803103242E+02  0.00000000000E+00 0. -1.
</event>
<event>
 7    1  0.6671761E-006  0.7745626E+02  0.7561462E-02  0.1336429E+00
         -1   -1    0    0    0  501 -0.00000000000E+00  0.00000000000E+00  0.17255457589E+03  0.17255457589E+03  0.00000000000E+00 0.  1.
          1   -1    0    0  501    0  0.00000000000E+00 -0.00000000000E+00 -0.76815751666E+02  0.76815751666E+02  0.00000000000E+00 0. -1.
         23    2    1    2    0    0 -0.19438674583E+02 -0.17446875401E+02  0.85024919295E+02  0.15348941095E+03  0.12508999497E+03 0.  0.
          5    1    3    3  502    0 -0.48640702275E+02 -0.37539511706E+02  0.33449149832E+00  0.61585039916E+02  0.41800000000E+01 0.  1.
         -5    1    3    3    0  502  0.29202027692E+02  0.20092636305E+02  0.84690427796E+02  0.91904371035E+02  0.41800000000E+01 0.  1.
        -11    1    1    2    0    0  0.30234852198E+02  0.28950176315E+02  0.42960431264E+02  0.59982144431E+02  0.00000000000E+00 0.  1.
         11    1    1    2    0    0 -0.10796177616E+02 -0.11503300914E+02 -0.32246526335E+02  0.35898772175E+02  0.00000000000E+00 0. -1.
</event>
<event>
 7    1  0.6671761E-006  0.1925484E+03  0.7561462E-02  0.1156183E+00
          1   -1    0    0  501    0  0.00000000000E+00  0.00000000000E+00  0.10725919732E+03  0.10725919732E+03  0.00000000000E+00 0. -1.
         -1   -1    0    0    0  501 -0.00000000000E+00 -0.00000000000E+00 -0.44071863433E+03  0.44071863433E+03  0.00000000000E+00 0.  1.
         23    2    1    2    0    0  0.16376447680E+03 -0.25434245198E+02 -0.29263545641E+03  0.35469063107E+03  0.11271303709E+03 0.  0.
          5    1    3    3  502    0  0.54699787136E+02  0.43795036869E+02 -0.86687254751E+02  0.11154471975E+03  0.41800000000E+01 0. -1.
         -5    1    3    3    0  502  0.10906468967E+03 -0.69229282067E+02 -0.20594820166E+03  0.24314591133E+03  0.41800000000E+01 0.  1.
        -11    1    1    2    0    0  0.76190846126E+01  0.11376665303E+02 -0.13394023598E+02  0.19154081337E+02  0.00000000000E+00 0.  1.
         11    1    1    2    0    0 -0.17138356141E+03  0.14057579895E+02 -0.27429956996E+02  0.17413311924E+03  0.00000000000E+00 0. -1.
</event>
<event>
 7    1  0.6671761E-006  0.1402683E+03  0.7561462E-02  0.1212968E+00
         -1   -1    0    0    0  501 -0.00000000000E+00  0.00000000000E+00  0.39090081255E+03  0.39090081255E+03  0.00000000000E+00 0.  1.
          1   -1    0    0  501    0  0.00000000000E+00 -0.00000000000E+00 -0.70320864058E+02  0.70320864058E+02  0.00000000000E+00 0. -1.
         23    2    1    2    0    0  0.10112647274E+03 -0.71587449101E+02  0.16911894449E+03  0.24413073877E+03  0.12508906376E+03 0.  0.
          5    1    3    3  502    0  0.64753261075E+02 -0.33901996650E+02  0.68070610849E+01  0.73526448828E+02  0.41800000000E+01 0. -1.
         -5    1    3    3    0  502  0.36373211661E+02 -0.37685452451E+02  0.16231188340E+03  0.17060428994E+03  0.41800000000E+01 0. -1.
        -11    1    1    2    0    0  0.11112263115E+02 -0.10844186830E+02  0.93556279813E+01  0.18127508225E+02  0.00000000000E+00 0.  1.
         11    1    1    2    0    0 -0.11223873585E+03  0.82431635931E+02  0.14210537602E+03  0.19896342961E+03  0.00000000000E+00 0. -1.
</event>
<event>
 7    1  0.6671761E-006  0.1781757E+03  0.7561462E-02  0.1169580E+00
          2   -1    0    0  501    0  0.00000000000E+00  0.00000000000E+00  0.71012111282E+02  0.71012111282E+02  0.00000000000E+00 0. -1.
         -2   -1    0    0    0  501 -0.00000000000E+00 -0.00000000000E+00 -0.50592141669E+03  0.50592141669E+03  0.00000000000E+00 0.  1.
         23    2    1    2    0    0  0.12288587586E+03  0.81761422571E+02 -0.29694336126E+03  0.35441152585E+03  0.12508517560E+03 0.  0.
          5    1    3    3  502    0  0.55368506607E+02  0.10202776282E+03 -0.22713536112E+03  0.25511425005E+03  0.41800000000E+01 0. -1.
         -5    1    3    3    0  502  0.67517369254E+02 -0.20266340244E+02 -0.69808000138E+02  0.99297275799E+02  0.41800000000E+01 0. -1.
        -11    1    1    2    0    0 -0.79981319061E+02 -0.95459656720E+02 -0.12306077328E+03  0.17508144213E+03  0.00000000000E+00 0.  1.
         11    1    1    2    0    0 -0.42904556801E+02  0.13698234149E+02 -0.14905170872E+02  0.47440559986E+02  0.00000000000E+00 0. -1.
</event>
<event>
 7    1  0.6671761E-006  0.9696217E+02  0.7561462E-02  0.1286817E+00
          1   -1    0    0  501    0  0.00000000000E+00  0.00000000000E+00  0.69608855415E+03  0.69608855415E+03  0.00000000000E+00 0. -1.
         -1   -1    0    0    0  501 -0.00000000000E+00 -0.00000000000E+00 -0.32075718960E+02  0.32075718960E+02  0.00000000000E+00 0.  1.
         23    2    1    2    0    0  0.30518279284E+02 -0.30576676608E+02  0.13288892188E+03  0.18754891743E+03  0.12509529306E+03 0.  0.
          5    1    3    3  502    0 -0.19004019964E+02  0.15891776866E+02  0.11428346703E+03  0.11701232663E+03  0.41800000000E+01 0.  1.
         -5    1    3    3    0  502  0.49522299248E+02 -0.46468453473E+02  0.18605454847E+02  0.70536590796E+02  0.41800000000E+01 0.  1.
        -11    1    1    2    0    0  0.31871678073E+02  0.14394711864E+01  0.17929363462E+03  0.18211008581E+03  0.00000000000E+00 0. -1.
         11    1    1    2    0    0 -0.62389957357E+02  0.29137205421E+02  0.35183027870E+03  0.35850526987E+03  0.00000000000E+00 0.  1.
</event>
<event>
 7    1  0.6671761E-006  0.2147906E+03  0.7561462E-02  0.1137828E+00
         -3   -1    0    0    0  501 -0.00000000000E+00  0.00000000000E+00  0.18588692657E+03  0.18588692657E+03  0.00000000000E+00 0.  1.
          3   -1    0    0  501    0  0.00000000000E+00 -0.00000000000E+00 -0.40712371662E+03  0.40712371662E+03  0.00000000000E+00 0. -1.
         23    2    1    2    0    0 -0.20556193722E+03  0.55099277575E+02  0.33179576780E+02  0.24908442397E+03  0.12510206045E+03 0.  0.
          5    1    3    3  502    0 -0.15260771313E+03  0.47679230824E+02 -0.33604479510E+02  0.16342936273E+03  0.41800000000E+01 0.  1.
         -5    1    3    3    0  502 -0.52954224087E+02  0.74200467517E+01  0.66784056291E+02  0.85655061246E+02  0.41800000000E+01 0.  1.
        -11    1    1    2    0    0  0.68026157613E+02 -0.48786328657E+00 -0.28275006043E+02  0.73670021698E+02  0.00000000000E+00 0.  1.
         11    1    1    2    0    0  0.13753577960E+03 -0.54611414289E+02 -0.22614136079E+03  0.27025619752E+03  0.00000000000E+00 0. -1.
</event>
<event>
 7    1  0.6671761E-006  0.1833962E+03  0.7561462E-02  0.1164556E+00
         -1   -1    0    0    0  501 -0.00000000000E+00  0.00000000000E+00  0.64746407596E+02  0.64746407596E+02  0.00000000000E+00 0.  1.
          1   -1    0    0  501    0  0.00000000000E+00 -0.00000000000E+00 -0.63386966122E+03  0.63386966122E+03  0.00000000000E+00 0. -1.
         23    2    1    2    0    0  0.14637698307E+03  0.52791830691E+02 -0.17645336404E+03  0.26647366338E+03  0.12513682526E+03 0.  0.
          5    1    3    3  502    0  0.47215263266E+02  0.81900247756E+02 -0.67433368521E+02  0.11619665769E+03  0.41800000000E+01 0.  1.
         -5    1    3    3    0  502  0.99161719802E+02 -0.29108417064E+02 -0.10901999552E+03  0.15027700570E+03  0.41800000000E+01 0.  1.
        -11    1    1    2    0    0 -0.35883108847E+02 -0.45573988064E+02 -0.69479863746E+02  0.90509874349E+02  0.00000000000E+00 0.  1.
         11    1    1    2    0    0 -0.11049387422E+03 -0.72178426276E+01 -0.32319002584E+03  0.34163253109E+03  0.00000000000E+00 0. -1.
</event>
<event>
 7    1  0.6671761E-006  0.1879894E+03  0.7561462E-02  0.1160287E+00
          3   -1    0    0  501    0  0.00000000000E+00  0.00000000000E+00  0.34750479199E+03  0.34750479199E+03  0.00000000000E+00 0. -1.
         -3   -1    0    0    0  501 -0.00000000000E+00 -0.00000000000E+00 -0.11574830167E+03  0.11574830167E+03  0.00000000000E+00 0.  1.
         23    2    1    2    0    0 -0.16825651215E+03  0.46286065549E+01  0.12710305962E+03  0.24522136300E+03  0.12508657494E+03 0.  0.
          5    1    3    3  502    0 -0.14414045307E+03  0.39229225163E+02  0.13583311741E+03  0.20194927706E+03  0.41800000000E+01 0.  1.
         -5    1    3    3    0  502 -0.24116059075E+02 -0.34600618608E+02 -0.87300577901E+01  0.43272085949E+02  0.41800000000E+01 0.  1.
        -11    1    1    2    0    0  0.57934389535E+02  0.34108347963E+02  0.67690180742E+02  0.95403005511E+02  0.00000000000E+00 0. -1.
         11    1    1    2    0    0  0.11032212261E+03 -0.38736954518E+02  0.36963249968E+02  0.12262872515E+03  0.00000000000E+00 0.  1.
</event>
<event>
 7    1  0.6671761E-006  0.9313364E+02  0.7561462E-02  0.1295436E+00
         -2   -1    0    0    0  501 -0.00000000000E+00  0.00000000000E+00  0.29093364665E+02  0.29093364665E+02  0.00000000000E+00 0.  1.
          2   -1    0    0  501    0  0.00000000000E+00 -0.00000000000E+00 -0.54864400576E+03  0.54864400576E+03  0.00000000000E+00 0. -1.
         23    2    1    2    0    0  0.35845775842E+02  0.24246060365E+02 -0.15841122235E+03  0.20236183766E+03  0.11825145616E+03 0.  0.
          5    1    3    3  502    0 -0.14374608073E+02 -0.14563501158E+02 -0.13174813073E+03  0.13339328046E+03  0.41800000000E+01 0. -1.
         -5    1    3    3    0  502  0.50220383915E+02  0.38809561522E+02 -0.26663091622E+02  0.68968557191E+02  0.41800000000E+01 0.  1.
        -11    1    1    2    0    0 -0.39120272997E+02 -0.56849053318E+02 -0.26339581561E+03  0.27228581730E+03  0.00000000000E+00 0. -1.
         11    1    1    2    0    0  0.32744971554E+01  0.32602992954E+02 -0.97743603134E+02  0.10308971547E+03  0.00000000000E+00 0.  1.
</event>
<event>
 7    1  0.6671761E-006  0.1066280E+03  0.7561462E-02  0.1266945E+00
          1   -1    0    0  501    0  0.00000000000E+00  0.00000000000E+00  0.15081489319E+02  0.15081489319E+02  0.00000000000E+00 0. -1.
         -1   -1    0    0    0  501 -0.00000000000E+00 -0.00000000000E+00 -0.95050910705E+03  0.95050910705E+03  0.00000000000E+00 0.  1.
         23    2    1    2    0    0 -0.24056449350E+02 -0.46800893300E+01 -0.70557736074E+03  0.71699876958E+03  0.12508879886E+03 0.  0.
          5    1    3    3  502    0 -0.61735123761E+02  0.29911908182E+02 -0.27876420156E+03  0.28711130286E+03  0.41800000000E+01 0.  1.
         -5    1    3    3    0  502  0.37678674411E+02 -0.34591997512E+02 -0.42681315917E+03  0.42988746672E+03  0.41800000000E+01 0.  1.
        -11    1    1    2    0    0 -0.34201131718E+02 -0.34990102946E+01 -0.64538690291E+02  0.73124571987E+02  0.00000000000E+00 0. -1.
         11    1    1    2    0    0  0.58257581067E+02  0.81790996246E+01 -0.16531156671E+03  0.17546725481E+03  0.00000000000E+00 0.  1.
</event>
<event>
 7    1  0.6671761E-006  0.1035299E+03  0.7561462E-02  0.1273043E+00
         -3   -1    0    0    0  501 -0.00000000000E+00  0.00000000000E+00  0.86700676363E+03  0.86700676363E+03  0.00000000000E+00 0.  1.
          3   -1    0    0  501    0  0.00000000000E+00 -0.00000000000E+00 -0.26109552722E+02  0.26109552722E+02  0.00000000000E+00 0. -1.
         23    2    1    2    0    0 -0.34433735839E+02 -0.71047058402E+02  0.65484583112E+03  0.67134523615E+03  0.12509195372E+03 0.  0.
          5    1    3    3  502    0  0.17988841505E+02 -0.11190879906E+02  0.14383684477E+02  0.25946039985E+02  0.41800000000E+01 0.  1.
         -5    1    3    3    0  502 -0.52422577344E+02 -0.59856178497E+02  0.64046214665E+03  0.64539919616E+03  0.41800000000E+01 0.  1.
        -11    1    1    2    0    0  0.56019011405E+02  0.57648937044E+02  0.17768799208E+03  0.19502449106E+03  0.00000000000E+00 0.  1.
         11    1    1    2    0    0 -0.21585275566E+02  0.13398121359E+02  0.83633877013E+01  0.26746589148E+02  0.00000000000E+00 0. -1.
</event>
<event>
 7    1  0.6671761E-006  0.1595012E+03  0.7561462E-02  0.1189261E+00
          1   -1    0    0  501    0  0.00000000000E+00  0.00000000000E+00  0.60950872970E+02  0.60950872970E+02  0.00000000000E+00 0. -1.
         -1   -1    0    0    0  501 -0.00000000000E+00 -0.00000000000E+00 -0.47004189040E+03  0.47004189040E+03  0.00000000000E+00 0.  1.
         23    2    1    2    0    0 -0.66860306608E+00 -0.12748471386E+03 -0.26133552556E+03  0.31656943189E+03  0.12516848242E+03 0.  0.
          5    1    3    3  502    0  0.34032122815E+02  0.15381272008E+01 -0.17569348710E+02  0.38557821939E+02  0.41800000000E+01 0. -1.
         -5    1    3    3    0  502 -0.34700725881E+02 -0.12902284106E+03 -0.24376617685E+03  0.27801160995E+03  0.41800000000E+01 0. -1.
        -11    1    1    2    0    0 -0.34514945811E+02  0.24907927648E+02 -0.20543023987E+02  0.47262058551E+02  0.00000000000E+00 0.  1.
         11    1    1    2    0    0  0.35183548877E+02  0.10257678621E+03 -0.12721246789E+03  0.16716127293E+03  0.00000000000E+00 0. -1.
</event>
<event>
 7    1  0.6671761E-006  0.1242457E+03  0.7561462E-02  0.1236253E+00
          1   -1    0    0  501    0  0.00000000000E+00  0.00000000000E+00  0.58404330540E+03  0.58404330540E+03  0.00000000000E+00 0. -1.
         -1   -1    0    0    0  501 -0.00000000000E+00 -0.00000000000E+00 -0.32720679987E+02  0.32720679987E+02  0.00000000000E+00 0.  1.
         23    2    1    2    0    0  0.64086147838E+02 -0.54945064183E+02  0.27016238516E+03  0.30946299206E+03  0.12511448627E+03 0.  0.
          5    1    3    3  502    0 -0.25333926742E+02  0.32171079514E+01  0.91226480532E+01  0.27438162024E+02  0.41800000000E+01 0.  1.
         -5    1    3    3    0  502  0.89420074580E+02 -0.58162172135E+02  0.26103973711E+03  0.28202483003E+03  0.41800000000E+01 0.  1.
        -11    1    1    2    0    0 -0.78373284814E+02  0.61995271150E+02  0.18917447703E+03  0.21394571315E+03  0.00000000000E+00 0.  1.
         11    1    1    2    0    0  0.14287136977E+02 -0.70502069666E+01  0.91985763221E+02  0.93355280175E+02  0.00000000000E+00 0. -1.
</event>
<event>
 6    1  0.6671761E-006  0.2041487E+03  0.7561462E-02  0.1146285E+00
         -2   -1    0    0    0  501 -0.00000000000E+00  0.00000000000E+00  0.31621181370E+03  0.31621181370E+03  0.00000000000E+00 0.  1.
          2   -1    0    0  501    0  0.00000000000E+00 -0.00000000000E+00 -0.15504672864E+03  0.15504672864E+03  0.00000000000E+00 0. -1.
          5    1    1    2  502    0 -0.53481584754E+02  0.11355455946E+03  0.95593275069E+01  0.12595146297E+03  0.41800000000E+01 0. -1.
         -5    1    1    2    0  502  0.20339790800E+02  0.72529774728E+02  0.10710603974E+03  0.13100935638E+03  0.41800000000E+01 0.  1.
        -11    1    1    2    0    0  0.54466994947E+02 -0.67285217158E+02  0.34490172518E+02  0.93185438706E+02  0.00000000000E+00 0.  1.
         11    1    1    2    0    0 -0.21325200993E+02 -0.11879911703E+03  0.10009545295E+02  0.12111228427E+03  0.00000000000E+00 0. -1.
</event>
<event>
 7    1  0.6671761E-006  0.8058531E+02  0.7561462E-02  0.1327399E+00
          1   -1    0    0  501    0  0.00000000000E+00  0.00000000000E+00  0.17807601795E+03  0.17807601795E+03  0.00000000000E+00 0. -1.
         -1   -1    0    0    0  501 -0.00000000000E+00 -0.00000000000E+00 -0.94083595338E+02  0.94083595338E+02  0.00000000000E+00 0.  1.
         23    2    1    2    0    0 -0.36515237224E+02  0.23138303088E+02 -0.27073009229E+02  0.12323897564E+03  0.11218802819E+03 0.  0.
          5    1    3    3  502    0 -0.18450169469E+02 -0.31492736608E+02 -0.49239961049E+02  0.61434903569E+02  0.41800000000E+01 0. -1.
         -5    1    3    3    0  502 -0.18065067756E+02  0.54631039696E+02  0.22166951820E+02  0.61804072068E+02  0.41800000000E+01 0.  1.
        -11    1    1    2    0    0  0.31703922006E+02 -0.38944958855E+02  0.12003787079E+03  0.13011894142E+03  0.00000000000E+00 0. -1.
         11    1    1    2    0    0  0.48113152187E+01  0.15806655767E+02 -0.89724389505E+01  0.18801696237E+02  0.00000000000E+00 0.  1.
</event>
<event>
 7    1  0.6671761E-006  0.1607745E+03  0.7561462E-02  0.1187825E+00
          2   -1    0    0  501    0  0.00000000000E+00  0.00000000000E+00  0.27462826513E+03  0.27462826513E+03  0.00000000000E+00 0. -1.
         -2   -1    0    0    0  501 -0.00000000000E+00 -0.00000000000E+00 -0.13462162127E+03  0.13462162127E+03  0.00000000000E+00 0.  1.
         23    2    1    2    0    0  0.13720542683E+03  0.78602880732E+02  0.64142737692E+02  0.21157678410E+03  0.12508678092E+03 0.  0.
          5    1    3    3  502    0 -0.11702769197E+01  0.39549906066E+01 -0.28459393152E+02  0.29058922164E+02  0.41800000000E+01 0.  1.
         -5    1    3    3    0  502  0.13837570375E+03  0.74647890126E+02  0.92602130844E+02  0.18251786194E+03  0.41800000000E+01 0.  1.
        -11    1    1    2    0    0 -0.12341152454E+03 -0.67350864166E+02  0.96420604961E+02  0.17048013478E+03  0.00000000000E+00 0. -1.
         11    1    1    2    0    0 -0.13793902289E+02 -0.11252016566E+02 -0.20556698792E+02  0.27192967517E+02  0.00000000000E+00 0.  1.
</event>
<event>
 7    1  0.6671761E-006  0.1126594E+03  0.7561462E-02  0.1255723E+00
         -2   -1    0    0    0  501 -0.00000000000E+00  0.00000000000E+00  0.39103184669E+02  0.39103184669E+02  0.00000000000E+00 0. -1.
          2   -1    0    0  501    0  0.00000000000E+00 -0.00000000000E+00 -0.61243139200E+03  0.61243139200E+03  0.00000000000E+00 0.  1.
         23    2    1    2    0    0 -0.41105031977E+02 -0.22687967649E+02 -0.99066793693E+02  0.16633576587E+03  0.12509592266E+03 0.  0.
          5    1    3    3  502    0  0.30858534788E+01  0.44895565592E+02 -0.63647007969E+02  0.78061183215E+02  0.41800000000E+01 0.  1.
         -5    1    3    3    0  502 -0.44190885455E+02 -0.67583533241E+02 -0.35419785724E+02  0.88274582658E+02  0.41800000000E+01 0.  1.
        -11    1    1    2    0    0  0.39347574842E+02  0.54603086554E+02 -0.37264015632E+03  0.37866926837E+03  0.00000000000E+00 0.  1.
         11    1    1    2    0    0  0.17574571344E+01 -0.31915118905E+02 -0.10162125732E+03  0.10652954242E+03  0.00000000000E+00 0. -1.
</event>
<event>
 7    1  0.6671761E-006  0.1645675E+03  0.7561462E-02  0.1183634E+00
          2   -1    0    0  501    0  0.00000000000E+00  0.00000000000E+00  0.44222642803E+03  0.44222642803E+03  0.00000000000E+00 0. -1.
         -2   -1    0    0    0  501 -0.00000000000E+00 -0.00000000000E+00 -0.10272612550E+03  0.10272612550E+03  0.00000000000E+00 0.  1.
         23    2    1    2    0    0 -0.13670805075E+03  0.27419658224E+02  0.23586086483E+02  0.18879666912E+03  0.12508776918E+03 0.  0.
          5    1    3    3  502    0 -0.11558844962E+03 -0.35359618576E+02  0.14916168743E+02  0.12186450181E+03  0.41800000000E+01 0. -1.
         -5    1    3    3    0  502 -0.21119601132E+02  0.62779276800E+02  0.86699177404E+01  0.66932167312E+02  0.41800000000E+01 0. -1.
        -11    1    1    2    0    0  0.56016107719E+02  0.16762637454E+01  0.22200131075E+03  0.22896549120E+03  0.00000000000E+00 0. -1.
         11    1    1    2    0    0  0.80691943033E+02 -0.29095921969E+02  0.93912905288E+02  0.12719039321E+03  0.00000000000E+00 0.  1.
</event>
<event>
 7    1  0.6671761E-006  0.9024561E+02  0.7561462E-02  0.1302258E+00
          1   -1    0    0  501    0  0.00000000000E+00  0.00000000000E+00  0.52272882111E+02  0.52272882111E+02  0.00000000000E+00 0. -1.
         -1   -1    0    0    0  501 -0.00000000000E+00 -0.00000000000E+00 -0.27604368621E+03  0.27604368621E+03  0.00000000000E+00 0.  1.
         23    2    1    2    0    0  0.24556156425E+02 -0.32509932281E+02 -0.17045757523E+03  0.21532081935E+03  0.12508944710E+03 0.  0.
          5    1    3    3  502    0  0.71455849103E+02 -0.29939744516E+02 -0.13719453432E+03  0.15761389317E+03  0.41800000000E+01 0.  1.
         -5    1    3    3    0  502 -0.46899692678E+02 -0.25701877652E+01 -0.33263040914E+02  0.57706926181E+02  0.41800000000E+01 0.  1.
        -11    1    1    2    0    0 -0.30949933800E+02  0.10273066704E+02 -0.74687433883E+02  0.81496301031E+02  0.00000000000E+00 0.  1.
         11    1    1    2    0    0  0.63937773749E+01  0.22236865577E+02  0.21374205023E+02  0.31499447934E+02  0.00000000000E+00 0. -1.
</event>
<event>
 7    1  0.6671761E-006  0.2667231E+03  0.7561462E-02  0.1103170E+00
         -1   -1    0    0    0  501 -0.00000000000E+00  0.00000000000E+00  0.18078446132E+03  0.18078446132E+03  0.00000000000E+00 0.  1.
          1   -1    0    0  501    0  0.00000000000E+00 -0.00000000000E+00 -0.65936607582E+03  0.65936607582E+03  0.00000000000E+00 0. -1.
         23    2    1    2    0    0  0.23881215673E+03 -0.93444428731E+02  0.57626352152E+01  0.28538508680E+03  0.12509329454E+03 0.  0.
          5    1    3    3  502    0  0.10027966695E+03 -0.94739465101E+02  0.37857225148E+02  0.14311610583E+03  0.41800000000E+01 0.  1.
         -5    1    3    3    0  502  0.13853248978E+03  0.12950363699E+01 -0.32094589933E+02  0.14226898098E+03  0.41800000000E+01 0.  1.
        -11    1    1    2    0    0 -0.10912791420E+03  0.35215569858E+02 -0.30546109474E+03  0.32627521882E+03  0.00000000000E+00 0.  1.
         11    1    1    2    0    0 -0.12968424253E+03  0.58228858872E+02 -0.17888315498E+03  0.22849023152E+03  0.00000000000E+00 0. -1.
</event>
<event>
 7    1  0.6671761E-006  0.1080345E+03  0.7561462E-02  0.1264254E+00
         -1   -1    0    0    0  501 -0.00000000000E+00  0.00000000000E+00  0.39843542498E+03  0.39843542498E+03  0.00000000000E+00 0.  1.
          1   -1    0    0  501    0  0.00000000000E+00 -0.00000000000E+00 -0.53682167682E+02  0.53682167682E+02  0.00000000000E+00 0. -1.
         23    2    1    2    0    0 -0.33554848046E+02  0.85518265954E+02  0.23702511327E+03  0.28331793817E+03  0.12509535615E+03 0.  0.
          5    1    3    3  502    0  0.26436658821E+02  0.30648807399E+02  0.96642415077E+01  0.41822437621E+02  0.41800000000E+01 0.  1.
         -5    1    3    3    0  502 -0.59991506867E+02  0.54869458555E+02  0.22736087176E+03  0.24149550055E+03  0.41800000000E+01 0.  1.
        -11    1    1    2    0    0  0.26224560276E+02 -0.39759273736E+02 -0.40447419782E+01  0.47800495263E+02  0.00000000000E+00 0. -1.
         11    1    1    2    0    0  0.73302877692E+01 -0.45758992218E+02  0.11177288601E+03  0.12099915923E+03  0.00000000000E+00 0.  1.
</event>
<event>
 7    1  0.6671761E-006  0.1075824E+03  0.7561462E-02  0.1265114E+00
          1   -1    0    0  501    0  0.00000000000E+00  0.00000000000E+00  0.14403010363E+03  0.14403010363E+03  0.00000000000E+00 0. -1.
         -1   -1    0    0    0  501 -0.00000000000E+00 -0.00000000000E+00 -0.10087250973E+03  0.10087250973E+03  0.00000000000E+00 0.  1.
         23    2    1    2    0    0 -0.36128130236E+02  0.27160775753E+01 -0.15463633721E+02  0.13114580154E+03  0.12508988137E+03 0.  0.
          5    1    3    3  502    0 -0.32499958692E+02 -0.52822594732E+02 -0.35811638326E+02  0.71738550785E+02  0.41800000000E+01 0.  1.
         -5    1    3    3    0  502 -0.36281715446E+01  0.55538672307E+02  0.20348004605E+02  0.59407250751E+02  0.41800000000E+01 0.  1.
        -11    1    1    2    0    0  0.66627056678E+02 -0.81098042539E+00  0.44257995697E+02  0.79991202979E+02  0.00000000000E+00 0.  1.
         11    1    1    2    0    0 -0.30498926442E+02 -0.19050971499E+01  0.14363231930E+02  0.33765608846E+02  0.00000000000E+00 0. -1.
</event>
<event>
 7    1  0.6671761E-006  0.1927321E+03  0.7561462E-02  0.1156020E+00
         -2   -1    0    0    0  501 -0.00000000000E+00  0.00000000000E+00  0.16386914392E+03  0.16386914392E+03  0.00000000000E+00 0.  1.
          2   -1    0    0  501    0  0.00000000000E+00 -0.00000000000E+00 -0.24707087990E+03  0.24707087990E+03  0.00000000000E+00 0. -1.
         23    2    1    2    0    0 -0.13130956968E+03 -0.90800893634E+02  0.13027624746E+02  0.20323502341E+03  0.12509096833E+03 0.  0.
          5    1    3    3  502    0 -0.85077624272E+02 -0.12059868328E+03  0.86591013942E+01  0.14790097024E+03  0.41800000000E+01 0.  1.
         -5    1    3    3    0  502 -0.46231945408E+02  0.29797789645E+02  0.43685233517E+01  0.55334053170E+02  0.41800000000E+01 0.  1.
        -11    1    1    2    0    0  0.12356542027E+03  0.37980998096E+02 -0.56096896861E+02  0.14091781697E+03  0.00000000000E+00 0.  1.
         11    1    1    2    0    0  0.77441494096E+01  0.52819895539E+02 -0.40132463870E+02  0.66787183434E+02  0.00000000000E+00 0. -1.
</event>
<event>
 7    1  0.6671761E-006  0.1407888E+03  0.7561462E-02  0.1212271E+00
          2   -1    0    0  501    0  0.00000000000E+00  0.00000000000E+00  0.73746115397E+03  0.73746115397E+03  0.00000000000E+00 0. -1.
         -2   -1    0    0    0  501 -0.00000000000E+00 -0.00000000000E+00 -0.44171459139E+02  0.44171459139E+02  0.00000000000E+00 0.  1.
         23    2    1    2    0    0  0.11579468282E+03 -0.59973602625E+02  0.23673762507E+03  0.29782147444E+03  0.12509071082E+03 0.  0.
          5    1    3    3  502    0  0.90788622200E+02 -0.57545296912E+02  0.24773334465E+03  0.27008020581E+03  0.41800000000E+01 0.  1.
         -5    1    3    3    0  502  0.25006060625E+02 -0.24283057131E+01 -0.10995719578E+02  0.27741268638E+02  0.41800000000E+01 0.  1.
        -11    1    1    2    0    0 -0.11109144702E+03  0.25807976493E+02  0.25517872757E+03  0.27950589306E+03  0.00000000000E+00 0.  1.
         11    1    1    2    0    0 -0.47032358025E+01  0.34165626133E+02  0.20137334219E+03  0.20430524560E+03  0.00000000000E+00 0. -1.
</event>
<event>
 6    1  0.6671761E-006  0.1354874E+03  0.7561462E-02  0.1219533E+00
         -1   -1    0    0    0  501 -0.00000000000E+00  0.00000000000E+00  0.33226126774E+03  0.33226126774E+03  0.00000000000E+00 0.  1.
          1   -1    0    0  501    0  0.00000000000E+00 -0.00000000000E+00 -0.60384870876E+02  0.60384870876E+02  0.00000000000E+00 0. -1.
          5    1    1    2  502    0  0.87236879399E+02  0.76280436136E+02  0.13665007402E+03  0.17921967859E+03  0.41800000000E+01 0. -1.
         -5    1    1    2    0  502 -0.37888392972E+02 -0.10910385839E+02  0.56786176585E+02  0.69258278150E+02  0.41800000000E+01 0.  1.
        -11    1    1    2    0    0 -0.31714764637E+02  0.13559415040E+02  0.48647761219E+01  0.34833174976E+02  0.00000000000E+00 0. -1.
         11    1    1    2    0    0 -0.17633721790E+02 -0.78929465337E+02  0.73575370136E+02  0.10933500690E+03  0.00000000000E+00 0.  1.
</event>
<event>
 7    1  0.6671761E-006  0.1053578E+03  0.7561462E-02  0.1269416E+00
          2   -1    0    0  501    0  0.00000000000E+00  0.00000000000E+00  0.90892541289E+03  0.90892541289E+03  0.00000000000E+00 0. -1.
         -2   -1    0    0    0  501 -0.00000000000E+00 -0.00000000000E+00 -0.19473552515E+02  0.19473552515E+02  0.00000000000E+00 0.  1.
         23    2    1    2    0    0 -0.95399026832E+01 -0.75716231035E+02  0.45832178051E+03  0.48117578907E+03  0.12508928055E+03 0.  0.
          5    1    3    3  502    0 -0.21590989188E+02  0.39205803901E+01  0.32206442702E+03  0.32283820919E+03  0.41800000000E+01 0. -1.
         -5    1    3    3    0  502  0.12051086504E+02 -0.79636811425E+02  0.13625735350E+03  0.15833757988E+03  0.41800000000E+01 0. -1.
        -11    1    1    2    0    0  0.38498826438E+02  0.67358292254E+02  0.38026126953E+03  0.38809526186E+03  0.00000000000E+00 0. -1.
         11    1    1    2    0    0 -0.28958923755E+02  0.83579387815E+01  0.50868810332E+02  0.59127914476E+02  0.00000000000E+00 0.  1.
</event>
<event>
 7    1  0.6671761E-006  0.1203962E+03  0.7561462E-02  0.1242445E+00
         -1   -1    0    0    0  501 -0.00000000000E+00  0.00000000000E+00  0.18192227375E+03  0.18192227375E+03  0.00000000000E+00 0.  1.
          1   -1    0    0  501    0  0.00000000000E+00 -0.00000000000E+00 -0.10193038739E+03  0.10193038739E+03  0.00000000000E+00 0. -1.
         23    2    1    2    0    0 -0.71482392064E+02 -0.11905869866E+02  0.87109300483E+02  0.16877785684E+03  0.12508578103E+03 0.  0.
          5    1    3    3  502    0 -0.82455547908E+02 -0.46005258378E+02  0.26344819907E+02  0.98116884965E+02  0.41800000000E+01 0.  1.
         -5    1    3    3    0  502  0.10973155844E+02  0.34099388513E+02  0.60764480576E+02  0.70660971871E+02  0.41800000000E+01 0.  1.
        -11    1    1    2    0    0  0.85404930081E+02 -0.81571021445E+01  0.83009888128E+01  0.86194238861E+02  0.00000000000E+00 0.  1.
         11    1    1    2    0    0 -0.13922538017E+02  0.20062972010E+02 -0.15418402935E+02  0.28880565434E+02  0.00000000000E+00 0. -1.
</event>
<event>
 7    1  0.6671761E-006  0.1904258E+03  0.7561462E-02  0.1158078E+00
          2   -1    0    0  501    0  0.00000000000E+00  0.00000000000E+00  0.85269731655E+03  0.85269731655E+03  0.00000000000E+00 0. -1.
         -2   -1    0    0    0  501 -0.00000000000E+00 -0.00000000000E+00 -0.54201483503E+02  0.54201483503E+02  0.00000000000E+00 0.  1.
         23    2    1    2    0    0 -0.16856116472E+03  0.75332811430E+02  0.38658598833E+03  0.44629986957E+03  0.12508776309E+03 0.  0.
          5    1    3    3  502    0 -0.10057134001E+03  0.78999352728E+02  0.34109587129E+03  0.36430668121E+03  0.41800000000E+01 0.  1.
         -5    1    3    3    0  502 -0.67989824713E+02 -0.36665412984E+01  0.45490117041E+02  0.81993188363E+02  0.41800000000E+01 0.  1.
        -11    1    1    2    0    0  0.11894585068E+03 -0.51028275481E+02  0.17696519933E+03  0.21924571163E+03  0.00000000000E+00 0.  1.
         11    1    1    2    0    0  0.49615314042E+02 -0.24304535949E+02  0.23494464538E+03  0.24135321885E+03  0.00000000000E+00 0. -1.
</event>
<event>
 7    1  0.6671761E-006  0.1437796E+03  0.7561462E-02  0.1208332E+00
          2   -1    0    0  501    0  0.00000000000E+00  0.00000000000E+00  0.24761329000E+03  0.24761329000E+03  0.00000000000E+00 0.  1.
         -2   -1    0    0    0  501 -0.00000000000E+00 -0.00000000000E+00 -0.15146774841E+03  0.15146774841E+03  0.00000000000E+00 0. -1.
         23    2    1    2    0    0 -0.10920322849E+03 -0.52441942357E+02 -0.58659854212E+02  0.18375274229E+03  0.12509432190E+03 0.  0.
          5    1    3    3  502    0 -0.73542713183E+02  0.27614094105E+02 -0.54906411457E+02  0.95933598257E+02  0.41800000000E+01 0. -1.
         -5    1    3    3    0  502 -0.35660515305E+02 -0.80056036462E+02 -0.37534427555E+01  0.87819144031E+02  0.41800000000E+01 0. -1.
        -11    1    1    2    0    0  0.64136181771E+02  0.31672023819E+02  0.24036461872E+02  0.75460707685E+02  0.00000000000E+00 0. -1.
         11    1    1    2    0    0  0.45067046717E+02  0.20769918539E+02  0.13076893393E+03  0.13986758844E+03  0.00000000000E+00 0.  1.
</event>
<event>
 7    1  0.6671761E-006  0.4607765E+02  0.7561462E-02  0.1467724E+00
         -2   -1    0    0    0  501 -0.00000000000E+00  0.00000000000E+00  0.38068849627E+02  0.38068849627E+02  0.00000000000E+00 0.  1.
          2   -1    0    0  501    0  0.00000000000E+00 -0.00000000000E+00 -0.36517258179E+03  0.36517258179E+03  0.00000000000E+00 0. -1.
         23    2    1    2    0    0 -0.21906867689E+02 -0.19658545304E+02 -0.12090760518E+03  0.17643576721E+03  0.12507822234E+03 0.  0.
          5    1    3    3  502    0  0.52315040277E+01 -0.28131628138E+01 -0.13920084754E+03  0.13939021083E+03  0.41800000000E+01 0. -1.
         -5    1    3    3    0  502 -0.27138371717E+02 -0.16845382490E+02  0.18293242367E+02  0.37045556373E+02  0.41800000000E+01 0. -1.
        -11    1    1    2    0    0  0.18398155524E+02  0.33597114876E+02 -0.20872567561E+03  0.21221137083E+03  0.00000000000E+00 0. -1.
         11    1    1    2    0    0  0.35087121644E+01 -0.13938569572E+02  0.25295486243E+01  0.14594293371E+02  0.00000000000E+00 0.  1.
</event>
<event>
 7    1  0.6671761E-006  0.1285009E+03  0.7561462E-02  0.1229697E+00
          2   -1    0    0  501    0  0.00000000000E+00  0.00000000000E+00  0.13060221993E+03  0.13060221993E+03  0.00000000000E+00 0. -1.
         -2   -1    0    0    0  501 -0.00000000000E+00 -0.00000000000E+00 -0.18098382845E+03  0.18098382845E+03  0.00000000000E+00 0.  1.
         23    2    1    2    0    0  0.90738360693E+02  0.59087367467E+02 -0.37068188194E+02  0.16956566683E+03  0.12511473812E+03 0.  0.
          5    1    3    3  502    0  0.10980403720E+03  0.55176203370E+02  0.49630855136E+01  0.12305870397E+03  0.41800000000E+01 0.  1.
         -5    1    3    3    0  502 -0.19065676507E+02  0.39111640968E+01 -0.42031273707E+02  0.46506962863E+02  0.41800000000E+01 0.  1.
        -11    1    1    2    0    0 -0.14994555614E+01 -0.14136857782E+02 -0.36736374736E+02  0.39391120113E+02  0.00000000000E+00 0.  1.
         11    1    1    2    0    0 -0.89238905131E+02 -0.44950509685E+02  0.23422954409E+02  0.10262926144E+03  0.00000000000E+00 0. -1.
</event>
<event>
 7    1  0.6671761E-006  0.9108837E+02  0.7561462E-02  0.1300237E+00
          1   -1    0    0  501    0  0.00000000000E+00  0.00000000000E+00  0.32009227584E+03  0.32009227584E+03  0.00000000000E+00 0. -1.
         -1   -1    0    0    0  501 -0.00000000000E+00 -0.00000000000E+00 -0.49196772956E+02  0.49196772956E+02  0.00000000000E+00 0.  1.
         23    2    1    2    0    0 -0.41047620370E+02 -0.44801999747E+02  0.13480384316E+03  0.19368241153E+03  0.12509466051E+03 0.  0.
          5    1    3    3  502    0 -0.56176916646E+01 -0.39823577092E+02 -0.12275106484E+02  0.42256672742E+02  0.41800000000E+01 0.  1.
         -5    1    3    3    0  502 -0.35429928706E+02 -0.49784226559E+01  0.14707894964E+03  0.15142573879E+03  0.41800000000E+01 0.  1.
        -11    1    1    2    0    0  0.11116814315E+01 -0.25148518396E+02  0.12554829162E+02  0.28130189271E+02  0.00000000000E+00 0.  1.
         11    1    1    2    0    0  0.39935938939E+02  0.69950518143E+02  0.12353683056E+03  0.14747644800E+03  0.00000000000E+00 0. -1.
</event>
<event>
 7    1  0.6671761E-006  0.2338097E+03  0.7561462E-02  0.1123987E+00
          1   -1    0    0  501    0  0.00000000000E+00  0.00000000000E+00  0.40629283771E+03  0.40629283771E+03  0.00000000000E+00 0. -1.
         -1   -1    0    0    0  501 -0.00000000000E+00 -0.00000000000E+00 -0.14448332910E+03  0.14448332910E+03  0.00000000000E+00 0.  1.
         23    2    1    2    0    0 -0.27625361868E+02  0.21388914075E+03  0.11917183863E+03  0.27633881650E+03  0.12509791858E+03 0.  0.
          5    1    3    3  502    0 -0.54638090228E+02  0.20363744073E+03  0.12692679262E+03  0.24613291380E+03  0.41800000000E+01 0. -1.
         -5    1    3    3    0  502  0.27012728360E+02  0.10251700023E+02 -0.77549539860E+01  0.30205902704E+02  0.41800000000E+01 0. -1.
        -11    1    1    2    0    0  0.52562038577E+02 -0.13852189223E+03  0.60001385702E+02  0.15984757994E+03  0.00000000000E+00 0.  1.
         11    1    1    2    0    0 -0.24936676710E+02 -0.75367248523E+02  0.82636284277E+02  0.11458977037E+03  0.00000000000E+00 0. -1.
</event>
<event>
 7    1  0.6671761E-006  0.8947957E+02  0.7561462E-02  0.1304117E+00
          2   -1    0    0  501    0  0.00000000000E+00  0.00000000000E+00  0.53127380402E+03  0.53127380402E+03  0.00000000000E+00 0. -1.
         -2   -1    0    0    0  501 -0.00000000000E+00 -0.00000000000E+00 -0.20141819121E+02  0.20141819121E+02  0.00000000000E+00 0.  1.
         23    2    1    2    0    0 -0.62080702621E+02  0.41391190938E+01  0.27657908721E+03  0.30781104538E+03  0.11991873176E+03 0.  0.
          5    1    3    3  502    0 -0.86931977272E+02  0.13489178159E+02  0.26367537772E+03  0.27799515071E+03  0.41800000000E+01 0. -1.
         -5    1    3    3    0  502  0.24851274652E+02 -0.93500590653E+01  0.12903709492E+02  0.29815894670E+02  0.41800000000E+01 0.  1.
        -11    1    1    2    0    0  0.26576806726E+02  0.56692352733E+01  0.72687628949E+02  0.77601277609E+02  0.00000000000E+00 0. -1.
         11    1    1    2    0    0  0.35503895895E+02 -0.98083543672E+01  0.16186526874E+03  0.16600330015E+03  0.00000000000E+00 0.  1.
</event>
<event>
 7    1  0.6671761E-006  0.1085921E+03  0.7561462E-02  0.1263200E+00
          2   -1    0    0  501    0  0.00000000000E+00  0.00000000000E+00  0.18552951994E+03  0.18552951994E+03  0.00000000000E+00 0. -1.
         -2   -1    0    0    0  501 -0.00000000000E+00 -0.00000000000E+00 -0.73591532546E+02  0.73591532546E+02  0.00000000000E+00 0.  1.
         23    2    1    2    0    0  0.10296888302E+02 -0.34812231896E+02  0.43224781538E+02  0.13721931727E+03  0.12507134722E+03 0.  0.
          5    1    3    3  502    0  0.67099945416E+02 -0.24122989594E+02  0.31643638428E+02  0.78122426708E+02  0.41800000000E+01 0. -1.
         -5    1    3    3    0  502 -0.56803057114E+02 -0.10689242303E+02  0.11581143110E+02  0.59096890563E+02  0.41800000000E+01 0. -1.
        -11    1    1    2    0    0 -0.17559998156E+02  0.59518338285E+02  0.72983339835E+02  0.95798507405E+02  0.00000000000E+00 0. -1.
         11    1    1    2    0    0  0.72631098543E+01 -0.24706106388E+02 -0.42701339832E+01  0.26103227806E+02  0.00000000000E+00 0.  1.
</event>
<event>
 6    1  0.6671761E-006  0.1593198E+03  0.7561462E-02  0.1189467E+00
          2   -1    0    0  501    0  0.00000000000E+00  0.00000000000E+00  0.14890415906E+04  0.14890415906E+04  0.00000000000E+00 0. -1.
         -2   -1    0    0    0  501 -0.00000000000E+00 -0.00000000000E+00 -0.43405875092E+02  0.43405875092E+02  0.00000000000E+00 0.  1.
          5    1    1    2  502    0  0.31471616938E+02 -0.21054370189E+02  0.91693963784E+03  0.91773063642E+03  0.41800000000E+01 0. -1.
         -5    1    1    2    0  502 -0.11088275120E+03 -0.71565992705E+02  0.11942341192E+03  0.17803398423E+03  0.41800000000E+01 0.  1.
        -11    1    1    2    0    0  0.72560048853E+02  0.19593756030E+02  0.15873598223E+03  0.17563025941E+03  0.00000000000E+00 0.  1.
         11    1    1    2    0    0  0.68510854088E+01  0.73026606863E+02  0.25053668351E+03  0.26105258563E+03  0.00000000000E+00 0. -1.
</event>
<event>
 7    1  0.6671761E-006  0.8824920E+02  0.7561462E-02  0.1307148E+00
         -1   -1    0    0    0  501 -0.00000000000E+00  0.00000000000E+00  0.12438744971E+03  0.12438744971E+03  0.00000000000E+00 0.  1.
          1   -1    0    0  501    0  0.00000000000E+00 -0.00000000000E+00 -0.13111945852E+03  0.13111945852E+03  0.00000000000E+00 0. -1.
         23    2    1    2    0    0  0.48059210698E+02 -0.38665364092E+02  0.21519768066E+02  0.14112312453E+03  0.12509171733E+03 0.  0.
          5    1    3    3  502    0  0.10565522925E+01  0.55418944165E+00 -0.48115619806E+02  0.48311579337E+02  0.41800000000E+01 0. -1.
         -5    1    3    3    0  502  0.47002658405E+02 -0.39219553533E+02  0.69635387872E+02  0.92811545190E+02  0.41800000000E+01 0. -1.
        -11    1    1    2    0    0 -0.40637422866E+02 -0.24328440917E+02 -0.10427873086E+02  0.48497563977E+02  0.00000000000E+00 0.  1.
         11    1    1    2    0    0 -0.74217878322E+01  0.62993805008E+02 -0.17823903790E+02  0.65886219730E+02  0.00000000000E+00 0. -1.
</event>
<event>
 7    1  0.6671761E-006  0.1029026E+03  0.7561462E-02  0.1274308E+00
         -2   -1    0    0    0  501 -0.00000000000E+00  0.00000000000E+00  0.25780498131E+02  0.25780498131E+02  0.00000000000E+00 0. -1.
          2   -1    0    0  501    0  0.00000000000E+00 -0.00000000000E+00 -0.56786256382E+03  0.56786256382E+03  0.00000000000E+00 0.  1.
         23    2    1    2    0    0  0.27753191099E+01 -0.48684846567E+02 -0.24880928629E+03  0.28272208216E+03  0.12509115923E+03 0.  0.
          5    1    3    3  502    0  0.45322427900E+02 -0.12626505567E+02 -0.27933080585E+02  0.54875135577E+02  0.41800000000E+01 0.  1.
         -5    1    3    3    0  502 -0.42547108790E+02 -0.36058341000E+02 -0.22087620570E+03  0.22784694659E+03  0.41800000000E+01 0.  1.
        -11    1    1    2    0    0 -0.46563044639E+02  0.25934921251E+02 -0.13524731999E+03  0.14537047441E+03  0.00000000000E+00 0. -1.
         11    1    1    2    0    0  0.43787725529E+02  0.22749925317E+02 -0.15802545941E+03  0.16555050538E+03  0.00000000000E+00 0.  1.
</event>
<event>
 7    1  0.6671761E-006  0.1408357E+03  0.7561462E-02  0.1212209E+00
         -2   -1    0    0    0  501 -0.00000000000E+00  0.00000000000E+00  0.37120515238E+02  0.37120515238E+02  0.00000000000E+00 0.  1.
          2   -1    0    0  501    0  0.00000000000E+00 -0.00000000000E+00 -0.61896649624E+03  0.61896649624E+03  0.00000000000E+00 0. -1.
         23    2    1    2    0    0  0.25732895929E+02  0.99392693955E+02 -0.26028648667E+03  0.30649474037E+03  0.12509548828E+03 0.  0.
          5    1    3    3  502    0 -0.43329517678E+02  0.58038384983E+02 -0.17346034271E+03  0.18802091407E+03  0.41800000000E+01 0. -1.
         -5    1    3    3    0  502  0.69062413607E+02  0.41354308973E+02 -0.86826143959E+02  0.11847382630E+03  0.41800000000E+01 0. -1.
        -11    1    1    2    0    0 -0.35442596304E+02 -0.76465188875E+01 -0.15503939343E+03  0.15922267551E+03  0.00000000000E+00 0. -1.
         11    1    1    2    0    0  0.97097003749E+01 -0.91746175068E+02 -0.16652010091E+03  0.19036959559E+03  0.00000000000E+00 0.  1.
</event>
<event>
 7    1  0.6671761E-006  0.1157099E+03  0.7561462E-02  0.1250347E+00
         -1   -1    0    0    0  501 -0.00000000000E+00  0.00000000000E+00  0.37909728639E+02  0.37909728639E+02  0.00000000000E+00 0.  1.
          1   -1    0    0  501    0  0.00000000000E+00 -0.00000000000E+00 -0.65008315628E+03  0.65008315628E+03  0.00000000000E+00 0. -1.
         23    2    1    2    0    0  0.70631643928E+02 -0.64652019120E+01 -0.13006462442E+03  0.19198444488E+03  0.12210893740E+03 0.  0.
          5    1    3    3  502    0  0.55222475059E+02 -0.46149053567E+02 -0.21390537867E+02  0.75194975943E+02  0.41800000000E+01 0. -1.
         -5    1    3    3    0  502  0.15409168869E+02  0.39683851655E+02 -0.10867408655E+03  0.11678946894E+03  0.41800000000E+01 0.  1.
        -11    1    1    2    0    0 -0.93175962485E+02  0.27080454181E+00 -0.39071802578E+03  0.40167450628E+03  0.00000000000E+00 0.  1.
         11    1    1    2    0    0  0.22544318557E+02  0.61943973701E+01 -0.91390777433E+02  0.94333933756E+02  0.00000000000E+00 0. -1.
</event>
<event>
 7    1  0.6671761E-006  0.1087532E+04  0.7561462E-02  0.9217430E-01
          1   -1    0    0  501    0  0.00000000000E+00  0.00000000000E+00  0.13533294065E+04  0.13533294065E+04  0.00000000000E+00 0. -1.
         -1   -1    0    0    0  501 -0.00000000000E+00 -0.00000000000E+00 -0.96376332986E+03  0.96376332986E+03  0.00000000000E+00 0.  1.
         23    2    1    2    0    0 -0.10715770904E+04 -0.16288161034E+03 -0.15254822207E+03  0.11016936570E+04  0.12510025629E+03 0.  0.
          5    1    3    3  502    0 -0.92705560308E+02 -0.50504655007E+02 -0.19588207617E+02  0.10745329854E+03  0.41800000000E+01 0. -1.
         -5    1    3    3    0  502 -0.97887153010E+03 -0.11237695533E+03 -0.13296001445E+03  0.99424035845E+03  0.41800000000E+01 0. -1.
        -11    1    1    2    0    0  0.11882517695E+02 -0.46253372165E+00  0.18928041736E+02  0.22353499238E+02  0.00000000000E+00 0.  1.
         11    1    1    2    0    0  0.10596945727E+04  0.16334414406E+03  0.52318625702E+03  0.11930455802E+04  0.00000000000E+00 0. -1.
</event>
<event>
 7    1  0.6671761E-006  0.8379271E+02  0.7561462E-02  0.1318620E+00
          2   -1    0    0  501    0  0.00000000000E+00  0.00000000000E+00  0.23113743516E+03  0.23113743516E+03  0.00000000000E+00 0.  1.
         -2   -1    0    0    0  501 -0.00000000000E+00 -0.00000000000E+00 -0.52745291524E+02  0.52745291524E+02  0.00000000000E+00 0. -1.
         23    2    1    2    0    0  0.13141345862E+02 -0.28083574071E+01  0.78182229598E+02  0.14811410736E+03  0.12507895879E+03 0.  0.
          5    1    3    3  502    0  0.33066408673E+02  0.46710953159E+02  0.52267830830E+01  0.57620241140E+02  0.41800000000E+01 0. -1.
         -5    1    3    3    0  502 -0.19925062811E+02 -0.49519310566E+02  0.72955446515E+02  0.90493866219E+02  0.41800000000E+01 0. -1.
        -11    1    1    2    0    0 -0.24061968918E+02 -0.20055194556E+02 -0.10950341973E+01  0.31343073824E+02  0.00000000000E+00 0. -1.
         11    1    1    2    0    0  0.10920623055E+02  0.22863551963E+02  0.10130494823E+03  0.10442554550E+03  0.00000000000E+00 0.  1.
</event>
<event>
 7    1  0.6671761E-006  0.1072033E+03  0.7561462E-02  0.1265838E+00
          2   -1    0    0  501    0  0.00000000000E+00  0.00000000000E+00  0.65156313169E+03  0.65156313169E+03  0.00000000000E+00 0. -1.
         -2   -1    0    0    0  501 -0.00000000000E+00 -0.00000000000E+00 -0.21990342932E+02  0.21990342932E+02  0.00000000000E+00 0.  1.
         23    2    1    2    0    0 -0.42783578151E+00 -0.11306756184E+02  0.22082969860E+03  0.25405072099E+03  0.12509191529E+03 0.  0.
          5    1    3    3  502    0 -0.36888285475E+01  0.54642807368E+02  0.13450475996E+03  0.14528746231E+03  0.41800000000E+01 0.  1.
         -5    1    3    3    0  502  0.32609927660E+01 -0.65949563552E+02  0.86324938644E+02  0.10876325868E+03  0.41800000000E+01 0.  1.
        -11    1    1    2    0    0 -0.20933238147E+02 -0.35869453098E+02  0.21392509346E+03  0.21791916790E+03  0.00000000000E+00 0.  1.
         11    1    1    2    0    0  0.21361073929E+02  0.47176209281E+02  0.19481799669E+03  0.20158358573E+03  0.00000000000E+00 0. -1.
</event>
<event>
 7    1  0.6671761E-006  0.9537627E+02  0.7561462E-02  0.1290331E+00
          4   -1    0    0  501    0  0.00000000000E+00  0.00000000000E+00  0.93149194540E+02  0.93149194540E+02  0.00000000000E+00 0. -1.
         -4   -1    0    0    0  501 -0.00000000000E+00 -0.00000000000E+00 -0.20150146635E+03  0.20150146635E+03  0.00000000000E+00 0.  1.
         23    2    1    2    0    0 -0.26273498692E+02 -0.36743446935E+02 -0.13512111650E+03  0.18959359582E+03  0.12509051853E+03 0.  0.
          5    1    3    3  502    0 -0.58908445335E+01 -0.67203452443E+02 -0.22740152368E+02  0.71313343767E+02  0.41800000000E+01 0.  1.
         -5    1    3    3    0  502 -0.20382654159E+02  0.30460005508E+02 -0.11238096414E+03  0.11828025206E+03  0.41800000000E+01 0.  1.
        -11    1    1    2    0    0  0.34762012550E+02 -0.12016659350E+02  0.39479361405E+02  0.53957553646E+02  0.00000000000E+00 0. -1.
         11    1    1    2    0    0 -0.84885138577E+01  0.48760106285E+02 -0.12710516711E+02  0.51099511421E+02  0.00000000000E+00 0.  1.
</event>
<event>
 7    1  0.6671761E-006  0.1203841E+03  0.7561462E-02  0.1242465E+00
         -1   -1    0    0    0  501 -0.00000000000E+00  0.00000000000E+00  0.65423784108E+02  0.65423784108E+02  0.00000000000E+00 0.  1.
          1   -1    0    0  501    0  0.00000000000E+00 -0.00000000000E+00 -0.34595980612E+03  0.34595980612E+03  0.00000000000E+00 0. -1.
         23    2    1    2    0    0  0.75745112363E+02  0.41077593742E+02 -0.69530678783E+02  0.16705478865E+03  0.12509235134E+03 0.  0.
          5    1    3    3  502    0 -0.25183398204E+02 -0.16948234069E+02  0.13844043960E+01  0.30673036346E+02  0.41800000000E+01 0.  1.
         -5    1    3    3    0  502  0.10092851057E+03  0.58025827811E+02 -0.70915083179E+02  0.13638175230E+03  0.41800000000E+01 0.  1.
        -11    1    1    2    0    0 -0.28821118273E+02  0.33462007195E+01 -0.63318883093E+01  0.29697587904E+02  0.00000000000E+00 0.  1.
         11    1    1    2    0    0 -0.46923994090E+02 -0.44423794461E+02 -0.20467345492E+03  0.21463121368E+03  0.00000000000E+00 0. -1.
</event>
<event>
 7    1  0.6671761E-006  0.1100153E+03  0.7561462E-02  0.1260542E+00
          2   -1    0    0  501    0  0.00000000000E+00  0.00000000000E+00  0.12779498655E+03  0.12779498655E+03  0.00000000000E+00 0.  1.
         -2   -1    0    0    0  501 -0.00000000000E+00 -0.00000000000E+00 -0.15511901588E+03  0.15511901588E+03  0.00000000000E+00 0. -1.
         23    2    1    2    0    0  0.23913655635E+02  0.59145969305E+02 -0.79087946591E+02  0.16116102943E+03  0.12509142856E+03 0.  0.
          5    1    3    3  502    0  0.57713314788E+02  0.43614191863E+02  0.13146432286E+01  0.72472236909E+02  0.41800000000E+01 0.  1.
         -5    1    3    3    0  502 -0.33799659153E+02  0.15531777442E+02 -0.80402589820E+02  0.88688792522E+02  0.41800000000E+01 0.  1.
        -11    1    1    2    0    0 -0.26080410717E+02  0.18807934961E+02  0.13262179581E+02  0.34782346786E+02  0.00000000000E+00 0. -1.
         11    1    1    2    0    0  0.21667550818E+01 -0.77953904266E+02  0.38501737680E+02  0.86970626204E+02  0.00000000000E+00 0.  1.
</event>
<event>
 7    1  0.6671761E-006  0.9447235E+02  0.7561462E-02  0.1292369E+00
         -1   -1    0    0    0  501 -0.00000000000E+00  0.00000000000E+00  0.62004056032E+02  0.62004056032E+02  0.00000000000E+00 0.  1.
          1   -1    0    0  501    0  0.00000000000E+00 -0.00000000000E+00 -0.26694686505E+03  0.26694686505E+03  0.00000000000E+00 0. -1.
         23    2    1    2    0    0  0.25440427488E+02  0.59313154986E+02 -0.88213538060E+02  0.16612136276E+03  0.12509761454E+03 0.  0.
          5    1    3    3  502    0  0.25446321610E+02 -0.22266023284E+02 -0.76312869250E+02  0.83572827459E+02  0.41800000000E+01 0.  1.
         -5    1    3    3    0  502 -0.58941219392E-02  0.81579178270E+02 -0.11900668810E+02  0.82548535300E+02  0.41800000000E+01 0.  1.
        -11    1    1    2    0    0 -0.18346817768E+02 -0.58501176252E+01  0.12390724648E+02  0.22898900754E+02  0.00000000000E+00 0.  1.
         11    1    1    2    0    0 -0.70936097197E+01 -0.53463037361E+02 -0.12911999560E+03  0.13993065757E+03  0.00000000000E+00 0. -1.
</event>
<event>
 7    1  0.6671761E-006  0.8242652E+02  0.7561462E-02  0.1322303E+00
          2   -1    0    0  501    0  0.00000000000E+00  0.00000000000E+00  0.46457375118E+02  0.46457375118E+02  0.00000000000E+00 0. -1.
         -2   -1    0    0    0  501 -0.00000000000E+00 -0.00000000000E+00 -0.27339919323E+03  0.27339919323E+03  0.00000000000E+00 0.  1.
         23    2    1    2    0    0 -0.19683872500E+02  0.56388528375E+01 -0.16152611593E+03  0.20532376991E+03  0.12509161789E+03 0.  0.
          5    1    3    3  502    0  0.18234527191E+02 -0.31573611658E+02 -0.15805580371E+01  0.36733656213E+02  0.41800000000E+01 0.  1.
         -5    1    3    3    0  502 -0.37918399691E+02  0.37212464496E+02 -0.15994555789E+03  0.16859011370E+03  0.41800000000E+01 0.  1.
        -11    1    1    2    0    0  0.28623377605E+02  0.28008224438E+02 -0.68745629883E+02  0.79559537516E+02  0.00000000000E+00 0.  1.
         11    1    1    2    0    0 -0.89395051052E+01 -0.33647077275E+02  0.33299276990E+01  0.34973260917E+02  0.00000000000E+00 0. -1.
</event>
<event>
 7    1  0.6671761E-006  0.1792892E+03  0.7561462E-02  0.1168493E+00
         -2   -1    0    0    0  501 -0.00000000000E+00  0.00000000000E+00  0.33598725209E+02  0.33598725209E+02  0.00000000000E+00 0.  1.
          2   -1    0    0  501    0  0.00000000000E+00 -0.00000000000E+00 -0.10364493658E+04  0.10364493658E+04  0.00000000000E+00 0. -1.
         23    2    1    2    0    0  0.64160810875E+01 -0.14887771209E+03 -0.44878042843E+03  0.48913917389E+03  0.12509004452E+03 0.  0.
          5    1    3    3  502    0 -0.48383142293E+02 -0.10956554395E+03 -0.34570954382E+03  0.36589356098E+03  0.41800000000E+01 0. -1.
         -5    1    3    3    0  502  0.54799223380E+02 -0.39312168142E+02 -0.10307088461E+03  0.12324561291E+03  0.41800000000E+01 0. -1.
        -11    1    1    2    0    0  0.38059082675E+02  0.86979152175E+02 -0.36265706287E+03  0.37487866295E+03  0.00000000000E+00 0. -1.
         11    1    1    2    0    0 -0.44475163762E+02  0.61898559916E+02 -0.19141314932E+03  0.20603025420E+03  0.00000000000E+00 0.  1.
</event>
<event>
 7    1  0.6671761E-006  0.2046402E+03  0.7561462E-02  0.1145882E+00
         -1   -1    0    0    0  501 -0.00000000000E+00  0.00000000000E+00  0.90274717524E+03  0.90274717524E+03  0.00000000000E+00 0.  1.
          1   -1    0    0  501    0  0.00000000000E+00 -0.00000000000E+00 -0.52053415520E+02  0.52053415520E+02  0.00000000000E+00 0. -1.
         23    2    1    2    0    0 -0.13884085418E+03 -0.11879697295E+03  0.53287782574E+03  0.57705772734E+03  0.12508932790E+03 0.  0.
          5    1    3    3  502    0 -0.61575394024E+02 -0.11571085290E+03  0.42130600767E+03  0.44124455252E+03  0.41800000000E+01 0.  1.
         -5    1    3    3    0  502 -0.77265460155E+02 -0.30861200525E+01  0.11157181807E+03  0.13581317483E+03  0.41800000000E+01 0.  1.
        -11    1    1    2    0    0  0.41110155101E+02  0.89791748880E+02  0.19110858586E+03  0.21511646755E+03  0.00000000000E+00 0.  1.
         11    1    1    2    0    0  0.97730699079E+02  0.29005224070E+02  0.12670734813E+03  0.16262639587E+03  0.00000000000E+00 0. -1.
</event>
<event>
 7    1  0.6671761E-006  0.9762076E+02  0.7561462E-02  0.1285380E+00
          2   -1    0    0  501    0  0.00000000000E+00  0.00000000000E+00  0.43296497739E+02  0.43296497739E+02  0.00000000000E+00 0. -1.
         -2   -1    0    0    0  501 -0.00000000000E+00 -0.00000000000E+00 -0.25232521171E+03  0.25232521171E+03  0.00000000000E+00 0.  1.
         23    2    1    2    0    0  0.11117170617E+01 -0.17327875913E+02 -0.13945425012E+03  0.17935658533E+03  0.11144418167E+03 0.  0.
          5    1    3    3  502    0 -0.35092508776E+02 -0.49177366045E+02 -0.53953778878E+02  0.81107213973E+02  0.41800000000E+01 0. -1.
         -5    1    3    3    0  502  0.36204225837E+02  0.31849490131E+02 -0.85500471237E+02  0.98249371356E+02  0.41800000000E+01 0.  1.
        -11    1    1    2    0    0 -0.21829675351E+02 -0.28552263484E+02 -0.81613813000E+01  0.36856134099E+02  0.00000000000E+00 0.  1.
         11    1    1    2    0    0  0.20717958289E+02  0.45880139398E+02 -0.61413082552E+02  0.79408990016E+02  0.00000000000E+00 0. -1.
</event>
<event>
 7    1  0.6671761E-006  0.1119355E+03  0.7561462E-02  0.1257027E+00
          3   -1    0    0  501    0  0.00000000000E+00  0.00000000000E+00  0.11515632879E+03  0.11515632879E+03  0.00000000000E+00 0. -1.
         -3   -1    0    0    0  501 -0.00000000000E+00 -0.00000000000E+00 -0.23394976000E+03  0.23394976000E+03  0.00000000000E+00 0.  1.
         23    2    1    2    0    0  0.84524064451E+02  0.37983676135E+02 -0.14866726724E+03  0.21525708609E+03  0.12508628877E+03 0.  0.
          5    1    3    3  502    0  0.24889262551E+02 -0.30381529841E+02  0.17663492702E+01  0.39536124437E+02  0.41800000000E+01 0.  1.
         -5    1    3    3    0  502  0.59634801900E+02  0.68365205976E+02 -0.15043361651E+03  0.17572096165E+03  0.41800000000E+01 0.  1.
        -11    1    1    2    0    0 -0.35266524442E+02 -0.22874582118E+02 -0.32364842593E+02  0.53051458881E+02  0.00000000000E+00 0.  1.
         11    1    1    2    0    0 -0.49257540009E+02 -0.15109094017E+02  0.62238678624E+02  0.80797543816E+02  0.00000000000E+00 0. -1.
</event>
<event>
 7    1  0.6671761E-006  0.1406798E+03  0.7561462E-02  0.1212417E+00
         -2   -1    0    0    0  501 -0.00000000000E+00  0.00000000000E+00  0.22142036808E+03  0.22142036808E+03  0.00000000000E+00 0.  1.
          2   -1    0    0  501    0  0.00000000000E+00 -0.00000000000E+00 -0.92626757441E+02  0.92626757441E+02  0.00000000000E+00 0. -1.
         23    2    1    2    0    0 -0.77351629509E+02 -0.49867212628E+02  0.92247707201E+02  0.18062979440E+03  0.12508984635E+03 0.  0.
          5    1    3    3  502    0 -0.15350422691E+02  0.41435285813E+02  0.32917647069E+02  0.55259047003E+02  0.41800000000E+01 0. -1.
         -5    1    3    3    0  502 -0.62001206818E+02 -0.91302498441E+02  0.59330060132E+02  0.12537074740E+03  0.41800000000E+01 0. -1.
        -11    1    1    2    0    0  0.65087835610E+02 -0.96185893711E+01  0.30056250254E+02  0.72334789592E+02  0.00000000000E+00 0.  1.
         11    1    1    2    0    0  0.12263793898E+02  0.59485801999E+02  0.64896531787E+01  0.61082541521E+02  0.00000000000E+00 0. -1.
</event>
<event>
 7    1  0.6671761E-006  0.9274389E+02  0.7561462E-02  0.1296340E+00
         -3   -1    0    0    0  501 -0.00000000000E+00  0.00000000000E+00  0.91782406954E+02  0.91782406954E+02  0.00000000000E+00 0.  1.
          3   -1    0    0  501    0  0.00000000000E+00 -0.00000000000E+00 -0.15635862740E+03  0.15635862740E+03  0.00000000000E+00 0. -1.
         23    2    1    2    0    0 -0.20107036737E+02 -0.21308945874E+02  0.46957555263E+01  0.12857442593E+03  0.12510383201E+03 0.  0.
          5    1    3    3  502    0 -0.47717391388E+02 -0.32687666471E+02 -0.42967026650E+02  0.72173892505E+02  0.41800000000E+01 0.  1.
         -5    1    3    3    0  502  0.27610354651E+02  0.11378720596E+02  0.47662782176E+02  0.56400533429E+02  0.41800000000E+01 0.  1.
        -11    1    1    2    0    0 -0.34967106674E+02  0.23658428599E+02 -0.32901220327E+02  0.53524854899E+02  0.00000000000E+00 0. -1.
         11    1    1    2    0    0  0.55074143411E+02 -0.23494827249E+01 -0.36370755641E+02  0.66041753516E+02  0.00000000000E+00 0.  1.
</event>
<event>
 7    1  0.6671761E-006  0.9408732E+02  0.7561462E-02  0.1293245E+00
          1   -1    0    0  501    0  0.00000000000E+00  0.00000000000E+00  0.12060855818E+03  0.12060855818E+03  0.00000000000E+00 0. -1.
         -1   -1    0    0    0  501 -0.00000000000E+00 -0.00000000000E+00 -0.98855268751E+02  0.98855268751E+02  0.00000000000E+00 0.  1.
         23    2    1    2    0    0  0.26084951786E+02 -0.13934243821E+01  0.25826736594E+01  0.12781644227E+03  0.12509199163E+03 0.  0.
          5    1    3    3  502    0 -0.34918692069E+02 -0.14853216665E+02  0.39662144042E+02  0.55049897104E+02  0.41800000000E+01 0.  1.
         -5    1    3    3    0  502  0.61003643855E+02  0.13459792282E+02 -0.37079470383E+02  0.72766545168E+02  0.41800000000E+01 0.  1.
        -11    1    1    2    0    0 -0.54177868170E+02 -0.13154265060E+02  0.23124302964E+01  0.55799851457E+02  0.00000000000E+00 0.  1.
         11    1    1    2    0    0  0.28092916385E+02  0.14547689442E+02  0.16858185469E+02  0.35847533199E+02  0.00000000000E+00 0. -1.
</event>
<event>
 7    1  0.6671761E-006  0.1229273E+03  0.7561462E-02  0.1238345E+00
          2   -1    0    0  501    0  0.00000000000E+00  0.00000000000E+00  0.25287901634E+03  0.25287901634E+03  0.00000000000E+00 0. -1.
         -2   -1    0    0    0  501 -0.00000000000E+00 -0.00000000000E+00 -0.98755817493E+02  0.98755817493E+02  0.00000000000E+00 0.  1.
         23    2    1    2    0    0  0.92922213791E+02 -0.47074727610E+02  0.31071037977E+02  0.16572069417E+03  0.12508945311E+03 0.  0.
          5    1    3    3  502    0  0.80976697785E+02 -0.55408051641E+02 -0.30087258858E+02  0.10271316039E+03  0.41800000000E+01 0.  1.
         -5    1    3    3    0  502  0.11945516006E+02  0.83333240310E+01  0.61158296835E+02  0.63007533786E+02  0.41800000000E+01 0.  1.
        -11    1    1    2    0    0 -0.42364578034E+02 -0.21331703453E+02  0.17977491908E+02  0.50724641541E+02  0.00000000000E+00 0.  1.
         11    1    1    2    0    0 -0.50557635757E+02  0.68406431063E+02  0.10507466896E+03  0.13518949812E+03  0.00000000000E+00 0. -1.
</event>
<event>
 7    1  0.6671761E-006  0.9712352E+02  0.7561462E-02  0.1286464E+00
          4   -1    0    0  501    0  0.00000000000E+00  0.00000000000E+00  0.36416600773E+03  0.36416600773E+03  0.00000000000E+00 0. -1.
         -4   -1    0    0    0  501 -0.00000000000E+00 -0.00000000000E+00 -0.55739447470E+02  0.55739447470E+02  0.00000000000E+00 0.  1.
         23    2    1    2    0    0 -0.45030214133E+02  0.16135618911E+02  0.50824584048E+02  0.14324858325E+03  0.12509572286E+03 0.  0.
          5    1    3    3  502    0 -0.75133422680E+02 -0.67164017596E+01  0.67888920889E+02  0.10157026748E+03  0.41800000000E+01 0.  1.
         -5    1    3    3    0  502  0.30103208547E+02  0.22852020671E+02 -0.17064336842E+02  0.41678315770E+02  0.41800000000E+01 0.  1.
        -11    1    1    2    0    0 -0.12163403340E+02 -0.19936056740E+02  0.15903313018E+02  0.28254382034E+02  0.00000000000E+00 0.  1.
         11    1    1    2    0    0  0.57193617473E+02  0.38004378292E+01  0.24169866319E+03  0.24840248992E+03  0.00000000000E+00 0. -1.
</event>
<event>
 7    1  0.6671761E-006  0.1130627E+03  0.7561462E-02  0.1255001E+00
         -1   -1    0    0    0  501 -0.00000000000E+00  0.00000000000E+00  0.27421451038E+02  0.27421451038E+02  0.00000000000E+00 0.  1.
          1   -1    0    0  501    0  0.00000000000E+00 -0.00000000000E+00 -0.56784368336E+03  0.56784368336E+03  0.00000000000E+00 0. -1.
         23    2    1    2    0    0  0.76997291914E+01 -0.34459286353E+02 -0.18022436474E+03  0.22220476618E+03  0.12508960077E+03 0.  0.
          5    1    3    3  502    0 -0.57764100983E+02 -0.79835299409E+01 -0.69583986438E+02  0.90883616133E+02  0.41800000000E+01 0.  1.
         -5    1    3    3    0  502  0.65463830174E+02 -0.26475756412E+02 -0.11064037830E+03  0.13132115005E+03  0.41800000000E+01 0.  1.
        -11    1    1    2    0    0 -0.21795389161E+02 -0.26525506903E+02 -0.11657265197E+03  0.12152293896E+03  0.00000000000E+00 0.  1.
         11    1    1    2    0    0  0.14095659970E+02  0.60984793255E+02 -0.24362521561E+03  0.25153742926E+03  0.00000000000E+00 0. -1.
</event>
<event>
 7    1  0.6671761E-006  0.7415207E+02  0.7561462E-02  0.1346517E+00
         -1   -1    0    0    0  501 -0.00000000000E+00  0.00000000000E+00  0.67192568703E+02  0.67192568703E+02  0.00000000000E+00 0.  1.
          1   -1    0    0  501    0  0.00000000000E+00 -0.00000000000E+00 -0.18078233740E+03  0.18078233740E+03  0.00000000000E+00 0. -1.
         23    2    1    2    0    0 -0.21241633699E+02 -0.56949126063E+01 -0.55032086525E+02  0.13845048426E+03  0.12512540514E+03 0.  0.
          5    1    3    3  502    0  0.75789481743E+01  0.39759013078E+02 -0.71279144714E+02  0.82075626391E+02  0.41800000000E+01 0.  1.
         -5    1    3    3    0  502 -0.28820581873E+02 -0.45453925684E+02  0.16247058190E+02  0.56374857866E+02  0.41800000000E+01 0.  1.
        -11    1    1    2    0    0  0.36746125934E+02 -0.95990837903E+00  0.10665494727E+02  0.38274691025E+02  0.00000000000E+00 0.  1.
         11    1    1    2    0    0 -0.15504492235E+02  0.66548209853E+01 -0.69223176898E+02  0.71249730818E+02  0.00000000000E+00 0. -1.
</event>
<event>
 7    1  0.6671761E-006  0.7427646E+02  0.7561462E-02  0.1346126E+00
          1   -1    0    0  501    0  0.00000000000E+00  0.00000000000E+00  0.21012415720E+03  0.21012415720E+03  0.00000000000E+00 0. -1.
         -1   -1    0    0    0  501 -0.00000000000E+00 -0.00000000000E+00 -0.64721394205E+02  0.64721394205E+02  0.00000000000E+00 0.  1.
         23    2    1    2    0    0  0.37589977586E+02 -0.19632510182E+02  0.81639758783E+02  0.15527582847E+03  0.12508833208E+03 0.  0.
          5    1    3    3  502    0 -0.41944735834E+01  0.85825985840E+01  0.10068107377E+03  0.10121959110E+03  0.41800000000E+01 0. -1.
         -5    1    3    3    0  502  0.41784451170E+02 -0.28215108766E+02 -0.19041314985E+02  0.54056237370E+02  0.41800000000E+01 0. -1.
        -11    1    1    2    0    0 -0.31010935457E+02  0.48697852859E+02  0.68293310901E+02  0.89426703533E+02  0.00000000000E+00 0.  1.
         11    1    1    2    0    0 -0.65790421289E+01 -0.29065342678E+02 -0.45303066860E+01  0.30143019407E+02  0.00000000000E+00 0. -1.
</event>
<event>
 7    1  0.6671761E-006  0.1177247E+03  0.7561462E-02  0.1246898E+00
          2   -1    0    0  501    0  0.00000000000E+00  0.00000000000E+00  0.63574350550E+03  0.63574350550E+03  0.00000000000E+00 0.  1.
         -2   -1    0    0    0  501 -0.00000000000E+00 -0.00000000000E+00 -0.28396848180E+02  0.28396848180E+02  0.00000000000E+00 0. -1.
         23    2    1    2    0    0 -0.77347051838E+02  0.16027803119E+01  0.29549965340E+03  0.33008099791E+03  0.12509310410E+03 0.  0.
          5    1    3    3  502    0 -0.88611013069E+02 -0.39357961557E+02  0.15176507783E+03  0.18014181087E+03  0.41800000000E+01 0.  1.
         -5    1    3    3    0  502  0.11263961231E+02  0.40960741869E+02  0.14373457557E+03  0.14993918704E+03  0.41800000000E+01 0.  1.
        -11    1    1    2    0    0 -0.18180451413E+00  0.16172845968E+02  0.47911685171E+01  0.16868589015E+02  0.00000000000E+00 0. -1.
         11    1    1    2    0    0  0.77528856352E+02 -0.17775626280E+02  0.30705583540E+03  0.31719076675E+03  0.00000000000E+00 0.  1.
</event>
<event>
 7    1  0.6671761E-006  0.2002907E+03  0.7561462E-02  0.1149494E+00
          4   -1    0    0  501    0  0.00000000000E+00  0.00000000000E+00  0.10440548197E+03  0.10440548197E+03  0.00000000000E+00 0.  1.
         -4   -1    0    0    0  501 -0.00000000000E+00 -0.00000000000E+00 -0.39252664005E+03  0.39252664005E+03  0.00000000000E+00 0. -1.
         23    2    1    2    0    0  0.14754942603E+03 -0.82329946267E+02 -0.17456002900E+03  0.27325375355E+03  0.12508939576E+03 0.  0.
          5    1    3    3  502    0  0.98095149443E+02 -0.11293781778E+03 -0.10675811906E+03  0.18382703124E+03  0.41800000000E+01 0.  1.
         -5    1    3    3    0  502  0.49454276583E+02  0.30607871514E+02 -0.67801909945E+02  0.89426722310E+02  0.41800000000E+01 0.  1.
        -11    1    1    2    0    0 -0.15931255894E+03  0.65875952229E+02 -0.99557885210E+02  0.19907763567E+03  0.00000000000E+00 0.  1.
         11    1    1    2    0    0  0.11763132913E+02  0.16453994038E+02 -0.14003243869E+02  0.24600732806E+02  0.00000000000E+00 0. -1.
</event>
<event>
 7    1  0.6671761E-006  0.1563822E+03  0.7561462E-02  0.1192843E+00
         -1   -1    0    0    0  501 -0.00000000000E+00  0.00000000000E+00  0.72173160790E+02  0.72173160790E+02  0.00000000000E+00 0.  1.
          1   -1    0    0  501    0  0.00000000000E+00 -0.00000000000E+00 -0.42223337469E+03  0.42223337469E+03  0.00000000000E+00 0. -1.
         23    2    1    2    0    0  0.24522164364E+02  0.12219666235E+03 -0.10707613648E+03  0.20651282883E+03  0.12509551804E+03 0.  0.
          5    1    3    3  502    0  0.48196836324E+02  0.86755831355E+01 -0.79251046464E+00  0.49155887208E+02  0.41800000000E+01 0.  1.
         -5    1    3    3    0  502 -0.23674671960E+02  0.11352107921E+03 -0.10628362602E+03  0.15735694163E+03  0.41800000000E+01 0.  1.
        -11    1    1    2    0    0 -0.42091673105E+02 -0.25322680348E+02 -0.44270675946E+02  0.66127451436E+02  0.00000000000E+00 0.  1.
         11    1    1    2    0    0  0.17569508741E+02 -0.96873982000E+02 -0.19871340147E+03  0.22176625521E+03  0.00000000000E+00 0. -1.
</event>
<event>
 7    1  0.6671761E-006  0.3254713E+03  0.7561462E-02  0.1073158E+00
         -2   -1    0    0    0  501 -0.00000000000E+00  0.00000000000E+00  0.73155441442E+03  0.73155441442E+03  0.00000000000E+00 0.  1.
          2   -1    0    0  501    0  0.00000000000E+00 -0.00000000000E+00 -0.17255192205E+03  0.17255192205E+03  0.00000000000E+00 0. -1.
         23    2    1    2    0    0  0.14691176157E+03 -0.28639862782E+03  0.41381473103E+03  0.53897840683E+03  0.12509137343E+03 0.  0.
          5    1    3    3  502    0  0.61871871073E+00 -0.27219683323E+01 -0.83341119485E+01  0.97325097696E+01  0.41800000000E+01 0.  1.
         -5    1    3    3    0  502  0.14629304286E+03 -0.28367665949E+03  0.42214884298E+03  0.52924589706E+03  0.41800000000E+01 0.  1.
        -11    1    1    2    0    0 -0.33452233846E+02  0.12516739383E+03  0.18734698336E+02  0.13090804922E+03  0.00000000000E+00 0.  1.
         11    1    1    2    0    0 -0.11345952773E+03  0.16123123399E+03  0.12645306300E+03  0.23421988043E+03  0.00000000000E+00 0. -1.
</event>
<event>
 7    1  0.6671761E-006  0.1967958E+03  0.7561462E-02  0.1152471E+00
          2   -1    0    0  501    0  0.00000000000E+00  0.00000000000E+00  0.44162927581E+03  0.44162927581E+03  0.00000000000E+00 0.  1.
         -2   -1    0    0    0  501 -0.00000000000E+00 -0.00000000000E+00 -0.17903873381E+03  0.17903873381E+03  0.00000000000E+00 0. -1.
         23    2    1    2    0    0 -0.52182616636E+02  0.15634916427E+03 -0.84293737586E+02  0.22342969314E+03  0.12508919591E+03 0.  0.
          5    1    3    3  502    0  0.33806952319E+02  0.78335048384E+02 -0.60926145144E+02  0.10492262574E+03  0.41800000000E+01 0. -1.
         -5    1    3    3    0  502 -0.85989568955E+02  0.78014115888E+02 -0.23367592443E+02  0.11850706740E+03  0.41800000000E+01 0. -1.
        -11    1    1    2    0    0 -0.16479085627E+02 -0.10491224117E+03  0.21676605263E+03  0.24138280839E+03  0.00000000000E+00 0. -1.
         11    1    1    2    0    0  0.68661702263E+02 -0.51436923101E+02  0.13011822695E+03  0.15585550809E+03  0.00000000000E+00 0.  1.
</event>
<event>
 7    1  0.6671761E-006  0.1619624E+03  0.7561462E-02  0.1186499E+00
         -2   -1    0    0    0  501 -0.00000000000E+00  0.00000000000E+00  0.57105856300E+02  0.57105856300E+02  0.00000000000E+00 0.  1.
          2   -1    0    0  501    0  0.00000000000E+00 -0.00000000000E+00 -0.64206739841E+03  0.64206739841E+03  0.00000000000E+00 0. -1.
         23    2    1    2    0    0  0.14788313042E+03 -0.47987714246E+02 -0.26366795998E+03  0.33066694543E+03  0.12509034612E+03 0.  0.
          5    1    3    3  502    0  0.75501518132E+02 -0.22459631915E+02 -0.29519288805E+02  0.84224551750E+02  0.41800000000E+01 0.  1.
         -5    1    3    3    0  502  0.72381612291E+02 -0.25528082331E+02 -0.23414867118E+03  0.24644239368E+03  0.41800000000E+01 0.  1.
        -11    1    1    2    0    0 -0.41593193038E+02  0.45796047920E+02 -0.18853938617E+03  0.19842976553E+03  0.00000000000E+00 0. -1.
         11    1    1    2    0    0 -0.10628993739E+03  0.21916663260E+01 -0.13275419596E+03  0.17007654375E+03  0.00000000000E+00 0.  1.
</event>
<event>
 7    1  0.6671761E-006  0.1149256E+03  0.7561462E-02  0.1251711E+00
          2   -1    0    0  501    0  0.00000000000E+00  0.00000000000E+00  0.44613407965E+02  0.44613407965E+02  0.00000000000E+00 0. -1.
         -2   -1    0    0    0  501 -0.00000000000E+00 -0.00000000000E+00 -0.31992412043E+03  0.31992412043E+03  0.00000000000E+00 0.  1.
         23    2    1    2    0    0  0.39612233040E+02 -0.27861875083E+02 -0.18197189850E+03  0.22606797673E+03  0.12509014817E+03 0.  0.
          5    1    3    3  502    0  0.78277806375E+02  0.92917364834E+01 -0.91787504141E+02  0.12106266829E+03  0.41800000000E+01 0. -1.
         -5    1    3    3    0  502 -0.38665573335E+02 -0.37153611567E+02 -0.90184394355E+02  0.10500530843E+03  0.41800000000E+01 0. -1.
        -11    1    1    2    0    0 -0.61128885803E+02  0.39386450052E+02 -0.86730407559E+02  0.11318213959E+03  0.00000000000E+00 0.  1.
         11    1    1    2    0    0  0.21516652763E+02 -0.11524574969E+02 -0.66084064099E+01  0.25287412078E+02  0.00000000000E+00 0. -1.
</event>
<event>
 7    1  0.6671761E-006  0.1464708E+03  0.7561462E-02  0.1204878E+00
          2   -1    0    0  501    0  0.00000000000E+00  0.00000000000E+00  0.59169382169E+03  0.59169382169E+03  0.00000000000E+00 0. -1.
         -2   -1    0    0    0  501 -0.00000000000E+00 -0.00000000000E+00 -0.39824790087E+02  0.39824790087E+02  0.00000000000E+00 0.  1.
         23    2    1    2    0    0  0.10452730110E+03 -0.21308623800E+02  0.25916582418E+03  0.30691039330E+03  0.12508817277E+03 0.  0.
          5    1    3    3  502    0  0.27847481782E+02  0.51420541611E+02  0.91248054142E+02  0.10845844424E+03  0.41800000000E+01 0. -1.
         -5    1    3    3    0  502  0.76679819317E+02 -0.72729165411E+02  0.16791777004E+03  0.19845194907E+03  0.41800000000E+01 0. -1.
        -11    1    1    2    0    0 -0.31914912975E+02  0.42274867280E+02  0.18902652626E+03  0.19630780347E+03  0.00000000000E+00 0. -1.
         11    1    1    2    0    0 -0.72612388124E+02 -0.20966243480E+02  0.10367668116E+03  0.12830041501E+03  0.00000000000E+00 0.  1.
</event>
<event>
 7    1  0.6671761E-006  0.1188777E+03  0.7561462E-02  0.1244960E+00
          1   -1    0    0  501    0  0.00000000000E+00  0.00000000000E+00  0.16470306139E+03  0.16470306139E+03  0.00000000000E+00 0. -1.
         -1   -1    0    0    0  501 -0.00000000000E+00 -0.00000000000E+00 -0.93398458520E+02  0.93398458520E+02  0.00000000000E+00 0.  1.
         23    2    1    2    0    0 -0.53516668788E+02 -0.11487026109E+02  0.14379471591E+02  0.13730543963E+03  0.12510007571E+03 0.  0.
          5    1    3    3  502    0 -0.31230672008E+02 -0.68305127369E+02  0.47018913720E+01  0.75369260852E+02  0.41800000000E+01 0.  1.
         -5    1    3    3    0  502 -0.22285996780E+02  0.56818101260E+02  0.96775802186E+01  0.61936178782E+02  0.41800000000E+01 0.  1.
        -11    1    1    2    0    0  0.76559848941E+02  0.24304903986E+01  0.57897607837E+02  0.96017970957E+02  0.00000000000E+00 0. -1.
         11    1    1    2    0    0 -0.23043180153E+02  0.90565357099E+01 -0.97247656032E+00  0.24778109316E+02  0.00000000000E+00 0.  1.
</event>
<event>
 7    1  0.6671761E-006  0.9642834E+02  0.7561462E-02  0.1287991E+00
          3   -1    0    0  501    0  0.00000000000E+00  0.00000000000E+00  0.16943988958E+03  0.16943988958E+03  0.00000000000E+00 0. -1.
         -3   -1    0    0    0  501 -0.00000000000E+00 -0.00000000000E+00 -0.98675941826E+02  0.98675941826E+02  0.00000000000E+00 0.  1.
         23    2    1    2    0    0 -0.61409578656E+02 -0.33896473938E+02  0.28690700764E+02  0.14625614482E+03  0.12509035251E+03 0.  0.
          5    1    3    3  502    0  0.73668454652E+01 -0.20747232204E+02 -0.41410875811E+02  0.47085572011E+02  0.41800000000E+01 0.  1.
         -5    1    3    3    0  502 -0.68776424121E+02 -0.13149241735E+02  0.70101576575E+02  0.99170572809E+02  0.41800000000E+01 0.  1.
        -11    1    1    2    0    0  0.29205971364E+02  0.54666894061E+02 -0.37886443347E+01  0.62095184157E+02  0.00000000000E+00 0.  1.
         11    1    1    2    0    0  0.32203607291E+02 -0.20770420122E+02  0.45861891325E+02  0.59764502428E+02  0.00000000000E+00 0. -1.
</event>
<event>
 7    1  0.6671761E-006  0.8911507E+02  0.7561462E-02  0.1305009E+00
         -4   -1    0    0    0  501 -0.00000000000E+00  0.00000000000E+00  0.58136839402E+03  0.58136839402E+03  0.00000000000E+00 0.  1.
          4   -1    0    0  501    0  0.00000000000E+00 -0.00000000000E+00 -0.40038570854E+02  0.40038570854E+02  0.00000000000E+00 0. -1.
         23    2    1    2    0    0 -0.22500348858E+02 -0.69442207428E+01  0.50667683300E+03  0.52194657426E+03  0.12309478214E+03 0.  0.
          5    1    3    3  502    0  0.32405599832E+02  0.86435328085E+00  0.38610462976E+02  0.50587649266E+02  0.41800000000E+01 0. -1.
         -5    1    3    3    0  502 -0.54905948690E+02 -0.78085740237E+01  0.46806637002E+03  0.47135892500E+03  0.41800000000E+01 0.  1.
        -11    1    1    2    0    0  0.55324386674E+02 -0.36308361716E+01  0.33861271546E+02  0.64965809799E+02  0.00000000000E+00 0. -1.
         11    1    1    2    0    0 -0.32824037816E+02  0.10575056914E+02  0.79171862623E+00  0.34494580816E+02  0.00000000000E+00 0.  1.
</event>
<event>
 7    1  0.6671761E-006  0.2035104E+03  0.7561462E-02  0.1146811E+00
         -1   -1    0    0    0  501 -0.00000000000E+00  0.00000000000E+00  0.26865240304E+03  0.26865240304E+03  0.00000000000E+00 0.  1.
          1   -1    0    0  501    0  0.00000000000E+00 -0.00000000000E+00 -0.20254192417E+03  0.20254192417E+03  0.00000000000E+00 0. -1.
         23    2    1    2    0    0 -0.71876766119E+02  0.18552498419E+03  0.88498975698E+02  0.25112942086E+03  0.12509247801E+03 0.  0.
          5    1    3    3  502    0 -0.74730448861E+02  0.12778367069E+03  0.11489985378E+03  0.18743733694E+03  0.41800000000E+01 0.  1.
         -5    1    3    3    0  502  0.28536827424E+01  0.57741313500E+02 -0.26400878083E+02  0.63692083915E+02  0.41800000000E+01 0.  1.
        -11    1    1    2    0    0 -0.16839420209E+01 -0.17055976028E+02  0.24921452002E+02  0.30246003850E+02  0.00000000000E+00 0.  1.
         11    1    1    2    0    0  0.73560708139E+02 -0.16846900816E+03 -0.47309948832E+02  0.18981890251E+03  0.00000000000E+00 0. -1.
</event>
<event>
 7    1  0.6671761E-006  0.2014271E+03  0.7561462E-02  0.1148541E+00
          1   -1    0    0  501    0  0.00000000000E+00  0.00000000000E+00  0.62151755172E+03  0.62151755172E+03  0.00000000000E+00 0.  1.
         -1   -1    0    0    0  501 -0.00000000000E+00 -0.00000000000E+00 -0.70800302700E+02  0.70800302700E+02  0.00000000000E+00 0. -1.
         23    2    1    2    0    0 -0.75425937671E+02  0.15750393626E+03  0.35882092607E+03  0.41820621834E+03  0.12508965611E+03 0.  0.
          5    1    3    3  502    0 -0.42502093529E+02  0.16731918863E+03  0.24868398609E+03  0.30275953523E+03  0.41800000000E+01 0.  1.
         -5    1    3    3    0  502 -0.32923844142E+02 -0.98152523736E+01  0.11013693998E+03  0.11544668311E+03  0.41800000000E+01 0.  1.
        -11    1    1    2    0    0  0.80159556646E+02 -0.65722733958E+02  0.10749900505E+03  0.14933542234E+03  0.00000000000E+00 0. -1.
         11    1    1    2    0    0 -0.47336189748E+01 -0.91781202300E+02  0.84397317903E+02  0.12477621373E+03  0.00000000000E+00 0.  1.
</event>
<event>
 7    1  0.6671761E-006  0.1138511E+03  0.7561462E-02  0.1253600E+00
         -2   -1    0    0    0  501 -0.00000000000E+00  0.00000000000E+00  0.19555492875E+02  0.19555492875E+02  0.00000000000E+00 0.  1.
          2   -1    0    0  501    0  0.00000000000E+00 -0.00000000000E+00 -0.83559957577E+03  0.83559957577E+03  0.00000000000E+00 0. -1.
         23    2    1    2    0    0 -0.40655251720E+02  0.52732992818E+02 -0.42163262019E+03  0.44480838698E+03  0.12508723635E+03 0.  0.
          5    1    3    3  502    0 -0.31744025030E+02 -0.22226495997E+02 -0.40343234701E+02  0.56095893215E+02  0.41800000000E+01 0.  1.
         -5    1    3    3    0  502 -0.89112266899E+01  0.74959488815E+02 -0.38128938549E+03  0.38871249377E+03  0.41800000000E+01 0.  1.
        -11    1    1    2    0    0  0.59058536817E+02 -0.19311388181E+01 -0.21545715958E+03  0.22341313229E+03  0.00000000000E+00 0. -1.
         11    1    1    2    0    0 -0.18403285096E+02 -0.50801854000E+02 -0.17895430313E+03  0.18693354937E+03  0.00000000000E+00 0.  1.
</event>
<event>
 7    1  0.6671761E-006  0.1403884E+03  0.7561462E-02  0.1212807E+00
         -2   -1    0    0    0  501 -0.00000000000E+00  0.00000000000E+00  0.19360846878E+03  0.19360846878E+03  0.00000000000E+00 0.  1.
          2   -1    0    0  501    0  0.00000000000E+00 -0.00000000000E+00 -0.15826768823E+03  0.15826768823E+03  0.00000000000E+00 0. -1.
         23    2    1    2    0    0 -0.92976263362E+02 -0.61478538669E+02  0.98648195372E+02  0.19442357861E+03  0.12507943558E+03 0.  0.
          5    1    3    3  502    0 -0.12118281979E+03 -0.39617840874E+02  0.57874465481E+02  0.14007774728E+03  0.41800000000E+01 0.  1.
         -5    1    3    3    0  502  0.28206556432E+02 -0.21860697795E+02  0.40773729891E+02  0.54345831331E+02  0.41800000000E+01 0.  1.
        -11    1    1    2    0    0  0.86915950655E+02  0.41327331102E+02 -0.84144792250E+02  0.12783847948E+03  0.00000000000E+00 0. -1.
         11    1    1    2    0    0  0.60603127065E+01  0.20151207568E+02  0.20837377420E+02  0.29614098910E+02  0.00000000000E+00 0.  1.
</event>
<event>
 7    1  0.6671761E-006  0.1681266E+03  0.7561462E-02  0.1179816E+00
         -2   -1    0    0    0  501 -0.00000000000E+00  0.00000000000E+00  0.54189614461E+02  0.54189614461E+02  0.00000000000E+00 0. -1.
          2   -1    0    0  501    0  0.00000000000E+00 -0.00000000000E+00 -0.66826132350E+03  0.66826132350E+03  0.00000000000E+00 0.  1.
         23    2    1    2    0    0 -0.10391984836E+03 -0.80316686797E+02 -0.17616279049E+03  0.25284721146E+03  0.12509307947E+03 0.  0.
          5    1    3    3  502    0  0.25046688959E+01 -0.74499677075E+02 -0.75605533235E+02  0.10625509073E+03  0.41800000000E+01 0.  1.
         -5    1    3    3    0  502 -0.10642451725E+03 -0.58170097219E+01 -0.10055725725E+03  0.14659212073E+03  0.41800000000E+01 0.  1.
        -11    1    1    2    0    0  0.10711099735E+03  0.92999557942E+02 -0.43298572834E+03  0.45562959131E+03  0.00000000000E+00 0.  1.
         11    1    1    2    0    0 -0.31911489969E+01 -0.12682871145E+02 -0.49231902135E+01  0.13974135189E+02  0.00000000000E+00 0. -1.
</event>
<event>
 7    1  0.6671761E-006  0.1279589E+03  0.7561462E-02  0.1230516E+00
          1   -1    0    0  501    0  0.00000000000E+00  0.00000000000E+00  0.90866840830E+03  0.90866840830E+03  0.00000000000E+00 0. -1.
         -1   -1    0    0    0  501 -0.00000000000E+00 -0.00000000000E+00 -0.27656481688E+02  0.27656481688E+02  0.00000000000E+00 0.  1.
         23    2    1    2    0    0 -0.62897728113E+02  0.65828775532E+02  0.26594822894E+03  0.30767835718E+03  0.12509180272E+03 0.  0.
          5    1    3    3  502    0 -0.46496820355E+02  0.87264588617E+02  0.26201696982E+03  0.28008467935E+03  0.41800000000E+01 0. -1.
         -5    1    3    3    0  502 -0.16400907758E+02 -0.21435813085E+02  0.39312591190E+01  0.27593677830E+02  0.41800000000E+01 0. -1.
        -11    1    1    2    0    0  0.85055032624E+02 -0.35710300110E+02  0.45745014100E+03  0.46665856427E+03  0.00000000000E+00 0.  1.
         11    1    1    2    0    0 -0.22157304511E+02 -0.30118475421E+02  0.15761355667E+03  0.16198796854E+03  0.00000000000E+00 0. -1.
</event>
<event>
 7    1  0.6671761E-006  0.9366275E+02  0.7561462E-02  0.1294217E+00
          3   -1    0    0  501    0  0.00000000000E+00  0.00000000000E+00  0.20134189843E+03  0.20134189843E+03  0.00000000000E+00 0. -1.
         -3   -1    0    0    0  501 -0.00000000000E+00 -0.00000000000E+00 -0.61916218961E+02  0.61916218961E+02  0.00000000000E+00 0.  1.
         23    2    1    2    0    0  0.29455485123E+02  0.11531554704E+02  0.87061677576E+02  0.15565052056E+03  0.12508695572E+03 0.  0.
          5    1    3    3  502    0  0.12885225976E+02  0.65259111342E+02  0.23463212483E+02  0.70659574027E+02  0.41800000000E+01 0.  1.
         -5    1    3    3    0  502  0.16570259147E+02 -0.53727556639E+02  0.63598465093E+02  0.84990946534E+02  0.41800000000E+01 0.  1.
        -11    1    1    2    0    0  0.12104463760E+02 -0.18546989077E+02 -0.15981119988E+02  0.27311262197E+02  0.00000000000E+00 0.  1.
         11    1    1    2    0    0 -0.41559948883E+02  0.70154343730E+01  0.68345121885E+02  0.80296334637E+02  0.00000000000E+00 0. -1.
</event>
<event>
 7    1  0.6671761E-006  0.9712094E+02  0.7561462E-02  0.1286469E+00
         -2   -1    0    0    0  501 -0.00000000000E+00  0.00000000000E+00  0.60540048321E+02  0.60540048321E+02  0.00000000000E+00 0.  1.
          2   -1    0    0  501    0  0.00000000000E+00 -0.00000000000E+00 -0.20808252210E+03  0.20808252210E+03  0.00000000000E+00 0. -1.
         23    2    1    2    0    0  0.13434802810E+00 -0.22877118020E+02 -0.80473279378E+02  0.15052788963E+03  0.12513718986E+03 0.  0.
          5    1    3    3  502    0 -0.31657529465E+02 -0.48787195377E+02 -0.90909732777E+02  0.10800204405E+03  0.41800000000E+01 0.  1.
         -5    1    3    3    0  502  0.31791877493E+02  0.25910077358E+02  0.10436453399E+02  0.42525845585E+02  0.41800000000E+01 0.  1.
        -11    1    1    2    0    0  0.17684172475E+02  0.55110142439E+02 -0.27637741163E+02  0.64138151614E+02  0.00000000000E+00 0.  1.
         11    1    1    2    0    0 -0.17818520503E+02 -0.32233024419E+02 -0.39431453238E+02  0.53956529175E+02  0.00000000000E+00 0. -1.
</event>
<event>
 7    1  0.6671761E-006  0.1063349E+03  0.7561462E-02  0.1267512E+00
         -1   -1    0    0    0  501 -0.00000000000E+00  0.00000000000E+00  0.99547187365E+02  0.99547187365E+02  0.00000000000E+00 0.  1.
          1   -1    0    0  501    0  0.00000000000E+00 -0.00000000000E+00 -0.12739541290E+03  0.12739541290E+03  0.00000000000E+00 0. -1.
         23    2    1    2    0    0  0.13656892723E+02  0.20948722602E+02  0.19961994313E+01  0.12756279521E+03  0.12507166830E+03 0.  0.
          5    1    3    3  502    0  0.34402766654E+02  0.67465319378E+02 -0.48557294933E+01  0.76001119605E+02  0.41800000000E+01 0.  1.
         -5    1    3    3    0  502 -0.20745873931E+02 -0.46516596776E+02  0.68519289246E+01  0.51561675601E+02  0.41800000000E+01 0.  1.
        -11    1    1    2    0    0 -0.24376836918E+02  0.27122739198E+02 -0.34122465145E+02  0.49942124377E+02  0.00000000000E+00 0. -1.
         11    1    1    2    0    0  0.10719944194E+02 -0.48071461800E+02  0.42780401823E+01  0.49437680679E+02  0.00000000000E+00 0.  1.
</event>
<event>
 7    1  0.6671761E-006  0.8707763E+02  0.7561462E-02  0.1310087E+00
          2   -1    0    0  501    0  0.00000000000E+00  0.00000000000E+00  0.13876133461E+03  0.13876133461E+03  0.00000000000E+00 0. -1.
         -2   -1    0    0    0  501 -0.00000000000E+00 -0.00000000000E+00 -0.12719479621E+03  0.12719479621E+03  0.00000000000E+00 0.  1.
         23    2    1    2    0    0  0.30735652571E+02  0.52052013169E+02 -0.40849566504E+02  0.14480986076E+03  0.12508843382E+03 0.  0.
          5    1    3    3  502    0  0.25766153127E+02  0.19327580886E+02 -0.84119170407E+02  0.90171820763E+02  0.41800000000E+01 0.  1.
         -5    1    3    3    0  502  0.49694994439E+01  0.32724432283E+02  0.43269603903E+02  0.54638039999E+02  0.41800000000E+01 0.  1.
        -11    1    1    2    0    0  0.15087820850E+02  0.18694122657E+02  0.18362202546E+02  0.30237113656E+02  0.00000000000E+00 0. -1.
         11    1    1    2    0    0 -0.45823473421E+02 -0.70746135826E+02  0.34053902358E+02  0.90909156395E+02  0.00000000000E+00 0.  1.
</event>
<event>
 7    1  0.6671761E-006  0.1218453E+03  0.7561462E-02  0.1240084E+00
          2   -1    0    0  501    0  0.00000000000E+00  0.00000000000E+00  0.40518836990E+03  0.40518836990E+03  0.00000000000E+00 0.  1.
         -2   -1    0    0    0  501 -0.00000000000E+00 -0.00000000000E+00 -0.49555889633E+02  0.49555889633E+02  0.00000000000E+00 0. -1.
         23    2    1    2    0    0  0.65855635540E+02 -0.34606627264E+02  0.11044019075E+03  0.18270040651E+03  0.12509124440E+03 0.  0.
          5    1    3    3  502    0 -0.26200824584E+02 -0.38495602640E+02  0.64490884134E+02  0.79655138992E+02  0.41800000000E+01 0.  1.
         -5    1    3    3    0  502  0.92056460125E+02  0.38889753757E+01  0.45949306613E+02  0.10304526752E+03  0.41800000000E+01 0.  1.
        -11    1    1    2    0    0  0.76327898351E+01  0.30127283721E+02  0.14149372078E+03  0.14486678614E+03  0.00000000000E+00 0.  1.
         11    1    1    2    0    0 -0.73488425375E+02  0.44793435436E+01  0.10369856874E+03  0.12717706689E+03  0.00000000000E+00 0. -1.
</event>
<event>
 7    1  0.6671761E-006  0.1382732E+03  0.7561462E-02  0.1215672E+00
          1   -1    0    0  501    0  0.00000000000E+00  0.00000000000E+00  0.58639380017E+03  0.58639380017E+03  0.00000000000E+00 0. -1.
         -1   -1    0    0    0  501 -0.00000000000E+00 -0.00000000000E+00 -0.37892023008E+02  0.37892023008E+02  0.00000000000E+00 0.  1.
         23    2    1    2    0    0  0.44563022540E+02  0.83787570188E+02  0.21620659345E+03  0.26720578788E+03  0.12508965635E+03 0.  0.
          5    1    3    3  502    0 -0.34739937305E+02  0.60127263957E+02  0.13115092021E+03  0.14845937959E+03  0.41800000000E+01 0.  1.
         -5    1    3    3    0  502  0.79302959844E+02  0.23660306232E+02  0.85055673243E+02  0.11874640829E+03  0.41800000000E+01 0.  1.
        -11    1    1    2    0    0 -0.67855018053E+02 -0.57004163229E+02  0.28143871518E+03  0.29506190622E+03  0.00000000000E+00 0.  1.
         11    1    1    2    0    0  0.23291995514E+02 -0.26783406960E+02  0.50856468521E+02  0.62018129074E+02  0.00000000000E+00 0. -1.
</event>
<event>
 7    1  0.6671761E-006  0.2523675E+03  0.7561462E-02  0.1111818E+00
          2   -1    0    0  501    0  0.00000000000E+00  0.00000000000E+00  0.52475009329E+03  0.52475009329E+03  0.00000000000E+00 0. -1.
         -2   -1    0    0    0  501 -0.00000000000E+00 -0.00000000000E+00 -0.14448941085E+03  0.14448941085E+03  0.00000000000E+00 0.  1.
         23    2    1    2    0    0 -0.85601152946E+02  0.23442720089E+03  0.14357649583E+03  0.31391796065E+03  0.12508639400E+03 0.  0.
          5    1    3    3  502    0  0.23273716393E+01  0.30111621818E+02 -0.21143482466E+02  0.37103176119E+02  0.41800000000E+01 0. -1.
         -5    1    3    3    0  502 -0.87928524585E+02  0.20431557907E+03  0.16471997829E+03  0.27681478453E+03  0.41800000000E+01 0. -1.
        -11    1    1    2    0    0  0.14420638522E+02 -0.85532342433E+02  0.32143661590E+02  0.92503791262E+02  0.00000000000E+00 0.  1.
         11    1    1    2    0    0  0.71180514423E+02 -0.14889485846E+03  0.20454052503E+03  0.26281775223E+03  0.00000000000E+00 0. -1.
</event>
<event>
 7    1  0.6671761E-006  0.1353589E+03  0.7561462E-02  0.1219714E+00
         -3   -1    0    0    0  501 -0.00000000000E+00  0.00000000000E+00  0.21645447980E+03  0.21645447980E+03  0.00000000000E+00 0.  1.
          3   -1    0    0  501    0  0.00000000000E+00 -0.00000000000E+00 -0.10434787703E+03  0.10434787703E+03  0.00000000000E+00 0. -1.
         23    2    1    2    0    0  0.89415298813E+02 -0.43128489579E+02  0.96556008115E+02  0.18365299178E+03  0.12062419496E+03 0.  0.
          5    1    3    3  502    0 -0.28179252406E+02 -0.14548005182E+02  0.36354438092E+02  0.48423468380E+02  0.41800000000E+01 0. -1.
         -5    1    3    3    0  502  0.11759455122E+03 -0.28580484397E+02  0.60201570023E+02  0.13522952340E+03  0.41800000000E+01 0.  1.
        -11    1    1    2    0    0 -0.51382038753E+02 -0.99557174642E+01 -0.27312831848E+02  0.59035760351E+02  0.00000000000E+00 0. -1.
         11    1    1    2    0    0 -0.38033260059E+02  0.53084207044E+02  0.42863426497E+02  0.78113604700E+02  0.00000000000E+00 0.  1.
</event>
<event>
 7    1  0.6671761E-006  0.1415558E+03  0.7561462E-02  0.1211251E+00
         -1   -1    0    0    0  501 -0.00000000000E+00  0.00000000000E+00  0.12411116332E+03  0.12411116332E+03  0.00000000000E+00 0.  1.
          1   -1    0    0  501    0  0.00000000000E+00 -0.00000000000E+00 -0.18887514821E+03  0.18887514821E+03  0.00000000000E+00 0. -1.
         23    2    1    2    0    0 -0.38471938852E+02  0.87765178893E+02  0.10410924137E+02  0.15791507644E+03  0.12508384116E+03 0.  0.
          5    1    3    3  502    0 -0.76699563316E+02  0.90858675959E+02  0.87834663512E+01  0.11930106324E+03  0.41800000000E+01 0.  1.
         -5    1    3    3    0  502  0.38227624463E+02 -0.30934970655E+01  0.16274577862E+01  0.38614013195E+02  0.41800000000E+01 0.  1.
        -11    1    1    2    0    0  0.62768112412E+02 -0.75972325347E+02 -0.31024615484E+02  0.10331581157E+03  0.00000000000E+00 0.  1.
         11    1    1    2    0    0 -0.24296173559E+02 -0.11792853547E+02 -0.44150293541E+02  0.51755423524E+02  0.00000000000E+00 0. -1.
</event>
<event>
 7    1  0.6671761E-006  0.1069017E+03  0.7561462E-02  0.1266417E+00
         -1   -1    0    0    0  501 -0.00000000000E+00  0.00000000000E+00  0.15374082250E+03  0.15374082250E+03  0.00000000000E+00 0.  1.
          1   -1    0    0  501    0  0.00000000000E+00 -0.00000000000E+00 -0.11695084177E+03  0.11695084177E+03  0.00000000000E+00 0. -1.
         23    2    1    2    0    0 -0.81922570839E+02  0.60311390117E+00  0.56811847245E+02  0.15995712135E+03  0.12508806228E+03 0.  0.
          5    1    3    3  502    0 -0.95282768601E+02  0.19342888787E+00 -0.60382747739E+01  0.95565561627E+02  0.41800000000E+01 0. -1.
         -5    1    3    3    0  502  0.13360197762E+02  0.40968501330E+00  0.62850122019E+02  0.64391559725E+02  0.41800000000E+01 0. -1.
        -11    1    1    2    0    0  0.49773972191E+02 -0.32252963049E+02 -0.26854134220E+02  0.65106424090E+02  0.00000000000E+00 0. -1.
         11    1    1    2    0    0  0.32148598648E+02  0.31649849148E+02  0.68322677002E+01  0.45628118831E+02  0.00000000000E+00 0.  1.
</event>
<event>
 7    1  0.6671761E-006  0.6958141E+02  0.7561462E-02  0.1361522E+00
         -2   -1    0    0    0  501 -0.00000000000E+00  0.00000000000E+00  0.15772779506E+03  0.15772779506E+03  0.00000000000E+00 0.  1.
          2   -1    0    0  501    0  0.00000000000E+00 -0.00000000000E+00 -0.81878942014E+02  0.81878942014E+02  0.00000000000E+00 0. -1.
         23    2    1    2    0    0 -0.60857832928E+01  0.33025902852E+02  0.56025227370E+02  0.14111749328E+03  0.12509026257E+03 0.  0.
          5    1    3    3  502    0 -0.14669444639E+01 -0.19973656106E+02 -0.32116856719E+02  0.38079702596E+02  0.41800000000E+01 0.  1.
         -5    1    3    3    0  502 -0.46188388289E+01  0.52999558958E+02  0.88142084089E+02  0.10303779069E+03  0.41800000000E+01 0.  1.
        -11    1    1    2    0    0  0.22393074700E+02 -0.41354691623E+02 -0.22678188181E+02  0.52210731970E+02  0.00000000000E+00 0. -1.
         11    1    1    2    0    0 -0.16307291407E+02  0.83287887712E+01  0.42501813860E+02  0.46278511826E+02  0.00000000000E+00 0.  1.
</event>
<event>
 7    1  0.6671761E-006  0.1116021E+03  0.7561462E-02  0.1257631E+00
         -1   -1    0    0    0  501 -0.00000000000E+00  0.00000000000E+00  0.65604376041E+02  0.65604376041E+02  0.00000000000E+00 0.  1.
          1   -1    0    0  501    0  0.00000000000E+00 -0.00000000000E+00 -0.33614365896E+03  0.33614365896E+03  0.00000000000E+00 0. -1.
         23    2    1    2    0    0  0.36491824388E+02 -0.74082988425E+02 -0.68709229490E+02  0.16489285658E+03  0.12509497797E+03 0.  0.
          5    1    3    3  502    0 -0.61229856129E+01  0.73039300465E+01 -0.72118905216E+02  0.72865953891E+02  0.41800000000E+01 0.  1.
         -5    1    3    3    0  502  0.42614810001E+02 -0.81386918471E+02  0.34096757263E+01  0.92026902687E+02  0.41800000000E+01 0.  1.
        -11    1    1    2    0    0 -0.96892945423E+01  0.89426368825E+02 -0.12456910751E+03  0.15365031863E+03  0.00000000000E+00 0.  1.
         11    1    1    2    0    0 -0.26802529845E+02 -0.15343380400E+02 -0.77260945922E+02  0.83204859792E+02  0.00000000000E+00 0. -1.
</event>
<event>
 7    1  0.6671761E-006  0.1127346E+03  0.7561462E-02  0.1255588E+00
          1   -1    0    0  501    0  0.00000000000E+00  0.00000000000E+00  0.26431320662E+03  0.26431320662E+03  0.00000000000E+00 0. -1.
         -1   -1    0    0    0  501 -0.00000000000E+00 -0.00000000000E+00 -0.55187905620E+02  0.55187905620E+02  0.00000000000E+00 0.  1.
         23    2    1    2    0    0  0.23005913443E+02  0.48485854772E+02  0.10579374615E+03  0.17239569030E+03  0.12509119530E+03 0.  0.
          5    1    3    3  502    0  0.31093110474E+02 -0.32194115292E+02  0.71063299159E+02  0.84087498867E+02  0.41800000000E+01 0.  1.
         -5    1    3    3    0  502 -0.80871970302E+01  0.80679970064E+02  0.34730446993E+02  0.88308191430E+02  0.41800000000E+01 0.  1.
        -11    1    1    2    0    0 -0.37755047762E+02 -0.66239556875E+02  0.56505355908E+02  0.94899830204E+02  0.00000000000E+00 0.  1.
         11    1    1    2    0    0  0.14749134318E+02  0.17753702103E+02  0.46826198938E+02  0.52205591735E+02  0.00000000000E+00 0. -1.
</event>
<event>
 7    1  0.6671761E-006  0.6687797E+02  0.7561462E-02  0.1371043E+00
          1   -1    0    0  501    0  0.00000000000E+00  0.00000000000E+00  0.77394308161E+02  0.77394308161E+02  0.00000000000E+00 0. -1.
         -1   -1    0    0    0  501 -0.00000000000E+00 -0.00000000000E+00 -0.16076734413E+03  0.16076734413E+03  0.00000000000E+00 0.  1.
         23    2    1    2    0    0  0.94118045020E+01  0.10165229188E+02 -0.70075493658E+02  0.14404634713E+03  0.12508741488E+03 0.  0.
          5    1    3    3  502    0  0.20448642050E+02 -0.27884366103E+02 -0.92141962701E+02  0.98505322318E+02  0.41800000000E+01 0. -1.
         -5    1    3    3    0  502 -0.11036837548E+02  0.38049595291E+02  0.22066469042E+02  0.45541024811E+02  0.41800000000E+01 0. -1.
        -11    1    1    2    0    0  0.74480591608E+01 -0.31230406500E+02 -0.43209751729E+02  0.53832095630E+02  0.00000000000E+00 0.  1.
         11    1    1    2    0    0 -0.16859863663E+02  0.21065177312E+02  0.29912209418E+02  0.40283209532E+02  0.00000000000E+00 0. -1.
</event>
<event>
 7    1  0.6671761E-006  0.1586523E+03  0.7561462E-02  0.1190227E+00
          1   -1    0    0  501    0  0.00000000000E+00  0.00000000000E+00  0.45918940869E+03  0.45918940869E+03  0.00000000000E+00 0. -1.
         -1   -1    0    0    0  501 -0.00000000000E+00 -0.00000000000E+00 -0.57212873958E+02  0.57212873958E+02  0.00000000000E+00 0.  1.
         23    2    1    2    0    0  0.63699490097E+02  0.10099028262E+03  0.20674631199E+03  0.26952879986E+03  0.12508027106E+03 0.  0.
          5    1    3    3  502    0  0.59925783816E+02  0.12990778702E+03  0.17751801651E+03  0.22802905797E+03  0.41800000000E+01 0. -1.
         -5    1    3    3    0  502  0.37737062810E+01 -0.28917504400E+02  0.29228295481E+02  0.41499741885E+02  0.41800000000E+01 0. -1.
        -11    1    1    2    0    0 -0.48199045653E+02 -0.61139053680E+01  0.10188676739E+03  0.11287799259E+03  0.00000000000E+00 0.  1.
         11    1    1    2    0    0 -0.15500444444E+02 -0.94876377252E+02  0.93343455353E+02  0.13399549021E+03  0.00000000000E+00 0. -1.
</event>
<event>
 7    1  0.6671761E-006  0.1719693E+03  0.7561462E-02  0.1175810E+00
          1   -1    0    0  501    0  0.00000000000E+00  0.00000000000E+00  0.15813612909E+03  0.15813612909E+03  0.00000000000E+00 0. -1.
         -1   -1    0    0    0  501 -0.00000000000E+00 -0.00000000000E+00 -0.36934668214E+03  0.36934668214E+03  0.00000000000E+00 0.  1.
         23    2    1    2    0    0  0.14029965968E+03  0.50802497078E+02 -0.27852218684E+03  0.33983385240E+03  0.12509016930E+03 0.  0.
          5    1    3    3  502    0  0.27817627408E+02  0.68291673659E+02 -0.15564370821E+03  0.17227887100E+03  0.41800000000E+01 0.  1.
         -5    1    3    3    0  502  0.11248203227E+03 -0.17489176582E+02 -0.12287847863E+03  0.16755498140E+03  0.41800000000E+01 0.  1.
        -11    1    1    2    0    0 -0.61719353331E+02  0.15645459426E+01  0.69798288165E+02  0.93185446344E+02  0.00000000000E+00 0. -1.
         11    1    1    2    0    0 -0.78580306349E+02 -0.52367043020E+02 -0.24866543752E+01  0.94463512483E+02  0.00000000000E+00 0.  1.
</event>
<event>
 7    1  0.6671761E-006  0.9961889E+02  0.7561462E-02  0.1281099E+00
          1   -1    0    0  501    0  0.00000000000E+00  0.00000000000E+00  0.19931932649E+03  0.19931932649E+03  0.00000000000E+00 0. -1.
         -1   -1    0    0    0  501 -0.00000000000E+00 -0.00000000000E+00 -0.76488771623E+02  0.76488771623E+02  0.00000000000E+00 0.  1.
         23    2    1    2    0    0 -0.50935842221E+02 -0.32286072687E+02  0.26585360523E+02  0.13207742532E+03  0.11445878897E+03 0.  0.
          5    1    3    3  502    0  0.31256092207E+02  0.14240639522E+02  0.36280795290E+01  0.34790436547E+02  0.41800000000E+01 0. -1.
         -5    1    3    3    0  502 -0.82191934428E+02 -0.46526712208E+02  0.22957280994E+02  0.97286988774E+02  0.41800000000E+01 0.  1.
        -11    1    1    2    0    0  0.32872973464E+02  0.38838574556E+02  0.10925723570E+03  0.12052473112E+03  0.00000000000E+00 0. -1.
         11    1    1    2    0    0  0.18062868757E+02 -0.65525018693E+01 -0.13012041362E+02  0.23205941672E+02  0.00000000000E+00 0.  1.
</event>
<event>
 7    1  0.6671761E-006  0.1192547E+03  0.7561462E-02  0.1244332E+00
         -2   -1    0    0    0  501 -0.00000000000E+00  0.00000000000E+00  0.58910298062E+02  0.58910298062E+02  0.00000000000E+00 0.  1.
          2   -1    0    0  501    0  0.00000000000E+00 -0.00000000000E+00 -0.28596884306E+03  0.28596884306E+03  0.00000000000E+00 0. -1.
         23    2    1    2    0    0  0.20250798630E-01  0.60879917645E+02 -0.75643249425E+02  0.15835446419E+03  0.12509144800E+03 0.  0.
          5    1    3    3  502    0  0.52732421912E+02 -0.56225111513E+01 -0.20199028683E+02  0.56901617834E+02  0.41800000000E+01 0.  1.
         -5    1    3    3    0  502 -0.52712171114E+02  0.66502428796E+02 -0.55444220743E+02  0.10145284635E+03  0.41800000000E+01 0.  1.
        -11    1    1    2    0    0  0.35019085373E+02 -0.54431402937E+02 -0.12929040869E+03  0.14458604271E+03  0.00000000000E+00 0. -1.
         11    1    1    2    0    0 -0.35039336171E+02 -0.64485147077E+01 -0.22124886876E+02  0.41938634223E+02  0.00000000000E+00 0.  1.
</event>
<event>
 7    1  0.6671761E-006  0.1017274E+03  0.7561462E-02  0.1276705E+00
          1   -1    0    0  501    0  0.00000000000E+00  0.00000000000E+00  0.77308792032E+02  0.77308792032E+02  0.00000000000E+00 0. -1.
         -1   -1    0    0    0  501 -0.00000000000E+00 -0.00000000000E+00 -0.18503271359E+03  0.18503271359E+03  0.00000000000E+00 0.  1.
         23    2    1    2    0    0 -0.44891197955E+02  0.25138546596E+02 -0.69091824188E+02  0.15187950840E+03  0.12508612523E+03 0.  0.
          5    1    3    3  502    0 -0.56517830961E+02 -0.28272605455E+02  0.44088555956E+00  0.63334605200E+02  0.41800000000E+01 0. -1.
         -5    1    3    3    0  502  0.11626633006E+02  0.53411152052E+02 -0.69532709748E+02  0.88544903204E+02  0.41800000000E+01 0. -1.
        -11    1    1    2    0    0  0.62859089160E+02 -0.14828670475E+02  0.22578719820E+01  0.64623931666E+02  0.00000000000E+00 0. -1.
         11    1    1    2    0    0 -0.17967891206E+02 -0.10309876121E+02 -0.40889969357E+02  0.45838065557E+02  0.00000000000E+00 0.  1.
</event>
<event>
 7    1  0.6671761E-006  0.1314447E+03  0.7561462E-02  0.1225328E+00
          1   -1    0    0  501    0  0.00000000000E+00  0.00000000000E+00  0.82609765915E+02  0.82609765915E+02  0.00000000000E+00 0. -1.
         -1   -1    0    0    0  501 -0.00000000000E+00 -0.00000000000E+00 -0.29299029916E+03  0.29299029916E+03  0.00000000000E+00 0.  1.
         23    2    1    2    0    0  0.10797968803E+03 -0.27576406965E+01 -0.12648053654E+03  0.20811567036E+03  0.12509032145E+03 0.  0.
          5    1    3    3  502    0  0.89743253530E+01 -0.27057395421E+02  0.15934270541E+02  0.32924376079E+02  0.41800000000E+01 0.  1.
         -5    1    3    3    0  502  0.99005362677E+02  0.24299754724E+02 -0.14241480708E+03  0.17519129429E+03  0.41800000000E+01 0.  1.
        -11    1    1    2    0    0 -0.66202407637E+02 -0.35743761034E+02 -0.81069243106E+02  0.11060107327E+03  0.00000000000E+00 0.  1.
         11    1    1    2    0    0 -0.41777280393E+02  0.38501401731E+02 -0.28307535994E+01  0.56883321441E+02  0.00000000000E+00 0. -1.
</event>
<event>
 6    1  0.6671761E-006  0.2139557E+03  0.7561462E-02  0.1138471E+00
         -2   -1    0    0    0  501 -0.00000000000E+00  0.00000000000E+00  0.41893663942E+02  0.41893663942E+02  0.00000000000E+00 0.  1.
          2   -1    0    0  501    0  0.00000000000E+00 -0.00000000000E+00 -0.12571219865E+04  0.12571219865E+04  0.00000000000E+00 0. -1.
          5    1    1    2  502    0  0.14048317829E+03  0.10298241944E+03 -0.55461589669E+03  0.58134083579E+03  0.41800000000E+01 0. -1.
         -5    1    1    2    0  502 -0.90154329953E+02 -0.12254895231E+03 -0.24581999938E+03  0.28912107052E+03  0.41800000000E+01 0.  1.
        -11    1    1    2    0    0  0.13906383683E+02 -0.21233402246E+02 -0.51970921003E+02  0.57837889899E+02  0.00000000000E+00 0.  1.
         11    1    1    2    0    0 -0.64235232018E+02  0.40799935117E+02 -0.36282150548E+03  0.37071585422E+03  0.00000000000E+00 0. -1.
</event>
<event>
 7    1  0.6671761E-006  0.1598276E+03  0.7561462E-02  0.1188892E+00
          2   -1    0    0  501    0  0.00000000000E+00  0.00000000000E+00  0.54105921509E+03  0.54105921509E+03  0.00000000000E+00 0. -1.
         -2   -1    0    0    0  501 -0.00000000000E+00 -0.00000000000E+00 -0.61592652161E+02  0.61592652161E+02  0.00000000000E+00 0.  1.
         23    2    1    2    0    0  0.13499128047E+03 -0.50156256306E+02  0.21028105236E+03  0.28390718422E+03  0.12508745907E+03 0.  0.
          5    1    3    3  502    0  0.86775038610E+02 -0.73303348055E+02  0.19886396751E+03  0.22905815449E+03  0.41800000000E+01 0. -1.
         -5    1    3    3    0  502  0.48216241862E+02  0.23147091750E+02  0.11417084850E+02  0.54849029729E+02  0.41800000000E+01 0. -1.
        -11    1    1    2    0    0 -0.62295465870E+02 -0.28638199258E+01  0.18611356444E+03  0.19628343130E+03  0.00000000000E+00 0. -1.
         11    1    1    2    0    0 -0.72695814602E+02  0.53020076232E+02  0.83071946117E+02  0.12246125173E+03  0.00000000000E+00 0.  1.
</event>
<event>
 7    1  0.7813399E-006  0.1727519E+03  0.7561462E-02  0.1175008E+00
          1   -1    0    0  501    0  0.00000000000E+00  0.00000000000E+00  0.29013424229E+03  0.29013424229E+03  0.00000000000E+00 0. -1.
         -1   -1    0    0    0  501 -0.00000000000E+00 -0.00000000000E+00 -0.11927001957E+03  0.11927001957E+03  0.00000000000E+00 0.  1.
         23    2    1    2    0    0  0.37199602721E+01  0.14981352146E+03  0.72846372685E+02  0.20835470145E+03  0.12508860175E+03 0.  0.
          5    1    3    3  502    0  0.25442800501E+02  0.16547105293E+03  0.68365795158E+02  0.18088493526E+03  0.41800000000E+01 0. -1.
         -5    1    3    3    0  502 -0.21722840229E+02 -0.15657531477E+02  0.44805775270E+01  0.27469766190E+02  0.41800000000E+01 0. -1.
        -11    1    1    2    0    0 -0.10192959874E+02 -0.11967072722E+03  0.26248915237E+02  0.12293894800E+03  0.00000000000E+00 0.  1.
         11    1    1    2    0    0  0.64729996024E+01 -0.30142794240E+02  0.71768934801E+02  0.78110612409E+02  0.00000000000E+00 0. -1.
</event>
<event>
 7    1  0.6671761E-006  0.1048762E+03  0.7561462E-02  0.1270364E+00
         -2   -1    0    0    0  501 -0.00000000000E+00  0.00000000000E+00  0.26181249317E+03  0.26181249317E+03  0.00000000000E+00 0.  1.
          2   -1    0    0  501    0  0.00000000000E+00 -0.00000000000E+00 -0.62519346043E+02  0.62519346043E+02  0.00000000000E+00 0. -1.
         23    2    1    2    0    0  0.37189292411E+01  0.60295955442E+02  0.15163102175E+03  0.20565394700E+03  0.12510853881E+03 0.  0.
          5    1    3    3  502    0 -0.30278464021E+02  0.59518961812E+02  0.20289804668E+02  0.69917385335E+02  0.41800000000E+01 0.  1.
         -5    1    3    3    0  502  0.33997393262E+02  0.77699362952E+00  0.13134121708E+03  0.13573656166E+03  0.41800000000E+01 0.  1.
        -11    1    1    2    0    0 -0.31965500339E+02  0.94497265423E+01  0.12242660446E+02  0.35510185559E+02  0.00000000000E+00 0.  1.
         11    1    1    2    0    0  0.28246571098E+02 -0.69745681984E+02  0.35419464933E+02  0.83167706656E+02  0.00000000000E+00 0. -1.
</event>
<event>
 7    1  0.6671761E-006  0.2260337E+03  0.7561462E-02  0.1129463E+00
          2   -1    0    0  501    0  0.00000000000E+00  0.00000000000E+00  0.92265573899E+03  0.92265573899E+03  0.00000000000E+00 0.  1.
         -2   -1    0    0    0  501 -0.00000000000E+00 -0.00000000000E+00 -0.13812132697E+03  0.13812132697E+03  0.00000000000E+00 0. -1.
         23    2    1    2    0    0  0.12043564381E+03  0.17984235201E+03  0.88253980094E+01  0.25014709774E+03  0.12509063508E+03 0.  0.
          5    1    3    3  502    0  0.32727200866E+02  0.88136192888E+02 -0.53985898891E+02  0.10849427567E+03  0.41800000000E+01 0.  1.
         -5    1    3    3    0  502  0.87708442940E+02  0.91706159118E+02  0.62811296900E+02  0.14165282207E+03  0.41800000000E+01 0.  1.
        -11    1    1    2    0    0 -0.12486967555E+03 -0.12749719232E+03  0.52582129966E+03  0.55528011768E+03  0.00000000000E+00 0. -1.
         11    1    1    2    0    0  0.44340317482E+01 -0.52345159688E+02  0.24988771435E+03  0.25534985053E+03  0.00000000000E+00 0.  1.
</event>
<event>
 7    1  0.6671761E-006  0.1863941E+03  0.7561462E-02  0.1161754E+00
          1   -1    0    0  501    0  0.00000000000E+00  0.00000000000E+00  0.37539042300E+03  0.37539042300E+03  0.00000000000E+00 0. -1.
         -1   -1    0    0    0  501 -0.00000000000E+00 -0.00000000000E+00 -0.14706565066E+03  0.14706565066E+03  0.00000000000E+00 0.  1.
         23    2    1    2    0    0 -0.13131464594E+03 -0.84584687618E+02 -0.34093289978E+02  0.20299587926E+03  0.12508744525E+03 0.  0.
          5    1    3    3  502    0 -0.12288910579E+03 -0.12093863968E+02 -0.30836272825E+01  0.12359196991E+03  0.41800000000E+01 0. -1.
         -5    1    3    3    0  502 -0.84255401447E+01 -0.72490823649E+02 -0.31009662696E+02  0.79403909353E+02  0.41800000000E+01 0. -1.
        -11    1    1    2    0    0  0.80794875843E+01 -0.15433895028E+02  0.58596261273E+02  0.61131048335E+02  0.00000000000E+00 0. -1.
         11    1    1    2    0    0  0.12323515835E+03  0.10001858265E+03  0.20382180104E+03  0.25832914607E+03  0.00000000000E+00 0.  1.
</event>
<event>
 7    1  0.6671761E-006  0.2174401E+03  0.7561462E-02  0.1135806E+00
         -3   -1    0    0    0  501 -0.00000000000E+00  0.00000000000E+00  0.15552505983E+04  0.15552505983E+04  0.00000000000E+00 0.  1.
          3   -1    0    0  501    0  0.00000000000E+00 -0.00000000000E+00 -0.42513012596E+02  0.42513012596E+02  0.00000000000E+00 0. -1.
         23    2    1    2    0    0  0.16122894873E+01 -0.20640562109E+03  0.11216701796E+04  0.11473434052E+04  0.12508803988E+03 0.  0.
          5    1    3    3  502    0 -0.39636221174E+02 -0.46324324440E+02  0.15464570306E+03  0.16628210649E+03  0.41800000000E+01 0.  1.
         -5    1    3    3    0  502  0.41248510661E+02 -0.16008129665E+03  0.96702447653E+03  0.98106129869E+03  0.41800000000E+01 0.  1.
        -11    1    1    2    0    0  0.11683078922E+02  0.46330908661E+02  0.17364957896E+03  0.18010336950E+03  0.00000000000E+00 0.  1.
         11    1    1    2    0    0 -0.13295368409E+02  0.16007471242E+03  0.21741782711E+03  0.27031683619E+03  0.00000000000E+00 0. -1.
</event>
<event>
 7    1  0.6671761E-006  0.7278871E+02  0.7561462E-02  0.1350859E+00
         -1   -1    0    0    0  501 -0.00000000000E+00  0.00000000000E+00  0.50904720770E+02  0.50904720770E+02  0.00000000000E+00 0.  1.
          1   -1    0    0  501    0  0.00000000000E+00 -0.00000000000E+00 -0.27938658690E+03  0.27938658690E+03  0.00000000000E+00 0. -1.
         23    2    1    2    0    0  0.34361264794E+02  0.25134556565E+02 -0.81293868890E+02  0.15514109294E+03  0.12509045985E+03 0.  0.
          5    1    3    3  502    0  0.54448913916E+02  0.42930147599E+02 -0.34971134622E-01  0.69463338694E+02  0.41800000000E+01 0. -1.
         -5    1    3    3    0  502 -0.20087649122E+02 -0.17795591034E+02 -0.81258897755E+02  0.85677754241E+02  0.41800000000E+01 0. -1.
        -11    1    1    2    0    0 -0.29132890396E+01 -0.15919306174E+02  0.69166660974E+01  0.17599767952E+02  0.00000000000E+00 0.  1.
         11    1    1    2    0    0 -0.31447975755E+02 -0.92152503916E+01 -0.15410466333E+03  0.15755044678E+03  0.00000000000E+00 0. -1.
</event>
<event>
 7    1  0.6671761E-006  0.8515419E+02  0.7561462E-02  0.1315030E+00
          2   -1    0    0  501    0  0.00000000000E+00  0.00000000000E+00  0.13591991644E+03  0.13591991644E+03  0.00000000000E+00 0. -1.
         -2   -1    0    0    0  501 -0.00000000000E+00 -0.00000000000E+00 -0.12387537654E+03  0.12387537654E+03  0.00000000000E+00 0.  1.
         23    2    1    2    0    0  0.15803833460E+02 -0.30606380852E+02 -0.54888805059E+02  0.14088122824E+03  0.12509287689E+03 0.  0.
          5    1    3    3  502    0  0.43807301342E+02 -0.57503749057E+02 -0.68349509700E+02  0.99573534048E+02  0.41800000000E+01 0. -1.
         -5    1    3    3    0  502 -0.28003467882E+02  0.26897368205E+02  0.13460704641E+02  0.41307694189E+02  0.41800000000E+01 0. -1.
        -11    1    1    2    0    0 -0.48463272856E+01 -0.13004846040E+02 -0.18049221389E+02  0.22768120288E+02  0.00000000000E+00 0.  1.
         11    1    1    2    0    0 -0.10957506174E+02  0.43611226892E+02  0.84982566343E+02  0.96145944453E+02  0.00000000000E+00 0. -1.
</event>
<event>
 7    1  0.6671761E-006  0.1064482E+03  0.7561462E-02  0.1267292E+00
          2   -1    0    0  501    0  0.00000000000E+00  0.00000000000E+00  0.14130293192E+04  0.14130293192E+04  0.00000000000E+00 0. -1.
         -2   -1    0    0    0  501 -0.00000000000E+00 -0.00000000000E+00 -0.97865732526E+01  0.97865732526E+01  0.00000000000E+00 0.  1.
         23    2    1    2    0    0 -0.36276613737E+02  0.31747913691E+02  0.81548928735E+03  0.82643460177E+03  0.12508976975E+03 0.  0.
          5    1    3    3  502    0 -0.47075628809E+02 -0.25356432544E+02  0.62339568106E+03  0.62569857844E+03  0.41800000000E+01 0. -1.
         -5    1    3    3    0  502  0.10799015072E+02  0.57104346235E+02  0.19209360629E+03  0.20073602333E+03  0.41800000000E+01 0. -1.
        -11    1    1    2    0    0  0.29819331274E+01 -0.58321296639E+02  0.35150659981E+03  0.35632450838E+03  0.00000000000E+00 0. -1.
         11    1    1    2    0    0  0.33294680609E+02  0.26573382948E+02  0.23624685878E+03  0.24005678228E+03  0.00000000000E+00 0.  1.
</event>
<event>
 7    1  0.6671761E-006  0.1015981E+03  0.7561462E-02  0.1276971E+00
         -1   -1    0    0    0  501 -0.00000000000E+00  0.00000000000E+00  0.13101667018E+03  0.13101667018E+03  0.00000000000E+00 0.  1.
          1   -1    0    0  501    0  0.00000000000E+00 -0.00000000000E+00 -0.99314969234E+02  0.99314969234E+02  0.00000000000E+00 0. -1.
         23    2    1    2    0    0  0.24251039007E+02  0.24963440391E+02  0.38318902350E+02  0.13538019647E+03  0.12509265794E+03 0.  0.
          5    1    3    3  502    0 -0.46935754604E+02 -0.10484324179E+02  0.25902249355E+02  0.54783985209E+02  0.41800000000E+01 0. -1.
         -5    1    3    3    0  502  0.71186793611E+02  0.35447764569E+02  0.12416652995E+02  0.80596211258E+02  0.41800000000E+01 0. -1.
        -11    1    1    2    0    0  0.16080086627E+02 -0.30597704714E+02  0.25610075628E+02  0.43019352545E+02  0.00000000000E+00 0.  1.
         11    1    1    2    0    0 -0.40331125634E+02  0.56342643233E+01 -0.32227277028E+02  0.51932090407E+02  0.00000000000E+00 0. -1.
</event>
<event>
 6    1  0.6671761E-006  0.1230055E+03  0.7561462E-02  0.1238220E+00
         -3   -1    0    0    0  501 -0.00000000000E+00  0.00000000000E+00  0.29588704574E+03  0.29588704574E+03  0.00000000000E+00 0.  1.
          3   -1    0    0  501    0  0.00000000000E+00 -0.00000000000E+00 -0.54955980738E+02  0.54955980738E+02  0.00000000000E+00 0. -1.
          5    1    1    2  502    0 -0.29601397895E+02  0.11297780040E+03  0.10223314692E+03  0.15527174524E+03  0.41800000000E+01 0. -1.
         -5    1    1    2    0  502  0.29755496608E+02 -0.98297944815E+02  0.12045462515E+03  0.15834981735E+03  0.41800000000E+01 0.  1.
        -11    1    1    2    0    0 -0.10029521549E+02 -0.19027827704E+01 -0.29040244691E+01  0.10613446325E+02  0.00000000000E+00 0. -1.
         11    1    1    2    0    0  0.98754228358E+01 -0.12777072811E+02  0.21147317399E+02  0.26608017570E+02  0.00000000000E+00 0.  1.
</event>
<event>
 7    1  0.1018686E-005  0.2645479E+03  0.7561462E-02  0.1104441E+00
          2   -1    0    0  501    0  0.00000000000E+00  0.00000000000E+00  0.40630420768E+03  0.40630420768E+03  0.00000000000E+00 0.  1.
         -2   -1    0    0    0  501 -0.00000000000E+00 -0.00000000000E+00 -0.18424898964E+03  0.18424898964E+03  0.00000000000E+00 0. -1.
         23    2    1    2    0    0 -0.24978278697E+03  0.18078683805E+01  0.13135625342E+03  0.30870152319E+03  0.12508979197E+03 0.  0.
          5    1    3    3  502    0 -0.11149335761E+03  0.42339009634E+02  0.91102213612E+01  0.11968220027E+03  0.41800000000E+01 0.  1.
         -5    1    3    3    0  502 -0.13828942936E+03 -0.40531141254E+02  0.12224603206E+03  0.18901932292E+03  0.41800000000E+01 0.  1.
        -11    1    1    2    0    0  0.17355790537E+03  0.40771251855E+02  0.47845292804E+02  0.18459093568E+03  0.00000000000E+00 0. -1.
         11    1    1    2    0    0  0.76224881603E+02 -0.42579120235E+02  0.42853671810E+02  0.97260738445E+02  0.00000000000E+00 0.  1.
</event>
<event>
 7    1  0.6671761E-006  0.7390870E+02  0.7561462E-02  0.1347284E+00
         -2   -1    0    0    0  501 -0.00000000000E+00  0.00000000000E+00  0.59506902139E+03  0.59506902139E+03  0.00000000000E+00 0.  1.
          2   -1    0    0  501    0  0.00000000000E+00 -0.00000000000E+00 -0.33175583806E+02  0.33175583806E+02  0.00000000000E+00 0. -1.
         23    2    1    2    0    0  0.21234651501E+02  0.25691068970E+02  0.46809885870E+03  0.48566973440E+03  0.12509039911E+03 0.  0.
          5    1    3    3  502    0 -0.52258325100E+01  0.23871230537E+02  0.99163335392E+01  0.26701143115E+02  0.41800000000E+01 0.  1.
         -5    1    3    3    0  502  0.26460484011E+02  0.18198384327E+01  0.45818252516E+03  0.45896859128E+03  0.41800000000E+01 0.  1.
        -11    1    1    2    0    0  0.70612865160E+01 -0.54991254517E+02  0.84055885719E+02  0.10069405029E+03  0.00000000000E+00 0.  1.
         11    1    1    2    0    0 -0.28295938017E+02  0.29300185547E+02  0.97386931672E+01  0.41880820503E+02  0.00000000000E+00 0. -1.
</event>
<event>
 7    1  0.6671761E-006  0.7931096E+02  0.7561462E-02  0.1331018E+00
          1   -1    0    0  501    0  0.00000000000E+00  0.00000000000E+00  0.41972525482E+03  0.41972525482E+03  0.00000000000E+00 0. -1.
         -1   -1    0    0    0  501 -0.00000000000E+00 -0.00000000000E+00 -0.31133530014E+02  0.31133530014E+02  0.00000000000E+00 0.  1.
         23    2    1    2    0    0  0.12613515787E+02 -0.33636609415E+02  0.19791534698E+03  0.23686986286E+03  0.12508527127E+03 0.  0.
          5    1    3    3  502    0 -0.19199057595E+02 -0.13665624036E+02  0.19763129186E+03  0.19907524460E+03  0.41800000000E+01 0. -1.
         -5    1    3    3    0  502  0.31812573381E+02 -0.19970985379E+02  0.28405512671E+00  0.37794618261E+02  0.41800000000E+01 0. -1.
        -11    1    1    2    0    0  0.36860380914E+02 -0.36665024023E+00  0.65456022460E+02  0.75121987393E+02  0.00000000000E+00 0.  1.
         11    1    1    2    0    0 -0.49473896701E+02  0.34003259656E+02  0.12522035536E+03  0.13886693458E+03  0.00000000000E+00 0. -1.
</event>
<event>
 7    1  0.6671761E-006  0.1261289E+03  0.7561462E-02  0.1233316E+00
         -2   -1    0    0    0  501 -0.00000000000E+00  0.00000000000E+00  0.43680874029E+02  0.43680874029E+02  0.00000000000E+00 0.  1.
          2   -1    0    0  501    0  0.00000000000E+00 -0.00000000000E+00 -0.46146901070E+03  0.46146901070E+03  0.00000000000E+00 0. -1.
         23    2    1    2    0    0 -0.74188077590E+02 -0.37991919315E+02 -0.16154696958E+03  0.22066184196E+03  0.12508784244E+03 0.  0.
          5    1    3    3  502    0 -0.48522094690E+02  0.37265703622E+02 -0.33499985888E+02  0.69877376840E+02  0.41800000000E+01 0.  1.
         -5    1    3    3    0  502 -0.25665982900E+02 -0.75257622937E+02 -0.12804698369E+03  0.15078446512E+03  0.41800000000E+01 0.  1.
        -11    1    1    2    0    0  0.38186017763E+02 -0.19958461841E+02 -0.44134561004E+02  0.61679588413E+02  0.00000000000E+00 0.  1.
         11    1    1    2    0    0  0.36002059826E+02  0.57950381156E+02 -0.21210660609E+03  0.22280845436E+03  0.00000000000E+00 0. -1.
</event>
<event>
 6    1  0.6671761E-006  0.1738807E+03  0.7561462E-02  0.1173860E+00
         -4   -1    0    0    0  501 -0.00000000000E+00  0.00000000000E+00  0.74431244949E+02  0.74431244949E+02  0.00000000000E+00 0.  1.
          4   -1    0    0  501    0  0.00000000000E+00 -0.00000000000E+00 -0.56582419691E+03  0.56582419691E+03  0.00000000000E+00 0. -1.
          5    1    1    2  502    0 -0.11004703932E+03 -0.36348889020E+02 -0.25008607346E+02  0.11863597868E+03  0.41800000000E+01 0. -1.
         -5    1    1    2    0  502  0.87938223360E+02 -0.51984026680E+02 -0.17821260640E+03  0.20545723555E+03  0.41800000000E+01 0.  1.
        -11    1    1    2    0    0  0.33940870135E+02 -0.60107520692E+01 -0.64844857248E+02  0.73436825350E+02  0.00000000000E+00 0.  1.
         11    1    1    2    0    0 -0.11832054179E+02  0.94343667770E+02 -0.22332688097E+03  0.24272540229E+03  0.00000000000E+00 0. -1.
</event>
<event>
 7    1  0.6671761E-006  0.1330491E+03  0.7561462E-02  0.1223000E+00
          2   -1    0    0  501    0  0.00000000000E+00  0.00000000000E+00  0.14752523001E+03  0.14752523001E+03  0.00000000000E+00 0. -1.
         -2   -1    0    0    0  501 -0.00000000000E+00 -0.00000000000E+00 -0.15372407995E+03  0.15372407995E+03  0.00000000000E+00 0.  1.
         23    2    1    2    0    0  0.86283230533E+02 -0.48468012952E+02 -0.57641202230E+01  0.15961665520E+03  0.12510118858E+03 0.  0.
          5    1    3    3  502    0  0.73826800335E+02  0.66152463482E+01 -0.48494252149E+02  0.88675378902E+02  0.41800000000E+01 0. -1.
         -5    1    3    3    0  502  0.12456430198E+02 -0.55083259301E+02  0.42730131926E+02  0.70941276298E+02  0.41800000000E+01 0. -1.
        -11    1    1    2    0    0 -0.81678118101E+02 -0.47463176675E+01  0.20365205590E+02  0.84312419646E+02  0.00000000000E+00 0. -1.
         11    1    1    2    0    0 -0.46051124318E+01  0.53214330620E+02 -0.20799935309E+02  0.57320235107E+02  0.00000000000E+00 0.  1.
</event>
<event>
 7    1  0.6671761E-006  0.2405039E+03  0.7561462E-02  0.1119458E+00
         -2   -1    0    0    0  501 -0.00000000000E+00  0.00000000000E+00  0.95507935354E+03  0.95507935354E+03  0.00000000000E+00 0.  1.
          2   -1    0    0  501    0  0.00000000000E+00 -0.00000000000E+00 -0.71793707632E+02  0.71793707632E+02  0.00000000000E+00 0. -1.
         23    2    1    2    0    0  0.23323493186E+03  0.29407729840E+02  0.53015479804E+03  0.59327500291E+03  0.12509105155E+03 0.  0.
          5    1    3    3  502    0  0.14535268485E+03  0.43636216438E+02  0.19878425591E+03  0.25012831742E+03  0.41800000000E+01 0.  1.
         -5    1    3    3    0  502  0.87882247013E+02 -0.14228486598E+02  0.33137054213E+03  0.34314668549E+03  0.41800000000E+01 0.  1.
        -11    1    1    2    0    0 -0.15247490994E+03 -0.42412433245E+02  0.28960361046E+03  0.33002676231E+03  0.00000000000E+00 0.  1.
         11    1    1    2    0    0 -0.80760021919E+02  0.13004703404E+02  0.63527237417E+02  0.10357129595E+03  0.00000000000E+00 0. -1.
</event>
<event>
 6    1  0.6671761E-006  0.1287607E+03  0.7561462E-02  0.1229306E+00
         -1   -1    0    0    0  501 -0.00000000000E+00  0.00000000000E+00  0.14406229011E+04  0.14406229011E+04  0.00000000000E+00 0.  1.
          1   -1    0    0  501    0  0.00000000000E+00 -0.00000000000E+00 -0.28032568197E+02  0.28032568197E+02  0.00000000000E+00 0. -1.
          5    1    1    2  502    0 -0.67812548561E+01 -0.37237157010E+02  0.91157017913E+02  0.98791019806E+02  0.41800000000E+01 0. -1.
         -5    1    1    2    0  502  0.10510664761E+03  0.48055150516E+02  0.10837502117E+04  0.10899030685E+04  0.41800000000E+01 0.  1.
        -11    1    1    2    0    0 -0.50374564346E+02 -0.21331589366E+02  0.22334711262E+02  0.59088685593E+02  0.00000000000E+00 0. -1.
         11    1    1    2    0    0 -0.47950828412E+02  0.10513595860E+02  0.21534839198E+03  0.22087269540E+03  0.00000000000E+00 0.  1.
</event>
<event>
 7    1  0.6671761E-006  0.1059799E+03  0.7561462E-02  0.1268201E+00
         -1   -1    0    0    0  501 -0.00000000000E+00  0.00000000000E+00  0.17808719133E+03  0.17808719133E+03  0.00000000000E+00 0.  1.
          1   -1    0    0  501    0  0.00000000000E+00 -0.00000000000E+00 -0.68492820305E+02  0.68492820305E+02  0.00000000000E+00 0. -1.
         23    2    1    2    0    0  0.17931598609E+02 -0.21457345317E+02  0.75760843326E+02  0.14889154793E+03  0.12508808003E+03 0.  0.
          5    1    3    3  502    0 -0.19608183228E+01  0.51602177540E+02  0.24148880496E+02  0.57160041678E+02  0.41800000000E+01 0. -1.
         -5    1    3    3    0  502  0.19892416932E+02 -0.73059522857E+02  0.51611962830E+02  0.91731506249E+02  0.41800000000E+01 0. -1.
        -11    1    1    2    0    0 -0.12131137623E+02 -0.30090470357E+02 -0.50836064213E+01  0.32839670531E+02  0.00000000000E+00 0. -1.
         11    1    1    2    0    0 -0.58004609866E+01  0.51547815674E+02  0.38917134117E+02  0.64848793175E+02  0.00000000000E+00 0.  1.
</event>
<event>
 7    1  0.6671761E-006  0.1311441E+03  0.7561462E-02  0.1225768E+00
          4   -1    0    0  501    0  0.00000000000E+00  0.00000000000E+00  0.44633396731E+03  0.44633396731E+03  0.00000000000E+00 0. -1.
         -4   -1    0    0    0  501 -0.00000000000E+00 -0.00000000000E+00 -0.56037321395E+02  0.56037321395E+02  0.00000000000E+00 0.  1.
         23    2    1    2    0    0 -0.47584057889E+02  0.81879061515E+02  0.10849029305E+03  0.19075157766E+03  0.12509035700E+03 0.  0.
          5    1    3    3  502    0  0.39086912124E+02  0.50670133644E+02  0.36712880793E+02  0.73895582811E+02  0.41800000000E+01 0. -1.
         -5    1    3    3    0  502 -0.86670970013E+02  0.31208927871E+02  0.71777412256E+02  0.11685599485E+03  0.41800000000E+01 0. -1.
        -11    1    1    2    0    0 -0.95148872817E+01 -0.71714076882E+01 -0.24941623964E+01  0.12173044577E+02  0.00000000000E+00 0.  1.
         11    1    1    2    0    0  0.57098945171E+02 -0.74707653826E+02  0.28430051526E+03  0.29944666646E+03  0.00000000000E+00 0. -1.
</event>
<event>
 7    1  0.6671761E-006  0.2877820E+03  0.7561462E-02  0.1091513E+00
          1   -1    0    0  501    0  0.00000000000E+00  0.00000000000E+00  0.10842057197E+03  0.10842057197E+03  0.00000000000E+00 0. -1.
         -1   -1    0    0    0  501 -0.00000000000E+00 -0.00000000000E+00 -0.90359674579E+03  0.90359674579E+03  0.00000000000E+00 0.  1.
         23    2    1    2    0    0  0.26045482308E+03  0.11524629060E+03 -0.48350472931E+03  0.57492807077E+03  0.12508813269E+03 0.  0.
          5    1    3    3  502    0  0.65264306104E+02  0.48871350593E+02 -0.52309594971E+02  0.96961872332E+02  0.41800000000E+01 0.  1.
         -5    1    3    3    0  502  0.19519051697E+03  0.66374940003E+02 -0.43119513434E+03  0.47796619844E+03  0.41800000000E+01 0.  1.
        -11    1    1    2    0    0 -0.17904954906E+03 -0.99363748211E+02 -0.14497059308E+03  0.25089513414E+03  0.00000000000E+00 0. -1.
         11    1    1    2    0    0 -0.81405274016E+02 -0.15882542385E+02 -0.16670085144E+03  0.18619411285E+03  0.00000000000E+00 0.  1.
</event>
<event>
 7    1  0.6671761E-006  0.1065069E+03  0.7561462E-02  0.1267179E+00
         -2   -1    0    0    0  501 -0.00000000000E+00  0.00000000000E+00  0.14436692628E+03  0.14436692628E+03  0.00000000000E+00 0. -1.
          2   -1    0    0  501    0  0.00000000000E+00 -0.00000000000E+00 -0.12299839796E+03  0.12299839796E+03  0.00000000000E+00 0.  1.
         23    2    1    2    0    0 -0.18452869506E+02 -0.45459819708E+02  0.72922227832E+02  0.15287740793E+03  0.12508695752E+03 0.  0.
          5    1    3    3  502    0  0.35865232682E+02 -0.49872076752E+02  0.76385233664E+02  0.98110729672E+02  0.41800000000E+01 0.  1.
         -5    1    3    3    0  502 -0.54318102188E+02  0.44122570435E+01 -0.34630058323E+01  0.54766678253E+02  0.41800000000E+01 0.  1.
        -11    1    1    2    0    0 -0.32801847219E+02  0.94171878900E+01 -0.12749620758E+01  0.34150697460E+02  0.00000000000E+00 0. -1.
         11    1    1    2    0    0  0.51254716725E+02  0.36042631818E+02 -0.50278737436E+02  0.80337218853E+02  0.00000000000E+00 0.  1.
</event>
<event>
 7    1  0.6671761E-006  0.2649206E+03  0.7561462E-02  0.1104222E+00
          2   -1    0    0  501    0  0.00000000000E+00  0.00000000000E+00  0.16883991013E+03  0.16883991013E+03  0.00000000000E+00 0. -1.
         -2   -1    0    0    0  501 -0.00000000000E+00 -0.00000000000E+00 -0.45423247655E+03  0.45423247655E+03  0.00000000000E+00 0.  1.
         23    2    1    2    0    0  0.42895270196E+02 -0.23994177115E+03 -0.22602305007E+03  0.35517044489E+03  0.12509023946E+03 0.  0.
          5    1    3    3  502    0 -0.25229718663E+02 -0.77004413250E+01 -0.45794205405E+01  0.27097582787E+02  0.41800000000E+01 0. -1.
         -5    1    3    3    0  502  0.68124988859E+02 -0.23224132983E+03 -0.22144362953E+03  0.32807286210E+03  0.41800000000E+01 0. -1.
        -11    1    1    2    0    0 -0.71438631341E+02  0.19657134373E+03 -0.43677168995E+02  0.21366203760E+03  0.00000000000E+00 0. -1.
         11    1    1    2    0    0  0.28543361145E+02  0.43370427426E+02 -0.15692347356E+02  0.54239904186E+02  0.00000000000E+00 0.  1.
</event>
<event>
 7    1  0.6671761E-006  0.8700214E+02  0.7561462E-02  0.1310278E+00
         -3   -1    0    0    0  501 -0.00000000000E+00  0.00000000000E+00  0.67960353311E+02  0.67960353311E+02  0.00000000000E+00 0.  1.
          3   -1    0    0  501    0  0.00000000000E+00 -0.00000000000E+00 -0.19711091770E+03  0.19711091770E+03  0.00000000000E+00 0. -1.
         23    2    1    2    0    0  0.58243526945E+01  0.74362547179E+01 -0.33265551924E+02  0.12978227387E+03  0.12509045007E+03 0.  0.
          5    1    3    3  502    0 -0.40966312785E+02  0.15024701091E+02  0.28145355663E+02  0.52092359050E+02  0.41800000000E+01 0.  1.
         -5    1    3    3    0  502  0.46790665479E+02 -0.75884463729E+01 -0.61410907587E+02  0.77689914822E+02  0.41800000000E+01 0.  1.
        -11    1    1    2    0    0 -0.25923605859E+02 -0.38001940061E+02 -0.18292868809E+02  0.49505654610E+02  0.00000000000E+00 0.  1.
         11    1    1    2    0    0  0.20099253164E+02  0.30565685343E+02 -0.77592143653E+02  0.85783342526E+02  0.00000000000E+00 0. -1.
</event>
<event>
 7    1  0.6671761E-006  0.1262802E+03  0.7561462E-02  0.1233082E+00
          2   -1    0    0  501    0  0.00000000000E+00  0.00000000000E+00  0.81405280060E+02  0.81405280060E+02  0.00000000000E+00 0. -1.
         -2   -1    0    0    0  501 -0.00000000000E+00 -0.00000000000E+00 -0.24089691404E+03  0.24089691404E+03  0.00000000000E+00 0.  1.
         23    2    1    2    0    0  0.79074259231E+02 -0.21678875408E+02 -0.12172887518E+03  0.19284076277E+03  0.12508768374E+03 0.  0.
          5    1    3    3  502    0  0.77355154193E+02 -0.67881628057E+02 -0.79998362419E+02  0.13041834878E+03  0.41800000000E+01 0. -1.
         -5    1    3    3    0  502  0.17191050377E+01  0.46202752649E+02 -0.41730512756E+02  0.62422413998E+02  0.41800000000E+01 0. -1.
        -11    1    1    2    0    0 -0.22862627797E+02 -0.22168440440E+02 -0.47831968259E+02  0.57463350832E+02  0.00000000000E+00 0.  1.
         11    1    1    2    0    0 -0.56211631434E+02  0.43847315848E+02  0.10069209455E+02  0.71998080492E+02  0.00000000000E+00 0. -1.
</event>
<event>
 7    1  0.6671761E-006  0.1533473E+03  0.7561462E-02  0.1196419E+00
          2   -1    0    0  501    0  0.00000000000E+00  0.00000000000E+00  0.95941621713E+03  0.95941621713E+03  0.00000000000E+00 0. -1.
         -2   -1    0    0    0  501 -0.00000000000E+00 -0.00000000000E+00 -0.43138149519E+02  0.43138149519E+02  0.00000000000E+00 0.  1.
         23    2    1    2    0    0 -0.13819539446E+03 -0.16833668947E+02  0.23204106212E+03  0.29811320115E+03  0.12508831573E+03 0.  0.
          5    1    3    3  502    0 -0.11373144352E+03 -0.14196354342E+02  0.24461445867E+03  0.27016676981E+03  0.41800000000E+01 0.  1.
         -5    1    3    3    0  502 -0.24463950937E+02 -0.26373146048E+01 -0.12573396548E+02  0.27946431338E+02  0.41800000000E+01 0.  1.
        -11    1    1    2    0    0  0.40271742144E+02 -0.37526504164E+02  0.20167662422E+03  0.20905385069E+03  0.00000000000E+00 0.  1.
         11    1    1    2    0    0  0.97923652314E+02  0.54360173111E+02  0.48256038127E+03  0.49538731481E+03  0.00000000000E+00 0. -1.
</event>
<event>
 7    1  0.6671761E-006  0.8949545E+02  0.7561462E-02  0.1304078E+00
         -2   -1    0    0    0  501 -0.00000000000E+00  0.00000000000E+00  0.51348156108E+02  0.51348156108E+02  0.00000000000E+00 0.  1.
          2   -1    0    0  501    0  0.00000000000E+00 -0.00000000000E+00 -0.23982608073E+03  0.23982608073E+03  0.00000000000E+00 0. -1.
         23    2    1    2    0    0  0.15568162205E+02  0.26985613383E+02 -0.10257075374E+03  0.16473701964E+03  0.12508770967E+03 0.  0.
          5    1    3    3  502    0 -0.44113132445E+02 -0.13979061790E+01 -0.85567207930E+02  0.96369819284E+02  0.41800000000E+01 0. -1.
         -5    1    3    3    0  502  0.59681294650E+02  0.28383519562E+02 -0.17003545813E+02  0.68367200353E+02  0.41800000000E+01 0. -1.
        -11    1    1    2    0    0  0.16823545738E+01  0.19129397234E+02  0.76853644052E+01  0.20684027207E+02  0.00000000000E+00 0.  1.
         11    1    1    2    0    0 -0.17250516779E+02 -0.46115010617E+02 -0.93592535287E+02  0.10575319000E+03  0.00000000000E+00 0. -1.
</event>
<event>
 7    1  0.6671761E-006  0.1022813E+03  0.7561462E-02  0.1275571E+00
         -3   -1    0    0    0  501 -0.00000000000E+00  0.00000000000E+00  0.19985347793E+02  0.19985347793E+02  0.00000000000E+00 0.  1.
          3   -1    0    0  501    0  0.00000000000E+00 -0.00000000000E+00 -0.52932856427E+03  0.52932856427E+03  0.00000000000E+00 0. -1.
         23    2    1    2    0    0  0.11306626504E+02 -0.18824883967E+01 -0.25584284332E+03  0.27936530248E+03  0.11161553737E+03 0.  0.
          5    1    3    3  502    0 -0.48957966356E+02  0.11168327230E+02 -0.11677866965E+03  0.12718625746E+03  0.41800000000E+01 0. -1.
         -5    1    3    3    0  502  0.60264592860E+02 -0.13050815627E+02 -0.13906417367E+03  0.15217904501E+03  0.41800000000E+01 0.  1.
        -11    1    1    2    0    0  0.40505438699E+02  0.20589625398E+01 -0.98728218900E+02  0.10673420772E+03  0.00000000000E+00 0.  1.
         11    1    1    2    0    0 -0.51812065204E+02 -0.17647414303E+00 -0.15477215426E+03  0.16321440187E+03  0.00000000000E+00 0. -1.
</event>
<event>
 7    1  0.6671761E-006  0.9258197E+02  0.7561462E-02  0.1296717E+00
          1   -1    0    0  501    0  0.00000000000E+00  0.00000000000E+00  0.39897321716E+02  0.39897321716E+02  0.00000000000E+00 0. -1.
         -1   -1    0    0    0  501 -0.00000000000E+00 -0.00000000000E+00 -0.31853448184E+03  0.31853448184E+03  0.00000000000E+00 0.  1.
         23    2    1    2    0    0 -0.24446167177E+01  0.31153964406E+02 -0.15690133760E+03  0.20308145797E+03  0.12508998034E+03 0.  0.
          5    1    3    3  502    0  0.24390574477E+02 -0.28755995929E+02 -0.12372356497E+03  0.12940942915E+03  0.41800000000E+01 0. -1.
         -5    1    3    3    0  502 -0.26835191194E+02  0.59909960335E+02 -0.33177772633E+02  0.73672028821E+02  0.41800000000E+01 0. -1.
        -11    1    1    2    0    0  0.14903228560E+02 -0.53677545359E+02 -0.37210005634E+02  0.66992310130E+02  0.00000000000E+00 0. -1.
         11    1    1    2    0    0 -0.12458611843E+02  0.22523580954E+02 -0.84525816888E+02  0.88358035450E+02  0.00000000000E+00 0.  1.
</event>
<event>
 7    1  0.6671761E-006  0.1665533E+03  0.7561462E-02  0.1181491E+00
         -4   -1    0    0    0  501 -0.00000000000E+00  0.00000000000E+00  0.35663227849E+03  0.35663227849E+03  0.00000000000E+00 0.  1.
          4   -1    0    0  501    0  0.00000000000E+00 -0.00000000000E+00 -0.86761989138E+02  0.86761989138E+02  0.00000000000E+00 0. -1.
         23    2    1    2    0    0 -0.84219261821E+02  0.10393684147E+03  0.18697177984E+03  0.26172319128E+03  0.12507930012E+03 0.  0.
          5    1    3    3  502    0 -0.27785337181E+01  0.88338228208E+02  0.50216389291E+02  0.10173751012E+03  0.41800000000E+01 0. -1.
         -5    1    3    3    0  502 -0.81440728103E+02  0.15598613258E+02  0.13675539055E+03  0.15998568115E+03  0.41800000000E+01 0. -1.
        -11    1    1    2    0    0  0.36656744840E+02 -0.10781775623E+03  0.56240813548E+02  0.12700950598E+03  0.00000000000E+00 0.  1.
         11    1    1    2    0    0  0.47562516981E+02  0.38809147669E+01  0.26657695961E+02  0.54661570367E+02  0.00000000000E+00 0. -1.
</event>
<event>
 7    1  0.6671761E-006  0.1382051E+03  0.7561462E-02  0.1215765E+00
         -2   -1    0    0    0  501 -0.00000000000E+00  0.00000000000E+00  0.24319014747E+03  0.24319014747E+03  0.00000000000E+00 0.  1.
          2   -1    0    0  501    0  0.00000000000E+00 -0.00000000000E+00 -0.94140887241E+02  0.94140887241E+02  0.00000000000E+00 0. -1.
         23    2    1    2    0    0 -0.10454455058E+03  0.17106515575E+02  0.74091471245E+02  0.17988681083E+03  0.12509005824E+03 0.  0.
          5    1    3    3  502    0 -0.77499271702E+02  0.63424434394E+02  0.76415726411E+02  0.12603821498E+03  0.41800000000E+01 0. -1.
         -5    1    3    3    0  502 -0.27045278880E+02 -0.46317918819E+02 -0.23242551653E+01  0.53848595854E+02  0.41800000000E+01 0. -1.
        -11    1    1    2    0    0  0.66338664377E+02 -0.40363231534E+02  0.95961861812E+01  0.78243821740E+02  0.00000000000E+00 0. -1.
         11    1    1    2    0    0  0.38205886205E+02  0.23256715958E+02  0.65361602806E+02  0.79200402141E+02  0.00000000000E+00 0.  1.
</event>
<event>
 7    1  0.6671761E-006  0.9534587E+02  0.7561462E-02  0.1290399E+00
         -3   -1    0    0    0  501 -0.00000000000E+00  0.00000000000E+00  0.12086638721E+03  0.12086638721E+03  0.00000000000E+00 0.  1.
          3   -1    0    0  501    0  0.00000000000E+00 -0.00000000000E+00 -0.11926863383E+03  0.11926863383E+03  0.00000000000E+00 0. -1.
         23    2    1    2    0    0  0.33027417871E+02  0.38781371627E+02  0.15823430370E+02  0.13599995049E+03  0.12510315930E+03 0.  0.
          5    1    3    3  502    0 -0.93957939468E+01 -0.15839190897E+02  0.53779077082E+02  0.56998442470E+02  0.41800000000E+01 0. -1.
         -5    1    3    3    0  502  0.42423211818E+02  0.54620562524E+02 -0.37955646713E+02  0.79001508016E+02  0.41800000000E+01 0. -1.
        -11    1    1    2    0    0  0.13748775579E+02 -0.52101343450E+02 -0.16971290346E+01  0.53911585640E+02  0.00000000000E+00 0. -1.
         11    1    1    2    0    0 -0.46776193450E+02  0.13319971824E+02 -0.12528547963E+02  0.50223484916E+02  0.00000000000E+00 0.  1.
</event>
<event>
 7    1  0.6671761E-006  0.1064890E+03  0.7561462E-02  0.1267213E+00
          2   -1    0    0  501    0  0.00000000000E+00  0.00000000000E+00  0.12616038021E+03  0.12616038021E+03  0.00000000000E+00 0.  1.
         -2   -1    0    0    0  501 -0.00000000000E+00 -0.00000000000E+00 -0.11782220762E+03  0.11782220762E+03  0.00000000000E+00 0. -1.
         23    2    1    2    0    0  0.15544608071E+02 -0.57054153268E+02  0.85056842891E+01  0.13862415609E+03  0.12508996259E+03 0.  0.
          5    1    3    3  502    0  0.50148131388E+02 -0.13901314138E+02  0.47689362732E+02  0.70709471319E+02  0.41800000000E+01 0.  1.
         -5    1    3    3    0  502 -0.34603523317E+02 -0.43152839131E+02 -0.39183678443E+02  0.67914684769E+02  0.41800000000E+01 0.  1.
        -11    1    1    2    0    0 -0.39012075229E+02 -0.46459868988E+01  0.16310695337E+01  0.39321591979E+02  0.00000000000E+00 0.  1.
         11    1    1    2    0    0  0.23467467158E+02  0.61700140167E+02 -0.17985812285E+01  0.66036839763E+02  0.00000000000E+00 0. -1.
</event>
<event>
 6    1  0.6671761E-006  0.1955416E+03  0.7561462E-02  0.1153556E+00
          1   -1    0    0  501    0  0.00000000000E+00  0.00000000000E+00  0.20847076981E+03  0.20847076981E+03  0.00000000000E+00 0. -1.
         -1   -1    0    0    0  501 -0.00000000000E+00 -0.00000000000E+00 -0.21234024264E+03  0.21234024264E+03  0.00000000000E+00 0.  1.
          5    1    1    2  502    0 -0.86412901163E+02 -0.10034785233E+03 -0.34807881925E+02  0.13698883896E+03  0.41800000000E+01 0. -1.
         -5    1    1    2    0  502  0.11788778099E+03 -0.17240674340E+02 -0.24351755697E+02  0.12167682674E+03  0.41800000000E+01 0.  1.
        -11    1    1    2    0    0 -0.20778574280E+02 -0.51831220785E+00 -0.13750719113E+02  0.24921879399E+02  0.00000000000E+00 0.  1.
         11    1    1    2    0    0 -0.10696305552E+02  0.11810683888E+03  0.69040883904E+02  0.13722346735E+03  0.00000000000E+00 0. -1.
</event>
<event>
 7    1  0.6671761E-006  0.1464937E+03  0.7561462E-02  0.1204849E+00
          2   -1    0    0  501    0  0.00000000000E+00  0.00000000000E+00  0.49631309541E+03  0.49631309541E+03  0.00000000000E+00 0. -1.
         -2   -1    0    0    0  501 -0.00000000000E+00 -0.00000000000E+00 -0.55842166895E+02  0.55842166895E+02  0.00000000000E+00 0.  1.
         23    2    1    2    0    0 -0.99835885308E+02  0.47557182414E+02  0.13363634582E+03  0.21387081120E+03  0.12511259476E+03 0.  0.
          5    1    3    3  502    0  0.22784931961E+02  0.13682656286E+02 -0.30756408626E+01  0.27079515768E+02  0.41800000000E+01 0. -1.
         -5    1    3    3    0  502 -0.12262081727E+03  0.33874526128E+02  0.13671198668E+03  0.18679129543E+03  0.41800000000E+01 0. -1.
        -11    1    1    2    0    0  0.61730231109E+02  0.16829274468E+02  0.17992177530E+03  0.19095992024E+03  0.00000000000E+00 0. -1.
         11    1    1    2    0    0  0.38105654199E+02 -0.64386456882E+02  0.12691280740E+03  0.14732453086E+03  0.00000000000E+00 0.  1.
</event>
<event>
 6    1  0.6671761E-006  0.1864108E+03  0.7561462E-02  0.1161739E+00
          1   -1    0    0  501    0  0.00000000000E+00  0.00000000000E+00  0.38459961607E+03  0.38459961607E+03  0.00000000000E+00 0. -1.
         -1   -1    0    0    0  501 -0.00000000000E+00 -0.00000000000E+00 -0.13095577432E+03  0.13095577432E+03  0.00000000000E+00 0.  1.
          5    1    1    2  502    0  0.78963593478E+02 -0.59806627867E+02  0.34539915162E+02  0.10498838017E+03  0.41800000000E+01 0. -1.
         -5    1    1    2    0  502  0.49295564063E+02  0.99092674185E+02 -0.28300736595E+02  0.11431454328E+03  0.41800000000E+01 0.  1.
        -11    1    1    2    0    0  0.94407707837E+01  0.12622471115E+02  0.22041846178E+02  0.27097931895E+02  0.00000000000E+00 0. -1.
         11    1    1    2    0    0 -0.13769992832E+03 -0.51908517434E+02  0.22536281701E+03  0.26915453504E+03  0.00000000000E+00 0.  1.
</event>
<event>
 7    1  0.6671761E-006  0.1162647E+03  0.7561462E-02  0.1249389E+00
          1   -1    0    0  501    0  0.00000000000E+00  0.00000000000E+00  0.13527365847E+03  0.13527365847E+03  0.00000000000E+00 0. -1.
         -1   -1    0    0    0  501 -0.00000000000E+00 -0.00000000000E+00 -0.13112203834E+03  0.13112203834E+03  0.00000000000E+00 0.  1.
         23    2    1    2    0    0 -0.53419796148E+02  0.63964961766E+01 -0.51184281301E+02  0.14546930688E+03  0.12508756456E+03 0.  0.
          5    1    3    3  502    0  0.35785248925E+02 -0.74359826997E+01 -0.40109459223E+02  0.54425352535E+02  0.41800000000E+01 0. -1.
         -5    1    3    3    0  502 -0.89205045073E+02  0.13832478876E+02 -0.11074822078E+02  0.91043954343E+02  0.41800000000E+01 0. -1.
        -11    1    1    2    0    0  0.17694706941E+02  0.41793919594E+02  0.35901895671E+02  0.57868648519E+02  0.00000000000E+00 0.  1.
         11    1    1    2    0    0  0.35725089208E+02 -0.48190415770E+02  0.19434005760E+02  0.63057741403E+02  0.00000000000E+00 0. -1.
</event>
<event>
 7    1  0.6671761E-006  0.1102015E+03  0.7561462E-02  0.1260197E+00
          1   -1    0    0  501    0  0.00000000000E+00  0.00000000000E+00  0.28525069647E+03  0.28525069647E+03  0.00000000000E+00 0. -1.
         -1   -1    0    0    0  501 -0.00000000000E+00 -0.00000000000E+00 -0.51605612992E+02  0.51605612992E+02  0.00000000000E+00 0.  1.
         23    2    1    2    0    0  0.54894015977E+01  0.52854093295E+02  0.12890891369E+03  0.18732159483E+03  0.12509269825E+03 0.  0.
          5    1    3    3  502    0 -0.59167594532E+02  0.22296915595E+02  0.71345777492E+02  0.95423524635E+02  0.41800000000E+01 0.  1.
         -5    1    3    3    0  502  0.64656996130E+02  0.30557177700E+02  0.57563136197E+02  0.91898070200E+02  0.41800000000E+01 0.  1.
        -11    1    1    2    0    0 -0.19615903667E+02 -0.64295234932E+02  0.11145264939E+03  0.13015511503E+03  0.00000000000E+00 0.  1.
         11    1    1    2    0    0  0.14126502070E+02  0.11441141637E+02 -0.67164795974E+01  0.19379599605E+02  0.00000000000E+00 0. -1.
</event>
<event>
 7    1  0.6671761E-006  0.1299476E+03  0.7561462E-02  0.1227534E+00
         -2   -1    0    0    0  501 -0.00000000000E+00  0.00000000000E+00  0.13890175535E+03  0.13890175535E+03  0.00000000000E+00 0. -1.
          2   -1    0    0  501    0  0.00000000000E+00 -0.00000000000E+00 -0.15870346252E+03  0.15870346252E+03  0.00000000000E+00 0.  1.
         23    2    1    2    0    0 -0.91631223475E+02  0.37196478140E+02  0.98244966928E+01  0.15976383993E+03  0.12509238471E+03 0.  0.
          5    1    3    3  502    0 -0.79093076811E+02  0.81120050452E+02  0.10777268989E+02  0.11388502672E+03  0.41800000000E+01 0.  1.
         -5    1    3    3    0  502 -0.12538146664E+02 -0.43923572312E+02 -0.95277229605E+00  0.45878813209E+02  0.41800000000E+01 0.  1.
        -11    1    1    2    0    0  0.59208159080E+02 -0.14157503581E+02 -0.61751075308E+02  0.86713530150E+02  0.00000000000E+00 0.  1.
         11    1    1    2    0    0  0.32423064395E+02 -0.23038974559E+02  0.32124871453E+02  0.51127847787E+02  0.00000000000E+00 0. -1.
</event>
<event>
 7    1  0.6671761E-006  0.1052514E+03  0.7561462E-02  0.1269625E+00
          2   -1    0    0  501    0  0.00000000000E+00  0.00000000000E+00  0.36805642257E+02  0.36805642257E+02  0.00000000000E+00 0. -1.
         -2   -1    0    0    0  501 -0.00000000000E+00 -0.00000000000E+00 -0.44878677817E+03  0.44878677817E+03  0.00000000000E+00 0.  1.
         23    2    1    2    0    0 -0.44250782480E+01  0.26247411481E+02 -0.34815162689E+03  0.37089757212E+03  0.12508775229E+03 0.  0.
          5    1    3    3  502    0 -0.53119974101E+02 -0.19895703024E+02 -0.11572142867E+03  0.12894375557E+03  0.41800000000E+01 0.  1.
         -5    1    3    3    0  502  0.48694895853E+02  0.46143114506E+02 -0.23243019823E+03  0.24195381656E+03  0.41800000000E+01 0.  1.
        -11    1    1    2    0    0 -0.16664208246E+02 -0.51139285481E+02 -0.61914382446E+02  0.82014103114E+02  0.00000000000E+00 0.  1.
         11    1    1    2    0    0  0.21089286494E+02  0.24891874000E+02 -0.19151265701E+01  0.32680745185E+02  0.00000000000E+00 0. -1.
</event>
<event>
 7    1  0.6671761E-006  0.1491175E+03  0.7561462E-02  0.1201562E+00
         -1   -1    0    0    0  501 -0.00000000000E+00  0.00000000000E+00  0.48960336672E+03  0.48960336672E+03  0.00000000000E+00 0.  1.
          1   -1    0    0  501    0  0.00000000000E+00 -0.00000000000E+00 -0.57714258120E+02  0.57714258120E+02  0.00000000000E+00 0. -1.
         23    2    1    2    0    0 -0.96717055868E+02  0.89349539685E+02  0.26455190838E+03  0.32089226376E+03  0.12508638446E+03 0.  0.
          5    1    3    3  502    0 -0.85824065174E+02  0.10331671515E+03  0.27025526122E+03  0.30182029820E+03  0.41800000000E+01 0.  1.
         -5    1    3    3    0  502 -0.10892990695E+02 -0.13967175462E+02 -0.57033528392E+01  0.19071965558E+02  0.41800000000E+01 0.  1.
        -11    1    1    2    0    0  0.86631821636E+02 -0.40237213137E+02  0.13952821417E+03  0.16909236644E+03  0.00000000000E+00 0.  1.
         11    1    1    2    0    0  0.10085234233E+02 -0.49112326547E+02  0.27808986057E+02  0.57332994636E+02  0.00000000000E+00 0. -1.
</event>
<event>
 7    1  0.6671761E-006  0.7897921E+02  0.7561462E-02  0.1331973E+00
         -2   -1    0    0    0  501 -0.00000000000E+00  0.00000000000E+00  0.38113494271E+02  0.38113494271E+02  0.00000000000E+00 0.  1.
          2   -1    0    0  501    0  0.00000000000E+00 -0.00000000000E+00 -0.37419331242E+03  0.37419331242E+03  0.00000000000E+00 0. -1.
         23    2    1    2    0    0  0.24269703119E+01  0.59161095808E+00 -0.10350088288E+03  0.16237739381E+03  0.12509094721E+03 0.  0.
          5    1    3    3  502    0  0.73209780940E+00  0.34029460053E+02 -0.12001056597E+03  0.12481405556E+03  0.41800000000E+01 0.  1.
         -5    1    3    3    0  502  0.16948725025E+01 -0.33437849095E+02  0.16509683093E+02  0.37563338253E+02  0.41800000000E+01 0.  1.
        -11    1    1    2    0    0 -0.26161418297E+02  0.37091829217E+02 -0.14042523317E+03  0.14757868990E+03  0.00000000000E+00 0. -1.
         11    1    1    2    0    0  0.23734447985E+02 -0.37683440175E+02 -0.92153702093E+02  0.10235072298E+03  0.00000000000E+00 0.  1.
</event>
<event>
 7    1  0.6671761E-006  0.1313577E+03  0.7561462E-02  0.1225455E+00
          2   -1    0    0  501    0  0.00000000000E+00  0.00000000000E+00  0.25664788338E+03  0.25664788338E+03  0.00000000000E+00 0. -1.
         -2   -1    0    0    0  501 -0.00000000000E+00 -0.00000000000E+00 -0.16309597114E+03  0.16309597114E+03  0.00000000000E+00 0.  1.
         23    2    1    2    0    0 -0.74998376558E+02  0.34151535269E+02 -0.10075373953E+03  0.18052597323E+03  0.12508887694E+03 0.  0.
          5    1    3    3  502    0 -0.26163533828E+02  0.78471962088E+02 -0.46213175538E+02  0.94844658941E+02  0.41800000000E+01 0. -1.
         -5    1    3    3    0  502 -0.48834842730E+02 -0.44320426819E+02 -0.54540563989E+02  0.85681314288E+02  0.41800000000E+01 0. -1.
        -11    1    1    2    0    0  0.14895629463E+02  0.25244124196E+02  0.12937147237E+03  0.13265038050E+03  0.00000000000E+00 0. -1.
         11    1    1    2    0    0  0.60102747095E+02 -0.59395659465E+02  0.64934179390E+02  0.10656750079E+03  0.00000000000E+00 0.  1.
</event>
<event>
 7    1  0.6671761E-006  0.1326968E+03  0.7561462E-02  0.1223508E+00
          2   -1    0    0  501    0  0.00000000000E+00  0.00000000000E+00  0.58207144311E+02  0.58207144311E+02  0.00000000000E+00 0. -1.
         -2   -1    0    0    0  501 -0.00000000000E+00 -0.00000000000E+00 -0.51526622451E+03  0.51526622451E+03  0.00000000000E+00 0.  1.
         23    2    1    2    0    0  0.88932984946E+02  0.51126693413E+02 -0.38610541606E+03  0.41862521285E+03  0.12508661772E+03 0.  0.
          5    1    3    3  502    0 -0.10071778742E+02  0.22385734461E+02 -0.71959425719E+01  0.25919410177E+02  0.41800000000E+01 0. -1.
         -5    1    3    3    0  502  0.99004763689E+02  0.28740958952E+02 -0.37890947349E+03  0.39270580268E+03  0.41800000000E+01 0. -1.
        -11    1    1    2    0    0  0.18151033424E+02  0.10814637294E+01 -0.13098824429E+02  0.22410015163E+02  0.00000000000E+00 0. -1.
         11    1    1    2    0    0 -0.10708401837E+03 -0.52208157143E+02 -0.57854839709E+02  0.13243814081E+03  0.00000000000E+00 0.  1.
</event>
<event>
 7    1  0.6671761E-006  0.1372311E+03  0.7561462E-02  0.1217104E+00
         -2   -1    0    0    0  501 -0.00000000000E+00  0.00000000000E+00  0.23533985868E+02  0.23533985868E+02  0.00000000000E+00 0. -1.
          2   -1    0    0  501    0  0.00000000000E+00 -0.00000000000E+00 -0.86189710545E+03  0.86189710545E+03  0.00000000000E+00 0.  1.
         23    2    1    2    0    0  0.77857621610E+02 -0.44175252213E+02 -0.52226014877E+03  0.54444043235E+03  0.12508580747E+03 0.  0.
          5    1    3    3  502    0  0.11196542766E+03 -0.38863414801E+02 -0.38548785335E+03  0.40331746737E+03  0.41800000000E+01 0.  1.
         -5    1    3    3    0  502 -0.34107806053E+02 -0.53118374119E+01 -0.13677229542E+03  0.14112296498E+03  0.41800000000E+01 0.  1.
        -11    1    1    2    0    0 -0.53777870083E+02  0.68355266895E+02 -0.17001710223E+03  0.19097203166E+03  0.00000000000E+00 0. -1.
         11    1    1    2    0    0 -0.24079751527E+02 -0.24180014682E+02 -0.14608586858E+03  0.15001862732E+03  0.00000000000E+00 0.  1.
</event>
<event>
 7    1  0.6671761E-006  0.1090925E+03  0.7561462E-02  0.1262260E+00
         -1   -1    0    0    0  501 -0.00000000000E+00  0.00000000000E+00  0.48150133142E+02  0.48150133142E+02  0.00000000000E+00 0.  1.
          1   -1    0    0  501    0  0.00000000000E+00 -0.00000000000E+00 -0.28898517174E+03  0.28898517174E+03  0.00000000000E+00 0. -1.
         23    2    1    2    0    0 -0.43382978441E+02 -0.51709269849E+01 -0.10344789558E+03  0.16809751320E+03  0.12508591264E+03 0.  0.
          5    1    3    3  502    0 -0.63070422915E+02 -0.43867913530E+02 -0.29813983121E+02  0.82514350713E+02  0.41800000000E+01 0.  1.
         -5    1    3    3    0  502  0.19687444473E+02  0.38696986545E+02 -0.73633912462E+02  0.85583162491E+02  0.41800000000E+01 0.  1.
        -11    1    1    2    0    0  0.33285981740E+02 -0.39600302451E+02 -0.61641174223E+02  0.80472199511E+02  0.00000000000E+00 0.  1.
         11    1    1    2    0    0  0.10096996701E+02  0.44771229436E+02 -0.75745968789E+02  0.88565592164E+02  0.00000000000E+00 0. -1.
</event>
<event>
 7    1  0.6671761E-006  0.1588391E+03  0.7561462E-02  0.1190014E+00
          3   -1    0    0  501    0  0.00000000000E+00  0.00000000000E+00  0.67462446122E+03  0.67462446122E+03  0.00000000000E+00 0. -1.
         -3   -1    0    0    0  501 -0.00000000000E+00 -0.00000000000E+00 -0.38288943779E+02  0.38288943779E+02  0.00000000000E+00 0.  1.
         23    2    1    2    0    0  0.10749378306E+03  0.53064999084E+02  0.34327693663E+03  0.38452122925E+03  0.12508682185E+03 0.  0.
          5    1    3    3  502    0 -0.24577553587E+02  0.23184148623E+02  0.10552297162E+03  0.11087890163E+03  0.41800000000E+01 0. -1.
         -5    1    3    3    0  502  0.13207133664E+03  0.29880850461E+02  0.23775396501E+03  0.27364232762E+03  0.41800000000E+01 0. -1.
        -11    1    1    2    0    0 -0.86254696938E+02 -0.77378261596E+02  0.22679338086E+03  0.25468118445E+03  0.00000000000E+00 0. -1.
         11    1    1    2    0    0 -0.21239086118E+02  0.24313262512E+02  0.66265199951E+02  0.73710991294E+02  0.00000000000E+00 0.  1.
</event>
<event>
 7    1  0.6671761E-006  0.1583907E+03  0.7561462E-02  0.1190526E+00
         -2   -1    0    0    0  501 -0.00000000000E+00  0.00000000000E+00  0.40573745363E+03  0.40573745363E+03  0.00000000000E+00 0. -1.
          2   -1    0    0  501    0  0.00000000000E+00 -0.00000000000E+00 -0.87805736840E+02  0.87805736840E+02  0.00000000000E+00 0.  1.
         23    2    1    2    0    0  0.13389405324E+03  0.53000184075E+02  0.23828320052E+03  0.30519188931E+03  0.12500627443E+03 0.  0.
          5    1    3    3  502    0 -0.28511546652E+01  0.20171574537E+02 -0.74017020881E+01  0.22074399109E+02  0.41800000000E+01 0.  1.
         -5    1    3    3    0  502  0.13674520790E+03  0.32828609538E+02  0.24568490261E+03  0.28311749020E+03  0.41800000000E+01 0.  1.
        -11    1    1    2    0    0 -0.89744689062E+02 -0.63467072578E+02  0.89704729912E+02  0.14187711967E+03  0.00000000000E+00 0.  1.
         11    1    1    2    0    0 -0.44149364175E+02  0.10466888503E+02 -0.10056213649E+02  0.46474181488E+02  0.00000000000E+00 0. -1.
</event>
<event>
 7    1  0.6671761E-006  0.1939632E+03  0.7561462E-02  0.1154935E+00
         -2   -1    0    0    0  501 -0.00000000000E+00  0.00000000000E+00  0.39855495508E+02  0.39855495508E+02  0.00000000000E+00 0.  1.
          2   -1    0    0  501    0  0.00000000000E+00 -0.00000000000E+00 -0.12231238996E+04  0.12231238996E+04  0.00000000000E+00 0. -1.
         23    2    1    2    0    0  0.19051111391E+03 -0.23455651107E+02 -0.64037205263E+03  0.68012489342E+03  0.12509537470E+03 0.  0.
          5    1    3    3  502    0  0.96873764545E+02 -0.27821585117E+02 -0.14940460531E+03  0.18027139358E+03  0.41800000000E+01 0. -1.
         -5    1    3    3    0  502  0.93637349361E+02  0.43659340094E+01 -0.49096744732E+03  0.49985349984E+03  0.41800000000E+01 0. -1.
        -11    1    1    2    0    0 -0.84714506703E+02  0.21512403189E+02 -0.13025497039E+03  0.15686200447E+03  0.00000000000E+00 0.  1.
         11    1    1    2    0    0 -0.10579660720E+03  0.19432479189E+01 -0.41264138110E+03  0.42599249724E+03  0.00000000000E+00 0. -1.
</event>
<event>
 7    1  0.6671761E-006  0.1047316E+03  0.7561462E-02  0.1270649E+00
          2   -1    0    0  501    0  0.00000000000E+00  0.00000000000E+00  0.15688551050E+03  0.15688551050E+03  0.00000000000E+00 0. -1.
         -2   -1    0    0    0  501 -0.00000000000E+00 -0.00000000000E+00 -0.83679703873E+02  0.83679703873E+02  0.00000000000E+00 0.  1.
         23    2    1    2    0    0 -0.41049991230E+02 -0.13371167596E+01  0.25058360232E+02  0.13402520007E+03  0.12509173903E+03 0.  0.
          5    1    3    3  502    0  0.32567683415E+02  0.22757129737E+02 -0.19617710644E+02  0.44506942467E+02  0.41800000000E+01 0.  1.
         -5    1    3    3    0  502 -0.73617674646E+02 -0.24094246496E+02  0.44676070876E+02  0.89518257598E+02  0.41800000000E+01 0.  1.
        -11    1    1    2    0    0  0.63096171713E+02 -0.14567229800E+02  0.20885431475E+02  0.68040666640E+02  0.00000000000E+00 0.  1.
         11    1    1    2    0    0 -0.22046180483E+02  0.15904346559E+02  0.27262014923E+02  0.38499347671E+02  0.00000000000E+00 0. -1.
</event>
<event>
 7    1  0.6671761E-006  0.1158678E+03  0.7561462E-02  0.1250074E+00
          2   -1    0    0  501    0  0.00000000000E+00  0.00000000000E+00  0.12378585493E+03  0.12378585493E+03  0.00000000000E+00 0. -1.
         -2   -1    0    0    0  501 -0.00000000000E+00 -0.00000000000E+00 -0.11207367144E+03  0.11207367144E+03  0.00000000000E+00 0.  1.
         23    2    1    2    0    0 -0.41336290731E+02  0.15133419116E+02 -0.80334280754E+01  0.13285215151E+03  0.12508976333E+03 0.  0.
          5    1    3    3  502    0  0.37918779289E+01  0.64972261576E+02 -0.53150258777E+01  0.65433133905E+02  0.41800000000E+01 0. -1.
         -5    1    3    3    0  502 -0.45128168660E+02 -0.49838842460E+02 -0.27184021978E+01  0.67419017605E+02  0.41800000000E+01 0. -1.
        -11    1    1    2    0    0  0.61520410408E+02 -0.35045056492E+02  0.23057793365E+02  0.74461927964E+02  0.00000000000E+00 0. -1.
         11    1    1    2    0    0 -0.20184119677E+02  0.19911637375E+02 -0.33121818070E+01  0.28545446895E+02  0.00000000000E+00 0.  1.
</event>
<event>
 7    1  0.6671761E-006  0.1125992E+03  0.7561462E-02  0.1255831E+00
         -2   -1    0    0    0  501 -0.00000000000E+00  0.00000000000E+00  0.84916562574E+02  0.84916562574E+02  0.00000000000E+00 0.  1.
          2   -1    0    0  501    0  0.00000000000E+00 -0.00000000000E+00 -0.21743846943E+03  0.21743846943E+03  0.00000000000E+00 0. -1.
         23    2    1    2    0    0 -0.51499182333E+02  0.19203139946E+02  0.84758550789E+00  0.13662456990E+03  0.12507848870E+03 0.  0.
          5    1    3    3  502    0 -0.93057379431E+02  0.17137186666E+02  0.28547117777E+01  0.94757484205E+02  0.41800000000E+01 0. -1.
         -5    1    3    3    0  502  0.41558197099E+02  0.20659532804E+01 -0.20071262698E+01  0.41867085699E+02  0.41800000000E+01 0. -1.
        -11    1    1    2    0    0  0.48835495733E+02 -0.42788955255E+02 -0.59237593275E+02  0.87891369271E+02  0.00000000000E+00 0.  1.
         11    1    1    2    0    0  0.26636865998E+01  0.23585815309E+02 -0.74131899089E+02  0.77839092830E+02  0.00000000000E+00 0. -1.
</event>
<event>
 7    1  0.6671761E-006  0.2372329E+03  0.7561462E-02  0.1121650E+00
          1   -1    0    0  501    0  0.00000000000E+00  0.00000000000E+00  0.51281180774E+03  0.51281180774E+03  0.00000000000E+00 0. -1.
         -1   -1    0    0    0  501 -0.00000000000E+00 -0.00000000000E+00 -0.11747028882E+03  0.11747028882E+03  0.00000000000E+00 0.  1.
         23    2    1    2    0    0  0.15279037623E+03  0.14602750444E+03  0.12442996561E+03  0.27529949604E+03  0.12505224930E+03 0.  0.
          5    1    3    3  502    0  0.19670006961E+02 -0.22839066311E+02  0.17711503978E+02  0.35209400690E+02  0.41800000000E+01 0. -1.
         -5    1    3    3    0  502  0.13312036927E+03  0.16886657075E+03  0.10671846163E+03  0.24009009535E+03  0.41800000000E+01 0. -1.
        -11    1    1    2    0    0 -0.17495509492E+02  0.11787696623E+02  0.31619006113E+02  0.38010579996E+02  0.00000000000E+00 0. -1.
         11    1    1    2    0    0 -0.13529486674E+03 -0.15781520107E+03  0.23929254719E+03  0.31697202052E+03  0.00000000000E+00 0.  1.
</event>
<event>
 7    1  0.6671761E-006  0.1193641E+03  0.7561462E-02  0.1244150E+00
          2   -1    0    0  501    0  0.00000000000E+00  0.00000000000E+00  0.70737203549E+03  0.70737203549E+03  0.00000000000E+00 0. -1.
         -2   -1    0    0    0  501 -0.00000000000E+00 -0.00000000000E+00 -0.21126520826E+02  0.21126520826E+02  0.00000000000E+00 0.  1.
         23    2    1    2    0    0  0.24038197434E+02 -0.47461648355E+02  0.32291130442E+03  0.35035741066E+03  0.12509261242E+03 0.  0.
          5    1    3    3  502    0  0.48942196555E+02  0.27485967959E+02  0.11881361953E+03  0.13147229984E+03  0.41800000000E+01 0. -1.
         -5    1    3    3    0  502 -0.24903999121E+02 -0.74947616314E+02  0.20409768488E+03  0.21888511082E+03  0.41800000000E+01 0. -1.
        -11    1    1    2    0    0  0.30649699605E+02  0.36351434056E+02  0.13654155086E+03  0.14458362962E+03  0.00000000000E+00 0.  1.
         11    1    1    2    0    0 -0.54687897039E+02  0.11110214299E+02  0.22679265939E+03  0.23355751603E+03  0.00000000000E+00 0. -1.
</event>
<event>
 7    1  0.6671761E-006  0.1509458E+03  0.7561462E-02  0.1199316E+00
         -2   -1    0    0    0  501 -0.00000000000E+00  0.00000000000E+00  0.74876460906E+02  0.74876460906E+02  0.00000000000E+00 0.  1.
          2   -1    0    0  501    0  0.00000000000E+00 -0.00000000000E+00 -0.44691469985E+03  0.44691469985E+03  0.00000000000E+00 0. -1.
         23    2    1    2    0    0 -0.14362740323E+03 -0.14371471936E+02 -0.15272833877E+03  0.24455780046E+03  0.12508877703E+03 0.  0.
          5    1    3    3  502    0 -0.32721184091E+02 -0.41929936741E+01 -0.12549814415E+03  0.12982878598E+03  0.41800000000E+01 0. -1.
         -5    1    3    3    0  502 -0.11090621914E+03 -0.10178478262E+02 -0.27230194617E+02  0.11472901448E+03  0.41800000000E+01 0. -1.
        -11    1    1    2    0    0  0.84353264923E+02 -0.22600961939E+02 -0.17188451439E+03  0.19279668843E+03  0.00000000000E+00 0.  1.
         11    1    1    2    0    0  0.59274138307E+02  0.36972433875E+02 -0.47425385788E+02  0.84436671866E+02  0.00000000000E+00 0. -1.
</event>
<event>
 7    1  0.6671761E-006  0.9566900E+02  0.7561462E-02  0.1289676E+00
         -2   -1    0    0    0  501 -0.00000000000E+00  0.00000000000E+00  0.30738754512E+02  0.30738754512E+02  0.00000000000E+00 0.  1.
          2   -1    0    0  501    0  0.00000000000E+00 -0.00000000000E+00 -0.44668383820E+03  0.44668383820E+03  0.00000000000E+00 0. -1.
         23    2    1    2    0    0  0.14499524372E+01 -0.90213397210E+01 -0.14815153545E+03  0.19411534757E+03  0.12509358005E+03 0.  0.
          5    1    3    3  502    0  0.29021599607E+02 -0.46532095032E+02 -0.21393050590E+02  0.59013762170E+02  0.41800000000E+01 0. -1.
         -5    1    3    3    0  502 -0.27571647170E+02  0.37510755311E+02 -0.12675848486E+03  0.13510158540E+03  0.41800000000E+01 0. -1.
        -11    1    1    2    0    0  0.18451285490E+02 -0.35955926537E+02 -0.86749541793E+02  0.95701418959E+02  0.00000000000E+00 0.  1.
         11    1    1    2    0    0 -0.19901237927E+02  0.44977266258E+02 -0.18104400644E+03  0.18760582618E+03  0.00000000000E+00 0. -1.
</event>
<event>
 7    1  0.6671761E-006  0.6169096E+02  0.7561462E-02  0.1390869E+00
          2   -1    0    0  501    0  0.00000000000E+00  0.00000000000E+00  0.23947755978E+03  0.23947755978E+03  0.00000000000E+00 0. -1.
         -2   -1    0    0    0  501 -0.00000000000E+00 -0.00000000000E+00 -0.55607433501E+02  0.55607433501E+02  0.00000000000E+00 0.  1.
         23    2    1    2    0    0  0.73215545356E+01 -0.12279353304E+02  0.75048892056E+02  0.14657575401E+03  0.12509087811E+03 0.  0.
          5    1    3    3  502    0 -0.10537674942E+02  0.29416786097E+02  0.92554118631E+02  0.97775902824E+02  0.41800000000E+01 0. -1.
         -5    1    3    3    0  502  0.17859229477E+02 -0.41696139401E+02 -0.17505226575E+02  0.48799851188E+02  0.41800000000E+01 0. -1.
        -11    1    1    2    0    0  0.37517182161E+01 -0.15737492172E+02 -0.14399994819E+02  0.21658806528E+02  0.00000000000E+00 0.  1.
         11    1    1    2    0    0 -0.11073272752E+02  0.28016845476E+02  0.12322122904E+03  0.12685043274E+03  0.00000000000E+00 0. -1.
</event>
<event>
 7    1  0.6671761E-006  0.1201601E+03  0.7561462E-02  0.1242833E+00
         -1   -1    0    0    0  501 -0.00000000000E+00  0.00000000000E+00  0.20846285087E+03  0.20846285087E+03  0.00000000000E+00 0.  1.
          1   -1    0    0  501    0  0.00000000000E+00 -0.00000000000E+00 -0.89213245395E+02  0.89213245395E+02  0.00000000000E+00 0. -1.
         23    2    1    2    0    0 -0.80691189512E+02  0.34448467551E+01  0.53053720415E+02  0.15806817798E+03  0.12509163284E+03 0.  0.
          5    1    3    3  502    0 -0.10648793519E+03  0.30856315415E+02  0.41782432136E+02  0.11855393952E+03  0.41800000000E+01 0. -1.
         -5    1    3    3    0  502  0.25796745675E+02 -0.27411468660E+02  0.11271288279E+02  0.39514238458E+02  0.41800000000E+01 0. -1.
        -11    1    1    2    0    0  0.25578436087E+02 -0.21595550912E+02 -0.17493445169E+02  0.37770952275E+02  0.00000000000E+00 0. -1.
         11    1    1    2    0    0  0.55112753426E+02  0.18150704157E+02  0.83689330228E+02  0.10183696601E+03  0.00000000000E+00 0.  1.
</event>
<event>
 7    1  0.6671761E-006  0.1190180E+03  0.7561462E-02  0.1244726E+00
          2   -1    0    0  501    0  0.00000000000E+00  0.00000000000E+00  0.12516580243E+04  0.12516580243E+04  0.00000000000E+00 0.  1.
         -2   -1    0    0    0  501 -0.00000000000E+00 -0.00000000000E+00 -0.11350745005E+02  0.11350745005E+02  0.00000000000E+00 0. -1.
         23    2    1    2    0    0  0.30331693130E+02 -0.38206975924E+02  0.69879767771E+03  0.71158002291E+03  0.12509256574E+03 0.  0.
          5    1    3    3  502    0  0.69769720672E+02  0.11110726895E+02  0.38871772194E+03  0.39510783582E+03  0.41800000000E+01 0.  1.
         -5    1    3    3    0  502 -0.39438027543E+02 -0.49317702819E+02  0.31007995577E+03  0.31647218709E+03  0.41800000000E+01 0.  1.
        -11    1    1    2    0    0 -0.13982514516E+02 -0.30393885645E+02  0.16104215676E+03  0.16448062272E+03  0.00000000000E+00 0.  1.
         11    1    1    2    0    0 -0.16349178614E+02  0.68600861568E+02  0.38046744482E+03  0.38694812367E+03  0.00000000000E+00 0. -1.
</event>
<event>
 7    1  0.6671761E-006  0.2520373E+03  0.7561462E-02  0.1112024E+00
         -2   -1    0    0    0  501 -0.00000000000E+00  0.00000000000E+00  0.84057878836E+02  0.84057878836E+02  0.00000000000E+00 0. -1.
          2   -1    0    0  501    0  0.00000000000E+00 -0.00000000000E+00 -0.86359230429E+03  0.86359230429E+03  0.00000000000E+00 0.  1.
         23    2    1    2    0    0 -0.24737135273E+03  0.10684557832E+02 -0.32884334395E+03  0.43022301621E+03  0.12508858016E+03 0.  0.
          5    1    3    3  502    0 -0.20618882700E+03  0.20812560450E+02 -0.32750435655E+03  0.38758685609E+03  0.41800000000E+01 0. -1.
         -5    1    3    3    0  502 -0.41182525726E+02 -0.10128002618E+02 -0.13389873976E+01  0.42636160116E+02  0.41800000000E+01 0. -1.
        -11    1    1    2    0    0  0.18109045963E+03  0.17952153875E+02 -0.32196950541E+03  0.36983833876E+03  0.00000000000E+00 0.  1.
         11    1    1    2    0    0  0.66280893094E+02 -0.28636711706E+02 -0.12872157609E+03  0.14758882816E+03  0.00000000000E+00 0. -1.
</event>
<event>
 7    1  0.6671761E-006  0.9009622E+02  0.7561462E-02  0.1302619E+00
         -1   -1    0    0    0  501 -0.00000000000E+00  0.00000000000E+00  0.15808731422E+03  0.15808731422E+03  0.00000000000E+00 0.  1.
          1   -1    0    0  501    0  0.00000000000E+00 -0.00000000000E+00 -0.11298220892E+03  0.11298220892E+03  0.00000000000E+00 0. -1.
         23    2    1    2    0    0  0.24230117899E+02 -0.50904363825E+02  0.76605399735E+02  0.15713616382E+03  0.12508010969E+03 0.  0.
          5    1    3    3  502    0 -0.34804831087E+02  0.12367284814E+02  0.57417700278E+02  0.68400224458E+02  0.41800000000E+01 0. -1.
         -5    1    3    3    0  502  0.59034948987E+02 -0.63271648639E+02  0.19187699457E+02  0.88735939358E+02  0.41800000000E+01 0. -1.
        -11    1    1    2    0    0 -0.48577749041E+01  0.11015977137E+02 -0.60016366259E+02  0.61212040877E+02  0.00000000000E+00 0. -1.
         11    1    1    2    0    0 -0.19372342995E+02  0.39888386688E+02  0.28516071828E+02  0.52721318441E+02  0.00000000000E+00 0.  1.
</event>
<event>
 7    1  0.6671761E-006  0.1291118E+03  0.7561462E-02  0.1228780E+00
          1   -1    0    0  501    0  0.00000000000E+00  0.00000000000E+00  0.23126182443E+02  0.23126182443E+02  0.00000000000E+00 0. -1.
         -1   -1    0    0    0  501 -0.00000000000E+00 -0.00000000000E+00 -0.92420684847E+03  0.92420684847E+03  0.00000000000E+00 0.  1.
         23    2    1    2    0    0  0.63477391827E+02 -0.66844607998E+02 -0.58921392258E+03  0.60935907160E+03  0.12509136937E+03 0.  0.
          5    1    3    3  502    0 -0.39222622702E+01  0.23498254021E+02 -0.28349030004E+02  0.37265157796E+02  0.41800000000E+01 0. -1.
         -5    1    3    3    0  502  0.67399654097E+02 -0.90342862019E+02 -0.56086489258E+03  0.57209391381E+03  0.41800000000E+01 0. -1.
        -11    1    1    2    0    0 -0.72901642012E+02  0.23067090227E+02 -0.13134592894E+03  0.15198188415E+03  0.00000000000E+00 0. -1.
         11    1    1    2    0    0  0.94242501844E+01  0.43777517770E+02 -0.18052081451E+03  0.18599207516E+03  0.00000000000E+00 0.  1.
</event>
<event>
 7    1  0.6671761E-006  0.1180372E+03  0.7561462E-02  0.1246371E+00
          1   -1    0    0  501    0  0.00000000000E+00  0.00000000000E+00  0.31180025065E+03  0.31180025065E+03  0.00000000000E+00 0. -1.
         -1   -1    0    0    0  501 -0.00000000000E+00 -0.00000000000E+00 -0.70200908576E+02  0.70200908576E+02  0.00000000000E+00 0.  1.
         23    2    1    2    0    0  0.50661308810E+01  0.81715460259E+02  0.60885493463E+02  0.16142617607E+03  0.12509310484E+03 0.  0.
          5    1    3    3  502    0  0.78989484600E+00 -0.31785587765E+02 -0.85652822113E+00  0.32080423376E+02  0.41800000000E+01 0. -1.
         -5    1    3    3    0  502  0.42762360350E+01  0.11350104802E+03  0.61742021685E+02  0.12934575269E+03  0.41800000000E+01 0. -1.
        -11    1    1    2    0    0 -0.18187201056E+02 -0.19109744508E+02 -0.25160334675E+01  0.26500698893E+02  0.00000000000E+00 0.  1.
         11    1    1    2    0    0  0.13121070175E+02 -0.62605715751E+02  0.18322988207E+03  0.19407428426E+03  0.00000000000E+00 0. -1.
</event>
<event>
 7    1  0.6671761E-006  0.1064386E+03  0.7561462E-02  0.1267311E+00
          1   -1    0    0  501    0  0.00000000000E+00  0.00000000000E+00  0.32009956886E+03  0.32009956886E+03  0.00000000000E+00 0. -1.
         -1   -1    0    0    0  501 -0.00000000000E+00 -0.00000000000E+00 -0.66058579993E+02  0.66058579993E+02  0.00000000000E+00 0.  1.
         23    2    1    2    0    0  0.12005513191E+02 -0.65441594973E+02  0.44062600900E+02  0.14837424853E+03  0.12508665048E+03 0.  0.
          5    1    3    3  502    0 -0.32954211251E+02 -0.64403272712E+02  0.66131717652E+02  0.98105239690E+02  0.41800000000E+01 0.  1.
         -5    1    3    3    0  502  0.44959724442E+02 -0.10383222618E+01 -0.22069116751E+02  0.50269008835E+02  0.41800000000E+01 0.  1.
        -11    1    1    2    0    0  0.21840689294E+02  0.30712518594E+00  0.11850040797E+03  0.12049670836E+03  0.00000000000E+00 0. -1.
         11    1    1    2    0    0 -0.33846202485E+02  0.65134469787E+02  0.91477979995E+02  0.11728719197E+03  0.00000000000E+00 0.  1.
</event>
<event>
 7    1  0.6671761E-006  0.1063390E+03  0.7561462E-02  0.1267504E+00
         -3   -1    0    0    0  501 -0.00000000000E+00  0.00000000000E+00  0.12080261914E+04  0.12080261914E+04  0.00000000000E+00 0.  1.
          3   -1    0    0  501    0  0.00000000000E+00 -0.00000000000E+00 -0.11375544154E+02  0.11375544154E+02  0.00000000000E+00 0. -1.
         23    2    1    2    0    0  0.35769262494E+02 -0.10213097421E+02  0.79726635222E+03  0.80787374041E+03  0.12507036643E+03 0.  0.
          5    1    3    3  502    0 -0.29301587004E+02 -0.34909972723E+02  0.14906570555E+03  0.15593378777E+03  0.41800000000E+01 0. -1.
         -5    1    3    3    0  502  0.65070849499E+02  0.24696875302E+02  0.64820064667E+03  0.65193995264E+03  0.41800000000E+01 0. -1.
        -11    1    1    2    0    0 -0.66061106078E+02  0.34779514450E+01  0.22998937992E+03  0.23931418838E+03  0.00000000000E+00 0. -1.
         11    1    1    2    0    0  0.30291843583E+02  0.67351459760E+01  0.16939491514E+03  0.17221380681E+03  0.00000000000E+00 0.  1.
</event>
<event>
 7    1  0.6671761E-006  0.1100393E+03  0.7561462E-02  0.1260497E+00
          2   -1    0    0  501    0  0.00000000000E+00  0.00000000000E+00  0.22378818403E+03  0.22378818403E+03  0.00000000000E+00 0. -1.
         -2   -1    0    0    0  501 -0.00000000000E+00 -0.00000000000E+00 -0.10233658652E+03  0.10233658652E+03  0.00000000000E+00 0.  1.
         23    2    1    2    0    0  0.22719422283E+02 -0.29958629724E+02 -0.39094633692E+02  0.13634332793E+03  0.12508965203E+03 0.  0.
          5    1    3    3  502    0  0.70878054411E+02 -0.39632388446E+02 -0.24995999839E+02  0.85068779344E+02  0.41800000000E+01 0. -1.
         -5    1    3    3    0  502 -0.48158632129E+02  0.96737587221E+01 -0.14098633853E+02  0.51274548588E+02  0.41800000000E+01 0. -1.
        -11    1    1    2    0    0  0.10531417579E+02 -0.23930262199E+02  0.95456509871E+02  0.98972286434E+02  0.00000000000E+00 0. -1.
         11    1    1    2    0    0 -0.33250839861E+02  0.53888891923E+02  0.65089721333E+02  0.90809156186E+02  0.00000000000E+00 0.  1.
</event>
<event>
 7    1  0.6671761E-006  0.9192581E+02  0.7561462E-02  0.1298254E+00
         -4   -1    0    0    0  501 -0.00000000000E+00  0.00000000000E+00  0.32343576735E+03  0.32343576735E+03  0.00000000000E+00 0. -1.
          4   -1    0    0  501    0  0.00000000000E+00 -0.00000000000E+00 -0.64268899194E+02  0.64268899194E+02  0.00000000000E+00 0.  1.
         23    2    1    2    0    0 -0.18406575500E+02 -0.40416759405E+02  0.26651123758E+03  0.29175455690E+03  0.11009162208E+03 0.  0.
          5    1    3    3  502    0  0.21220407368E+02 -0.54999061866E+02  0.22410052149E+03  0.23176220275E+03  0.41800000000E+01 0. -1.
         -5    1    3    3    0  502 -0.39626982868E+02  0.14582302461E+02  0.42410716093E+02  0.59992354144E+02  0.41800000000E+01 0.  1.
        -11    1    1    2    0    0  0.19619235659E+02  0.59781640422E+02 -0.26876674479E+02  0.68418671212E+02  0.00000000000E+00 0.  1.
         11    1    1    2    0    0 -0.12126601593E+01 -0.19364881016E+02  0.19532305057E+02  0.27531438434E+02  0.00000000000E+00 0. -1.
</event>
<event>
 7    1  0.6671761E-006  0.8600813E+02  0.7561462E-02  0.1312817E+00
          1   -1    0    0  501    0  0.00000000000E+00  0.00000000000E+00  0.27013215630E+03  0.27013215630E+03  0.00000000000E+00 0. -1.
         -1   -1    0    0    0  501 -0.00000000000E+00 -0.00000000000E+00 -0.57590941333E+02  0.57590941333E+02  0.00000000000E+00 0.  1.
         23    2    1    2    0    0  0.22588884702E+02 -0.27438930355E+02  0.51271569767E+02  0.13977959333E+03  0.12508560362E+03 0.  0.
          5    1    3    3  502    0 -0.26214751497E+02 -0.10615960465E+01  0.74798416701E+02  0.79376417929E+02  0.41800000000E+01 0.  1.
         -5    1    3    3    0  502  0.48803636199E+02 -0.26377334308E+02 -0.23526846934E+02  0.60403175398E+02  0.41800000000E+01 0.  1.
        -11    1    1    2    0    0 -0.26472411981E+02  0.55498653479E+02  0.13871962733E+03  0.15173669346E+03  0.00000000000E+00 0.  1.
         11    1    1    2    0    0  0.38835272790E+01 -0.28059723124E+02  0.22550017861E+02  0.36206810843E+02  0.00000000000E+00 0. -1.
</event>
<event>
 7    1  0.6671761E-006  0.9852843E+02  0.7561462E-02  0.1283421E+00
         -2   -1    0    0    0  501 -0.00000000000E+00  0.00000000000E+00  0.21584153013E+03  0.21584153013E+03  0.00000000000E+00 0. -1.
          2   -1    0    0  501    0  0.00000000000E+00 -0.00000000000E+00 -0.20205805990E+03  0.20205805990E+03  0.00000000000E+00 0.  1.
         23    2    1    2    0    0 -0.18545941007E+02  0.85316366552E+02  0.16234537239E+03  0.22277003950E+03  0.12509051217E+03 0.  0.
          5    1    3    3  502    0  0.20643856053E+02  0.19527988166E+02  0.13996356699E+03  0.14288031214E+03  0.41800000000E+01 0.  1.
         -5    1    3    3    0  502 -0.39189797060E+02  0.65788378386E+02  0.22381805401E+02  0.79889727357E+02  0.41800000000E+01 0.  1.
        -11    1    1    2    0    0 -0.67802989320E+01 -0.30719840546E+02 -0.12756573380E+03  0.13138758502E+03  0.00000000000E+00 0.  1.
         11    1    1    2    0    0  0.25326239939E+02 -0.54596526006E+02 -0.20996168349E+02  0.63741965508E+02  0.00000000000E+00 0. -1.
</event>
<event>
 7    1  0.6671761E-006  0.1169865E+03  0.7561462E-02  0.1248153E+00
         -3   -1    0    0    0  501 -0.00000000000E+00  0.00000000000E+00  0.49899701785E+02  0.49899701785E+02  0.00000000000E+00 0.  1.
          3   -1    0    0  501    0  0.00000000000E+00 -0.00000000000E+00 -0.36028180209E+03  0.36028180209E+03  0.00000000000E+00 0. -1.
         23    2    1    2    0    0 -0.73987047173E+02 -0.61736230928E+01 -0.12607235056E+03  0.19249185429E+03  0.12508668842E+03 0.  0.
          5    1    3    3  502    0  0.10139990365E+02  0.37618953793E+02 -0.63478743014E+01  0.39696007321E+02  0.41800000000E+01 0.  1.
         -5    1    3    3    0  502 -0.84127037538E+02 -0.43792576886E+02 -0.11972447626E+03  0.15279584697E+03  0.41800000000E+01 0.  1.
        -11    1    1    2    0    0  0.64303621273E+02  0.32321531493E+02 -0.71364631363E+02  0.10135357772E+03  0.00000000000E+00 0.  1.
         11    1    1    2    0    0  0.96834259003E+01 -0.26147908400E+02 -0.11294511839E+03  0.11633607187E+03  0.00000000000E+00 0. -1.
</event>
<event>
 7    1  0.6671761E-006  0.1206997E+03  0.7561462E-02  0.1241947E+00
         -1   -1    0    0    0  501 -0.00000000000E+00  0.00000000000E+00  0.23986212324E+02  0.23986212324E+02  0.00000000000E+00 0.  1.
          1   -1    0    0  501    0  0.00000000000E+00 -0.00000000000E+00 -0.64299964586E+03  0.64299964586E+03  0.00000000000E+00 0. -1.
         23    2    1    2    0    0  0.54810168406E+02  0.31429578511E+02 -0.36458729861E+03  0.39059564629E+03  0.12509631340E+03 0.  0.
          5    1    3    3  502    0 -0.21988119175E+02 -0.32956444306E+02 -0.10495095490E+03  0.11225764981E+03  0.41800000000E+01 0. -1.
         -5    1    3    3    0  502  0.76798287581E+02  0.64386022818E+02 -0.25963634371E+03  0.27833799648E+03  0.41800000000E+01 0. -1.
        -11    1    1    2    0    0 -0.72500255191E+02 -0.38638956681E+02 -0.23583299007E+03  0.24973276754E+03  0.00000000000E+00 0. -1.
         11    1    1    2    0    0  0.17690086785E+02  0.72093781694E+01 -0.18593144853E+02  0.26657444356E+02  0.00000000000E+00 0.  1.
</event>
<event>
 7    1  0.6671761E-006  0.1846202E+03  0.7561462E-02  0.1163405E+00
          2   -1    0    0  501    0  0.00000000000E+00  0.00000000000E+00  0.15800124646E+03  0.15800124646E+03  0.00000000000E+00 0. -1.
         -2   -1    0    0    0  501 -0.00000000000E+00 -0.00000000000E+00 -0.27071532704E+03  0.27071532704E+03  0.00000000000E+00 0.  1.
         23    2    1    2    0    0 -0.88319356640E+02  0.14056718270E+03 -0.11910506963E+03  0.23956792064E+03  0.12508928562E+03 0.  0.
          5    1    3    3  502    0 -0.49221408736E+02  0.13295859193E+03 -0.34517921671E+02  0.14597840101E+03  0.41800000000E+01 0. -1.
         -5    1    3    3    0  502 -0.39097947904E+02  0.76085907756E+01 -0.84587147961E+02  0.93589519627E+02  0.41800000000E+01 0. -1.
        -11    1    1    2    0    0  0.43318953011E+02 -0.13527426689E+03  0.15653553912E+02  0.14290098923E+03  0.00000000000E+00 0.  1.
         11    1    1    2    0    0  0.45000403629E+02 -0.52929158100E+01 -0.92625648593E+01  0.46247663642E+02  0.00000000000E+00 0. -1.
</event>
<event>
 7    1  0.6671761E-006  0.9159693E+02  0.7561462E-02  0.1299030E+00
         -1   -1    0    0    0  501 -0.00000000000E+00  0.00000000000E+00  0.20218521803E+03  0.20218521803E+03  0.00000000000E+00 0.  1.
          1   -1    0    0  501    0  0.00000000000E+00 -0.00000000000E+00 -0.77270894655E+02  0.77270894655E+02  0.00000000000E+00 0. -1.
         23    2    1    2    0    0 -0.36194227852E+02  0.48157825921E+02  0.88442193525E+02  0.16462896580E+03  0.12510586100E+03 0.  0.
          5    1    3    3  502    0 -0.37673253134E+02  0.59208907098E+02 -0.49539494715E+01  0.70476823827E+02  0.41800000000E+01 0. -1.
         -5    1    3    3    0  502  0.14790252820E+01 -0.11051081177E+02  0.93396142996E+02  0.94152141970E+02  0.41800000000E+01 0. -1.
        -11    1    1    2    0    0 -0.18253268747E+02  0.10413159728E+02 -0.89694042914E+01  0.22848762085E+02  0.00000000000E+00 0. -1.
         11    1    1    2    0    0  0.54447496599E+02 -0.58570985649E+02  0.45441534140E+02  0.91978384802E+02  0.00000000000E+00 0.  1.
</event>
<event>
 7    1  0.6671761E-006  0.8321532E+02  0.7561462E-02  0.1320167E+00
          2   -1    0    0  501    0  0.00000000000E+00  0.00000000000E+00  0.74538568056E+02  0.74538568056E+02  0.00000000000E+00 0. -1.
         -2   -1    0    0    0  501 -0.00000000000E+00 -0.00000000000E+00 -0.20782983618E+03  0.20782983618E+03  0.00000000000E+00 0.  1.
         23    2    1    2    0    0 -0.53832222816E+01 -0.33005789315E+02 -0.13538634253E+03  0.18733726015E+03  0.12508967218E+03 0.  0.
          5    1    3    3  502    0  0.36525117872E+02  0.93466196108E+01  0.15258418207E+01  0.37963721195E+02  0.41800000000E+01 0.  1.
         -5    1    3    3    0  502 -0.41908340154E+02 -0.42352408926E+02 -0.13691218435E+03  0.14937353895E+03  0.41800000000E+01 0.  1.
        -11    1    1    2    0    0 -0.25246153531E+02  0.28055287308E+02  0.33804214838E+02  0.50667468408E+02  0.00000000000E+00 0. -1.
         11    1    1    2    0    0  0.30629375813E+02  0.49505020070E+01 -0.31709140434E+02  0.44363675680E+02  0.00000000000E+00 0.  1.
</event>
<event>
 7    1  0.6671761E-006  0.1051371E+03  0.7561462E-02  0.1269850E+00
         -2   -1    0    0    0  501 -0.00000000000E+00  0.00000000000E+00  0.21201486715E+02  0.21201486715E+02  0.00000000000E+00 0.  1.
          2   -1    0    0  501    0  0.00000000000E+00 -0.00000000000E+00 -0.54999870065E+03  0.54999870065E+03  0.00000000000E+00 0. -1.
         23    2    1    2    0    0 -0.46669276931E+01  0.90542713827E+01 -0.26064136680E+03  0.28735392467E+03  0.12055951184E+03 0.  0.
          5    1    3    3  502    0  0.14831085566E+02  0.61241964101E+02 -0.11225830971E+03  0.12880194007E+03  0.41800000000E+01 0. -1.
         -5    1    3    3    0  502 -0.19498013259E+02 -0.52187692718E+02 -0.14838305709E+03  0.15855198461E+03  0.41800000000E+01 0.  1.
        -11    1    1    2    0    0 -0.28202144882E+02  0.29351729304E+02 -0.14786255933E+03  0.15336303805E+03  0.00000000000E+00 0.  1.
         11    1    1    2    0    0  0.32869072575E+02 -0.38406000687E+02 -0.12029328781E+03  0.13048322465E+03  0.00000000000E+00 0. -1.
</event>
<event>
 7    1  0.6671761E-006  0.1032635E+03  0.7561462E-02  0.1273579E+00
         -2   -1    0    0    0  501 -0.00000000000E+00  0.00000000000E+00  0.29154917589E+03  0.29154917589E+03  0.00000000000E+00 0.  1.
          2   -1    0    0  501    0  0.00000000000E+00 -0.00000000000E+00 -0.78212082120E+02  0.78212082120E+02  0.00000000000E+00 0. -1.
         23    2    1    2    0    0  0.46038551220E+02  0.82262730780E+02  0.14770834848E+03  0.21529672536E+03  0.12509284019E+03 0.  0.
          5    1    3    3  502    0  0.37122599375E+02  0.15063415878E+02  0.14147146473E+03  0.14709398906E+03  0.41800000000E+01 0.  1.
         -5    1    3    3    0  502  0.89159518445E+01  0.67199314902E+02  0.62368837412E+01  0.68202736304E+02  0.41800000000E+01 0.  1.
        -11    1    1    2    0    0 -0.29815394205E+02 -0.25302149246E+02  0.83832471251E+02  0.92504268680E+02  0.00000000000E+00 0.  1.
         11    1    1    2    0    0 -0.16223157015E+02 -0.56960581534E+02 -0.18203725958E+02  0.61960263968E+02  0.00000000000E+00 0. -1.
</event>
<event>
 7    1  0.6671761E-006  0.1098376E+03  0.7561462E-02  0.1260871E+00
         -1   -1    0    0    0  501 -0.00000000000E+00  0.00000000000E+00  0.42194293267E+02  0.42194293267E+02  0.00000000000E+00 0.  1.
          1   -1    0    0  501    0  0.00000000000E+00 -0.00000000000E+00 -0.40062654041E+03  0.40062654041E+03  0.00000000000E+00 0. -1.
         23    2    1    2    0    0  0.37987120497E+02  0.55630422662E+02 -0.15868388807E+03  0.21299475215E+03  0.12509365635E+03 0.  0.
          5    1    3    3  502    0  0.69786219765E+02  0.41896928524E+02 -0.42974629694E+02  0.92139895193E+02  0.41800000000E+01 0.  1.
         -5    1    3    3    0  502 -0.31799099267E+02  0.13733494138E+02 -0.11570925837E+03  0.12085485695E+03  0.41800000000E+01 0.  1.
        -11    1    1    2    0    0 -0.52576854854E+02 -0.66726757664E+02 -0.11417764183E+03  0.14231415864E+03  0.00000000000E+00 0.  1.
         11    1    1    2    0    0  0.14589734357E+02  0.11096335002E+02 -0.85570717243E+02  0.87511922894E+02  0.00000000000E+00 0. -1.
</event>
<event>
 7    1  0.9186126E-006  0.6437007E+02  0.7561462E-02  0.1380357E+00
         -1   -1    0    0    0  501 -0.00000000000E+00  0.00000000000E+00  0.20610333072E+02  0.20610333072E+02  0.00000000000E+00 0.  1.
          1   -1    0    0  501    0  0.00000000000E+00 -0.00000000000E+00 -0.29112775091E+03  0.29112775091E+03  0.00000000000E+00 0. -1.
         23    2    1    2    0    0  0.89470058905E+00  0.10046424650E+01 -0.15169508851E+03  0.19018192966E+03  0.11469941889E+03 0.  0.
          5    1    3    3  502    0  0.43510960382E+02 -0.27585270494E+02 -0.11751972110E+03  0.12838422048E+03  0.41800000000E+01 0. -1.
         -5    1    3    3    0  502 -0.42616259793E+02  0.28589912959E+02 -0.34175367413E+02  0.61797709177E+02  0.41800000000E+01 0.  1.
        -11    1    1    2    0    0  0.50204054304E+01 -0.12039480218E+02 -0.56119862684E+02  0.57615905289E+02  0.00000000000E+00 0. -1.
         11    1    1    2    0    0 -0.59151060194E+01  0.11034837753E+02 -0.62702466644E+02  0.63940249035E+02  0.00000000000E+00 0.  1.
</event>
<event>
 7    1  0.6671761E-006  0.1862126E+03  0.7561462E-02  0.1161922E+00
         -1   -1    0    0    0  501 -0.00000000000E+00  0.00000000000E+00  0.21049603052E+03  0.21049603052E+03  0.00000000000E+00 0.  1.
          1   -1    0    0  501    0  0.00000000000E+00 -0.00000000000E+00 -0.20205513531E+03  0.20205513531E+03  0.00000000000E+00 0. -1.
         23    2    1    2    0    0 -0.14773043052E+03 -0.39662973322E+02  0.90599671071E+02  0.21737799170E+03  0.12508980504E+03 0.  0.
          5    1    3    3  502    0 -0.51770570681E+02 -0.76804591868E+02  0.57977566709E+02  0.10935267698E+03  0.41800000000E+01 0. -1.
         -5    1    3    3    0  502 -0.95959859836E+02  0.37141618546E+02  0.32622104361E+02  0.10802531472E+03  0.41800000000E+01 0. -1.
        -11    1    1    2    0    0  0.28887145000E+02 -0.27781333641E+02 -0.23569980787E+02  0.46495307715E+02  0.00000000000E+00 0.  1.
         11    1    1    2    0    0  0.11884328552E+03  0.67444306963E+02 -0.58588795068E+02  0.14867786642E+03  0.00000000000E+00 0. -1.
</event>
<event>
 7    1  0.6671761E-006  0.9735987E+02  0.7561462E-02  0.1285948E+00
         -2   -1    0    0    0  501 -0.00000000000E+00  0.00000000000E+00  0.23903530448E+02  0.23903530448E+02  0.00000000000E+00 0.  1.
          2   -1    0    0  501    0  0.00000000000E+00 -0.00000000000E+00 -0.70474829454E+03  0.70474829454E+03  0.00000000000E+00 0. -1.
         23    2    1    2    0    0  0.18972001363E+01  0.39483157886E+02 -0.22597158656E+03  0.26129112858E+03  0.12508947525E+03 0.  0.
          5    1    3    3  502    0  0.19265281182E+02 -0.18762494945E+02 -0.18699823212E+03  0.18896823408E+03  0.41800000000E+01 0.  1.
         -5    1    3    3    0  502 -0.17368081046E+02  0.58245652831E+02 -0.38973354440E+02  0.72322894502E+02  0.41800000000E+01 0.  1.
        -11    1    1    2    0    0  0.22244434357E+02 -0.66634424835E+02 -0.27295401284E+03  0.28184899248E+03  0.00000000000E+00 0.  1.
         11    1    1    2    0    0 -0.24141634493E+02  0.27151266949E+02 -0.18191916468E+03  0.18551170392E+03  0.00000000000E+00 0. -1.
</event>
<event>
 7    1  0.6671761E-006  0.1076366E+03  0.7561462E-02  0.1265010E+00
         -2   -1    0    0    0  501 -0.00000000000E+00  0.00000000000E+00  0.14974075103E+03  0.14974075103E+03  0.00000000000E+00 0.  1.
          2   -1    0    0  501    0  0.00000000000E+00 -0.00000000000E+00 -0.11899060678E+03  0.11899060678E+03  0.00000000000E+00 0. -1.
         23    2    1    2    0    0 -0.46041353624E+02 -0.54997577232E+01  0.79101736948E+02  0.15509922806E+03  0.12509449300E+03 0.  0.
          5    1    3    3  502    0 -0.51401502765E+02 -0.58874217109E+02  0.57503493264E+02  0.97120605766E+02  0.41800000000E+01 0. -1.
         -5    1    3    3    0  502  0.53601491409E+01  0.53374459386E+02  0.21598243683E+02  0.57978622299E+02  0.41800000000E+01 0.  1.
        -11    1    1    2    0    0  0.59497579337E+02 -0.12430662067E+02 -0.49423978016E+00  0.60784270822E+02  0.00000000000E+00 0.  1.
         11    1    1    2    0    0 -0.13456225713E+02  0.17930419790E+02 -0.47857352922E+02  0.52847858926E+02  0.00000000000E+00 0. -1.
</event>
<event>
 7    1  0.6671761E-006  0.9898055E+02  0.7561462E-02  0.1282454E+00
          2   -1    0    0  501    0  0.00000000000E+00  0.00000000000E+00  0.90315656371E+02  0.90315656371E+02  0.00000000000E+00 0. -1.
         -2   -1    0    0    0  501 -0.00000000000E+00 -0.00000000000E+00 -0.11596121068E+03  0.11596121068E+03  0.00000000000E+00 0.  1.
         23    2    1    2    0    0  0.93093118857E+00  0.26246547731E+01 -0.30166048917E+02  0.11565244264E+03  0.11161425329E+03 0.  0.
          5    1    3    3  502    0  0.55579109944E+02  0.36720193909E+00 -0.23140689138E+02  0.60350113448E+02  0.41800000000E+01 0. -1.
         -5    1    3    3    0  502 -0.54648178755E+02  0.22574528340E+01 -0.70253597791E+01  0.55302329197E+02  0.41800000000E+01 0.  1.
        -11    1    1    2    0    0  0.38629811172E+02  0.18155141521E+02  0.14044498064E+02  0.44934612502E+02  0.00000000000E+00 0. -1.
         11    1    1    2    0    0 -0.39560742361E+02 -0.20779796294E+02 -0.95240034580E+01  0.45689811906E+02  0.00000000000E+00 0.  1.
</event>
<event>
 7    1  0.6671761E-006  0.1002564E+03  0.7561462E-02  0.1279758E+00
         -1   -1    0    0    0  501 -0.00000000000E+00  0.00000000000E+00  0.30354788289E+03  0.30354788289E+03  0.00000000000E+00 0.  1.
          1   -1    0    0  501    0  0.00000000000E+00 -0.00000000000E+00 -0.14124503597E+03  0.14124503597E+03  0.00000000000E+00 0. -1.
         23    2    1    2    0    0 -0.31857118483E+02  0.52114985310E+02  0.26102281703E+03  0.29721215583E+03  0.12834058934E+03 0.  0.
          5    1    3    3  502    0  0.30237775845E+02  0.42323978476E+02  0.35647743158E+02  0.63197122042E+02  0.41800000000E+01 0. -1.
         -5    1    3    3    0  502 -0.62094894328E+02  0.97910068343E+01  0.22537507387E+03  0.23401503378E+03  0.41800000000E+01 0.  1.
        -11    1    1    2    0    0  0.59925410615E+01 -0.58403682845E+02 -0.16244350881E+02  0.60916169067E+02  0.00000000000E+00 0.  1.
         11    1    1    2    0    0  0.25864577422E+02  0.62886975342E+01 -0.82475619225E+02  0.86664593973E+02  0.00000000000E+00 0. -1.
</event>
<event>
 7    1  0.6671761E-006  0.1450157E+03  0.7561462E-02  0.1206735E+00
         -2   -1    0    0    0  501 -0.00000000000E+00  0.00000000000E+00  0.32448886530E+02  0.32448886530E+02  0.00000000000E+00 0.  1.
          2   -1    0    0  501    0  0.00000000000E+00 -0.00000000000E+00 -0.66320409667E+03  0.66320409667E+03  0.00000000000E+00 0. -1.
         23    2    1    2    0    0 -0.95686938856E+02 -0.29246330895E+02 -0.33052986983E+03  0.36729820290E+03  0.12508651752E+03 0.  0.
          5    1    3    3  502    0 -0.21323120132E+02 -0.70859545354E+02 -0.17143504007E+03  0.18677043659E+03  0.41800000000E+01 0.  1.
         -5    1    3    3    0  502 -0.74363818724E+02  0.41613214459E+02 -0.15909482976E+03  0.18052776631E+03  0.41800000000E+01 0.  1.
        -11    1    1    2    0    0  0.79189071283E+02  0.57511512991E+02 -0.19540916890E+03  0.21854799570E+03  0.00000000000E+00 0.  1.
         11    1    1    2    0    0  0.16497867573E+02 -0.28265182096E+02 -0.10481617141E+03  0.10980678459E+03  0.00000000000E+00 0. -1.
</event>
<event>
 7    1  0.6671761E-006  0.1614856E+03  0.7561462E-02  0.1187030E+00
         -1   -1    0    0    0  501 -0.00000000000E+00  0.00000000000E+00  0.87617772027E+02  0.87617772027E+02  0.00000000000E+00 0.  1.
          1   -1    0    0  501    0  0.00000000000E+00 -0.00000000000E+00 -0.33522444601E+03  0.33522444601E+03  0.00000000000E+00 0. -1.
         23    2    1    2    0    0 -0.24965136219E+02  0.12468957695E+03 -0.88471601439E+02  0.19911410026E+03  0.12509377297E+03 0.  0.
          5    1    3    3  502    0 -0.63880027883E+02  0.10822013036E+03 -0.34391048880E+02  0.13035517336E+03  0.41800000000E+01 0.  1.
         -5    1    3    3    0  502  0.38914891664E+02  0.16469446583E+02 -0.54080552560E+02  0.68758926905E+02  0.41800000000E+01 0.  1.
        -11    1    1    2    0    0 -0.29635082156E+02 -0.76156772817E+02 -0.10366914509E+03  0.13200524150E+03  0.00000000000E+00 0.  1.
         11    1    1    2    0    0  0.54600218375E+02 -0.48532804130E+02 -0.55465927455E+02  0.91722876273E+02  0.00000000000E+00 0. -1.
</event>
<event>
 7    1  0.6671761E-006  0.1019082E+03  0.7561462E-02  0.1276334E+00
         -3   -1    0    0    0  501 -0.00000000000E+00  0.00000000000E+00  0.20800423310E+03  0.20800423310E+03  0.00000000000E+00 0.  1.
          3   -1    0    0  501    0  0.00000000000E+00 -0.00000000000E+00 -0.74049421125E+02  0.74049421125E+02  0.00000000000E+00 0. -1.
         23    2    1    2    0    0  0.16293765760E+02 -0.46448160041E+01  0.14086816655E+03  0.18915684185E+03  0.12509759932E+03 0.  0.
          5    1    3    3  502    0  0.22061735490E+01  0.57728688464E+02  0.42844880459E+02  0.72045991249E+02  0.41800000000E+01 0. -1.
         -5    1    3    3    0  502  0.14087592211E+02 -0.62373504469E+02  0.98023286088E+02  0.11711085060E+03  0.41800000000E+01 0. -1.
        -11    1    1    2    0    0  0.14938816816E+02 -0.31005657925E+02  0.18545521756E+02  0.39095465829E+02  0.00000000000E+00 0. -1.
         11    1    1    2    0    0 -0.31232582575E+02  0.35650473929E+02 -0.25458876328E+02  0.53801346541E+02  0.00000000000E+00 0.  1.
</event>
<event>
 7    1  0.6671761E-006  0.1048554E+03  0.7561462E-02  0.1270405E+00
         -2   -1    0    0    0  501 -0.00000000000E+00  0.00000000000E+00  0.20330466828E+02  0.20330466828E+02  0.00000000000E+00 0.  1.
          2   -1    0    0  501    0  0.00000000000E+00 -0.00000000000E+00 -0.70434703408E+03  0.70434703408E+03  0.00000000000E+00 0. -1.
         23    2    1    2    0    0  0.34154897761E+02 -0.31673632406E+02 -0.32871436465E+03  0.35478098424E+03  0.12508651896E+03 0.  0.
          5    1    3    3  502    0 -0.41078282611E+02  0.15990698391E+02 -0.10501511682E+03  0.11396830655E+03  0.41800000000E+01 0. -1.
         -5    1    3    3    0  502  0.75233180373E+02 -0.47664330797E+02 -0.22369924783E+03  0.24081267769E+03  0.41800000000E+01 0. -1.
        -11    1    1    2    0    0 -0.33421401172E+02  0.48790768992E+02 -0.34472617658E+03  0.34976229930E+03  0.00000000000E+00 0. -1.
         11    1    1    2    0    0 -0.73349658884E+00 -0.17117136586E+02 -0.10576026024E+02  0.20134217358E+02  0.00000000000E+00 0.  1.
</event>
<event>
 7    1  0.6671761E-006  0.1075439E+03  0.7561462E-02  0.1265187E+00
         -3   -1    0    0    0  501 -0.00000000000E+00  0.00000000000E+00  0.31913221638E+03  0.31913221638E+03  0.00000000000E+00 0.  1.
          3   -1    0    0  501    0  0.00000000000E+00 -0.00000000000E+00 -0.44097866521E+02  0.44097866521E+02  0.00000000000E+00 0. -1.
         23    2    1    2    0    0 -0.88941802472E+01  0.32943812321E+02  0.20924070534E+03  0.24615773161E+03  0.12509018685E+03 0.  0.
          5    1    3    3  502    0  0.42771282201E+02 -0.24857714144E+02  0.59548519700E+02  0.77529266294E+02  0.41800000000E+01 0. -1.
         -5    1    3    3    0  502 -0.51665462449E+02  0.57801526466E+02  0.14969218564E+03  0.16862846532E+03  0.41800000000E+01 0. -1.
        -11    1    1    2    0    0 -0.17121683827E+02 -0.52522391070E+02  0.63883865302E+02  0.84456508729E+02  0.00000000000E+00 0.  1.
         11    1    1    2    0    0  0.26015864074E+02  0.19578578748E+02  0.19097792121E+01  0.32615842561E+02  0.00000000000E+00 0. -1.
</event>
<event>
 7    1  0.6671761E-006  0.1439214E+03  0.7561462E-02  0.1208148E+00
         -1   -1    0    0    0  501 -0.00000000000E+00  0.00000000000E+00  0.36160299799E+02  0.36160299799E+02  0.00000000000E+00 0.  1.
          1   -1    0    0  501    0  0.00000000000E+00 -0.00000000000E+00 -0.63881483020E+03  0.63881483020E+03  0.00000000000E+00 0. -1.
         23    2    1    2    0    0  0.22829232358E+02  0.92814767580E+02 -0.22246172585E+03  0.27253136725E+03  0.12509345202E+03 0.  0.
          5    1    3    3  502    0 -0.27936887961E+01  0.11980921900E+03 -0.17273753069E+03  0.21028024292E+03  0.41800000000E+01 0.  1.
         -5    1    3    3    0  502  0.25622921154E+02 -0.26994451421E+02 -0.49724195154E+02  0.62251124325E+02  0.41800000000E+01 0.  1.
        -11    1    1    2    0    0  0.34434260455E+02 -0.35462499162E+02 -0.17432438908E+03  0.18119685364E+03  0.00000000000E+00 0.  1.
         11    1    1    2    0    0 -0.57263492812E+02 -0.57352268419E+02 -0.20586841547E+03  0.22124690911E+03  0.00000000000E+00 0. -1.
</event>
<event>
 7    1  0.7425739E-006  0.1166328E+03  0.7561462E-02  0.1248758E+00
         -1   -1    0    0    0  501 -0.00000000000E+00  0.00000000000E+00  0.81108569788E+02  0.81108569788E+02  0.00000000000E+00 0.  1.
          1   -1    0    0  501    0  0.00000000000E+00 -0.00000000000E+00 -0.36030961211E+03  0.36030961211E+03  0.00000000000E+00 0. -1.
         23    2    1    2    0    0 -0.43071928500E+02 -0.98199283604E+02 -0.46432863082E+02  0.17117736544E+03  0.12508952530E+03 0.  0.
          5    1    3    3  502    0 -0.26087201687E+02 -0.77441879231E+02  0.32244805143E+02  0.87948772643E+02  0.41800000000E+01 0. -1.
         -5    1    3    3    0  502 -0.16984726814E+02 -0.20757404374E+02 -0.78677668225E+02  0.83228592795E+02  0.41800000000E+01 0. -1.
        -11    1    1    2    0    0  0.49291688218E+02  0.34196595299E+02 -0.55720528562E+02  0.81877072253E+02  0.00000000000E+00 0.  1.
         11    1    1    2    0    0 -0.62197597180E+01  0.64002688305E+02 -0.17704765068E+03  0.18836374421E+03  0.00000000000E+00 0. -1.
</event>
<event>
 7    1  0.6671761E-006  0.1388721E+03  0.7561462E-02  0.1214855E+00
          2   -1    0    0  501    0  0.00000000000E+00  0.00000000000E+00  0.68072046617E+03  0.68072046617E+03  0.00000000000E+00 0. -1.
         -2   -1    0    0    0  501 -0.00000000000E+00 -0.00000000000E+00 -0.39941850432E+02  0.39941850432E+02  0.00000000000E+00 0.  1.
         23    2    1    2    0    0  0.25578470647E+02  0.11577455685E+03  0.33011291517E+03  0.37239938255E+03  0.12509499267E+03 0.  0.
          5    1    3    3  502    0  0.25074654870E+02  0.59730531069E+02  0.38612785218E+02  0.75530750300E+02  0.41800000000E+01 0. -1.
         -5    1    3    3    0  502  0.50381577773E+00  0.56044025782E+02  0.29150012995E+03  0.29686863225E+03  0.41800000000E+01 0. -1.
        -11    1    1    2    0    0 -0.21181192250E+02  0.14888422895E+02  0.39536892996E+02  0.47259643981E+02  0.00000000000E+00 0. -1.
         11    1    1    2    0    0 -0.43972783976E+01 -0.13066297975E+03  0.27112880757E+03  0.30100329007E+03  0.00000000000E+00 0.  1.
</event>
<event>
 7    1  0.6671761E-006  0.1196254E+03  0.7561462E-02  0.1243716E+00
          3   -1    0    0  501    0  0.00000000000E+00  0.00000000000E+00  0.41592146140E+03  0.41592146140E+03  0.00000000000E+00 0. -1.
         -3   -1    0    0    0  501 -0.00000000000E+00 -0.00000000000E+00 -0.62202203540E+02  0.62202203540E+02  0.00000000000E+00 0.  1.
         23    2    1    2    0    0 -0.59842572211E+02 -0.32023888218E+02  0.45839521270E+02  0.14951784402E+03  0.12509061158E+03 0.  0.
          5    1    3    3  502    0 -0.42484909065E+02  0.38175264796E+02  0.51289460977E+02  0.76879122965E+02  0.41800000000E+01 0.  1.
         -5    1    3    3    0  502 -0.17357663146E+02 -0.70199153014E+02 -0.54499397076E+01  0.72638721055E+02  0.41800000000E+01 0.  1.
        -11    1    1    2    0    0  0.70319675090E+02 -0.55516853455E+01  0.14676926829E+03  0.16284009343E+03  0.00000000000E+00 0.  1.
         11    1    1    2    0    0 -0.10477102879E+02  0.37575573563E+02  0.16111046831E+03  0.16576572750E+03  0.00000000000E+00 0. -1.
</event>
<event>
 7    1  0.6671761E-006  0.1196391E+03  0.7561462E-02  0.1243694E+00
         -2   -1    0    0    0  501 -0.00000000000E+00  0.00000000000E+00  0.43988546701E+03  0.43988546701E+03  0.00000000000E+00 0.  1.
          2   -1    0    0  501    0  0.00000000000E+00 -0.00000000000E+00 -0.34433875056E+02  0.34433875056E+02  0.00000000000E+00 0. -1.
         23    2    1    2    0    0 -0.39207385865E+02  0.22702099377E+02  0.25688272909E+03  0.28929027932E+03  0.12509006667E+03 0.  0.
          5    1    3    3  502    0 -0.27674472050E+02 -0.49329247421E+02  0.14461067213E+03  0.15533502486E+03  0.41800000000E+01 0.  1.
         -5    1    3    3    0  502 -0.11532913815E+02  0.72031346798E+02  0.11227205696E+03  0.13395525446E+03  0.41800000000E+01 0.  1.
        -11    1    1    2    0    0 -0.13487416734E+02 -0.48843036668E+02  0.79874965017E+02  0.94591557116E+02  0.00000000000E+00 0. -1.
         11    1    1    2    0    0  0.52694802599E+02  0.26140937291E+02  0.68693897842E+02  0.90437505628E+02  0.00000000000E+00 0.  1.
</event>
<event>
 6    1  0.6671761E-006  0.3761397E+03  0.7561462E-02  0.1052370E+00
          2   -1    0    0  501    0  0.00000000000E+00  0.00000000000E+00  0.14875716338E+03  0.14875716338E+03  0.00000000000E+00 0. -1.
         -2   -1    0    0    0  501 -0.00000000000E+00 -0.00000000000E+00 -0.10205634351E+04  0.10205634351E+04  0.00000000000E+00 0.  1.
          5    1    1    2  502    0 -0.15793262151E+02  0.62234167519E+02 -0.61059084586E+02  0.88702891422E+02  0.41800000000E+01 0. -1.
         -5    1    1    2    0  502 -0.28057202513E+03  0.14592681551E+03 -0.51402952794E+03  0.60353883452E+03  0.41800000000E+01 0.  1.
        -11    1    1    2    0    0  0.27327678827E+03 -0.15612848074E+03 -0.23271522338E+03  0.39142391432E+03  0.00000000000E+00 0. -1.
         11    1    1    2    0    0  0.23088499011E+02 -0.52032502290E+02 -0.64002435846E+02  0.85654958265E+02  0.00000000000E+00 0.  1.
</event>
<event>
 7    1  0.6671761E-006  0.1005089E+03  0.7561462E-02  0.1279229E+00
          1   -1    0    0  501    0  0.00000000000E+00  0.00000000000E+00  0.37923105309E+03  0.37923105309E+03  0.00000000000E+00 0. -1.
         -1   -1    0    0    0  501 -0.00000000000E+00 -0.00000000000E+00 -0.38907354121E+02  0.38907354121E+02  0.00000000000E+00 0.  1.
         23    2    1    2    0    0  0.46996931936E+02 -0.20895207822E+02  0.14947224577E+03  0.20157615422E+03  0.12508266215E+03 0.  0.
          5    1    3    3  502    0  0.86470639935E+02  0.47527198237E+01  0.83079067029E+02  0.12008065496E+03  0.41800000000E+01 0. -1.
         -5    1    3    3    0  502 -0.39473708000E+02 -0.25647927645E+02  0.66393178744E+02  0.81495499259E+02  0.41800000000E+01 0. -1.
        -11    1    1    2    0    0 -0.35767664343E+02 -0.74787389884E+01  0.18076785665E+03  0.18442417235E+03  0.00000000000E+00 0. -1.
         11    1    1    2    0    0 -0.11229267592E+02  0.28373946810E+02  0.10083596547E+02  0.32138080645E+02  0.00000000000E+00 0.  1.
</event>
<event>
 7    1  0.6671761E-006  0.1117351E+03  0.7561462E-02  0.1257390E+00
          2   -1    0    0  501    0  0.00000000000E+00  0.00000000000E+00  0.16831034575E+03  0.16831034575E+03  0.00000000000E+00 0. -1.
         -2   -1    0    0    0  501 -0.00000000000E+00 -0.00000000000E+00 -0.10665289284E+03  0.10665289284E+03  0.00000000000E+00 0.  1.
         23    2    1    2    0    0  0.52836025079E+02  0.41863964136E+02  0.74149918106E+02  0.16028263472E+03  0.12509226833E+03 0.  0.
          5    1    3    3  502    0  0.64687973656E+02 -0.18941243439E+02  0.71183120273E+02  0.98121422994E+02  0.41800000000E+01 0. -1.
         -5    1    3    3    0  502 -0.11851948576E+02  0.60805207574E+02  0.29667978333E+01  0.62161211721E+02  0.41800000000E+01 0. -1.
        -11    1    1    2    0    0 -0.29313564262E+01 -0.43805877194E+02  0.26533297348E+02  0.51298767971E+02  0.00000000000E+00 0. -1.
         11    1    1    2    0    0 -0.49904668653E+02  0.19419130582E+01 -0.39025762543E+02  0.63381835898E+02  0.00000000000E+00 0.  1.
</event>
<event>
 7    1  0.6671761E-006  0.1081634E+03  0.7561462E-02  0.1264009E+00
          2   -1    0    0  501    0  0.00000000000E+00  0.00000000000E+00  0.45322906180E+02  0.45322906180E+02  0.00000000000E+00 0. -1.
         -2   -1    0    0    0  501 -0.00000000000E+00 -0.00000000000E+00 -0.28866065316E+03  0.28866065316E+03  0.00000000000E+00 0.  1.
         23    2    1    2    0    0 -0.58116115334E+01 -0.20413376845E+02 -0.18235755987E+03  0.22215971440E+03  0.12510067256E+03 0.  0.
          5    1    3    3  502    0 -0.64410090014E+02 -0.68215624930E+01 -0.11247037123E+03  0.12985472735E+03  0.41800000000E+01 0.  1.
         -5    1    3    3    0  502  0.58598478481E+02 -0.13591814352E+02 -0.69887188640E+02  0.92304987046E+02  0.41800000000E+01 0.  1.
        -11    1    1    2    0    0 -0.39292291300E+02  0.23721348894E+02 -0.17598333457E+02  0.49155751336E+02  0.00000000000E+00 0. -1.
         11    1    1    2    0    0  0.45103902834E+02 -0.33079720495E+01 -0.43381853652E+02  0.62668093606E+02  0.00000000000E+00 0.  1.
</event>
<event>
 7    1  0.6671761E-006  0.6096102E+02  0.7561462E-02  0.1393842E+00
         -2   -1    0    0    0  501 -0.00000000000E+00  0.00000000000E+00  0.80594182074E+02  0.80594182074E+02  0.00000000000E+00 0. -1.
          2   -1    0    0  501    0  0.00000000000E+00 -0.00000000000E+00 -0.18499915574E+03  0.18499915574E+03  0.00000000000E+00 0.  1.
         23    2    1    2    0    0 -0.48108372616E+02  0.28740505533E+02 -0.42958264340E+02  0.14364200998E+03  0.12508869805E+03 0.  0.
          5    1    3    3  502    0 -0.11700056238E+02  0.26262313208E+02  0.42008137087E+02  0.51075986457E+02  0.41800000000E+01 0. -1.
         -5    1    3    3    0  502 -0.36408316377E+02  0.24781923243E+01 -0.84966401427E+02  0.92566023519E+02  0.41800000000E+01 0. -1.
        -11    1    1    2    0    0  0.25349601832E+02 -0.17071283095E+02 -0.83035879434E+02  0.88481570357E+02  0.00000000000E+00 0.  1.
         11    1    1    2    0    0  0.22758770783E+02 -0.11669222438E+02  0.21589170108E+02  0.33469757481E+02  0.00000000000E+00 0. -1.
</event>
<event>
 6    1  0.6671761E-006  0.1935141E+03  0.7561462E-02  0.1155329E+00
          2   -1    0    0  501    0  0.00000000000E+00  0.00000000000E+00  0.54018091228E+03  0.54018091228E+03  0.00000000000E+00 0. -1.
         -2   -1    0    0    0  501 -0.00000000000E+00 -0.00000000000E+00 -0.12234463007E+03  0.12234463007E+03  0.00000000000E+00 0.  1.
          5    1    1    2  502    0  0.11613034658E+02  0.54389246553E+02  0.79825728221E+02  0.97379012116E+02  0.41800000000E+01 0. -1.
         -5    1    1    2    0  502  0.26729578600E+01  0.13784194205E+03 -0.28816977602E+02  0.14090931939E+03  0.41800000000E+01 0.  1.
        -11    1    1    2    0    0  0.28778200408E+01 -0.15718675524E+02 -0.87248127638E+00  0.16003744312E+02  0.00000000000E+00 0.  1.
         11    1    1    2    0    0 -0.17163812559E+02 -0.17651251308E+03  0.36770001287E+03  0.40823346654E+03  0.00000000000E+00 0. -1.
</event>
<event>
 7    1  0.6671761E-006  0.1454693E+03  0.7561462E-02  0.1206153E+00
          1   -1    0    0  501    0  0.00000000000E+00  0.00000000000E+00  0.23713233494E+03  0.23713233494E+03  0.00000000000E+00 0. -1.
         -1   -1    0    0    0  501 -0.00000000000E+00 -0.00000000000E+00 -0.10622175136E+03  0.10622175136E+03  0.00000000000E+00 0.  1.
         23    2    1    2    0    0 -0.78697719816E+02 -0.64068291128E+02  0.12552020386E+02  0.16156965615E+03  0.12509645695E+03 0.  0.
          5    1    3    3  502    0 -0.85617453164E+02 -0.95554067804E+02  0.13288950894E+02  0.12905423967E+03  0.41800000000E+01 0. -1.
         -5    1    3    3    0  502  0.69197333477E+01  0.31485776676E+02 -0.73693050788E+00  0.32515416483E+02  0.41800000000E+01 0. -1.
        -11    1    1    2    0    0  0.63854407511E+00  0.50896630066E+02  0.18061089421E+02  0.54009977242E+02  0.00000000000E+00 0.  1.
         11    1    1    2    0    0  0.78059175741E+02  0.13171661061E+02  0.10029747377E+03  0.12777445291E+03  0.00000000000E+00 0. -1.
</event>
<event>
 7    1  0.6671761E-006  0.1534360E+03  0.7561462E-02  0.1196313E+00
         -2   -1    0    0    0  501 -0.00000000000E+00  0.00000000000E+00  0.42376860100E+02  0.42376860100E+02  0.00000000000E+00 0.  1.
          2   -1    0    0  501    0  0.00000000000E+00 -0.00000000000E+00 -0.66629349233E+03  0.66629349233E+03  0.00000000000E+00 0. -1.
         23    2    1    2    0    0  0.95032610373E+02  0.66612643881E+02 -0.22139215357E+03  0.27951772481E+03  0.12508889424E+03 0.  0.
          5    1    3    3  502    0 -0.86131381175E+01  0.56303585546E+02 -0.12547897536E+03  0.13786488150E+03  0.41800000000E+01 0.  1.
         -5    1    3    3    0  502  0.10364574849E+03  0.10309058335E+02 -0.95913178215E+02  0.14165284331E+03  0.41800000000E+01 0.  1.
        -11    1    1    2    0    0 -0.56199224406E+02  0.12335565209E+02 -0.20496135728E+03  0.21288418676E+03  0.00000000000E+00 0.  1.
         11    1    1    2    0    0 -0.38833385967E+02 -0.78948209090E+02 -0.19756312138E+03  0.21626844086E+03  0.00000000000E+00 0. -1.
</event>
<event>
 7    1  0.6671761E-006  0.1376910E+03  0.7561462E-02  0.1216470E+00
          2   -1    0    0  501    0  0.00000000000E+00  0.00000000000E+00  0.14245406437E+03  0.14245406437E+03  0.00000000000E+00 0.  1.
         -2   -1    0    0    0  501 -0.00000000000E+00 -0.00000000000E+00 -0.26719879855E+03  0.26719879855E+03  0.00000000000E+00 0. -1.
         23    2    1    2    0    0 -0.72556234593E+02 -0.87693389489E+02 -0.18093812392E+03  0.24766547550E+03  0.12508015561E+03 0.  0.
          5    1    3    3  502    0  0.62023118221E+01 -0.43377906452E+02  0.14840977916E+01  0.44043006100E+02  0.41800000000E+01 0. -1.
         -5    1    3    3    0  502 -0.78758546415E+02 -0.44315483038E+02 -0.18242222171E+03  0.20362246940E+03  0.41800000000E+01 0. -1.
        -11    1    1    2    0    0  0.91151209098E+02  0.77772662967E+02  0.68058735056E+02  0.13780102119E+03  0.00000000000E+00 0.  1.
         11    1    1    2    0    0 -0.18594974505E+02  0.99207265226E+01 -0.11865345310E+02  0.24186366219E+02  0.00000000000E+00 0. -1.
</event>
<event>
 7    1  0.6671761E-006  0.1291762E+03  0.7561462E-02  0.1228683E+00
          1   -1    0    0  501    0  0.00000000000E+00  0.00000000000E+00  0.74591093756E+03  0.74591093756E+03  0.00000000000E+00 0. -1.
         -1   -1    0    0    0  501 -0.00000000000E+00 -0.00000000000E+00 -0.46429225622E+02  0.46429225622E+02  0.00000000000E+00 0.  1.
         23    2    1    2    0    0  0.81880136668E+01 -0.92546858235E+02  0.11535937798E+03  0.19387421016E+03  0.12508980271E+03 0.  0.
          5    1    3    3  502    0  0.48514098901E+02 -0.40493463522E+02  0.11094443801E+03  0.12774771663E+03  0.41800000000E+01 0.  1.
         -5    1    3    3    0  502 -0.40326085234E+02 -0.52053394713E+02  0.44149399686E+01  0.66126493528E+02  0.41800000000E+01 0.  1.
        -11    1    1    2    0    0 -0.48320755415E+02  0.62004918848E+02  0.39420219641E+03  0.40196377576E+03  0.00000000000E+00 0.  1.
         11    1    1    2    0    0  0.40132741748E+02  0.30541939387E+02  0.18992013755E+03  0.19650217726E+03  0.00000000000E+00 0. -1.
</event>
<event>
 7    1  0.6671761E-006  0.6383132E+02  0.7561462E-02  0.1382422E+00
          2   -1    0    0  501    0  0.00000000000E+00  0.00000000000E+00  0.21321467074E+03  0.21321467074E+03  0.00000000000E+00 0. -1.
         -2   -1    0    0    0  501 -0.00000000000E+00 -0.00000000000E+00 -0.64617268726E+02  0.64617268726E+02  0.00000000000E+00 0.  1.
         23    2    1    2    0    0 -0.26769515869E+02  0.24222725621E+02  0.54427593574E+02  0.14111623178E+03  0.12509228798E+03 0.  0.
          5    1    3    3  502    0 -0.28617965888E+02 -0.96592589462E+01  0.88040568941E+02  0.93171365958E+02  0.41800000000E+01 0. -1.
         -5    1    3    3    0  502  0.18484500195E+01  0.33881984567E+02 -0.33612975367E+02  0.47944865822E+02  0.41800000000E+01 0. -1.
        -11    1    1    2    0    0 -0.85588495152E+01  0.10432172184E+02 -0.12958972216E+02  0.18708796925E+02  0.00000000000E+00 0.  1.
         11    1    1    2    0    0  0.35328365384E+02 -0.34654897805E+02  0.10712878065E+03  0.11800691076E+03  0.00000000000E+00 0. -1.
</event>
<event>
 6    1  0.6671761E-006  0.1414093E+03  0.7561462E-02  0.1211445E+00
          1   -1    0    0  501    0  0.00000000000E+00  0.00000000000E+00  0.98365494736E+03  0.98365494736E+03  0.00000000000E+00 0. -1.
         -1   -1    0    0    0  501 -0.00000000000E+00 -0.00000000000E+00 -0.24085205566E+02  0.24085205566E+02  0.00000000000E+00 0.  1.
          5    1    1    2  502    0  0.65926493867E+02  0.13665608353E+02  0.31465460050E+03  0.32180435277E+03  0.41800000000E+01 0. -1.
         -5    1    1    2    0  502 -0.11954299653E+03  0.28646942328E+01  0.25504852903E+03  0.28171964619E+03  0.41800000000E+01 0.  1.
        -11    1    1    2    0    0  0.11521190788E+02 -0.43974851043E+02  0.97682682219E+02  0.10774243253E+03  0.00000000000E+00 0. -1.
         11    1    1    2    0    0  0.42095311880E+02  0.27444548457E+02  0.29218393005E+03  0.29647372143E+03  0.00000000000E+00 0.  1.
</event>
<event>
 7    1  0.6671761E-006  0.1508731E+03  0.7561462E-02  0.1199404E+00
         -1   -1    0    0    0  501 -0.00000000000E+00  0.00000000000E+00  0.23871532679E+03  0.23871532679E+03  0.00000000000E+00 0.  1.
          1   -1    0    0  501    0  0.00000000000E+00 -0.00000000000E+00 -0.10495597610E+03  0.10495597610E+03  0.00000000000E+00 0. -1.
         23    2    1    2    0    0  0.22631904374E+02 -0.11119522541E+03  0.93647471923E+02  0.19311566372E+03  0.12508888570E+03 0.  0.
          5    1    3    3  502    0  0.70472617910E+02 -0.51328975169E+02  0.26712671051E+02  0.91280297773E+02  0.41800000000E+01 0.  1.
         -5    1    3    3    0  502 -0.47840713536E+02 -0.59866250242E+02  0.66934800872E+02  0.10183536595E+03  0.41800000000E+01 0.  1.
        -11    1    1    2    0    0 -0.44353071931E+02  0.29710538080E+02 -0.71878849873E+01  0.53866285869E+02  0.00000000000E+00 0.  1.
         11    1    1    2    0    0  0.21721167557E+02  0.81484687331E+02  0.47299763753E+02  0.96689353295E+02  0.00000000000E+00 0. -1.
</event>
<event>
 7    1  0.6671761E-006  0.7340901E+02  0.7561462E-02  0.1348870E+00
          2   -1    0    0  501    0  0.00000000000E+00  0.00000000000E+00  0.15735388998E+02  0.15735388998E+02  0.00000000000E+00 0.  1.
         -2   -1    0    0    0  501 -0.00000000000E+00 -0.00000000000E+00 -0.94119687940E+03  0.94119687940E+03  0.00000000000E+00 0. -1.
         23    2    1    2    0    0  0.39799904181E+02  0.34440243824E+02 -0.58044300619E+03  0.59609627351E+03  0.12508605472E+03 0.  0.
          5    1    3    3  502    0  0.10548783674E+02  0.29216575242E+02 -0.25671840218E+02  0.40514205978E+02  0.41800000000E+01 0. -1.
         -5    1    3    3    0  502  0.29251120507E+02  0.52236685813E+01 -0.55477116598E+03  0.55558206753E+03  0.41800000000E+01 0. -1.
        -11    1    1    2    0    0  0.93719639552E+00  0.18581326784E+02 -0.14407240504E+02  0.23531099020E+02  0.00000000000E+00 0.  1.
         11    1    1    2    0    0 -0.40737100577E+02 -0.53021570608E+02 -0.33061124370E+03  0.33730489587E+03  0.00000000000E+00 0. -1.
</event>
<event>
 6    1  0.6671761E-006  0.1053066E+03  0.7561462E-02  0.1269517E+00
          3   -1    0    0  501    0  0.00000000000E+00  0.00000000000E+00  0.49012069686E+03  0.49012069686E+03  0.00000000000E+00 0. -1.
         -3   -1    0    0    0  501 -0.00000000000E+00 -0.00000000000E+00 -0.32104409438E+02  0.32104409438E+02  0.00000000000E+00 0.  1.
          5    1    1    2  502    0  0.28742829378E+02 -0.23056229047E+02  0.13741755709E+03  0.14233340204E+03  0.41800000000E+01 0. -1.
         -5    1    1    2    0  502 -0.31718097414E+02  0.77868737539E+02  0.77421747824E+02  0.11437297507E+03  0.41800000000E+01 0.  1.
        -11    1    1    2    0    0 -0.23660806344E+02 -0.57882984423E+02  0.87489108131E+02  0.10753891242E+03  0.00000000000E+00 0. -1.
         11    1    1    2    0    0  0.26636074380E+02  0.30704759302E+01  0.15568787437E+03  0.15797981677E+03  0.00000000000E+00 0.  1.
</event>
<event>
 7    1  0.6671761E-006  0.1382257E+03  0.7561462E-02  0.1215737E+00
          1   -1    0    0  501    0  0.00000000000E+00  0.00000000000E+00  0.16603138698E+03  0.16603138698E+03  0.00000000000E+00 0. -1.
         -1   -1    0    0    0  501 -0.00000000000E+00 -0.00000000000E+00 -0.15987982233E+03  0.15987982233E+03  0.00000000000E+00 0.  1.
         23    2    1    2    0    0 -0.10241830321E+03 -0.49759818828E+02 -0.49479113078E+02  0.16928643191E+03  0.11508329590E+03 0.  0.
          5    1    3    3  502    0  0.20720443176E+02  0.11370151104E+02 -0.34536936538E+01  0.24249072176E+02  0.41800000000E+01 0. -1.
         -5    1    3    3    0  502 -0.12313874638E+03 -0.61129969933E+02 -0.46025419424E+02  0.14503735973E+03  0.41800000000E+01 0.  1.
        -11    1    1    2    0    0  0.26551318873E+02  0.20698713063E+02 -0.25175784765E+02  0.42038427598E+02  0.00000000000E+00 0.  1.
         11    1    1    2    0    0  0.75866984332E+02  0.29061105766E+02  0.80806462501E+02  0.11458634981E+03  0.00000000000E+00 0. -1.
</event>
<event>
 7    1  0.6671761E-006  0.8741066E+02  0.7561462E-02  0.1309246E+00
         -1   -1    0    0    0  501 -0.00000000000E+00  0.00000000000E+00  0.36480502366E+02  0.36480502366E+02  0.00000000000E+00 0.  1.
          1   -1    0    0  501    0  0.00000000000E+00 -0.00000000000E+00 -0.43368928394E+03  0.43368928394E+03  0.00000000000E+00 0. -1.
         23    2    1    2    0    0  0.34488968564E+02  0.45611145777E+02 -0.17241203030E+03  0.22055134554E+03  0.12508845773E+03 0.  0.
          5    1    3    3  502    0  0.40927785636E+02  0.48345449625E+02 -0.19045367375E+03  0.20075467711E+03  0.41800000000E+01 0. -1.
         -5    1    3    3    0  502 -0.64388170718E+01 -0.27343038486E+01  0.18041643448E+02  0.19796668435E+02  0.41800000000E+01 0. -1.
        -11    1    1    2    0    0  0.10249259586E+02  0.20758585482E+02 -0.89250523551E+02  0.92204241482E+02  0.00000000000E+00 0.  1.
         11    1    1    2    0    0 -0.44738228150E+02 -0.66369731258E+02 -0.13554622772E+03  0.15741419928E+03  0.00000000000E+00 0. -1.
</event>
<event>
 7    1  0.6671761E-006  0.1047258E+03  0.7561462E-02  0.1270661E+00
          2   -1    0    0  501    0  0.00000000000E+00  0.00000000000E+00  0.68981364035E+02  0.68981364035E+02  0.00000000000E+00 0. -1.
         -2   -1    0    0    0  501 -0.00000000000E+00 -0.00000000000E+00 -0.22742616250E+03  0.22742616250E+03  0.00000000000E+00 0.  1.
         23    2    1    2    0    0 -0.51324985894E+02 -0.38145544785E+02 -0.11010446766E+03  0.17849238565E+03  0.12508877317E+03 0.  0.
          5    1    3    3  502    0  0.14916932454E+02 -0.63060686281E+02 -0.75557513047E+02  0.99627181060E+02  0.41800000000E+01 0.  1.
         -5    1    3    3    0  502 -0.66241918348E+02  0.24915141497E+02 -0.34546954613E+02  0.78865204592E+02  0.41800000000E+01 0.  1.
        -11    1    1    2    0    0  0.25381520152E+02  0.40257525642E+02  0.14620412131E+02  0.49786005935E+02  0.00000000000E+00 0. -1.
         11    1    1    2    0    0  0.25943465742E+02 -0.21119808574E+01 -0.62960742933E+02  0.68129134946E+02  0.00000000000E+00 0.  1.
</event>
<event>
 7    1  0.6671761E-006  0.1096146E+03  0.7561462E-02  0.1261285E+00
          1   -1    0    0  501    0  0.00000000000E+00  0.00000000000E+00  0.86572748561E+02  0.86572748561E+02  0.00000000000E+00 0. -1.
         -1   -1    0    0    0  501 -0.00000000000E+00 -0.00000000000E+00 -0.29294711569E+03  0.29294711569E+03  0.00000000000E+00 0.  1.
         23    2    1    2    0    0  0.62863276345E+02  0.38615052548E+02 -0.22599224038E+03  0.26863133195E+03  0.12508951194E+03 0.  0.
          5    1    3    3  502    0  0.90902196374E+02  0.44918606226E+02 -0.21469419166E+03  0.23746991141E+03  0.41800000000E+01 0.  1.
         -5    1    3    3    0  502 -0.28038920029E+02 -0.63035536779E+01 -0.11298048718E+02  0.31161420542E+02  0.41800000000E+01 0.  1.
        -11    1    1    2    0    0  0.41265137415E+01 -0.18220092968E+02 -0.22443849791E+02  0.29201477649E+02  0.00000000000E+00 0.  1.
         11    1    1    2    0    0 -0.66989790086E+02 -0.20394959580E+02  0.42061723043E+02  0.81687054650E+02  0.00000000000E+00 0. -1.
</event>
<event>
 7    1  0.6671761E-006  0.1060286E+03  0.7561462E-02  0.1268106E+00
          1   -1    0    0  501    0  0.00000000000E+00  0.00000000000E+00  0.14982573033E+03  0.14982573033E+03  0.00000000000E+00 0. -1.
         -1   -1    0    0    0  501 -0.00000000000E+00 -0.00000000000E+00 -0.92371106871E+02  0.92371106871E+02  0.00000000000E+00 0.  1.
         23    2    1    2    0    0  0.17064121785E+02 -0.35210547229E+02  0.33602681115E+02  0.13527501858E+03  0.12505688140E+03 0.  0.
          5    1    3    3  502    0 -0.16517616873E+02  0.36502091476E+02  0.38639853977E+02  0.55818859399E+02  0.41800000000E+01 0. -1.
         -5    1    3    3    0  502  0.33581738658E+02 -0.71712638704E+02 -0.50371728620E+01  0.79456159180E+02  0.41800000000E+01 0. -1.
        -11    1    1    2    0    0  0.77521619682E+01  0.58161451615E+02 -0.94949870909E+01  0.59439088561E+02  0.00000000000E+00 0.  1.
         11    1    1    2    0    0 -0.24816283753E+02 -0.22950904386E+02  0.33346929439E+02  0.47482730066E+02  0.00000000000E+00 0. -1.
</event>
<event>
 7    1  0.6671761E-006  0.1149754E+03  0.7561462E-02  0.1251624E+00
          1   -1    0    0  501    0  0.00000000000E+00  0.00000000000E+00  0.56807321401E+03  0.56807321401E+03  0.00000000000E+00 0. -1.
         -1   -1    0    0    0  501 -0.00000000000E+00 -0.00000000000E+00 -0.25980483368E+02  0.25980483368E+02  0.00000000000E+00 0.  1.
         23    2    1    2    0    0 -0.37842521690E+01  0.45071317997E+02  0.23206793156E+03  0.26748670465E+03  0.12509143870E+03 0.  0.
          5    1    3    3  502    0  0.32273863354E+02 -0.32213802422E+02  0.10314314993E+03  0.11285084448E+03  0.41800000000E+01 0. -1.
         -5    1    3    3    0  502 -0.36058115523E+02  0.77285120419E+02  0.12892478163E+03  0.15463586018E+03  0.41800000000E+01 0. -1.
        -11    1    1    2    0    0  0.34837722293E+02 -0.55917109135E+02  0.16105394466E+03  0.17400793970E+03  0.00000000000E+00 0.  1.
         11    1    1    2    0    0 -0.31053470124E+02  0.10845791138E+02  0.14897085442E+03  0.15255905302E+03  0.00000000000E+00 0. -1.
</event>
<event>
 7    1  0.6671761E-006  0.1039002E+03  0.7561462E-02  0.1272302E+00
          1   -1    0    0  501    0  0.00000000000E+00  0.00000000000E+00  0.27489157283E+03  0.27489157283E+03  0.00000000000E+00 0. -1.
         -1   -1    0    0    0  501 -0.00000000000E+00 -0.00000000000E+00 -0.60036504727E+02  0.60036504727E+02  0.00000000000E+00 0.  1.
         23    2    1    2    0    0 -0.57964342699E+02 -0.21502625017E+02  0.76476003592E+02  0.15911690266E+03  0.12508949469E+03 0.  0.
          5    1    3    3  502    0 -0.43627775647E+02  0.27233145676E+02  0.92300681354E+02  0.10574457532E+03  0.41800000000E+01 0.  1.
         -5    1    3    3    0  502 -0.14336567052E+02 -0.48735770693E+02 -0.15824677761E+02  0.53372327344E+02  0.41800000000E+01 0.  1.
        -11    1    1    2    0    0  0.22468289007E+02  0.53130510673E+02  0.54304531888E+02  0.79225358055E+02  0.00000000000E+00 0.  1.
         11    1    1    2    0    0  0.35496053692E+02 -0.31627885656E+02  0.84074532625E+02  0.96585816841E+02  0.00000000000E+00 0. -1.
</event>
<event>
 7    1  0.6671761E-006  0.1181588E+03  0.7561462E-02  0.1246166E+00
          3   -1    0    0  501    0  0.00000000000E+00  0.00000000000E+00  0.16978010595E+02  0.16978010595E+02  0.00000000000E+00 0. -1.
         -3   -1    0    0    0  501 -0.00000000000E+00 -0.00000000000E+00 -0.11465944645E+04  0.11465944645E+04  0.00000000000E+00 0.  1.
         23    2    1    2    0    0  0.73897580952E+02 -0.66954191845E-01 -0.83610003993E+03  0.84862939614E+03  0.12509084008E+03 0.  0.
          5    1    3    3  502    0 -0.23579560131E+02  0.83544157518E+01 -0.46390062007E+02  0.52870617280E+02  0.41800000000E+01 0. -1.
         -5    1    3    3    0  502  0.97477141083E+02 -0.84213699436E+01 -0.78970997792E+03  0.79575877886E+03  0.41800000000E+01 0. -1.
        -11    1    1    2    0    0 -0.40688696896E+02 -0.42631978358E+02 -0.17524111841E+03  0.18488511356E+03  0.00000000000E+00 0. -1.
         11    1    1    2    0    0 -0.33208884055E+02  0.42698932549E+02 -0.11827529554E+03  0.13005796537E+03  0.00000000000E+00 0.  1.
</event>
<event>
 7    1  0.6671761E-006  0.7414005E+02  0.7561462E-02  0.1346555E+00
         -2   -1    0    0    0  501 -0.00000000000E+00  0.00000000000E+00  0.33612544651E+02  0.33612544651E+02  0.00000000000E+00 0.  1.
          2   -1    0    0  501    0  0.00000000000E+00 -0.00000000000E+00 -0.32473875465E+03  0.32473875465E+03  0.00000000000E+00 0. -1.
         23    2    1    2    0    0 -0.91059635738E+01  0.14374013978E+02 -0.96970292763E+02  0.15918564080E+03  0.12508916702E+03 0.  0.
          5    1    3    3  502    0  0.46194887309E+02 -0.55787970675E+01 -0.12010508068E+01  0.46733344769E+02  0.41800000000E+01 0. -1.
         -5    1    3    3    0  502 -0.55300850883E+02  0.19952811046E+02 -0.95769241956E+02  0.11245229603E+03  0.41800000000E+01 0. -1.
        -11    1    1    2    0    0  0.24169327361E+02 -0.44248587424E+01 -0.13827565940E+03  0.14044178062E+03  0.00000000000E+00 0. -1.
         11    1    1    2    0    0 -0.15063363787E+02 -0.99491552360E+01 -0.55880257831E+02  0.58723877884E+02  0.00000000000E+00 0.  1.
</event>
<event>
 7    1  0.6671761E-006  0.1150695E+03  0.7561462E-02  0.1251460E+00
          1   -1    0    0  501    0  0.00000000000E+00  0.00000000000E+00  0.11486370168E+03  0.11486370168E+03  0.00000000000E+00 0. -1.
         -1   -1    0    0    0  501 -0.00000000000E+00 -0.00000000000E+00 -0.14928103408E+03  0.14928103408E+03  0.00000000000E+00 0.  1.
         23    2    1    2    0    0  0.40015086032E+02 -0.32444164697E+02 -0.70828471433E+02  0.15270129893E+03  0.12508870211E+03 0.  0.
          5    1    3    3  502    0 -0.39296622457E+02 -0.28913687680E+02 -0.51133527027E+02  0.70797852072E+02  0.41800000000E+01 0.  1.
         -5    1    3    3    0  502  0.79311708489E+02 -0.35304770164E+01 -0.19694944406E+02  0.81903446854E+02  0.41800000000E+01 0.  1.
        -11    1    1    2    0    0  0.10900572036E+02  0.47374960303E+02  0.29252037337E+01  0.48700781835E+02  0.00000000000E+00 0. -1.
         11    1    1    2    0    0 -0.50915658068E+02 -0.14930795606E+02  0.33485935298E+02  0.62742655002E+02  0.00000000000E+00 0.  1.
</event>
<event>
 7    1  0.6671761E-006  0.1106823E+03  0.7561462E-02  0.1259312E+00
         -1   -1    0    0    0  501 -0.00000000000E+00  0.00000000000E+00  0.39078076257E+02  0.39078076257E+02  0.00000000000E+00 0.  1.
          1   -1    0    0  501    0  0.00000000000E+00 -0.00000000000E+00 -0.49516683637E+03  0.49516683637E+03  0.00000000000E+00 0. -1.
         23    2    1    2    0    0  0.12184651741E+02 -0.43854590233E+02 -0.10703810996E+03  0.17081360691E+03  0.12509372686E+03 0.  0.
          5    1    3    3  502    0  0.44463524864E+02  0.19819395511E+02 -0.81222260031E+02  0.94785765842E+02  0.41800000000E+01 0. -1.
         -5    1    3    3    0  502 -0.32278873123E+02 -0.63673985743E+02 -0.25815849926E+02  0.76027841071E+02  0.41800000000E+01 0. -1.
        -11    1    1    2    0    0 -0.47764786170E+02  0.45559309156E+01 -0.17805034942E+03  0.18440216440E+03  0.00000000000E+00 0.  1.
         11    1    1    2    0    0  0.35580134429E+02  0.39298659317E+02 -0.17100030073E+03  0.17902914132E+03  0.00000000000E+00 0. -1.
</event>
<event>
 7    1  0.6671761E-006  0.2499795E+03  0.7561462E-02  0.1113318E+00
          1   -1    0    0  501    0  0.00000000000E+00  0.00000000000E+00  0.86627911144E+02  0.86627911144E+02  0.00000000000E+00 0.  1.
         -1   -1    0    0    0  501 -0.00000000000E+00 -0.00000000000E+00 -0.86085765118E+03  0.86085765118E+03  0.00000000000E+00 0. -1.
         23    2    1    2    0    0  0.24748713235E+03 -0.18412216871E+02 -0.45291539995E+03  0.53138483283E+03  0.12509432697E+03 0.  0.
          5    1    3    3  502    0  0.19850099719E+03 -0.20966217899E+02 -0.23679512534E+03  0.30972831960E+03  0.41800000000E+01 0.  1.
         -5    1    3    3    0  502  0.48986135158E+02  0.25540010283E+01 -0.21612027461E+03  0.22165651323E+03  0.41800000000E+01 0.  1.
        -11    1    1    2    0    0 -0.96673059835E+02  0.25891634025E+02 -0.19521025118E+03  0.21936977772E+03  0.00000000000E+00 0.  1.
         11    1    1    2    0    0 -0.15081407251E+03 -0.74794171539E+01 -0.12610408890E+03  0.19673095177E+03  0.00000000000E+00 0. -1.
</event>
<event>
 7    1  0.6671761E-006  0.1145264E+03  0.7561462E-02  0.1252410E+00
         -2   -1    0    0    0  501 -0.00000000000E+00  0.00000000000E+00  0.21196712772E+02  0.21196712772E+02  0.00000000000E+00 0. -1.
          2   -1    0    0  501    0  0.00000000000E+00 -0.00000000000E+00 -0.74006171163E+03  0.74006171163E+03  0.00000000000E+00 0.  1.
         23    2    1    2    0    0 -0.53567770724E+02 -0.24375831445E+02 -0.32612542362E+03  0.35421381515E+03  0.12508376271E+03 0.  0.
          5    1    3    3  502    0  0.92466039524E+00 -0.58524179035E+02 -0.23745866166E+03  0.24460176395E+03  0.41800000000E+01 0. -1.
         -5    1    3    3    0  502 -0.54492431119E+02  0.34148347590E+02 -0.88666761953E+02  0.10961205120E+03  0.41800000000E+01 0. -1.
        -11    1    1    2    0    0  0.78310613173E+02  0.17387049381E+02 -0.27118216569E+03  0.28279785822E+03  0.00000000000E+00 0. -1.
         11    1    1    2    0    0 -0.24742842450E+02  0.69887820640E+01 -0.12155740955E+03  0.12424675104E+03  0.00000000000E+00 0.  1.
</event>
<event>
 6    1  0.6671761E-006  0.1988991E+03  0.7561462E-02  0.1150671E+00
          2   -1    0    0  501    0  0.00000000000E+00  0.00000000000E+00  0.87326697238E+02  0.87326697238E+02  0.00000000000E+00 0. -1.
         -2   -1    0    0    0  501 -0.00000000000E+00 -0.00000000000E+00 -0.71359406339E+03  0.71359406339E+03  0.00000000000E+00 0.  1.
          5    1    1    2  502    0 -0.11621813916E+03  0.37977167167E+02 -0.12282118520E+03  0.17335350307E+03  0.41800000000E+01 0. -1.
         -5    1    1    2    0  502  0.19129771468E+02  0.95721401478E+02 -0.39828855544E+03  0.41009728194E+03  0.41800000000E+01 0.  1.
        -11    1    1    2    0    0  0.10711264194E+03 -0.12176164938E+03 -0.11520464551E+03  0.19892492973E+03  0.00000000000E+00 0.  1.
         11    1    1    2    0    0 -0.10024274252E+02 -0.11936919268E+02  0.10047019998E+02  0.18545045881E+02  0.00000000000E+00 0. -1.
</event>
<event>
 7    1  0.6671761E-006  0.9331452E+02  0.7561462E-02  0.1295018E+00
         -1   -1    0    0    0  501 -0.00000000000E+00  0.00000000000E+00  0.42830939685E+02  0.42830939685E+02  0.00000000000E+00 0.  1.
          1   -1    0    0  501    0  0.00000000000E+00 -0.00000000000E+00 -0.45137294234E+03  0.45137294234E+03  0.00000000000E+00 0. -1.
         23    2    1    2    0    0 -0.40984902919E+02  0.40566802906E+02 -0.10921503362E+03  0.17578682804E+03  0.12509059748E+03 0.  0.
          5    1    3    3  502    0 -0.15225770031E+02  0.65062184585E+02 -0.12084630211E+03  0.13815286124E+03  0.41800000000E+01 0.  1.
         -5    1    3    3    0  502 -0.25759132888E+02 -0.24495381679E+02  0.11631268483E+02  0.37633966802E+02  0.41800000000E+01 0.  1.
        -11    1    1    2    0    0  0.56489971930E+02 -0.24547792505E+02 -0.28575343697E+03  0.29231616067E+03  0.00000000000E+00 0. -1.
         11    1    1    2    0    0 -0.15505069010E+02 -0.16019010400E+02 -0.13573532057E+02  0.26100893313E+02  0.00000000000E+00 0.  1.
</event>
<event>
 7    1  0.6671761E-006  0.3065132E+03  0.7561462E-02  0.1082029E+00
          2   -1    0    0  501    0  0.00000000000E+00  0.00000000000E+00  0.11625148688E+04  0.11625148688E+04  0.00000000000E+00 0. -1.
         -2   -1    0    0    0  501 -0.00000000000E+00 -0.00000000000E+00 -0.89604392695E+02  0.89604392695E+02  0.00000000000E+00 0.  1.
         23    2    1    2    0    0 -0.29127399923E+03  0.49267109256E+02  0.41086189378E+03  0.52127067396E+03  0.12509128302E+03 0.  0.
          5    1    3    3  502    0  0.60298376299E+01  0.15869300515E+02  0.74312282177E+01  0.18997083816E+02  0.41800000000E+01 0. -1.
         -5    1    3    3    0  502 -0.29730383686E+03  0.33397808741E+02  0.40343066556E+03  0.50227359014E+03  0.41800000000E+01 0. -1.
        -11    1    1    2    0    0  0.16241786692E+03 -0.39262605511E+02  0.26489044309E+03  0.31319013798E+03  0.00000000000E+00 0.  1.
         11    1    1    2    0    0  0.12885613230E+03 -0.10004503745E+02  0.39715813926E+03  0.41765844959E+03  0.00000000000E+00 0. -1.
</event>
<event>
 6    1  0.6671761E-006  0.8265531E+02  0.7561462E-02  0.1321681E+00
         -2   -1    0    0    0  501 -0.00000000000E+00  0.00000000000E+00  0.48022908978E+02  0.48022908978E+02  0.00000000000E+00 0.  1.
          2   -1    0    0  501    0  0.00000000000E+00 -0.00000000000E+00 -0.44326717900E+03  0.44326717900E+03  0.00000000000E+00 0. -1.
          5    1    1    2  502    0 -0.36768030392E+02  0.12904591058E+02 -0.23656934297E+03  0.23979354237E+03  0.41800000000E+01 0. -1.
         -5    1    1    2    0  502  0.98406028905E+01 -0.28221472942E+02  0.27715256624E+02  0.40974343802E+02  0.41800000000E+01 0.  1.
        -11    1    1    2    0    0 -0.22096966982E+02 -0.24348180644E+02 -0.84795572482E+02  0.90947231751E+02  0.00000000000E+00 0. -1.
         11    1    1    2    0    0  0.49024394484E+02  0.39665062529E+02 -0.10159461119E+03  0.11957497005E+03  0.00000000000E+00 0.  1.
</event>
<event>
 7    1  0.6671761E-006  0.1199917E+03  0.7561462E-02  0.1243111E+00
          2   -1    0    0  501    0  0.00000000000E+00  0.00000000000E+00  0.32289319334E+03  0.32289319334E+03  0.00000000000E+00 0. -1.
         -2   -1    0    0    0  501 -0.00000000000E+00 -0.00000000000E+00 -0.68510627898E+02  0.68510627898E+02  0.00000000000E+00 0.  1.
         23    2    1    2    0    0 -0.78619282401E+02  0.53852472777E+02  0.92533820298E+02  0.18245755544E+03  0.12508865356E+03 0.  0.
          5    1    3    3  502    0 -0.92095772832E+01  0.71412343492E+02  0.95141383830E+01  0.72749779009E+02  0.41800000000E+01 0.  1.
         -5    1    3    3    0  502 -0.69409705118E+02 -0.17559870715E+02  0.83019681915E+02  0.10970777643E+03  0.41800000000E+01 0.  1.
        -11    1    1    2    0    0  0.55225092262E+02 -0.30511953862E+02  0.16411193968E+03  0.17582240725E+03  0.00000000000E+00 0.  1.
         11    1    1    2    0    0  0.23394190139E+02 -0.23340518915E+02 -0.22631945427E+01  0.33123858546E+02  0.00000000000E+00 0. -1.
</event>
<event>
 7    1  0.6671761E-006  0.1828311E+03  0.7561462E-02  0.1165091E+00
         -2   -1    0    0    0  501 -0.00000000000E+00  0.00000000000E+00  0.31553665543E+03  0.31553665543E+03  0.00000000000E+00 0.  1.
          2   -1    0    0  501    0  0.00000000000E+00 -0.00000000000E+00 -0.13218759317E+03  0.13218759317E+03  0.00000000000E+00 0. -1.
         23    2    1    2    0    0  0.13984903202E+03  0.97989765151E+02  0.11107550543E+03  0.23905097846E+03  0.12509139285E+03 0.  0.
          5    1    3    3  502    0  0.11837807669E+03  0.78492012471E+02  0.20148900534E+02  0.14351939122E+03  0.41800000000E+01 0. -1.
         -5    1    3    3    0  502  0.21470955327E+02  0.19497752680E+02  0.90926604900E+02  0.95531587241E+02  0.41800000000E+01 0. -1.
        -11    1    1    2    0    0 -0.85395743894E+02 -0.10924118046E+03  0.39693141938E+02  0.14422764680E+03  0.00000000000E+00 0.  1.
         11    1    1    2    0    0 -0.54453288126E+02  0.11251415313E+02  0.32580414883E+02  0.64445623344E+02  0.00000000000E+00 0. -1.
</event>
<event>
 7    1  0.6671761E-006  0.2668130E+03  0.7561462E-02  0.1103118E+00
          2   -1    0    0  501    0  0.00000000000E+00  0.00000000000E+00  0.60644443237E+03  0.60644443237E+03  0.00000000000E+00 0. -1.
         -2   -1    0    0    0  501 -0.00000000000E+00 -0.00000000000E+00 -0.12834483148E+03  0.12834483148E+03  0.00000000000E+00 0.  1.
         23    2    1    2    0    0 -0.77230190365E+02  0.24257376873E+03  0.20913555150E+03  0.35241026629E+03  0.12509508907E+03 0.  0.
          5    1    3    3  502    0 -0.59634582914E+02  0.54138496921E+02  0.11640926749E+03  0.14161867916E+03  0.41800000000E+01 0. -1.
         -5    1    3    3    0  502 -0.17595607451E+02  0.18843527181E+03  0.92726284007E+02  0.21079158714E+03  0.41800000000E+01 0. -1.
        -11    1    1    2    0    0  0.51738532345E+02 -0.22904094021E+03  0.20307036969E+03  0.31044194798E+03  0.00000000000E+00 0.  1.
         11    1    1    2    0    0  0.25491658020E+02 -0.13532828519E+02  0.65893679704E+02  0.71937049573E+02  0.00000000000E+00 0. -1.
</event>
<event>
 7    1  0.8846713E-006  0.3083783E+03  0.7561462E-02  0.1081126E+00
          2   -1    0    0  501    0  0.00000000000E+00  0.00000000000E+00  0.52369441624E+03  0.52369441624E+03  0.00000000000E+00 0. -1.
         -2   -1    0    0    0  501 -0.00000000000E+00 -0.00000000000E+00 -0.22188765481E+03  0.22188765481E+03  0.00000000000E+00 0.  1.
         23    2    1    2    0    0 -0.28021931441E+03  0.97232328962E+02  0.14106486720E+02  0.32221676132E+03  0.12509060054E+03 0.  0.
          5    1    3    3  502    0 -0.25914452845E+00  0.30360844386E+02  0.15505012474E+02  0.34347137283E+02  0.41800000000E+01 0.  1.
         -5    1    3    3    0  502 -0.27996016988E+03  0.66871484576E+02 -0.13985257541E+01  0.28786962403E+03  0.41800000000E+01 0.  1.
        -11    1    1    2    0    0  0.21863262416E+03 -0.61839414514E+02  0.16222649523E+03  0.27918053888E+03  0.00000000000E+00 0.  1.
         11    1    1    2    0    0  0.61586690244E+02 -0.35392914448E+02  0.12547377948E+03  0.14418477085E+03  0.00000000000E+00 0. -1.
</event>
<event>
 7    1  0.6671761E-006  0.8952236E+02  0.7561462E-02  0.1304013E+00
         -2   -1    0    0    0  501 -0.00000000000E+00  0.00000000000E+00  0.16197858550E+02  0.16197858550E+02  0.00000000000E+00 0.  1.
          2   -1    0    0  501    0  0.00000000000E+00 -0.00000000000E+00 -0.76604334871E+03  0.76604334871E+03  0.00000000000E+00 0. -1.
         23    2    1    2    0    0 -0.63773240071E+01 -0.16336528160E+02 -0.37328456961E+03  0.39407663838E+03  0.12508986607E+03 0.  0.
          5    1    3    3  502    0 -0.14523719560E+02  0.32261298617E+02 -0.28117559198E+02  0.45385012433E+02  0.41800000000E+01 0.  1.
         -5    1    3    3    0  502  0.81463955524E+01 -0.48597826777E+02 -0.34516701041E+03  0.34869162594E+03  0.41800000000E+01 0.  1.
        -11    1    1    2    0    0  0.23218000363E+02 -0.33839718056E+02 -0.17813544601E+03  0.18280163890E+03  0.00000000000E+00 0. -1.
         11    1    1    2    0    0 -0.16840676356E+02  0.50176246216E+02 -0.19842547454E+03  0.20536292999E+03  0.00000000000E+00 0.  1.
</event>
<event>
 7    1  0.6671761E-006  0.1784928E+03  0.7561462E-02  0.1169270E+00
          2   -1    0    0  501    0  0.00000000000E+00  0.00000000000E+00  0.45164474372E+03  0.45164474372E+03  0.00000000000E+00 0. -1.
         -2   -1    0    0    0  501 -0.00000000000E+00 -0.00000000000E+00 -0.91675967589E+02  0.91675967589E+02  0.00000000000E+00 0.  1.
         23    2    1    2    0    0  0.14702066072E+03  0.11927376817E+02  0.69678976889E+02  0.20556952580E+03  0.12508530338E+03 0.  0.
          5    1    3    3  502    0  0.15379341186E+03 -0.24783706262E+02  0.56579553660E+02  0.16578710421E+03  0.41800000000E+01 0. -1.
         -5    1    3    3    0  502 -0.67727511488E+01  0.36711083078E+02  0.13099423230E+02  0.39782421594E+02  0.41800000000E+01 0. -1.
        -11    1    1    2    0    0 -0.64148420092E+02 -0.40575524753E+02  0.81896824701E+02  0.11166236118E+03  0.00000000000E+00 0.  1.
         11    1    1    2    0    0 -0.82872240624E+02  0.28648147936E+02  0.20839297454E+03  0.22608882432E+03  0.00000000000E+00 0. -1.
</event>
<event>
 7    1  0.6671761E-006  0.2569744E+03  0.7561462E-02  0.1108975E+00
          1   -1    0    0  501    0  0.00000000000E+00  0.00000000000E+00  0.14823791596E+04  0.14823791596E+04  0.00000000000E+00 0. -1.
         -1   -1    0    0    0  501 -0.00000000000E+00 -0.00000000000E+00 -0.49309337278E+02  0.49309337278E+02  0.00000000000E+00 0.  1.
         23    2    1    2    0    0  0.60674070003E+02  0.23462502091E+03  0.59666996405E+03  0.65604252005E+03  0.12508596605E+03 0.  0.
          5    1    3    3  502    0 -0.79785910347E+01  0.18743585318E+03  0.44503929651E+03  0.48298375212E+03  0.41800000000E+01 0. -1.
         -5    1    3    3    0  502  0.68652661037E+02  0.47189167730E+02  0.15163066754E+03  0.17305876793E+03  0.41800000000E+01 0. -1.
        -11    1    1    2    0    0 -0.34609153495E+02 -0.10166864216E+03  0.22370594209E+03  0.24815046812E+03  0.00000000000E+00 0.  1.
         11    1    1    2    0    0 -0.26064916507E+02 -0.13295637875E+03  0.61269391618E+03  0.62749550871E+03  0.00000000000E+00 0. -1.
</event>
<event>
 7    1  0.6671761E-006  0.2324727E+03  0.7561462E-02  0.1124911E+00
          1   -1    0    0  501    0  0.00000000000E+00  0.00000000000E+00  0.37634477431E+03  0.37634477431E+03  0.00000000000E+00 0. -1.
         -1   -1    0    0    0  501 -0.00000000000E+00 -0.00000000000E+00 -0.19271755415E+03  0.19271755415E+03  0.00000000000E+00 0.  1.
         23    2    1    2    0    0  0.22795112124E+03 -0.15195362161E+02 -0.33148077741E+01  0.26048013845E+03  0.12508517847E+03 0.  0.
          5    1    3    3  502    0  0.20705650051E+03 -0.21163852460E+00  0.39049193344E+02  0.21074807495E+03  0.41800000000E+01 0.  1.
         -5    1    3    3    0  502  0.20894620726E+02 -0.14983723636E+02 -0.42364001118E+02  0.49732063501E+02  0.41800000000E+01 0.  1.
        -11    1    1    2    0    0 -0.11341205822E+03  0.27207956122E+02  0.14484069274E+03  0.18596073268E+03  0.00000000000E+00 0. -1.
         11    1    1    2    0    0 -0.11453906301E+03 -0.12012593962E+02  0.42101335201E+02  0.12262145732E+03  0.00000000000E+00 0.  1.
</event>
<event>
 7    1  0.6671761E-006  0.5079833E+02  0.7561462E-02  0.1441083E+00
         -1   -1    0    0    0  501 -0.00000000000E+00  0.00000000000E+00  0.23776908157E+03  0.23776908157E+03  0.00000000000E+00 0.  1.
          1   -1    0    0  501    0  0.00000000000E+00 -0.00000000000E+00 -0.16894113746E+03  0.16894113746E+03  0.00000000000E+00 0. -1.
         23    2    1    2    0    0  0.21467561965E+02  0.21042647059E+02  0.20260741833E+03  0.24000115881E+03  0.12508853289E+03 0.  0.
          5    1    3    3  502    0  0.18830483467E+02  0.84832022484E+01  0.21829322595E+03  0.21930790393E+03  0.41800000000E+01 0. -1.
         -5    1    3    3    0  502  0.26370784987E+01  0.12559444810E+02 -0.15685807627E+02  0.20693254888E+02  0.41800000000E+01 0. -1.
        -11    1    1    2    0    0 -0.30019498188E+02 -0.37766706484E+02 -0.21411741072E+02  0.52782165983E+02  0.00000000000E+00 0.  1.
         11    1    1    2    0    0  0.85519362227E+01  0.16724059426E+02 -0.11236773314E+03  0.11392689423E+03  0.00000000000E+00 0. -1.
</event>
<event>
 7    1  0.6671761E-006  0.1608829E+03  0.7561462E-02  0.1187704E+00
         -2   -1    0    0    0  501 -0.00000000000E+00  0.00000000000E+00  0.77417855483E+02  0.77417855483E+02  0.00000000000E+00 0. -1.
          2   -1    0    0  501    0  0.00000000000E+00 -0.00000000000E+00 -0.39227147291E+03  0.39227147291E+03  0.00000000000E+00 0.  1.
         23    2    1    2    0    0 -0.12508276865E+03  0.39756321627E+02 -0.19751578061E+03  0.26811585485E+03  0.12508942364E+03 0.  0.
          5    1    3    3  502    0 -0.15016719104E+03  0.26200271176E+02 -0.16619031669E+03  0.22555117653E+03  0.41800000000E+01 0. -1.
         -5    1    3    3    0  502  0.25084422383E+02  0.13556050451E+02 -0.31325463926E+02  0.42564678318E+02  0.41800000000E+01 0. -1.
        -11    1    1    2    0    0  0.66829347147E+02 -0.47073231346E+02 -0.11716450700E+03  0.14286207492E+03  0.00000000000E+00 0.  1.
         11    1    1    2    0    0  0.58253421506E+02  0.73169097184E+01 -0.17332981010E+00  0.58711398622E+02  0.00000000000E+00 0. -1.
</event>
<event>
 7    1  0.6671761E-006  0.1164236E+03  0.7561462E-02  0.1249116E+00
          2   -1    0    0  501    0  0.00000000000E+00  0.00000000000E+00  0.72862413323E+02  0.72862413323E+02  0.00000000000E+00 0.  1.
         -2   -1    0    0    0  501 -0.00000000000E+00 -0.00000000000E+00 -0.31686990610E+03  0.31686990610E+03  0.00000000000E+00 0. -1.
         23    2    1    2    0    0  0.35900556224E+02 -0.96833598533E+02 -0.16060951259E+03  0.22827300446E+03  0.12509018063E+03 0.  0.
          5    1    3    3  502    0  0.32846460651E+02 -0.33766229313E+01 -0.12295922564E+03  0.12738420282E+03  0.41800000000E+01 0. -1.
         -5    1    3    3    0  502  0.30540955724E+01 -0.93456975602E+02 -0.37650286949E+02  0.10088880164E+03  0.41800000000E+01 0. -1.
        -11    1    1    2    0    0  0.13732530468E+01  0.24979304460E+02  0.18650960722E+02  0.31204323596E+02  0.00000000000E+00 0.  1.
         11    1    1    2    0    0 -0.37273809270E+02  0.71854294074E+02 -0.10204894091E+03  0.13025499137E+03  0.00000000000E+00 0. -1.
</event>
<event>
 6    1  0.6671761E-006  0.1057876E+03  0.7561462E-02  0.1268576E+00
          1   -1    0    0  501    0  0.00000000000E+00  0.00000000000E+00  0.42157993659E+02  0.42157993659E+02  0.00000000000E+00 0. -1.
         -1   -1    0    0    0  501 -0.00000000000E+00 -0.00000000000E+00 -0.59085250431E+03  0.59085250431E+03  0.00000000000E+00 0.  1.
          5    1    1    2  502    0  0.37217949544E+02  0.42074247669E+02 -0.24228833412E+03  0.24874992932E+03  0.41800000000E+01 0. -1.
         -5    1    1    2    0  502 -0.55625597320E+02 -0.50981777417E+02 -0.29283601614E+03  0.30242974962E+03  0.41800000000E+01 0.  1.
        -11    1    1    2    0    0 -0.12640692660E+01  0.41547753714E+02 -0.59022329232E+00  0.41571168775E+02  0.00000000000E+00 0. -1.
         11    1    1    2    0    0  0.19671717042E+02 -0.32640223965E+02 -0.12979937101E+02  0.40259650259E+02  0.00000000000E+00 0.  1.
</event>
<event>
 7    1  0.6671761E-006  0.1936455E+03  0.7561462E-02  0.1155214E+00
         -2   -1    0    0    0  501 -0.00000000000E+00  0.00000000000E+00  0.35250235172E+02  0.35250235172E+02  0.00000000000E+00 0.  1.
          2   -1    0    0  501    0  0.00000000000E+00 -0.00000000000E+00 -0.11797556971E+04  0.11797556971E+04  0.00000000000E+00 0. -1.
         23    2    1    2    0    0 -0.11535878949E+03 -0.12784415141E+03 -0.56272703639E+03  0.60163211766E+03  0.12509080760E+03 0.  0.
          5    1    3    3  502    0 -0.65250986805E+02  0.99548015063E+01 -0.17789932016E+03  0.18979575829E+03  0.41800000000E+01 0.  1.
         -5    1    3    3    0  502 -0.50107802690E+02 -0.13779895291E+03 -0.38482771624E+03  0.41183635937E+03  0.41800000000E+01 0.  1.
        -11    1    1    2    0    0  0.38864107276E+02  0.63782874760E+02 -0.39109826323E+03  0.39816645445E+03  0.00000000000E+00 0.  1.
         11    1    1    2    0    0  0.76494682219E+02  0.64061276646E+02 -0.19068016231E+03  0.21520736017E+03  0.00000000000E+00 0. -1.
</event>
<event>
 7    1  0.6671761E-006  0.1013679E+03  0.7561462E-02  0.1277445E+00
         -1   -1    0    0    0  501 -0.00000000000E+00  0.00000000000E+00  0.40291038998E+03  0.40291038998E+03  0.00000000000E+00 0.  1.
          1   -1    0    0  501    0  0.00000000000E+00 -0.00000000000E+00 -0.43326445977E+02  0.43326445977E+02  0.00000000000E+00 0. -1.
         23    2    1    2    0    0 -0.89724438189E+01  0.78932364170E+02  0.22836615393E+03  0.26733298230E+03  0.11403946818E+03 0.  0.
          5    1    3    3  502    0  0.29674388592E+01  0.19974809764E+01 -0.12770248673E+02  0.13904937066E+02  0.41800000000E+01 0. -1.
         -5    1    3    3    0  502 -0.11939882678E+02  0.76934883194E+02  0.24113640261E+03  0.25342804524E+03  0.41800000000E+01 0.  1.
        -11    1    1    2    0    0 -0.35564464328E+02 -0.95583597722E+01  0.25279407174E+02  0.44668129484E+02  0.00000000000E+00 0.  1.
         11    1    1    2    0    0  0.44536908147E+02 -0.69374004398E+02  0.10593838289E+03  0.13423572417E+03  0.00000000000E+00 0. -1.
</event>
<event>
 7    1  0.6671761E-006  0.1273956E+03  0.7561462E-02  0.1231372E+00
          3   -1    0    0  501    0  0.00000000000E+00  0.00000000000E+00  0.34787483253E+02  0.34787483253E+02  0.00000000000E+00 0. -1.
         -3   -1    0    0    0  501 -0.00000000000E+00 -0.00000000000E+00 -0.58220708645E+03  0.58220708645E+03  0.00000000000E+00 0.  1.
         23    2    1    2    0    0 -0.11917714645E+02  0.75465449559E+02 -0.39773876728E+03  0.42396904167E+03  0.12536568626E+03 0.  0.
          5    1    3    3  502    0 -0.16559285293E+02 -0.26496121920E+02 -0.34920672019E+02  0.47044448562E+02  0.41800000000E+01 0. -1.
         -5    1    3    3    0  502  0.46415706477E+01  0.10196157148E+03 -0.36281809526E+03  0.37692459310E+03  0.41800000000E+01 0. -1.
        -11    1    1    2    0    0 -0.41269904057E+02 -0.37555673389E+02 -0.58278215996E+02  0.80684472139E+02  0.00000000000E+00 0.  1.
         11    1    1    2    0    0  0.53187618702E+02 -0.37909776169E+02 -0.91402619918E+02  0.11234105590E+03  0.00000000000E+00 0. -1.
</event>
<event>
 7    1  0.6671761E-006  0.1799030E+03  0.7561462E-02  0.1167897E+00
          2   -1    0    0  501    0  0.00000000000E+00  0.00000000000E+00  0.48969561427E+03  0.48969561427E+03  0.00000000000E+00 0. -1.
         -2   -1    0    0    0  501 -0.00000000000E+00 -0.00000000000E+00 -0.74419640293E+02  0.74419640293E+02  0.00000000000E+00 0.  1.
         23    2    1    2    0    0 -0.10894784839E+03 -0.10565834090E+03  0.16305002163E+03  0.25546706824E+03  0.12507915387E+03 0.  0.
          5    1    3    3  502    0 -0.87405115262E+02 -0.15172618655E+02  0.31357006729E+02  0.94183845759E+02  0.41800000000E+01 0. -1.
         -5    1    3    3    0  502 -0.21542733123E+02 -0.90485722250E+02  0.13169301490E+03  0.16128322248E+03  0.41800000000E+01 0. -1.
        -11    1    1    2    0    0  0.12566575091E+03  0.87048472914E+02  0.21763170027E+03  0.26595652755E+03  0.00000000000E+00 0. -1.
         11    1    1    2    0    0 -0.16717902520E+02  0.18609867991E+02  0.34594252084E+02  0.42691658770E+02  0.00000000000E+00 0.  1.
</event>
<event>
 7    1  0.6671761E-006  0.1163739E+03  0.7561462E-02  0.1249202E+00
         -1   -1    0    0    0  501 -0.00000000000E+00  0.00000000000E+00  0.34843879990E+03  0.34843879990E+03  0.00000000000E+00 0.  1.
          1   -1    0    0  501    0  0.00000000000E+00 -0.00000000000E+00 -0.56433207210E+02  0.56433207210E+02  0.00000000000E+00 0. -1.
         23    2    1    2    0    0 -0.10139299843E+01  0.87205118667E+02  0.15209200223E+03  0.21537289538E+03  0.12509095149E+03 0.  0.
          5    1    3    3  502    0  0.15582779880E+02  0.11273108645E+03  0.14400872936E+03  0.18359495476E+03  0.41800000000E+01 0.  1.
         -5    1    3    3    0  502 -0.16596709864E+02 -0.25525967784E+02  0.80832728769E+01  0.31777940620E+02  0.41800000000E+01 0.  1.
        -11    1    1    2    0    0  0.57938669863E+01 -0.71105013987E+02  0.15259925701E+03  0.16845184816E+03  0.00000000000E+00 0.  1.
         11    1    1    2    0    0 -0.47799370021E+01 -0.16100104680E+02 -0.12685666547E+02  0.21047263579E+02  0.00000000000E+00 0. -1.
</event>
<event>
 6    1  0.6671761E-006  0.7174689E+02  0.7561462E-02  0.1354251E+00
         -2   -1    0    0    0  501 -0.00000000000E+00  0.00000000000E+00  0.21550700569E+03  0.21550700569E+03  0.00000000000E+00 0.  1.
          2   -1    0    0  501    0  0.00000000000E+00 -0.00000000000E+00 -0.31366038489E+03  0.31366038489E+03  0.00000000000E+00 0. -1.
          5    1    1    2  502    0  0.21891624121E+02 -0.65921874996E+00 -0.24049052113E+02  0.32794924662E+02  0.41800000000E+01 0. -1.
         -5    1    1    2    0  502 -0.42189630981E+02  0.88483563697E+01  0.20027246425E+03  0.20490190509E+03  0.41800000000E+01 0.  1.
        -11    1    1    2    0    0 -0.27930731924E+02  0.38068540457E+01 -0.26597207048E+02  0.38756023355E+02  0.00000000000E+00 0.  1.
         11    1    1    2    0    0  0.48228738784E+02 -0.11995991665E+02 -0.24777958429E+03  0.25271453747E+03  0.00000000000E+00 0. -1.
</event>
<event>
 7    1  0.6671761E-006  0.1234435E+03  0.7561462E-02  0.1237522E+00
         -1   -1    0    0    0  501 -0.00000000000E+00  0.00000000000E+00  0.63840546997E+03  0.63840546997E+03  0.00000000000E+00 0.  1.
          1   -1    0    0  501    0  0.00000000000E+00 -0.00000000000E+00 -0.44027990616E+02  0.44027990616E+02  0.00000000000E+00 0. -1.
         23    2    1    2    0    0  0.60693856019E+02  0.71599555756E+02  0.49117630168E+03  0.51547263993E+03  0.12509053778E+03 0.  0.
          5    1    3    3  502    0  0.22503523405E+02 -0.22678679744E+02  0.27088548763E+03  0.27279507124E+03  0.41800000000E+01 0.  1.
         -5    1    3    3    0  502  0.38190332614E+02  0.94278235499E+02  0.22029081405E+03  0.24267756869E+03  0.41800000000E+01 0.  1.
        -11    1    1    2    0    0 -0.29474224145E+02 -0.75828667680E+02  0.10787232328E+03  0.13511163851E+03  0.00000000000E+00 0.  1.
         11    1    1    2    0    0 -0.31219631874E+02  0.42291119242E+01 -0.46711456073E+01  0.31849182145E+02  0.00000000000E+00 0. -1.
</event>
<event>
 7    1  0.6671761E-006  0.1229030E+03  0.7561462E-02  0.1238383E+00
          1   -1    0    0  501    0  0.00000000000E+00  0.00000000000E+00  0.30967255990E+03  0.30967255990E+03  0.00000000000E+00 0. -1.
         -1   -1    0    0    0  501 -0.00000000000E+00 -0.00000000000E+00 -0.55526677645E+02  0.55526677645E+02  0.00000000000E+00 0.  1.
         23    2    1    2    0    0  0.67774370776E+02  0.32209457468E+02  0.13124311104E+03  0.19622297326E+03  0.12509151271E+03 0.  0.
          5    1    3    3  502    0  0.18666033824E+02  0.76958586777E+02  0.70852041016E+02  0.10634156767E+03  0.41800000000E+01 0. -1.
         -5    1    3    3    0  502  0.49108336952E+02 -0.44749129308E+02  0.60391070025E+02  0.89881405590E+02  0.41800000000E+01 0. -1.
        -11    1    1    2    0    0 -0.80990990992E+02 -0.30777600966E+02  0.12814454482E+03  0.15468621694E+03  0.00000000000E+00 0. -1.
         11    1    1    2    0    0  0.13216620216E+02 -0.14318565024E+01 -0.52417736022E+01  0.14290047357E+02  0.00000000000E+00 0.  1.
</event>
<event>
 7    1  0.6671761E-006  0.1275346E+03  0.7561462E-02  0.1231160E+00
          2   -1    0    0  501    0  0.00000000000E+00  0.00000000000E+00  0.10302615934E+04  0.10302615934E+04  0.00000000000E+00 0. -1.
         -2   -1    0    0    0  501 -0.00000000000E+00 -0.00000000000E+00 -0.21940181296E+02  0.21940181296E+02  0.00000000000E+00 0.  1.
         23    2    1    2    0    0 -0.81231793067E+02 -0.61117864041E+02  0.47129106506E+03  0.49809284672E+03  0.12508884220E+03 0.  0.
          5    1    3    3  502    0 -0.41926808094E+02 -0.87942693208E+02  0.19859867630E+03  0.22124800825E+03  0.41800000000E+01 0.  1.
         -5    1    3    3    0  502 -0.39304984973E+02  0.26824829167E+02  0.27269238876E+03  0.27684483847E+03  0.41800000000E+01 0.  1.
        -11    1    1    2    0    0  0.72832746659E+02  0.67448404814E+02  0.53402170469E+03  0.54316947390E+03  0.00000000000E+00 0. -1.
         11    1    1    2    0    0  0.83990464078E+01 -0.63305407732E+01  0.30086423847E+01  0.10939454102E+02  0.00000000000E+00 0.  1.
</event>
<event>
 7    1  0.6671761E-006  0.1035972E+03  0.7561462E-02  0.1272908E+00
         -1   -1    0    0    0  501 -0.00000000000E+00  0.00000000000E+00  0.41900066497E+02  0.41900066497E+02  0.00000000000E+00 0.  1.
          1   -1    0    0  501    0  0.00000000000E+00 -0.00000000000E+00 -0.34179075724E+03  0.34179075724E+03  0.00000000000E+00 0. -1.
         23    2    1    2    0    0 -0.48201167919E+02 -0.99140603835E+01 -0.15504136485E+03  0.20519952629E+03  0.12508948634E+03 0.  0.
          5    1    3    3  502    0  0.15529032384E+02  0.32697528704E+02 -0.51655815073E+01  0.36802647492E+02  0.41800000000E+01 0.  1.
         -5    1    3    3    0  502 -0.63730200303E+02 -0.42611589087E+02 -0.14987578334E+03  0.16839687879E+03  0.41800000000E+01 0.  1.
        -11    1    1    2    0    0 -0.13168253180E+02 -0.21365460413E+02 -0.99007773754E+01  0.26979829190E+02  0.00000000000E+00 0.  1.
         11    1    1    2    0    0  0.61369421099E+02  0.31279520797E+02 -0.13494854852E+03  0.15151146826E+03  0.00000000000E+00 0. -1.
</event>
<event>
 7    1  0.6671761E-006  0.1507075E+03  0.7561462E-02  0.1199606E+00
         -1   -1    0    0    0  501 -0.00000000000E+00  0.00000000000E+00  0.74007439107E+03  0.74007439107E+03  0.00000000000E+00 0.  1.
          1   -1    0    0  501    0  0.00000000000E+00 -0.00000000000E+00 -0.37117895203E+02  0.37117895203E+02  0.00000000000E+00 0. -1.
         23    2    1    2    0    0  0.15919181006E+02 -0.12393337851E+03  0.43599537800E+03  0.47048176661E+03  0.12509284729E+03 0.  0.
          5    1    3    3  502    0 -0.44975846792E+02 -0.67497580211E+02  0.30254696829E+03  0.31325850435E+03  0.41800000000E+01 0. -1.
         -5    1    3    3    0  502  0.60895027798E+02 -0.56435798302E+02  0.13344840971E+03  0.15722326226E+03  0.41800000000E+01 0. -1.
        -11    1    1    2    0    0  0.20420932676E+02  0.61806120645E+02  0.19224607474E+03  0.20296690443E+03  0.00000000000E+00 0.  1.
         11    1    1    2    0    0 -0.36340113682E+02  0.62127257868E+02  0.74715043132E+02  0.10374361524E+03  0.00000000000E+00 0. -1.
</event>
<event>
 7    1  0.6671761E-006  0.1290113E+03  0.7561462E-02  0.1228930E+00
          2   -1    0    0  501    0  0.00000000000E+00  0.00000000000E+00  0.57124442114E+03  0.57124442114E+03  0.00000000000E+00 0. -1.
         -2   -1    0    0    0  501 -0.00000000000E+00 -0.00000000000E+00 -0.31760757331E+02  0.31760757331E+02  0.00000000000E+00 0.  1.
         23    2    1    2    0    0 -0.43474958131E+02 -0.57774443686E+02  0.22105812032E+03  0.26407929948E+03  0.12507288086E+03 0.  0.
          5    1    3    3  502    0  0.43549705888E+02 -0.21810152993E+02  0.59179236266E+02  0.76758804456E+02  0.41800000000E+01 0. -1.
         -5    1    3    3    0  502 -0.87024664019E+02 -0.35964290693E+02  0.16187888406E+03  0.18732049502E+03  0.41800000000E+01 0. -1.
        -11    1    1    2    0    0 -0.10222759125E+02 -0.18774139813E+02  0.42239038719E+02  0.47340358277E+02  0.00000000000E+00 0.  1.
         11    1    1    2    0    0  0.53697717256E+02  0.76548583499E+02  0.27618650477E+03  0.29158552072E+03  0.00000000000E+00 0. -1.
</event>
<event>
 7    1  0.6671761E-006  0.7080991E+02  0.7561462E-02  0.1357360E+00
          1   -1    0    0  501    0  0.00000000000E+00  0.00000000000E+00  0.16812743690E+03  0.16812743690E+03  0.00000000000E+00 0.  1.
         -1   -1    0    0    0  501 -0.00000000000E+00 -0.00000000000E+00 -0.82209128839E+02  0.82209128839E+02  0.00000000000E+00 0. -1.
         23    2    1    2    0    0  0.17111010267E+02 -0.25385234291E+02  0.14510391294E+02  0.12959393854E+03  0.12508733212E+03 0.  0.
          5    1    3    3  502    0  0.16638134806E+02  0.17764374575E+01 -0.53515058845E+02  0.56225591887E+02  0.41800000000E+01 0. -1.
         -5    1    3    3    0  502  0.47287546061E+00 -0.27161671749E+02  0.68025450138E+02  0.73368346648E+02  0.41800000000E+01 0. -1.
        -11    1    1    2    0    0 -0.51918067905E+01  0.60027708020E+02  0.38535798469E+02  0.71521244058E+02  0.00000000000E+00 0.  1.
         11    1    1    2    0    0 -0.11919203476E+02 -0.34642473728E+02  0.32872118300E+02  0.49221383149E+02  0.00000000000E+00 0. -1.
</event>
<event>
 7    1  0.6671761E-006  0.1439706E+03  0.7561462E-02  0.1208084E+00
         -3   -1    0    0    0  501 -0.00000000000E+00  0.00000000000E+00  0.48104140187E+02  0.48104140187E+02  0.00000000000E+00 0.  1.
          3   -1    0    0  501    0  0.00000000000E+00 -0.00000000000E+00 -0.47086275418E+03  0.47086275418E+03  0.00000000000E+00 0. -1.
         23    2    1    2    0    0  0.16019412724E+02 -0.96608426737E+02 -0.16828118042E+03  0.23142096277E+03  0.12508915472E+03 0.  0.
          5    1    3    3  502    0 -0.45502306394E+02 -0.80269729798E+02 -0.11993613238E+03  0.15137977956E+03  0.41800000000E+01 0.  1.
         -5    1    3    3    0  502  0.61521719119E+02 -0.16338696940E+02 -0.48345048038E+02  0.80041183217E+02  0.41800000000E+01 0.  1.
        -11    1    1    2    0    0 -0.10334977171E+00 -0.17033747559E+02 -0.53139392668E+02  0.55802816149E+02  0.00000000000E+00 0.  1.
         11    1    1    2    0    0 -0.15916062953E+02  0.11364217430E+03 -0.20133804091E+03  0.23174311545E+03  0.00000000000E+00 0. -1.
</event>
<event>
 7    1  0.6671761E-006  0.9187750E+02  0.7561462E-02  0.1298368E+00
         -2   -1    0    0    0  501 -0.00000000000E+00  0.00000000000E+00  0.63048643853E+02  0.63048643853E+02  0.00000000000E+00 0.  1.
          2   -1    0    0  501    0  0.00000000000E+00 -0.00000000000E+00 -0.19217360295E+03  0.19217360295E+03  0.00000000000E+00 0. -1.
         23    2    1    2    0    0  0.24228956983E+02 -0.56790436791E+01 -0.66688246766E+02  0.14388323416E+03  0.12504306827E+03 0.  0.
          5    1    3    3  502    0  0.54674690277E+02 -0.21778834645E+02 -0.85911368801E+02  0.10422031992E+03  0.41800000000E+01 0.  1.
         -5    1    3    3    0  502 -0.30445733294E+02  0.16099790966E+02  0.19223122036E+02  0.39662914237E+02  0.41800000000E+01 0.  1.
        -11    1    1    2    0    0 -0.56106271095E+02 -0.52756495409E+01 -0.50227914921E+02  0.75489002985E+02  0.00000000000E+00 0.  1.
         11    1    1    2    0    0  0.31877314112E+02  0.10954693220E+02 -0.12208797413E+02  0.35850009662E+02  0.00000000000E+00 0. -1.
</event>
<event>
 7    1  0.6671761E-006  0.1169207E+03  0.7561462E-02  0.1248265E+00
          2   -1    0    0  501    0  0.00000000000E+00  0.00000000000E+00  0.12456266358E+02  0.12456266358E+02  0.00000000000E+00 0. -1.
         -2   -1    0    0    0  501 -0.00000000000E+00 -0.00000000000E+00 -0.11071866256E+04  0.11071866256E+04  0.00000000000E+00 0.  1.
         23    2    1    2    0    0  0.43056965602E+02  0.15117588532E+02 -0.64009012158E+03  0.65379310276E+03  0.12509042210E+03 0.  0.
          5    1    3    3  502    0 -0.23700517816E+02 -0.39743622855E+02 -0.20757837064E+03  0.21271465032E+03  0.41800000000E+01 0. -1.
         -5    1    3    3    0  502  0.66757483418E+02  0.54861211387E+02 -0.43251175094E+03  0.44107845245E+03  0.41800000000E+01 0. -1.
        -11    1    1    2    0    0 -0.23948380845E+02  0.37721876586E+02 -0.22903744090E+03  0.23335512476E+03  0.00000000000E+00 0.  1.
         11    1    1    2    0    0 -0.19108584758E+02 -0.52839465118E+02 -0.22560279680E+03  0.23249466448E+03  0.00000000000E+00 0. -1.
</event>
<event>
 7    1  0.6671761E-006  0.1075498E+03  0.7561462E-02  0.1265176E+00
         -1   -1    0    0    0  501 -0.00000000000E+00  0.00000000000E+00  0.85039705086E+02  0.85039705086E+02  0.00000000000E+00 0.  1.
          1   -1    0    0  501    0  0.00000000000E+00 -0.00000000000E+00 -0.44215495973E+03  0.44215495973E+03  0.00000000000E+00 0. -1.
         23    2    1    2    0    0  0.88102560610E+01  0.25232871271E+02  0.27848924946E+02  0.13091307838E+03  0.12509337739E+03 0.  0.
          5    1    3    3  502    0 -0.20358859927E+02  0.67051745320E+02  0.36352749534E+02  0.79053238559E+02  0.41800000000E+01 0. -1.
         -5    1    3    3    0  502  0.29169115988E+02 -0.41818874049E+02 -0.85038245873E+01  0.51859839826E+02  0.41800000000E+01 0. -1.
        -11    1    1    2    0    0 -0.46955765442E+02  0.17989433672E+01 -0.17748610451E+03  0.18360119117E+03  0.00000000000E+00 0. -1.
         11    1    1    2    0    0  0.38145509381E+02 -0.27031814639E+02 -0.20747807509E+03  0.21268039526E+03  0.00000000000E+00 0.  1.
</event>
<event>
 7    1  0.6671761E-006  0.9009033E+02  0.7561462E-02  0.1302633E+00
         -1   -1    0    0    0  501 -0.00000000000E+00  0.00000000000E+00  0.11734300752E+03  0.11734300752E+03  0.00000000000E+00 0.  1.
          1   -1    0    0  501    0  0.00000000000E+00 -0.00000000000E+00 -0.15378959910E+03  0.15378959910E+03  0.00000000000E+00 0. -1.
         23    2    1    2    0    0 -0.76491324060E+02  0.20895933374E+02 -0.17034821006E+01  0.14811368633E+03  0.12508876664E+03 0.  0.
          5    1    3    3  502    0  0.23405773761E+01  0.17987004709E+02  0.50234936063E+02  0.53572678131E+02  0.41800000000E+01 0.  1.
         -5    1    3    3    0  502 -0.78831901436E+02  0.29089286655E+01 -0.51938418163E+02  0.94541008199E+02  0.41800000000E+01 0.  1.
        -11    1    1    2    0    0  0.47821099855E+02 -0.24400924005E+02  0.23037815081E+02  0.58420917550E+02  0.00000000000E+00 0.  1.
         11    1    1    2    0    0  0.28670224205E+02  0.35049906312E+01 -0.57780924562E+02  0.64598002744E+02  0.00000000000E+00 0. -1.
</event>
<event>
 7    1  0.6671761E-006  0.1560212E+03  0.7561462E-02  0.1193263E+00
         -1   -1    0    0    0  501 -0.00000000000E+00  0.00000000000E+00  0.10548710176E+03  0.10548710176E+03  0.00000000000E+00 0.  1.
          1   -1    0    0  501    0  0.00000000000E+00 -0.00000000000E+00 -0.42827377317E+03  0.42827377317E+03  0.00000000000E+00 0. -1.
         23    2    1    2    0    0 -0.14626460115E+03  0.14482497871E+00 -0.32484103907E+02  0.19518624240E+03  0.12509635363E+03 0.  0.
          5    1    3    3  502    0 -0.52687850629E+02  0.31435778160E+02  0.39401812200E+02  0.73035559538E+02  0.41800000000E+01 0.  1.
         -5    1    3    3    0  502 -0.93576750525E+02 -0.31290953181E+02 -0.71885916107E+02  0.12215068286E+03  0.41800000000E+01 0.  1.
        -11    1    1    2    0    0  0.68743964448E+02  0.20185862759E+02 -0.55970466928E+02  0.90916966907E+02  0.00000000000E+00 0.  1.
         11    1    1    2    0    0  0.77520636706E+02 -0.20330687738E+02 -0.23433210058E+03  0.24765766562E+03  0.00000000000E+00 0. -1.
</event>
<event>
 7    1  0.6671761E-006  0.1200631E+03  0.7561462E-02  0.1242993E+00
         -4   -1    0    0    0  501 -0.00000000000E+00  0.00000000000E+00  0.36383595090E+02  0.36383595090E+02  0.00000000000E+00 0.  1.
          4   -1    0    0  501    0  0.00000000000E+00 -0.00000000000E+00 -0.50986985844E+03  0.50986985844E+03  0.00000000000E+00 0. -1.
         23    2    1    2    0    0 -0.11511985586E+02 -0.70041161174E+02 -0.17641961244E+03  0.22762251353E+03  0.12509931632E+03 0.  0.
          5    1    3    3  502    0 -0.30908712468E+02  0.28560438233E+02 -0.40673669428E+02  0.58675948422E+02  0.41800000000E+01 0.  1.
         -5    1    3    3    0  502  0.19396726882E+02 -0.98601599407E+02 -0.13574594301E+03  0.16894656511E+03  0.41800000000E+01 0.  1.
        -11    1    1    2    0    0 -0.48818281950E+01  0.78608325291E+02 -0.28691969342E+03  0.29753321079E+03  0.00000000000E+00 0. -1.
         11    1    1    2    0    0  0.16393813781E+02 -0.85671641171E+01 -0.10146957495E+02  0.21097729207E+02  0.00000000000E+00 0.  1.
</event>
<event>
 7    1  0.6671761E-006  0.1065327E+03  0.7561462E-02  0.1267129E+00
          2   -1    0    0  501    0  0.00000000000E+00  0.00000000000E+00  0.33107069501E+02  0.33107069501E+02  0.00000000000E+00 0. -1.
         -2   -1    0    0    0  501 -0.00000000000E+00 -0.00000000000E+00 -0.69101662059E+03  0.69101662059E+03  0.00000000000E+00 0.  1.
         23    2    1    2    0    0  0.66311645552E+02 -0.73241792737E+02 -0.25625229075E+03  0.30178308701E+03  0.12508477346E+03 0.  0.
          5    1    3    3  502    0 -0.26406712029E+01 -0.43438425068E+01 -0.17413762848E+03  0.17426195272E+03  0.41800000000E+01 0. -1.
         -5    1    3    3    0  502  0.68952316755E+02 -0.68897950230E+02 -0.82114662271E+02  0.12752113429E+03  0.41800000000E+01 0. -1.
        -11    1    1    2    0    0 -0.15331650868E+02  0.51079396584E+02 -0.31432675396E+03  0.31881887104E+03  0.00000000000E+00 0.  1.
         11    1    1    2    0    0 -0.50979994684E+02  0.22162396153E+02 -0.87330506381E+02  0.10352173205E+03  0.00000000000E+00 0. -1.
</event>
<event>
 7    1  0.6671761E-006  0.9874147E+02  0.7561462E-02  0.1282965E+00
          2   -1    0    0  501    0  0.00000000000E+00  0.00000000000E+00  0.20105552325E+03  0.20105552325E+03  0.00000000000E+00 0. -1.
         -2   -1    0    0    0  501 -0.00000000000E+00 -0.00000000000E+00 -0.67664884562E+02  0.67664884562E+02  0.00000000000E+00 0.  1.
         23    2    1    2    0    0 -0.37705472491E+02  0.90373001197E+01  0.79056746375E+02  0.15297459318E+03  0.12509149276E+03 0.  0.
          5    1    3    3  502    0  0.14845492290E+01 -0.55190823750E+02  0.28954710722E+02  0.62482626270E+02  0.41800000000E+01 0. -1.
         -5    1    3    3    0  502 -0.39190021720E+02  0.64228123870E+02  0.50102035653E+02  0.90491966908E+02  0.41800000000E+01 0. -1.
        -11    1    1    2    0    0 -0.14163242949E+02 -0.35372631609E+01 -0.20108461478E+02  0.24848740502E+02  0.00000000000E+00 0.  1.
         11    1    1    2    0    0  0.51868715440E+02 -0.55000369588E+01  0.74442353793E+02  0.90897074134E+02  0.00000000000E+00 0. -1.
</event>
<event>
 7    1  0.6671761E-006  0.1187683E+03  0.7561462E-02  0.1245143E+00
         -2   -1    0    0    0  501 -0.00000000000E+00  0.00000000000E+00  0.22840406133E+03  0.22840406133E+03  0.00000000000E+00 0.  1.
          2   -1    0    0  501    0  0.00000000000E+00 -0.00000000000E+00 -0.72194080242E+02  0.72194080242E+02  0.00000000000E+00 0. -1.
         23    2    1    2    0    0  0.26682881167E+02  0.62797251953E+02  0.91433365758E+02  0.16930214377E+03  0.12509070514E+03 0.  0.
          5    1    3    3  502    0  0.55504230792E+02  0.83319206748E+02  0.42664801833E+02  0.10890623290E+03  0.41800000000E+01 0. -1.
         -5    1    3    3    0  502 -0.28821349625E+02 -0.20521954795E+02  0.48768563926E+02  0.60395910873E+02  0.41800000000E+01 0. -1.
        -11    1    1    2    0    0  0.97096910103E+01  0.13818314159E+02  0.39232995107E+02  0.42713602175E+02  0.00000000000E+00 0.  1.
         11    1    1    2    0    0 -0.36392572177E+02 -0.76615566112E+02  0.25543620221E+02  0.88582395623E+02  0.00000000000E+00 0. -1.
</event>
<event>
 7    1  0.6671761E-006  0.9017814E+02  0.7561462E-02  0.1302421E+00
         -2   -1    0    0    0  501 -0.00000000000E+00  0.00000000000E+00  0.38935962212E+03  0.38935962212E+03  0.00000000000E+00 0.  1.
          2   -1    0    0  501    0  0.00000000000E+00 -0.00000000000E+00 -0.57689390122E+02  0.57689390122E+02  0.00000000000E+00 0. -1.
         23    2    1    2    0    0 -0.13555517213E+02 -0.26785941142E+02  0.32566252225E+03  0.35015062340E+03  0.12509253367E+03 0.  0.
          5    1    3    3  502    0 -0.24256726422E+02 -0.55418101804E+02  0.69910734125E+02  0.92544788779E+02  0.41800000000E+01 0. -1.
         -5    1    3    3    0  502  0.10701209209E+02  0.28632160662E+02  0.25575178813E+03  0.25760583462E+03  0.41800000000E+01 0. -1.
        -11    1    1    2    0    0 -0.33100690200E+02 -0.34342888524E+01 -0.16232300312E+02  0.37026174594E+02  0.00000000000E+00 0. -1.
         11    1    1    2    0    0  0.46656207413E+02  0.30220229995E+02  0.22240010055E+02  0.59872214243E+02  0.00000000000E+00 0.  1.
</event>
<event>
 7    1  0.6671761E-006  0.1779640E+03  0.7561462E-02  0.1169788E+00
          1   -1    0    0  501    0  0.00000000000E+00  0.00000000000E+00  0.27039555150E+03  0.27039555150E+03  0.00000000000E+00 0. -1.
         -1   -1    0    0    0  501 -0.00000000000E+00 -0.00000000000E+00 -0.13328776177E+03  0.13328776177E+03  0.00000000000E+00 0.  1.
         23    2    1    2    0    0 -0.14513387387E+03 -0.31127941265E+02  0.11850070481E+03  0.22742436126E+03  0.12508650199E+03 0.  0.
          5    1    3    3  502    0  0.10075601835E+01 -0.37915981068E+02 -0.14575239348E+01  0.38186824611E+02  0.41800000000E+01 0. -1.
         -5    1    3    3    0  502 -0.14614143406E+03  0.67880398028E+01  0.11995822875E+03  0.18923753665E+03  0.41800000000E+01 0. -1.
        -11    1    1    2    0    0  0.44829082997E+02  0.52312280311E+02 -0.10502607305E+02  0.69688780402E+02  0.00000000000E+00 0.  1.
         11    1    1    2    0    0  0.10030479088E+03 -0.21184339046E+02  0.29109692227E+02  0.10657017160E+03  0.00000000000E+00 0. -1.
</event>
<event>
 7    1  0.6671761E-006  0.1266838E+03  0.7561462E-02  0.1232461E+00
          2   -1    0    0  501    0  0.00000000000E+00  0.00000000000E+00  0.20832878494E+02  0.20832878494E+02  0.00000000000E+00 0. -1.
         -2   -1    0    0    0  501 -0.00000000000E+00 -0.00000000000E+00 -0.98279603679E+03  0.98279603679E+03  0.00000000000E+00 0.  1.
         23    2    1    2    0    0  0.69090155831E+02 -0.27338174289E+02 -0.72682972526E+03  0.74124855767E+03  0.12508856594E+03 0.  0.
          5    1    3    3  502    0 -0.30602731742E+02  0.16935840109E+02 -0.21940035150E+03  0.22221011792E+03  0.41800000000E+01 0. -1.
         -5    1    3    3    0  502  0.99692887573E+02 -0.44274014398E+02 -0.50742937376E+03  0.51903843975E+03  0.41800000000E+01 0. -1.
        -11    1    1    2    0    0 -0.25313691780E+02  0.52645547986E+02 -0.78920968389E+02  0.98187860582E+02  0.00000000000E+00 0. -1.
         11    1    1    2    0    0 -0.43776464051E+02 -0.25307373697E+02 -0.15621246465E+03  0.16419249703E+03  0.00000000000E+00 0.  1.
</event>
<event>
 7    1  0.6671761E-006  0.1037181E+03  0.7561462E-02  0.1272666E+00
         -1   -1    0    0    0  501 -0.00000000000E+00  0.00000000000E+00  0.23427982381E+02  0.23427982381E+02  0.00000000000E+00 0.  1.
          1   -1    0    0  501    0  0.00000000000E+00 -0.00000000000E+00 -0.61151371943E+03  0.61151371943E+03  0.00000000000E+00 0. -1.
         23    2    1    2    0    0 -0.30794065194E+02 -0.29288615384E+01 -0.22944025638E+03  0.26315070614E+03  0.12509440521E+03 0.  0.
          5    1    3    3  502    0  0.71173535447E+01 -0.48976799564E+02 -0.17628000247E+03  0.18314337359E+03  0.41800000000E+01 0. -1.
         -5    1    3    3    0  502 -0.37911418739E+02  0.46047938026E+02 -0.53160253908E+02  0.80007332556E+02  0.41800000000E+01 0. -1.
        -11    1    1    2    0    0 -0.13527549101E+02  0.38715287082E+02 -0.14708704797E+03  0.15269730750E+03  0.00000000000E+00 0.  1.
         11    1    1    2    0    0  0.44321614296E+02 -0.35786425543E+02 -0.21155843270E+03  0.21909368816E+03  0.00000000000E+00 0. -1.
</event>
<event>
 7    1  0.6671761E-006  0.2373391E+03  0.7561462E-02  0.1121578E+00
         -1   -1    0    0    0  501 -0.00000000000E+00  0.00000000000E+00  0.11359193335E+03  0.11359193335E+03  0.00000000000E+00 0.  1.
          1   -1    0    0  501    0  0.00000000000E+00 -0.00000000000E+00 -0.65322459365E+03  0.65322459365E+03  0.00000000000E+00 0. -1.
         23    2    1    2    0    0 -0.15014611628E+03  0.16166906545E+03 -0.10655078649E+03  0.27510218854E+03  0.12508957224E+03 0.  0.
          5    1    3    3  502    0 -0.14822935242E+03  0.96917264270E+02 -0.38953754160E+02  0.18138292201E+03  0.41800000000E+01 0.  1.
         -5    1    3    3    0  502 -0.19167638506E+01  0.64751801182E+02 -0.67597032325E+02  0.93719266532E+02  0.41800000000E+01 0.  1.
        -11    1    1    2    0    0  0.96431237388E+02 -0.14890412135E+03 -0.32043498919E+03  0.36626493580E+03  0.00000000000E+00 0. -1.
         11    1    1    2    0    0  0.53714878887E+02 -0.12764944107E+02 -0.11264688462E+03  0.12544940266E+03  0.00000000000E+00 0.  1.
</event>
<event>
 6    1  0.6671761E-006  0.2451055E+03  0.7561462E-02  0.1116438E+00
         -1   -1    0    0    0  501 -0.00000000000E+00  0.00000000000E+00  0.72124187941E+03  0.72124187941E+03  0.00000000000E+00 0.  1.
          1   -1    0    0  501    0  0.00000000000E+00 -0.00000000000E+00 -0.14783347562E+03  0.14783347562E+03  0.00000000000E+00 0. -1.
          5    1    1    2  502    0  0.18356058586E+03 -0.27071892324E+02  0.18306881809E+03  0.26068954830E+03  0.41800000000E+01 0. -1.
         -5    1    1    2    0  502 -0.19291554491E+03 -0.38022962919E+02  0.44291011185E+03  0.48461220863E+03  0.41800000000E+01 0.  1.
        -11    1    1    2    0    0  0.34904528982E+02  0.73238182642E+02 -0.24036142613E+02  0.84616155028E+02  0.00000000000E+00 0. -1.
         11    1    1    2    0    0 -0.25549569929E+02 -0.81433273982E+01 -0.28534383532E+02  0.39157443075E+02  0.00000000000E+00 0.  1.
</event>
<event>
 7    1  0.6671761E-006  0.1310309E+03  0.7561462E-02  0.1225934E+00
         -1   -1    0    0    0  501 -0.00000000000E+00  0.00000000000E+00  0.18877695862E+02  0.18877695862E+02  0.00000000000E+00 0.  1.
          1   -1    0    0  501    0  0.00000000000E+00 -0.00000000000E+00 -0.11131524120E+04  0.11131524120E+04  0.00000000000E+00 0. -1.
         23    2    1    2    0    0  0.97193169744E+02  0.19694685137E+02 -0.47290637792E+03  0.49615053351E+03  0.11265219373E+03 0.  0.
          5    1    3    3  502    0  0.99928926794E+02 -0.67396560678E+01 -0.44934035250E+03  0.46038618372E+03  0.41800000000E+01 0. -1.
         -5    1    3    3    0  502 -0.27357570508E+01  0.26434341205E+02 -0.23566025419E+02  0.35764349786E+02  0.41800000000E+01 0.  1.
        -11    1    1    2    0    0 -0.78717187459E+02 -0.54340603481E+02 -0.45405905995E+03  0.46402470485E+03  0.00000000000E+00 0. -1.
         11    1    1    2    0    0 -0.18475982285E+02  0.34645918344E+02 -0.16730927830E+03  0.17185486954E+03  0.00000000000E+00 0.  1.
</event>
<event>
 7    1  0.6671761E-006  0.1598736E+03  0.7561462E-02  0.1188840E+00
         -3   -1    0    0    0  501 -0.00000000000E+00  0.00000000000E+00  0.69218776089E+03  0.69218776089E+03  0.00000000000E+00 0.  1.
          3   -1    0    0  501    0  0.00000000000E+00 -0.00000000000E+00 -0.39197639000E+02  0.39197639000E+02  0.00000000000E+00 0. -1.
         23    2    1    2    0    0  0.83295113522E+02  0.83015324592E+02  0.42911664902E+03  0.46219008593E+03  0.12509579134E+03 0.  0.
          5    1    3    3  502    0  0.11259136318E+03  0.85629808863E+02  0.36685416232E+03  0.39320316382E+03  0.41800000000E+01 0.  1.
         -5    1    3    3    0  502 -0.29296249653E+02 -0.26144842709E+01  0.62262486701E+02  0.68986922108E+02  0.41800000000E+01 0.  1.
        -11    1    1    2    0    0 -0.67234473297E+02 -0.34176644651E+01  0.86404485019E+02  0.10953487966E+03  0.00000000000E+00 0. -1.
         11    1    1    2    0    0 -0.16060640225E+02 -0.79597660127E+02  0.13746898785E+03  0.15966043431E+03  0.00000000000E+00 0.  1.
</event>
<event>
 7    1  0.6671761E-006  0.1475236E+03  0.7561462E-02  0.1203549E+00
          2   -1    0    0  501    0  0.00000000000E+00  0.00000000000E+00  0.11809337011E+04  0.11809337011E+04  0.00000000000E+00 0. -1.
         -2   -1    0    0    0  501 -0.00000000000E+00 -0.00000000000E+00 -0.20523769086E+02  0.20523769086E+02  0.00000000000E+00 0.  1.
         23    2    1    2    0    0 -0.19434869037E+02  0.10954266477E+03  0.64285138251E+03  0.66429093623E+03  0.12508892204E+03 0.  0.
          5    1    3    3  502    0  0.24649583360E+02 -0.14893478498E+02  0.60313789579E+02  0.66967479234E+02  0.41800000000E+01 0.  1.
         -5    1    3    3    0  502 -0.44084452397E+02  0.12443614327E+03  0.58253759293E+03  0.59732345699E+03  0.41800000000E+01 0.  1.
        -11    1    1    2    0    0  0.38442922432E+02 -0.22020808142E+02  0.89818235585E+02  0.10015033560E+03  0.00000000000E+00 0.  1.
         11    1    1    2    0    0 -0.19008053395E+02 -0.87521856627E+02  0.42774031391E+03  0.43701619836E+03  0.00000000000E+00 0. -1.
</event>
<event>
 7    1  0.6671761E-006  0.8823306E+02  0.7561462E-02  0.1307188E+00
         -1   -1    0    0    0  501 -0.00000000000E+00  0.00000000000E+00  0.50929862007E+02  0.50929862007E+02  0.00000000000E+00 0.  1.
          1   -1    0    0  501    0  0.00000000000E+00 -0.00000000000E+00 -0.28953459796E+03  0.28953459796E+03  0.00000000000E+00 0. -1.
         23    2    1    2    0    0 -0.19947196535E+02 -0.29051836776E+02 -0.74038363297E+02  0.14956946730E+03  0.12508975353E+03 0.  0.
          5    1    3    3  502    0  0.12633671452E+02  0.25758838343E+02  0.20466380407E+02  0.35489048086E+02  0.41800000000E+01 0. -1.
         -5    1    3    3    0  502 -0.32580867987E+02 -0.54810675119E+02 -0.94504743703E+02  0.11408041921E+03  0.41800000000E+01 0. -1.
        -11    1    1    2    0    0  0.32685864610E+02  0.49597206531E+02 -0.63390344535E+02  0.86871079315E+02  0.00000000000E+00 0.  1.
         11    1    1    2    0    0 -0.12738668075E+02 -0.20545369755E+02 -0.10117602813E+03  0.10402391336E+03  0.00000000000E+00 0. -1.
</event>
<event>
 7    1  0.6671761E-006  0.1211225E+03  0.7561462E-02  0.1241257E+00
          1   -1    0    0  501    0  0.00000000000E+00  0.00000000000E+00  0.84287604864E+03  0.84287604864E+03  0.00000000000E+00 0. -1.
         -1   -1    0    0    0  501 -0.00000000000E+00 -0.00000000000E+00 -0.27529579975E+02  0.27529579975E+02  0.00000000000E+00 0.  1.
         23    2    1    2    0    0  0.76876029481E+02  0.67245853961E+02  0.35409346265E+03  0.38918249549E+03  0.12509558635E+03 0.  0.
          5    1    3    3  502    0  0.83105987730E+02  0.53466024292E+02  0.35928939907E+03  0.37265475394E+03  0.41800000000E+01 0. -1.
         -5    1    3    3    0  502 -0.62299582491E+01  0.13779829669E+02 -0.51959364219E+01  0.16527741552E+02  0.41800000000E+01 0. -1.
        -11    1    1    2    0    0 -0.78160551421E+02 -0.20392780047E+02  0.19822387634E+03  0.21405056044E+03  0.00000000000E+00 0.  1.
         11    1    1    2    0    0  0.12845219395E+01 -0.46853073914E+02  0.26302912968E+03  0.26717257268E+03  0.00000000000E+00 0. -1.
</event>
<event>
 7    1  0.6671761E-006  0.1502730E+03  0.7561462E-02  0.1200138E+00
         -1   -1    0    0    0  501 -0.00000000000E+00  0.00000000000E+00  0.17569759922E+03  0.17569759922E+03  0.00000000000E+00 0.  1.
          1   -1    0    0  501    0  0.00000000000E+00 -0.00000000000E+00 -0.20146317324E+03  0.20146317324E+03  0.00000000000E+00 0. -1.
         23    2    1    2    0    0  0.24262109781E+02  0.10482965926E+03  0.96125388439E+02  0.19095603738E+03  0.12508481315E+03 0.  0.
          5    1    3    3  502    0 -0.27484618676E+02 -0.15769390922E+02  0.83982797757E+01  0.33046655762E+02  0.41800000000E+01 0.  1.
         -5    1    3    3    0  502  0.51746728457E+02  0.12059905018E+03  0.87727108663E+02  0.15790938162E+03  0.41800000000E+01 0.  1.
        -11    1    1    2    0    0 -0.54606803735E+02 -0.85024065687E+02 -0.70051643343E+02  0.12295620153E+03  0.00000000000E+00 0.  1.
         11    1    1    2    0    0  0.30344693954E+02 -0.19805593570E+02 -0.51839319116E+02  0.63248533534E+02  0.00000000000E+00 0. -1.
</event>
<event>
 7    1  0.6671761E-006  0.9485363E+02  0.7561462E-02  0.1291506E+00
          2   -1    0    0  501    0  0.00000000000E+00  0.00000000000E+00  0.80423053954E+02  0.80423053954E+02  0.00000000000E+00 0. -1.
         -2   -1    0    0    0  501 -0.00000000000E+00 -0.00000000000E+00 -0.14664247508E+03  0.14664247508E+03  0.00000000000E+00 0.  1.
         23    2    1    2    0    0  0.17062204995E+02  0.21985636286E+02 -0.63921058397E+02  0.14320483831E+03  0.12508891624E+03 0.  0.
          5    1    3    3  502    0 -0.36093403041E+02 -0.22916631935E+02  0.72699418039E+01  0.43568683893E+02  0.41800000000E+01 0. -1.
         -5    1    3    3    0  502  0.53155608036E+02  0.44902268221E+02 -0.71191000201E+02  0.99636154415E+02  0.41800000000E+01 0. -1.
        -11    1    1    2    0    0 -0.82124008174E+01 -0.48447642960E+02  0.14572722062E+02  0.51254091192E+02  0.00000000000E+00 0.  1.
         11    1    1    2    0    0 -0.88498041772E+01  0.26462006675E+02 -0.16871084794E+02  0.32606599537E+02  0.00000000000E+00 0. -1.
</event>
<event>
 7    1  0.6671761E-006  0.8926339E+02  0.7561462E-02  0.1304645E+00
          1   -1    0    0  501    0  0.00000000000E+00  0.00000000000E+00  0.32207106109E+02  0.32207106109E+02  0.00000000000E+00 0. -1.
         -1   -1    0    0    0  501 -0.00000000000E+00 -0.00000000000E+00 -0.42145900707E+03  0.42145900707E+03  0.00000000000E+00 0.  1.
         23    2    1    2    0    0  0.35690073186E+02  0.24124139890E+02 -0.20720628959E+03  0.24584086436E+03  0.12509008232E+03 0.  0.
          5    1    3    3  502    0 -0.13194982883E+02  0.46721814972E+02 -0.23012105636E+02  0.53889377185E+02  0.41800000000E+01 0. -1.
         -5    1    3    3    0  502  0.48885056069E+02 -0.22597675082E+02 -0.18419418396E+03  0.19195148718E+03  0.41800000000E+01 0. -1.
        -11    1    1    2    0    0 -0.12839426329E+02 -0.43789416967E+02 -0.16886530729E+03  0.17492242827E+03  0.00000000000E+00 0.  1.
         11    1    1    2    0    0 -0.22850646856E+02  0.19665277078E+02 -0.13180304081E+02  0.32902820547E+02  0.00000000000E+00 0. -1.
</event>
<event>
 7    1  0.6671761E-006  0.1240005E+03  0.7561462E-02  0.1236640E+00
          1   -1    0    0  501    0  0.00000000000E+00  0.00000000000E+00  0.59700796510E+03  0.59700796510E+03  0.00000000000E+00 0. -1.
         -1   -1    0    0    0  501 -0.00000000000E+00 -0.00000000000E+00 -0.26472583924E+02  0.26472583924E+02  0.00000000000E+00 0.  1.
         23    2    1    2    0    0  0.51831076884E+02  0.29668375732E+02  0.30618627863E+03  0.33609106120E+03  0.12506194924E+03 0.  0.
          5    1    3    3  502    0  0.67392318705E+02 -0.30167454706E+02  0.19877186980E+03  0.21208377723E+03  0.41800000000E+01 0. -1.
         -5    1    3    3    0  502 -0.15561241821E+02  0.59835830438E+02  0.10741440883E+03  0.12400728396E+03  0.41800000000E+01 0. -1.
        -11    1    1    2    0    0 -0.39553473168E+02  0.30954135610E+02  0.13417835380E+03  0.14327060542E+03  0.00000000000E+00 0. -1.
         11    1    1    2    0    0 -0.12277603716E+02 -0.60622511342E+02  0.13017074876E+03  0.14411888241E+03  0.00000000000E+00 0.  1.
</event>
<event>
 7    1  0.6671761E-006  0.2033738E+03  0.7561462E-02  0.1146923E+00
         -1   -1    0    0    0  501 -0.00000000000E+00  0.00000000000E+00  0.11246014201E+03  0.11246014201E+03  0.00000000000E+00 0.  1.
          1   -1    0    0  501    0  0.00000000000E+00 -0.00000000000E+00 -0.42896569681E+03  0.42896569681E+03  0.00000000000E+00 0. -1.
         23    2    1    2    0    0 -0.87821262405E+02  0.16387129407E+03 -0.14677176329E+03  0.26787305621E+03  0.12509056157E+03 0.  0.
          5    1    3    3  502    0 -0.70448182346E+02  0.75381672339E+02 -0.14445566977E+03  0.17756760923E+03  0.41800000000E+01 0.  1.
         -5    1    3    3    0  502 -0.17373080059E+02  0.88489621726E+02 -0.23160935223E+01  0.90305446974E+02  0.41800000000E+01 0.  1.
        -11    1    1    2    0    0  0.11210311995E+03 -0.13344922010E+03 -0.12635536735E+03  0.21527071958E+03  0.00000000000E+00 0.  1.
         11    1    1    2    0    0 -0.24281857546E+02 -0.30422073963E+02 -0.43378424162E+02  0.58282063045E+02  0.00000000000E+00 0. -1.
</event>
<event>
 7    1  0.9292289E-006  0.1033360E+03  0.7561462E-02  0.1273433E+00
          1   -1    0    0  501    0  0.00000000000E+00  0.00000000000E+00  0.21756622137E+03  0.21756622137E+03  0.00000000000E+00 0. -1.
         -1   -1    0    0    0  501 -0.00000000000E+00 -0.00000000000E+00 -0.84988469360E+02  0.84988469360E+02  0.00000000000E+00 0.  1.
         23    2    1    2    0    0  0.77622239797E+02  0.23135856703E+02  0.64357602396E+02  0.16232651420E+03  0.12509003257E+03 0.  0.
          5    1    3    3  502    0  0.71705038901E+02 -0.14252868712E+02 -0.14595925221E+02  0.74667732679E+02  0.41800000000E+01 0. -1.
         -5    1    3    3    0  502  0.59172008959E+01  0.37388725414E+02  0.78953527617E+02  0.87658781521E+02  0.41800000000E+01 0. -1.
        -11    1    1    2    0    0 -0.19807485414E+02 -0.31230221171E+02  0.72815871371E+02  0.81668931157E+02  0.00000000000E+00 0. -1.
         11    1    1    2    0    0 -0.57814754383E+02  0.80943644682E+01 -0.45957217562E+01  0.58559245375E+02  0.00000000000E+00 0.  1.
</event>
<event>
 7    1  0.6671761E-006  0.2432773E+03  0.7561462E-02  0.1117629E+00
         -2   -1    0    0    0  501 -0.00000000000E+00  0.00000000000E+00  0.45518813230E+02  0.45518813230E+02  0.00000000000E+00 0.  1.
          2   -1    0    0  501    0  0.00000000000E+00 -0.00000000000E+00 -0.13612791536E+04  0.13612791536E+04  0.00000000000E+00 0. -1.
         23    2    1    2    0    0 -0.26151551420E+02 -0.22158069753E+03 -0.72403745650E+03  0.76789237162E+03  0.12508615759E+03 0.  0.
          5    1    3    3  502    0 -0.76685713049E+02 -0.14138986947E+03 -0.45202839596E+03  0.47981135556E+03  0.41800000000E+01 0. -1.
         -5    1    3    3    0  502  0.50534161629E+02 -0.80190828059E+02 -0.27200906054E+03  0.28808101606E+03  0.41800000000E+01 0. -1.
        -11    1    1    2    0    0  0.39750556324E+02  0.88685209033E+02 -0.34391518125E+03  0.35738330253E+03  0.00000000000E+00 0.  1.
         11    1    1    2    0    0 -0.13599004904E+02  0.13289548850E+03 -0.24780770258E+03  0.28152229264E+03  0.00000000000E+00 0. -1.
</event>
<event>
 6    1  0.6671761E-006  0.8571271E+02  0.7561462E-02  0.1313579E+00
         -1   -1    0    0    0  501 -0.00000000000E+00  0.00000000000E+00  0.26717578626E+03  0.26717578626E+03  0.00000000000E+00 0.  1.
          1   -1    0    0  501    0  0.00000000000E+00 -0.00000000000E+00 -0.12385307233E+03  0.12385307233E+03  0.00000000000E+00 0. -1.
          5    1    1    2  502    0 -0.16679531891E+02 -0.91693221867E+01 -0.99727789315E+01  0.21890910741E+02  0.41800000000E+01 0. -1.
         -5    1    1    2    0  502  0.33450080612E+02  0.42219387231E+02  0.23499730010E+03  0.24112774209E+03  0.41800000000E+01 0.  1.
        -11    1    1    2    0    0  0.12018437706E+02  0.27969157934E+02 -0.18878265078E+02  0.35820462487E+02  0.00000000000E+00 0.  1.
         11    1    1    2    0    0 -0.28788986427E+02 -0.61019222978E+02 -0.62823542165E+02  0.92189743261E+02  0.00000000000E+00 0. -1.
</event>
<event>
 7    1  0.6671761E-006  0.1664747E+03  0.7561462E-02  0.1181575E+00
          2   -1    0    0  501    0  0.00000000000E+00  0.00000000000E+00  0.67570848403E+03  0.67570848403E+03  0.00000000000E+00 0. -1.
         -2   -1    0    0    0  501 -0.00000000000E+00 -0.00000000000E+00 -0.47253857204E+02  0.47253857204E+02  0.00000000000E+00 0.  1.
         23    2    1    2    0    0 -0.11737941954E+02  0.14131015153E+03  0.33624828558E+03  0.38576699363E+03  0.12508767169E+03 0.  0.
          5    1    3    3  502    0 -0.36649910509E+02  0.42817045029E+01  0.25036841587E+02  0.44786881678E+02  0.41800000000E+01 0. -1.
         -5    1    3    3    0  502  0.24911968555E+02  0.13702844703E+03  0.31121144400E+03  0.34098011195E+03  0.41800000000E+01 0. -1.
        -11    1    1    2    0    0 -0.27733374059E+02 -0.58196919914E+02  0.18504471245E+03  0.19595297173E+03  0.00000000000E+00 0.  1.
         11    1    1    2    0    0  0.39471316013E+02 -0.83113231615E+02  0.10716162880E+03  0.14124237588E+03  0.00000000000E+00 0. -1.
</event>
<event>
 7    1  0.6671761E-006  0.1182683E+03  0.7561462E-02  0.1245981E+00
         -1   -1    0    0    0  501 -0.00000000000E+00  0.00000000000E+00  0.83900587106E+02  0.83900587106E+02  0.00000000000E+00 0.  1.
          1   -1    0    0  501    0  0.00000000000E+00 -0.00000000000E+00 -0.37483284003E+03  0.37483284003E+03  0.00000000000E+00 0. -1.
         23    2    1    2    0    0 -0.69906159542E+02 -0.31285774515E+02 -0.27090597000E+01  0.14668586353E+03  0.12507490846E+03 0.  0.
          5    1    3    3  502    0 -0.16026481194E+02  0.30702254941E+02  0.40773567737E+02  0.53660346476E+02  0.41800000000E+01 0. -1.
         -5    1    3    3    0  502 -0.53879678348E+02 -0.61988029457E+02 -0.43482627437E+02  0.93025517056E+02  0.41800000000E+01 0. -1.
        -11    1    1    2    0    0  0.55945974926E+02 -0.25105478601E+02 -0.13961419899E+03  0.15248725103E+03  0.00000000000E+00 0.  1.
         11    1    1    2    0    0  0.13960184616E+02  0.56391253116E+02 -0.14860899423E+03  0.15956031258E+03  0.00000000000E+00 0. -1.
</event>
<event>
 7    1  0.6671761E-006  0.7083187E+02  0.7561462E-02  0.1357287E+00
          1   -1    0    0  501    0  0.00000000000E+00  0.00000000000E+00  0.95817405194E+02  0.95817405194E+02  0.00000000000E+00 0. -1.
         -1   -1    0    0    0  501 -0.00000000000E+00 -0.00000000000E+00 -0.16485202293E+03  0.16485202293E+03  0.00000000000E+00 0.  1.
         23    2    1    2    0    0  0.39899850730E+02 -0.15024702006E+02 -0.85957532850E+02  0.15765129042E+03  0.12508993628E+03 0.  0.
          5    1    3    3  502    0  0.17012915879E+00 -0.22353146505E+02 -0.10873303123E+03  0.11108571728E+03  0.41800000000E+01 0. -1.
         -5    1    3    3    0  502  0.39729721572E+02  0.73284444989E+01  0.22775498383E+02  0.46565573136E+02  0.41800000000E+01 0. -1.
        -11    1    1    2    0    0  0.12611647012E+02 -0.13560897778E+02  0.35812376039E+02  0.40317215510E+02  0.00000000000E+00 0. -1.
         11    1    1    2    0    0 -0.52511497742E+02  0.28585599784E+02 -0.18889460922E+02  0.62700922195E+02  0.00000000000E+00 0.  1.
</event>
<event>
 7    1  0.6671761E-006  0.1441770E+03  0.7561462E-02  0.1207817E+00
          2   -1    0    0  501    0  0.00000000000E+00  0.00000000000E+00  0.35923824976E+02  0.35923824976E+02  0.00000000000E+00 0. -1.
         -2   -1    0    0    0  501 -0.00000000000E+00 -0.00000000000E+00 -0.64549759262E+03  0.64549759262E+03  0.00000000000E+00 0.  1.
         23    2    1    2    0    0  0.75353214167E+02 -0.62135035744E+02 -0.40910931499E+03  0.43882216196E+03  0.12512229485E+03 0.  0.
          5    1    3    3  502    0  0.97285536773E+02 -0.79288945012E+02 -0.28301586650E+03  0.30962342540E+03  0.41800000000E+01 0.  1.
         -5    1    3    3    0  502 -0.21932322606E+02  0.17153909268E+02 -0.12609344848E+03  0.12919873656E+03  0.41800000000E+01 0.  1.
        -11    1    1    2    0    0 -0.48970378192E+02 -0.16504980962E+02 -0.97797736660E+02  0.11061152577E+03  0.00000000000E+00 0. -1.
         11    1    1    2    0    0 -0.26382835975E+02  0.78640016705E+02 -0.10266671599E+03  0.13198772986E+03  0.00000000000E+00 0.  1.
</event>
<event>
 7    1  0.6671761E-006  0.1665673E+03  0.7561462E-02  0.1181476E+00
         -2   -1    0    0    0  501 -0.00000000000E+00  0.00000000000E+00  0.34393476652E+02  0.34393476652E+02  0.00000000000E+00 0.  1.
          2   -1    0    0  501    0  0.00000000000E+00 -0.00000000000E+00 -0.88780719095E+03  0.88780719095E+03  0.00000000000E+00 0. -1.
         23    2    1    2    0    0 -0.70338960935E+02 -0.11674264072E+03 -0.46889740480E+03  0.50407229381E+03  0.12509071737E+03 0.  0.
          5    1    3    3  502    0 -0.38133371979E+02  0.15757948886E+02 -0.59374918060E+02  0.72424583576E+02  0.41800000000E+01 0. -1.
         -5    1    3    3    0  502 -0.32205588956E+02 -0.13250058960E+03 -0.40952248674E+03  0.43164771024E+03  0.41800000000E+01 0. -1.
        -11    1    1    2    0    0  0.70484367545E+01 -0.10777437135E+02 -0.69909134516E+01  0.14652866025E+02  0.00000000000E+00 0.  1.
         11    1    1    2    0    0  0.63290524180E+02  0.12752007785E+03 -0.37752539604E+03  0.40347550776E+03  0.00000000000E+00 0. -1.
</event>
<event>
 7    1  0.6671761E-006  0.9827536E+02  0.7561462E-02  0.1283965E+00
         -1   -1    0    0    0  501 -0.00000000000E+00  0.00000000000E+00  0.67057261323E+02  0.67057261323E+02  0.00000000000E+00 0.  1.
          1   -1    0    0  501    0  0.00000000000E+00 -0.00000000000E+00 -0.34550380007E+03  0.34550380007E+03  0.00000000000E+00 0. -1.
         23    2    1    2    0    0 -0.43651994512E+02  0.65853331885E+02 -0.54888976256E+02  0.15780555471E+03  0.12509050899E+03 0.  0.
          5    1    3    3  502    0 -0.37011190608E+02  0.78479740909E+02  0.13417634314E+02  0.87899961740E+02  0.41800000000E+01 0.  1.
         -5    1    3    3    0  502 -0.66408039037E+01 -0.12626409024E+02 -0.68306610570E+02  0.69905592973E+02  0.41800000000E+01 0.  1.
        -11    1    1    2    0    0  0.12573179280E+02 -0.62274009796E+02 -0.57215225161E+02  0.85496895403E+02  0.00000000000E+00 0.  1.
         11    1    1    2    0    0  0.31078815231E+02 -0.35793220888E+01 -0.16634233733E+03  0.16925861128E+03  0.00000000000E+00 0. -1.
</event>
<event>
 7    1  0.6671761E-006  0.2019014E+03  0.7561462E-02  0.1148145E+00
          2   -1    0    0  501    0  0.00000000000E+00  0.00000000000E+00  0.98751173071E+03  0.98751173071E+03  0.00000000000E+00 0. -1.
         -2   -1    0    0    0  501 -0.00000000000E+00 -0.00000000000E+00 -0.61332051551E+02  0.61332051551E+02  0.00000000000E+00 0.  1.
         23    2    1    2    0    0 -0.19262309923E+03 -0.11427763257E+01  0.24301286721E+03  0.33437606591E+03  0.12508851076E+03 0.  0.
          5    1    3    3  502    0 -0.99057955057E+02 -0.20151196551E+02  0.21028820815E+03  0.23336056237E+03  0.41800000000E+01 0.  1.
         -5    1    3    3    0  502 -0.93565144171E+02  0.19008420225E+02  0.32724659059E+02  0.10101550353E+03  0.41800000000E+01 0.  1.
        -11    1    1    2    0    0  0.12067335747E+03 -0.36216362417E+02  0.36492935484E+03  0.38606620952E+03  0.00000000000E+00 0.  1.
         11    1    1    2    0    0  0.71949741762E+02  0.37359138743E+02  0.31823745711E+03  0.32840150684E+03  0.00000000000E+00 0. -1.
</event>
<event>
 7    1  0.6671761E-006  0.1426994E+03  0.7561462E-02  0.1209742E+00
          1   -1    0    0  501    0  0.00000000000E+00  0.00000000000E+00  0.33487935616E+02  0.33487935616E+02  0.00000000000E+00 0. -1.
         -1   -1    0    0    0  501 -0.00000000000E+00 -0.00000000000E+00 -0.74415685673E+03  0.74415685673E+03  0.00000000000E+00 0.  1.
         23    2    1    2    0    0 -0.10368274326E+02  0.11646493627E+03 -0.45148703507E+03  0.47921116121E+03  0.11014177999E+03 0.  0.
          5    1    3    3  502    0  0.32940762675E+02  0.57914095920E+02 -0.10000997590E+03  0.12024393553E+03  0.41800000000E+01 0. -1.
         -5    1    3    3    0  502 -0.43309037002E+02  0.58550840347E+02 -0.35147705916E+03  0.35896722567E+03  0.41800000000E+01 0.  1.
        -11    1    1    2    0    0  0.46705248663E+02 -0.41898330925E+02 -0.13784624352E+03  0.15145440648E+03  0.00000000000E+00 0.  1.
         11    1    1    2    0    0 -0.36336974336E+02 -0.74566605342E+02 -0.12133564252E+03  0.14697922466E+03  0.00000000000E+00 0. -1.
</event>
<event>
 7    1  0.6671761E-006  0.1480995E+03  0.7561462E-02  0.1202828E+00
          2   -1    0    0  501    0  0.00000000000E+00  0.00000000000E+00  0.49047442129E+03  0.49047442129E+03  0.00000000000E+00 0. -1.
         -2   -1    0    0    0  501 -0.00000000000E+00 -0.00000000000E+00 -0.61756869806E+02  0.61756869806E+02  0.00000000000E+00 0.  1.
         23    2    1    2    0    0  0.95867682538E+02  0.57984711781E+02  0.10477609772E+03  0.19793253831E+03  0.12508564951E+03 0.  0.
          5    1    3    3  502    0  0.46523606899E+02  0.95108554697E+02  0.68988543379E+02  0.12643960888E+03  0.41800000000E+01 0. -1.
         -5    1    3    3    0  502  0.49344075639E+02 -0.37123842916E+02  0.35787554339E+02  0.71492929434E+02  0.41800000000E+01 0. -1.
        -11    1    1    2    0    0 -0.38532947238E+01 -0.32695072427E+02  0.27562418384E+02  0.42936028559E+02  0.00000000000E+00 0.  1.
         11    1    1    2    0    0 -0.92014387814E+02 -0.25289639354E+02  0.29637903539E+03  0.31136272423E+03  0.00000000000E+00 0. -1.
</event>
<event>
 7    1  0.6671761E-006  0.9956843E+02  0.7561462E-02  0.1281206E+00
          4   -1    0    0  501    0  0.00000000000E+00  0.00000000000E+00  0.20104516738E+03  0.20104516738E+03  0.00000000000E+00 0. -1.
         -4   -1    0    0    0  501 -0.00000000000E+00 -0.00000000000E+00 -0.79338611732E+02  0.79338611732E+02  0.00000000000E+00 0.  1.
         23    2    1    2    0    0 -0.18527838164E+02  0.60541268981E+02  0.57502848360E+02  0.15153453226E+03  0.12509041075E+03 0.  0.
          5    1    3    3  502    0 -0.37312752655E+02  0.56791362170E+02 -0.20504189870E+02  0.71101297668E+02  0.41800000000E+01 0.  1.
         -5    1    3    3    0  502  0.18784914491E+02  0.37499068115E+01  0.78007038230E+02  0.80433234592E+02  0.41800000000E+01 0.  1.
        -11    1    1    2    0    0 -0.37321143895E+02 -0.29363629933E+02  0.23000497784E+02  0.52764698832E+02  0.00000000000E+00 0. -1.
         11    1    1    2    0    0  0.55848982059E+02 -0.31177639048E+02  0.41203209501E+02  0.76084548016E+02  0.00000000000E+00 0.  1.
</event>
<event>
 7    1  0.6671761E-006  0.1075879E+03  0.7561462E-02  0.1265103E+00
          2   -1    0    0  501    0  0.00000000000E+00  0.00000000000E+00  0.11760372465E+03  0.11760372465E+03  0.00000000000E+00 0. -1.
         -2   -1    0    0    0  501 -0.00000000000E+00 -0.00000000000E+00 -0.18029937874E+03  0.18029937874E+03  0.00000000000E+00 0.  1.
         23    2    1    2    0    0  0.92914661090E+02  0.50507671319E+01 -0.66275585833E+02  0.16943667310E+03  0.12513068536E+03 0.  0.
          5    1    3    3  502    0  0.88583232689E+02 -0.18687520924E+02  0.82369187858E+01  0.91002921838E+02  0.41800000000E+01 0.  1.
         -5    1    3    3    0  502  0.43314284006E+01  0.23738288056E+02 -0.74512504619E+02  0.78433751258E+02  0.41800000000E+01 0.  1.
        -11    1    1    2    0    0 -0.42618931984E+01 -0.10403556811E+02 -0.31139649937E+02  0.33107031371E+02  0.00000000000E+00 0.  1.
         11    1    1    2    0    0 -0.88652767891E+02  0.53527896795E+01  0.34719581681E+02  0.95359398930E+02  0.00000000000E+00 0. -1.
</event>
<event>
 7    1  0.6671761E-006  0.1205279E+03  0.7561462E-02  0.1242229E+00
         -2   -1    0    0    0  501 -0.00000000000E+00  0.00000000000E+00  0.66356122276E+03  0.66356122276E+03  0.00000000000E+00 0. -1.
          2   -1    0    0  501    0  0.00000000000E+00 -0.00000000000E+00 -0.32837200732E+02  0.32837200732E+02  0.00000000000E+00 0.  1.
         23    2    1    2    0    0 -0.55572517427E+02  0.78390010487E+02  0.38998645298E+03  0.42067835414E+03  0.12509015026E+03 0.  0.
          5    1    3    3  502    0 -0.42300711749E+02  0.92995770596E+02  0.38700701082E+03  0.40028672522E+03  0.41800000000E+01 0.  1.
         -5    1    3    3    0  502 -0.13271805678E+02 -0.14605760109E+02  0.29794421627E+01  0.20391628918E+02  0.41800000000E+01 0.  1.
        -11    1    1    2    0    0  0.68589274925E+02 -0.43069817545E+02  0.93281469928E+02  0.12353513852E+03  0.00000000000E+00 0.  1.
         11    1    1    2    0    0 -0.13016757498E+02 -0.35320192942E+02  0.14745609911E+03  0.15218493083E+03  0.00000000000E+00 0. -1.
</event>
<event>
 7    1  0.6671761E-006  0.1225257E+03  0.7561462E-02  0.1238988E+00
         -2   -1    0    0    0  501 -0.00000000000E+00  0.00000000000E+00  0.73502901198E+02  0.73502901198E+02  0.00000000000E+00 0.  1.
          2   -1    0    0  501    0  0.00000000000E+00 -0.00000000000E+00 -0.30062734106E+03  0.30062734106E+03  0.00000000000E+00 0. -1.
         23    2    1    2    0    0 -0.85659918915E+02  0.29094513069E+02 -0.68448714359E+02  0.16886902908E+03  0.12508960823E+03 0.  0.
          5    1    3    3  502    0  0.23326377666E+02 -0.52543003284E+01  0.13885067929E+02  0.27964174909E+02  0.41800000000E+01 0.  1.
         -5    1    3    3    0  502 -0.10898629658E+03  0.34348813398E+02 -0.82333782288E+02  0.14090485418E+03  0.41800000000E+01 0.  1.
        -11    1    1    2    0    0  0.21664785539E+02 -0.36049560920E+02 -0.12647438972E+03  0.13328430151E+03  0.00000000000E+00 0. -1.
         11    1    1    2    0    0  0.63995133376E+02  0.69550478506E+01 -0.32201335792E+02  0.71976911668E+02  0.00000000000E+00 0.  1.
</event>
<event>
 7    1  0.6671761E-006  0.1251351E+03  0.7561462E-02  0.1234858E+00
         -1   -1    0    0    0  501 -0.00000000000E+00  0.00000000000E+00  0.26814113933E+02  0.26814113933E+02  0.00000000000E+00 0.  1.
          1   -1    0    0  501    0  0.00000000000E+00 -0.00000000000E+00 -0.85711325539E+03  0.85711325539E+03  0.00000000000E+00 0. -1.
         23    2    1    2    0    0 -0.64348965100E+01  0.74151449004E+02 -0.23035591816E+03  0.27248781903E+03  0.12508364084E+03 0.  0.
          5    1    3    3  502    0 -0.40639354835E+02 -0.13608051980E+02 -0.34705527644E+02  0.55305354977E+02  0.41800000000E+01 0.  1.
         -5    1    3    3    0  502  0.34204458325E+02  0.87759500984E+02 -0.19565039051E+03  0.21718246405E+03  0.41800000000E+01 0.  1.
        -11    1    1    2    0    0  0.13200701398E+02  0.17001036444E+02 -0.58472313073E+02  0.62308146768E+02  0.00000000000E+00 0.  1.
         11    1    1    2    0    0 -0.67658048884E+01 -0.91152485448E+02 -0.54147091023E+03  0.54913140353E+03  0.00000000000E+00 0. -1.
</event>
<event>
 6    1  0.6671761E-006  0.1003899E+03  0.7561462E-02  0.1279478E+00
         -2   -1    0    0    0  501 -0.00000000000E+00  0.00000000000E+00  0.11146638590E+03  0.11146638590E+03  0.00000000000E+00 0.  1.
          2   -1    0    0  501    0  0.00000000000E+00 -0.00000000000E+00 -0.13099294764E+03  0.13099294764E+03  0.00000000000E+00 0. -1.
          5    1    1    2  502    0  0.55777273255E+02  0.89451088667E+01 -0.30718391678E+02  0.64437653369E+02  0.41800000000E+01 0. -1.
         -5    1    1    2    0  502 -0.60322650243E+02 -0.16518680978E+00  0.54852322794E+02  0.81640058396E+02  0.41800000000E+01 0.  1.
        -11    1    1    2    0    0 -0.33946995051E+01  0.37024786914E+02 -0.30437046402E+02  0.48049689119E+02  0.00000000000E+00 0. -1.
         11    1    1    2    0    0  0.79400764938E+01 -0.45804708971E+02 -0.13223446451E+02  0.48331932661E+02  0.00000000000E+00 0.  1.
</event>
<event>
 7    1  0.6671761E-006  0.1165777E+03  0.7561462E-02  0.1248852E+00
         -2   -1    0    0    0  501 -0.00000000000E+00  0.00000000000E+00  0.61920339826E+02  0.61920339826E+02  0.00000000000E+00 0.  1.
          2   -1    0    0  501    0  0.00000000000E+00 -0.00000000000E+00 -0.29779230960E+03  0.29779230960E+03  0.00000000000E+00 0. -1.
         23    2    1    2    0    0  0.48350409790E+02 -0.64655891015E+02 -0.14573476676E+03  0.20833870854E+03  0.12509296088E+03 0.  0.
          5    1    3    3  502    0  0.90801480364E+02 -0.40406474329E+02 -0.10412644525E+03  0.14400479507E+03  0.41800000000E+01 0. -1.
         -5    1    3    3    0  502 -0.42451070574E+02 -0.24249416686E+02 -0.41608321510E+02  0.64333913462E+02  0.41800000000E+01 0. -1.
        -11    1    1    2    0    0 -0.50137796105E+02  0.53521703606E+02 -0.10782231747E+03  0.13039947661E+03  0.00000000000E+00 0. -1.
         11    1    1    2    0    0  0.17873863149E+01  0.11134187409E+02  0.17685114448E+02  0.20974464287E+02  0.00000000000E+00 0.  1.
</event>
<event>
 7    1  0.6671761E-006  0.9454273E+02  0.7561462E-02  0.1292209E+00
          2   -1    0    0  501    0  0.00000000000E+00  0.00000000000E+00  0.49279950710E+02  0.49279950710E+02  0.00000000000E+00 0. -1.
         -2   -1    0    0    0  501 -0.00000000000E+00 -0.00000000000E+00 -0.32638740349E+03  0.32638740349E+03  0.00000000000E+00 0.  1.
         23    2    1    2    0    0  0.22453005273E+02  0.62417268484E+02 -0.14076264702E+03  0.19963976290E+03  0.12506741896E+03 0.  0.
          5    1    3    3  502    0  0.58773825399E+02  0.37993381844E+02 -0.13894842019E+03  0.15563417198E+03  0.41800000000E+01 0.  1.
         -5    1    3    3    0  502 -0.36320820126E+02  0.24423886639E+02 -0.18142268294E+01  0.44005590920E+02  0.41800000000E+01 0.  1.
        -11    1    1    2    0    0  0.53379340456E+01 -0.36883733710E+02 -0.13301943917E+03  0.13814150191E+03  0.00000000000E+00 0.  1.
         11    1    1    2    0    0 -0.27790939319E+02 -0.25533534774E+02 -0.33253665933E+01  0.37886089390E+02  0.00000000000E+00 0. -1.
</event>
<event>
 7    1  0.6671761E-006  0.1838862E+03  0.7561462E-02  0.1164094E+00
         -1   -1    0    0    0  501 -0.00000000000E+00  0.00000000000E+00  0.12623472685E+03  0.12623472685E+03  0.00000000000E+00 0.  1.
          1   -1    0    0  501    0  0.00000000000E+00 -0.00000000000E+00 -0.31925919512E+03  0.31925919512E+03  0.00000000000E+00 0. -1.
         23    2    1    2    0    0  0.13851154886E+03  0.96851625861E+02 -0.95976622273E+02  0.23113770861E+03  0.12508973466E+03 0.  0.
          5    1    3    3  502    0  0.98550857725E+02  0.10608373052E+03 -0.11574293952E+03  0.18541825662E+03  0.41800000000E+01 0.  1.
         -5    1    3    3    0  502  0.39960691136E+02 -0.92321046567E+01  0.19766317250E+02  0.45719451988E+02  0.41800000000E+01 0.  1.
        -11    1    1    2    0    0 -0.94609375734E+02 -0.10001578582E+03 -0.42129688535E+02  0.14397569950E+03  0.00000000000E+00 0.  1.
         11    1    1    2    0    0 -0.43902173127E+02  0.31641599543E+01 -0.54918157465E+02  0.70380513872E+02  0.00000000000E+00 0. -1.
</event>
<event>
 7    1  0.6671761E-006  0.1791329E+03  0.7561462E-02  0.1168645E+00
         -2   -1    0    0    0  501 -0.00000000000E+00  0.00000000000E+00  0.10839896210E+03  0.10839896210E+03  0.00000000000E+00 0.  1.
          2   -1    0    0  501    0  0.00000000000E+00 -0.00000000000E+00 -0.35084179004E+03  0.35084179004E+03  0.00000000000E+00 0. -1.
         23    2    1    2    0    0 -0.69235144305E+02 -0.13722620630E+03 -0.68007090470E+02  0.20951556275E+03  0.12508904739E+03 0.  0.
          5    1    3    3  502    0  0.28790239273E+02 -0.50986462790E+02 -0.51042838882E+02  0.77790366154E+02  0.41800000000E+01 0.  1.
         -5    1    3    3    0  502 -0.98025383578E+02 -0.86239743514E+02 -0.16964251588E+02  0.13172519660E+03  0.41800000000E+01 0.  1.
        -11    1    1    2    0    0  0.51418636940E+02  0.28559639231E+02 -0.24546628101E+02  0.63734340577E+02  0.00000000000E+00 0.  1.
         11    1    1    2    0    0  0.17816507365E+02  0.10866656707E+03 -0.14988910937E+03  0.18599084881E+03  0.00000000000E+00 0. -1.
</event>
<event>
 7    1  0.6671761E-006  0.1048842E+03  0.7561462E-02  0.1270348E+00
          1   -1    0    0  501    0  0.00000000000E+00  0.00000000000E+00  0.22267450222E+03  0.22267450222E+03  0.00000000000E+00 0. -1.
         -1   -1    0    0    0  501 -0.00000000000E+00 -0.00000000000E+00 -0.82160247704E+02  0.82160247704E+02  0.00000000000E+00 0.  1.
         23    2    1    2    0    0 -0.15016654425E+02  0.43506620157E+02  0.19408126389E+01  0.13330251363E+03  0.12508983763E+03 0.  0.
          5    1    3    3  502    0  0.31178782048E+02  0.70625049283E+02 -0.10848162261E+02  0.78071563714E+02  0.41800000000E+01 0. -1.
         -5    1    3    3    0  502 -0.46195436473E+02 -0.27118429126E+02  0.12788974900E+02  0.55230949912E+02  0.41800000000E+01 0. -1.
        -11    1    1    2    0    0  0.21075838466E+02  0.11074245327E+02  0.10388409016E+03  0.10657736188E+03  0.00000000000E+00 0. -1.
         11    1    1    2    0    0 -0.60591840407E+01 -0.54580865484E+02  0.34689351716E+02  0.64954874418E+02  0.00000000000E+00 0.  1.
</event>
<event>
 7    1  0.6671761E-006  0.1603209E+03  0.7561462E-02  0.1188335E+00
         -1   -1    0    0    0  501 -0.00000000000E+00  0.00000000000E+00  0.78013536887E+03  0.78013536887E+03  0.00000000000E+00 0.  1.
          1   -1    0    0  501    0  0.00000000000E+00 -0.00000000000E+00 -0.42829726352E+02  0.42829726352E+02  0.00000000000E+00 0. -1.
         23    2    1    2    0    0 -0.12022667055E+03  0.28261142767E+02  0.56756362355E+03  0.59416220690E+03  0.12508843601E+03 0.  0.
          5    1    3    3  502    0 -0.11696678852E+03 -0.20915633794E+02  0.31264161282E+03  0.33448608913E+03  0.41800000000E+01 0. -1.
         -5    1    3    3    0  502 -0.32598820291E+01  0.49176776561E+02  0.25492201074E+03  0.25967611777E+03  0.41800000000E+01 0. -1.
        -11    1    1    2    0    0  0.56467612232E+02  0.31702424754E+02  0.58616783204E+02  0.87347365385E+02  0.00000000000E+00 0.  1.
         11    1    1    2    0    0  0.63759058318E+02 -0.59963567521E+02  0.11112523576E+03  0.14145552294E+03  0.00000000000E+00 0. -1.
</event>
<event>
 7    1  0.6671761E-006  0.1418388E+03  0.7561462E-02  0.1210876E+00
         -2   -1    0    0    0  501 -0.00000000000E+00  0.00000000000E+00  0.14110807514E+03  0.14110807514E+03  0.00000000000E+00 0.  1.
          2   -1    0    0  501    0  0.00000000000E+00 -0.00000000000E+00 -0.21053173382E+03  0.21053173382E+03  0.00000000000E+00 0. -1.
         23    2    1    2    0    0 -0.47721533819E+02  0.80725401691E+02  0.60347836062E+02  0.16761010157E+03  0.12512933134E+03 0.  0.
          5    1    3    3  502    0 -0.71108507680E+02  0.31042082420E+00  0.38450346493E+02  0.80947005942E+02  0.41800000000E+01 0. -1.
         -5    1    3    3    0  502  0.23386973861E+02  0.80414980867E+02  0.21897489569E+02  0.86663095627E+02  0.41800000000E+01 0. -1.
        -11    1    1    2    0    0  0.26493546241E+02 -0.97816927730E+02 -0.88347972892E+02  0.13444487219E+03  0.00000000000E+00 0.  1.
         11    1    1    2    0    0  0.21227987578E+02  0.17091526039E+02 -0.41423521853E+02  0.49584835199E+02  0.00000000000E+00 0. -1.
</event>
<event>
 7    1  0.6671761E-006  0.1269465E+03  0.7561462E-02  0.1232058E+00
         -2   -1    0    0    0  501 -0.00000000000E+00  0.00000000000E+00  0.61336895039E+02  0.61336895039E+02  0.00000000000E+00 0. -1.
          2   -1    0    0  501    0  0.00000000000E+00 -0.00000000000E+00 -0.36122201302E+03  0.36122201302E+03  0.00000000000E+00 0.  1.
         23    2    1    2    0    0  0.90114533480E+02 -0.34453882756E+02 -0.11725539545E+03  0.19673466747E+03  0.12509197593E+03 0.  0.
          5    1    3    3  502    0 -0.18809337671E+02  0.13737955990E+02 -0.60030519874E+02  0.64526415791E+02  0.41800000000E+01 0. -1.
         -5    1    3    3    0  502  0.10892387115E+03 -0.48191838745E+02 -0.57224875580E+02  0.13220825168E+03  0.41800000000E+01 0. -1.
        -11    1    1    2    0    0 -0.43973672302E+02 -0.11990221985E+02 -0.18628788431E+02  0.49239019460E+02  0.00000000000E+00 0. -1.
         11    1    1    2    0    0 -0.46140861178E+02  0.46444104741E+02 -0.16400093410E+03  0.17658522113E+03  0.00000000000E+00 0.  1.
</event>
<event>
 7    1  0.6671761E-006  0.2996733E+03  0.7561462E-02  0.1085404E+00
         -3   -1    0    0    0  501 -0.00000000000E+00  0.00000000000E+00  0.54078474161E+03  0.54078474161E+03  0.00000000000E+00 0.  1.
          3   -1    0    0  501    0  0.00000000000E+00 -0.00000000000E+00 -0.28631129031E+03  0.28631129031E+03  0.00000000000E+00 0. -1.
         23    2    1    2    0    0  0.23968153668E+03 -0.15624654896E+03  0.38825580386E+03  0.49824669499E+03  0.12508787612E+03 0.  0.
          5    1    3    3  502    0 -0.97323508106E+00  0.12374258740E+02  0.42493696683E+02  0.44466348217E+02  0.41800000000E+01 0. -1.
         -5    1    3    3    0  502  0.24065477176E+03 -0.16862080770E+03  0.34576210718E+03  0.45378034678E+03  0.41800000000E+01 0. -1.
        -11    1    1    2    0    0 -0.18070921137E+03  0.84478020099E+02 -0.54669853497E+02  0.20683604095E+03  0.00000000000E+00 0. -1.
         11    1    1    2    0    0 -0.58972325310E+02  0.71768528864E+02 -0.79112499055E+02  0.12201329597E+03  0.00000000000E+00 0.  1.
</event>
<event>
 7    1  0.6671761E-006  0.1219322E+03  0.7561462E-02  0.1239943E+00
          1   -1    0    0  501    0  0.00000000000E+00  0.00000000000E+00  0.53486361111E+03  0.53486361111E+03  0.00000000000E+00 0. -1.
         -1   -1    0    0    0  501 -0.00000000000E+00 -0.00000000000E+00 -0.29240340694E+02  0.29240340694E+02  0.00000000000E+00 0.  1.
         23    2    1    2    0    0 -0.31988537255E+02 -0.55357211722E+02  0.29789760519E+03  0.32802436043E+03  0.12152905190E+03 0.  0.
          5    1    3    3  502    0  0.40165699196E+02 -0.45711473531E+02  0.10014950034E+03  0.11726131938E+03  0.41800000000E+01 0. -1.
         -5    1    3    3    0  502 -0.72154236451E+02 -0.96457381910E+01  0.19774810485E+03  0.21076304106E+03  0.41800000000E+01 0.  1.
        -11    1    1    2    0    0  0.35323827697E+02 -0.15815953872E+02  0.96698595118E+02  0.10415630321E+03  0.00000000000E+00 0. -1.
         11    1    1    2    0    0 -0.33352904421E+01  0.71173165593E+02  0.11102707011E+03  0.13192328817E+03  0.00000000000E+00 0.  1.
</event>
<event>
 7    1  0.6671761E-006  0.8968306E+02  0.7561462E-02  0.1303621E+00
          1   -1    0    0  501    0  0.00000000000E+00  0.00000000000E+00  0.41290834293E+02  0.41290834293E+02  0.00000000000E+00 0. -1.
         -1   -1    0    0    0  501 -0.00000000000E+00 -0.00000000000E+00 -0.28858960745E+03  0.28858960745E+03  0.00000000000E+00 0.  1.
         23    2    1    2    0    0 -0.24752066283E+02 -0.12004417998E+02 -0.16773501920E+03  0.21104362038E+03  0.12509037613E+03 0.  0.
          5    1    3    3  502    0 -0.27355433359E+02  0.54558521976E+02 -0.85482212135E+02  0.10511723477E+03  0.41800000000E+01 0.  1.
         -5    1    3    3    0  502  0.26033670756E+01 -0.66562939974E+02 -0.82252807068E+02  0.10592638561E+03  0.41800000000E+01 0.  1.
        -11    1    1    2    0    0  0.32157089111E+02 -0.53302382303E+01 -0.91086983073E+02  0.96743621521E+02  0.00000000000E+00 0.  1.
         11    1    1    2    0    0 -0.74050228277E+01  0.17334656228E+02  0.11523229121E+02  0.22093199836E+02  0.00000000000E+00 0. -1.
</event>
<event>
 7    1  0.6671761E-006  0.1107777E+03  0.7561462E-02  0.1259136E+00
         -3   -1    0    0    0  501 -0.00000000000E+00  0.00000000000E+00  0.26452021506E+02  0.26452021506E+02  0.00000000000E+00 0.  1.
          3   -1    0    0  501    0  0.00000000000E+00 -0.00000000000E+00 -0.73956041033E+03  0.73956041033E+03  0.00000000000E+00 0. -1.
         23    2    1    2    0    0  0.21221516224E+02  0.17091834585E+02 -0.16209572335E+03  0.20655408517E+03  0.12508830085E+03 0.  0.
          5    1    3    3  502    0  0.72145403768E+02  0.59434121344E+01 -0.70814916337E+02  0.10135338282E+03  0.41800000000E+01 0.  1.
         -5    1    3    3    0  502 -0.50923887543E+02  0.11148422451E+02 -0.91280807015E+02  0.10520070235E+03  0.41800000000E+01 0.  1.
        -11    1    1    2    0    0 -0.45263618055E+02  0.22407923238E+02 -0.30005671571E+03  0.30427773956E+03  0.00000000000E+00 0.  1.
         11    1    1    2    0    0  0.24042101831E+02 -0.39499757823E+02 -0.25095594976E+03  0.25518060712E+03  0.00000000000E+00 0. -1.
</event>
<event>
 6    1  0.6671761E-006  0.1063700E+03  0.7561462E-02  0.1267444E+00
          1   -1    0    0  501    0  0.00000000000E+00  0.00000000000E+00  0.14894323581E+03  0.14894323581E+03  0.00000000000E+00 0. -1.
         -1   -1    0    0    0  501 -0.00000000000E+00 -0.00000000000E+00 -0.18618301679E+03  0.18618301679E+03  0.00000000000E+00 0.  1.
          5    1    1    2  502    0  0.31452560974E+02  0.42294170127E+02 -0.11214329639E+03  0.12398246547E+03  0.41800000000E+01 0. -1.
         -5    1    1    2    0  502  0.83504389136E+00 -0.69145387669E+02 -0.21411613476E+02  0.72510078788E+02  0.41800000000E+01 0.  1.
        -11    1    1    2    0    0  0.36859420869E+01  0.48477064549E+02  0.22172180438E+02  0.53434235671E+02  0.00000000000E+00 0. -1.
         11    1    1    2    0    0 -0.35973546952E+02 -0.21625847007E+02  0.74142948443E+02  0.85199472668E+02  0.00000000000E+00 0.  1.
</event>
<event>
 7    1  0.6671761E-006  0.9461048E+02  0.7561462E-02  0.1292056E+00
          1   -1    0    0  501    0  0.00000000000E+00  0.00000000000E+00  0.29345358983E+03  0.29345358983E+03  0.00000000000E+00 0. -1.
         -1   -1    0    0    0  501 -0.00000000000E+00 -0.00000000000E+00 -0.42666519577E+02  0.42666519577E+02  0.00000000000E+00 0.  1.
         23    2    1    2    0    0  0.13704563083E+01 -0.20647436409E+02  0.17227607052E+03  0.21390336365E+03  0.12508960679E+03 0.  0.
          5    1    3    3  502    0  0.46812480813E+02 -0.46525093473E+01  0.15582625139E+03  0.16282612575E+03  0.41800000000E+01 0.  1.
         -5    1    3    3    0  502 -0.45442024505E+02 -0.15994927062E+02  0.16449819128E+02  0.51077237906E+02  0.41800000000E+01 0.  1.
        -11    1    1    2    0    0 -0.45900571929E+02  0.17037066986E+02  0.42526676471E+02  0.64850924177E+02  0.00000000000E+00 0. -1.
         11    1    1    2    0    0  0.44530115621E+02  0.36103694230E+01  0.35984323263E+02  0.57365821577E+02  0.00000000000E+00 0.  1.
</event>
<event>
 7    1  0.6671761E-006  0.1112026E+03  0.7561462E-02  0.1258359E+00
          1   -1    0    0  501    0  0.00000000000E+00  0.00000000000E+00  0.14749288467E+03  0.14749288467E+03  0.00000000000E+00 0. -1.
         -1   -1    0    0    0  501 -0.00000000000E+00 -0.00000000000E+00 -0.15751635493E+03  0.15751635493E+03  0.00000000000E+00 0.  1.
         23    2    1    2    0    0  0.47761367327E+02 -0.45471555714E+01 -0.10085637686E+03  0.16769436266E+03  0.12509023017E+03 0.  0.
          5    1    3    3  502    0  0.53198005994E+02 -0.58734682781E+02 -0.59908294775E+02  0.99429708769E+02  0.41800000000E+01 0. -1.
         -5    1    3    3    0  502 -0.54366386670E+01  0.54187527209E+02 -0.40948082084E+02  0.68264653895E+02  0.41800000000E+01 0. -1.
        -11    1    1    2    0    0 -0.12622393683E+02  0.37921969990E+02  0.77262870825E+02  0.86988228159E+02  0.00000000000E+00 0. -1.
         11    1    1    2    0    0 -0.35138973644E+02 -0.33374814419E+02  0.13570035774E+02  0.50326648777E+02  0.00000000000E+00 0.  1.
</event>
<event>
 7    1  0.6671761E-006  0.1104454E+03  0.7561462E-02  0.1259747E+00
         -3   -1    0    0    0  501 -0.00000000000E+00  0.00000000000E+00  0.37347257465E+03  0.37347257465E+03  0.00000000000E+00 0.  1.
          3   -1    0    0  501    0  0.00000000000E+00 -0.00000000000E+00 -0.51346584226E+02  0.51346584226E+02  0.00000000000E+00 0. -1.
         23    2    1    2    0    0 -0.41231588538E+02  0.75721734609E+02  0.17635455170E+03  0.23275288004E+03  0.12505658830E+03 0.  0.
          5    1    3    3  502    0 -0.52213114326E+02  0.41752432193E+02  0.18416617866E+03  0.19596971364E+03  0.41800000000E+01 0. -1.
         -5    1    3    3    0  502  0.10981525787E+02  0.33969302416E+02 -0.78116269557E+01  0.36783166407E+02  0.41800000000E+01 0. -1.
        -11    1    1    2    0    0  0.65494809851E+02 -0.48504985736E+02  0.67890615123E+02  0.10607280227E+03  0.00000000000E+00 0.  1.
         11    1    1    2    0    0 -0.24263221312E+02 -0.27216748873E+02  0.77880823602E+02  0.85993476570E+02  0.00000000000E+00 0. -1.
</event>
<event>
 7    1  0.6988113E-006  0.1087928E+03  0.7561462E-02  0.1262822E+00
         -1   -1    0    0    0  501 -0.00000000000E+00  0.00000000000E+00  0.44603215345E+02  0.44603215345E+02  0.00000000000E+00 0.  1.
          1   -1    0    0  501    0  0.00000000000E+00 -0.00000000000E+00 -0.33155490786E+03  0.33155490786E+03  0.00000000000E+00 0. -1.
         23    2    1    2    0    0  0.45043249989E+02  0.31663702739E+02 -0.13413777019E+03  0.19149879247E+03  0.12508941476E+03 0.  0.
          5    1    3    3  502    0  0.14828615683E+01 -0.43829317750E+02 -0.21511467297E+02  0.49024724356E+02  0.41800000000E+01 0.  1.
         -5    1    3    3    0  502  0.43560388421E+02  0.75493020489E+02 -0.11262630289E+03  0.14247406811E+03  0.41800000000E+01 0.  1.
        -11    1    1    2    0    0 -0.56701286442E+02 -0.46983005805E+01 -0.43928994619E+02  0.71880918753E+02  0.00000000000E+00 0.  1.
         11    1    1    2    0    0  0.11658036453E+02 -0.26965402159E+02 -0.10888492771E+03  0.11277841199E+03  0.00000000000E+00 0. -1.
</event>
<event>
 7    1  0.6671761E-006  0.2842975E+03  0.7561462E-02  0.1093365E+00
          2   -1    0    0  501    0  0.00000000000E+00  0.00000000000E+00  0.17109088865E+04  0.17109088865E+04  0.00000000000E+00 0. -1.
         -2   -1    0    0    0  501 -0.00000000000E+00 -0.00000000000E+00 -0.49351121019E+02  0.49351121019E+02  0.00000000000E+00 0.  1.
         23    2    1    2    0    0 -0.26104943895E+03 -0.54342585694E+02  0.72410514325E+03  0.78171470394E+03  0.12509873573E+03 0.  0.
          5    1    3    3  502    0 -0.94275603697E+02  0.35864633894E+02  0.19382004493E+03  0.21853568046E+03  0.41800000000E+01 0. -1.
         -5    1    3    3    0  502 -0.16677383525E+03 -0.90207219588E+02  0.53028509833E+03  0.56317902349E+03  0.41800000000E+01 0. -1.
        -11    1    1    2    0    0  0.76121045238E+02 -0.19954527930E+02  0.20905855144E+03  0.22337876946E+03  0.00000000000E+00 0.  1.
         11    1    1    2    0    0  0.18492839371E+03  0.74297113624E+02  0.72839407079E+03  0.75516653412E+03  0.00000000000E+00 0. -1.
</event>
<event>
 7    1  0.6671761E-006  0.9587950E+02  0.7561462E-02  0.1289207E+00
         -1   -1    0    0    0  501 -0.00000000000E+00  0.00000000000E+00  0.68407596663E+02  0.68407596663E+02  0.00000000000E+00 0.  1.
          1   -1    0    0  501    0  0.00000000000E+00 -0.00000000000E+00 -0.19931920166E+03  0.19931920166E+03  0.00000000000E+00 0. -1.
         23    2    1    2    0    0  0.38150795601E+02  0.77752214856E+01 -0.92510171135E+02  0.16038012792E+03  0.12509083258E+03 0.  0.
          5    1    3    3  502    0  0.34668583010E+02  0.46529790898E+02  0.18724875059E+01  0.58205761728E+02  0.41800000000E+01 0. -1.
         -5    1    3    3    0  502  0.34822125909E+01 -0.38754569412E+02 -0.94382658640E+02  0.10217436619E+03  0.41800000000E+01 0. -1.
        -11    1    1    2    0    0 -0.61786884316E+02  0.12815166689E+02 -0.78743272384E+01  0.63591293431E+02  0.00000000000E+00 0.  1.
         11    1    1    2    0    0  0.23636088715E+02 -0.20590388175E+02 -0.30527106623E+02  0.43755376969E+02  0.00000000000E+00 0. -1.
</event>
<event>
 7    1  0.6671761E-006  0.1169610E+03  0.7561462E-02  0.1248196E+00
         -2   -1    0    0    0  501 -0.00000000000E+00  0.00000000000E+00  0.10045844285E+03  0.10045844285E+03  0.00000000000E+00 0.  1.
          2   -1    0    0  501    0  0.00000000000E+00 -0.00000000000E+00 -0.14773019872E+03  0.14773019872E+03  0.00000000000E+00 0. -1.
         23    2    1    2    0    0  0.82072142999E+01  0.51115025644E+02 -0.51778605398E+01  0.13547160355E+03  0.12508253641E+03 0.  0.
          5    1    3    3  502    0 -0.16387888299E+02  0.87288937596E+02 -0.15697789893E+02  0.90287399548E+02  0.41800000000E+01 0.  1.
         -5    1    3    3    0  502  0.24595102598E+02 -0.36173911953E+02  0.10519929353E+02  0.45184204003E+02  0.41800000000E+01 0.  1.
        -11    1    1    2    0    0 -0.47633950973E+02 -0.30683955502E+02 -0.37780786637E+02  0.68102028233E+02  0.00000000000E+00 0.  1.
         11    1    1    2    0    0  0.39426736674E+02 -0.20431070141E+02 -0.43131086927E+01  0.44615009789E+02  0.00000000000E+00 0. -1.
</event>
<event>
 7    1  0.6671761E-006  0.9370540E+02  0.7561462E-02  0.1294119E+00
          2   -1    0    0  501    0  0.00000000000E+00  0.00000000000E+00  0.30123322424E+03  0.30123322424E+03  0.00000000000E+00 0. -1.
         -2   -1    0    0    0  501 -0.00000000000E+00 -0.00000000000E+00 -0.42422767590E+02  0.42422767590E+02  0.00000000000E+00 0.  1.
         23    2    1    2    0    0  0.12828394554E+02 -0.13809690101E+02  0.10437286997E+03  0.16400140707E+03  0.12508992880E+03 0.  0.
          5    1    3    3  502    0 -0.34304916377E+02 -0.34408278062E+02  0.10115144980E+03  0.11229356653E+03  0.41800000000E+01 0. -1.
         -5    1    3    3    0  502  0.47133310931E+02  0.20598587961E+02  0.32214201697E+01  0.51707840539E+02  0.41800000000E+01 0. -1.
        -11    1    1    2    0    0 -0.34783050835E+02 -0.24732512348E+02  0.10439997173E+03  0.11278702004E+03  0.00000000000E+00 0.  1.
         11    1    1    2    0    0  0.21954656281E+02  0.38542202449E+02  0.50037614951E+02  0.66867564723E+02  0.00000000000E+00 0. -1.
</event>
<event>
 7    1  0.6671761E-006  0.1139972E+03  0.7561462E-02  0.1253342E+00
          2   -1    0    0  501    0  0.00000000000E+00  0.00000000000E+00  0.47956734184E+03  0.47956734184E+03  0.00000000000E+00 0. -1.
         -2   -1    0    0    0  501 -0.00000000000E+00 -0.00000000000E+00 -0.30931092739E+02  0.30931092739E+02  0.00000000000E+00 0.  1.
         23    2    1    2    0    0  0.34830225735E+02 -0.37678529597E+02  0.27704368669E+03  0.30829158519E+03  0.12513065550E+03 0.  0.
          5    1    3    3  502    0 -0.45276153771E+02 -0.18832162752E+02  0.13982596878E+03  0.14823412023E+03  0.41800000000E+01 0.  1.
         -5    1    3    3    0  502  0.80106379506E+02 -0.18846366846E+02  0.13721771790E+03  0.16005746495E+03  0.41800000000E+01 0.  1.
        -11    1    1    2    0    0  0.26886591786E+02  0.13626179471E+02  0.10100916258E+03  0.10541068499E+03  0.00000000000E+00 0. -1.
         11    1    1    2    0    0 -0.61716817521E+02  0.24052350127E+02  0.70583399832E+02  0.96796164404E+02  0.00000000000E+00 0.  1.
</event>
<event>
 7    1  0.6671761E-006  0.1731422E+03  0.7561462E-02  0.1174610E+00
          2   -1    0    0  501    0  0.00000000000E+00  0.00000000000E+00  0.81820178823E+03  0.81820178823E+03  0.00000000000E+00 0. -1.
         -2   -1    0    0    0  501 -0.00000000000E+00 -0.00000000000E+00 -0.56559492855E+02  0.56559492855E+02  0.00000000000E+00 0.  1.
         23    2    1    2    0    0  0.14286572866E+03 -0.64105059203E+02  0.19311466752E+03  0.27831796192E+03  0.12509011980E+03 0.  0.
          5    1    3    3  502    0  0.41422361907E+02  0.19076019491E+02  0.11971139093E+01  0.45810610859E+02  0.41800000000E+01 0.  1.
         -5    1    3    3    0  502  0.10144336675E+03 -0.83181078694E+02  0.19191755361E+03  0.23250735106E+03  0.41800000000E+01 0.  1.
        -11    1    1    2    0    0 -0.69735220603E+02 -0.32546839602E+01  0.13884609253E+03  0.15540859491E+03  0.00000000000E+00 0.  1.
         11    1    1    2    0    0 -0.73130508058E+02  0.67359743163E+02  0.42968153532E+03  0.44103472426E+03  0.00000000000E+00 0. -1.
</event>
<event>
 7    1  0.6671761E-006  0.7844699E+02  0.7561462E-02  0.1333517E+00
          4   -1    0    0  501    0  0.00000000000E+00  0.00000000000E+00  0.10965334298E+03  0.10965334298E+03  0.00000000000E+00 0. -1.
         -4   -1    0    0    0  501 -0.00000000000E+00 -0.00000000000E+00 -0.13072501359E+03  0.13072501359E+03  0.00000000000E+00 0.  1.
         23    2    1    2    0    0  0.25769985272E+02  0.36056850799E+02  0.13222415608E+02  0.13336697300E+03  0.12509088129E+03 0.  0.
          5    1    3    3  502    0  0.55919783341E+01 -0.13559907464E+02  0.60136932388E+02  0.62040828082E+02  0.41800000000E+01 0. -1.
         -5    1    3    3    0  502  0.20178006938E+02  0.49616758263E+02 -0.46914516780E+02  0.71326144921E+02  0.41800000000E+01 0. -1.
        -11    1    1    2    0    0 -0.11966952432E+02 -0.59511001318E+02 -0.47198480975E+02  0.76892547329E+02  0.00000000000E+00 0. -1.
         11    1    1    2    0    0 -0.13803032840E+02  0.23454150519E+02  0.12904394758E+02  0.30118836236E+02  0.00000000000E+00 0.  1.
</event>
<event>
 7    1  0.6671761E-006  0.1136052E+03  0.7561462E-02  0.1254036E+00
          2   -1    0    0  501    0  0.00000000000E+00  0.00000000000E+00  0.61803901551E+03  0.61803901551E+03  0.00000000000E+00 0. -1.
         -2   -1    0    0    0  501 -0.00000000000E+00 -0.00000000000E+00 -0.34701141651E+02  0.34701141651E+02  0.00000000000E+00 0.  1.
         23    2    1    2    0    0  0.27754907658E+02 -0.86586192110E+02  0.22463327976E+03  0.27271497695E+03  0.12508335106E+03 0.  0.
          5    1    3    3  502    0 -0.19162800339E+02 -0.81704696851E+01  0.15830104268E+03  0.15972057477E+03  0.41800000000E+01 0. -1.
         -5    1    3    3    0  502  0.46917707997E+02 -0.78415722425E+02  0.66332237080E+02  0.11299440218E+03  0.41800000000E+01 0. -1.
        -11    1    1    2    0    0  0.23521429950E+02  0.24471372710E+02  0.19086406909E+03  0.19385870788E+03  0.00000000000E+00 0. -1.
         11    1    1    2    0    0 -0.51276337608E+02  0.62114819400E+02  0.16784052501E+03  0.18616647234E+03  0.00000000000E+00 0.  1.
</event>
<event>
 7    1  0.6671761E-006  0.1027486E+03  0.7561462E-02  0.1274620E+00
         -1   -1    0    0    0  501 -0.00000000000E+00  0.00000000000E+00  0.63891056009E+02  0.63891056009E+02  0.00000000000E+00 0.  1.
          1   -1    0    0  501    0  0.00000000000E+00 -0.00000000000E+00 -0.27660536997E+03  0.27660536997E+03  0.00000000000E+00 0. -1.
         23    2    1    2    0    0  0.16991570753E+02 -0.55023358250E+02 -0.51058504467E+02  0.14686833834E+03  0.12508818689E+03 0.  0.
          5    1    3    3  502    0  0.40839842808E+02 -0.68824661809E+02  0.90160114478E+01  0.80644204355E+02  0.41800000000E+01 0.  1.
         -5    1    3    3    0  502 -0.23848272055E+02  0.13801303559E+02 -0.60074515915E+02  0.66224133987E+02  0.41800000000E+01 0.  1.
        -11    1    1    2    0    0  0.31742860501E+02  0.21827592535E+02 -0.10504403193E+03  0.11188521633E+03  0.00000000000E+00 0. -1.
         11    1    1    2    0    0 -0.48734431254E+02  0.33195765715E+02 -0.56611777568E+02  0.81742871313E+02  0.00000000000E+00 0.  1.
</event>
<event>
 7    1  0.6671761E-006  0.1179005E+03  0.7561462E-02  0.1246601E+00
          3   -1    0    0  501    0  0.00000000000E+00  0.00000000000E+00  0.32701271870E+02  0.32701271870E+02  0.00000000000E+00 0. -1.
         -3   -1    0    0    0  501 -0.00000000000E+00 -0.00000000000E+00 -0.13066455357E+04  0.13066455357E+04  0.00000000000E+00 0.  1.
         23    2    1    2    0    0  0.66154441947E+02  0.54233774510E+02 -0.11645160250E+04  0.11743346970E+04  0.12508675212E+03 0.  0.
          5    1    3    3  502    0  0.47741683901E+02 -0.71919215655E+01 -0.14680482864E+03  0.15459664366E+03  0.41800000000E+01 0.  1.
         -5    1    3    3    0  502  0.18412758046E+02  0.61425696076E+02 -0.10177111964E+04  0.10197380533E+04  0.41800000000E+01 0.  1.
        -11    1    1    2    0    0 -0.81296462648E+02 -0.17238818422E+02 -0.80207168079E+02  0.11549667316E+03  0.00000000000E+00 0.  1.
         11    1    1    2    0    0  0.15142020701E+02 -0.36994956089E+02 -0.29221070716E+02  0.49515437398E+02  0.00000000000E+00 0. -1.
</event>
<event>
 7    1  0.6671761E-006  0.2099071E+03  0.7561462E-02  0.1141640E+00
         -4   -1    0    0    0  501 -0.00000000000E+00  0.00000000000E+00  0.24145415780E+03  0.24145415780E+03  0.00000000000E+00 0.  1.
          4   -1    0    0  501    0  0.00000000000E+00 -0.00000000000E+00 -0.22333182550E+03  0.22333182550E+03  0.00000000000E+00 0. -1.
         23    2    1    2    0    0 -0.13555779461E+03 -0.13573962535E+03  0.81278631264E+02  0.24301185946E+03  0.12508951343E+03 0.  0.
          5    1    3    3  502    0 -0.12048074702E+03 -0.34955907300E+02  0.58627848000E+02  0.13853599827E+03  0.41800000000E+01 0.  1.
         -5    1    3    3    0  502 -0.15077047593E+02 -0.10078371805E+03  0.22650783264E+02  0.10447586119E+03  0.41800000000E+01 0.  1.
        -11    1    1    2    0    0  0.23796225762E+02  0.31481300264E+02  0.23645087061E+02  0.46004595085E+02  0.00000000000E+00 0.  1.
         11    1    1    2    0    0  0.11176156885E+03  0.10425832509E+03 -0.86801386031E+02  0.17576952875E+03  0.00000000000E+00 0. -1.
</event>
<event>
 7    1  0.6671761E-006  0.9772042E+02  0.7561462E-02  0.1285164E+00
          1   -1    0    0  501    0  0.00000000000E+00  0.00000000000E+00  0.19221760807E+02  0.19221760807E+02  0.00000000000E+00 0. -1.
         -1   -1    0    0    0  501 -0.00000000000E+00 -0.00000000000E+00 -0.14450258382E+04  0.14450258382E+04  0.00000000000E+00 0.  1.
         23    2    1    2    0    0 -0.62544408990E+02 -0.12955785302E+00 -0.12359171570E+04  0.12438048783E+04  0.12509011288E+03 0.  0.
          5    1    3    3  502    0 -0.29255100057E+02 -0.35481411383E+02 -0.15359854218E+03  0.16038945100E+03  0.41800000000E+01 0. -1.
         -5    1    3    3    0  502 -0.33289308933E+02  0.35351853530E+02 -0.10823186148E+04  0.10834154273E+04  0.41800000000E+01 0. -1.
        -11    1    1    2    0    0  0.11104872025E+01  0.31518407007E+02 -0.20682812812E+02  0.37715009054E+02  0.00000000000E+00 0. -1.
         11    1    1    2    0    0  0.61433921787E+02 -0.31388849154E+02 -0.16920410756E+03  0.18272771167E+03  0.00000000000E+00 0.  1.
</event>
<event>
 7    1  0.6671761E-006  0.9925594E+02  0.7561462E-02  0.1281868E+00
          2   -1    0    0  501    0  0.00000000000E+00  0.00000000000E+00  0.28206993024E+03  0.28206993024E+03  0.00000000000E+00 0. -1.
         -2   -1    0    0    0  501 -0.00000000000E+00 -0.00000000000E+00 -0.51856068982E+02  0.51856068982E+02  0.00000000000E+00 0.  1.
         23    2    1    2    0    0 -0.12817913116E+01 -0.45634325101E+02  0.92805119891E+02  0.16229755063E+03  0.12507425813E+03 0.  0.
          5    1    3    3  502    0  0.58291412671E+02 -0.41439924288E+02  0.37822688355E+02  0.81013482030E+02  0.41800000000E+01 0.  1.
         -5    1    3    3    0  502 -0.59573203983E+02 -0.41944008132E+01  0.54982431535E+02  0.81284068602E+02  0.41800000000E+01 0.  1.
        -11    1    1    2    0    0 -0.22975640464E+02  0.31297081759E+02  0.13808836065E+03  0.14344261127E+03  0.00000000000E+00 0. -1.
         11    1    1    2    0    0  0.24257431775E+02  0.14337243342E+02 -0.67961928304E+00  0.28185837318E+02  0.00000000000E+00 0.  1.
</event>
<event>
 7    1  0.6671761E-006  0.1825274E+03  0.7561462E-02  0.1165379E+00
         -1   -1    0    0    0  501 -0.00000000000E+00  0.00000000000E+00  0.24381900680E+03  0.24381900680E+03  0.00000000000E+00 0.  1.
          1   -1    0    0  501    0  0.00000000000E+00 -0.00000000000E+00 -0.17805672909E+03  0.17805672909E+03  0.00000000000E+00 0. -1.
         23    2    1    2    0    0 -0.61817833272E+02 -0.16205462442E+03  0.66693351563E+02  0.22400846160E+03  0.12509453194E+03 0.  0.
          5    1    3    3  502    0 -0.87337954548E+01 -0.12020780627E+03  0.92029144569E+02  0.15170046711E+03  0.41800000000E+01 0. -1.
         -5    1    3    3    0  502 -0.53084037818E+02 -0.41846818152E+02 -0.25335793006E+02  0.72307994494E+02  0.41800000000E+01 0. -1.
        -11    1    1    2    0    0  0.30760942209E+02  0.38205225280E+02  0.40521681189E+02  0.63622963234E+02  0.00000000000E+00 0.  1.
         11    1    1    2    0    0  0.31056891063E+02  0.12384939914E+03 -0.41452755043E+02  0.13424431105E+03  0.00000000000E+00 0. -1.
</event>
<event>
 7    1  0.6671761E-006  0.1790182E+03  0.7561462E-02  0.1168757E+00
         -1   -1    0    0    0  501 -0.00000000000E+00  0.00000000000E+00  0.48797867133E+03  0.48797867133E+03  0.00000000000E+00 0.  1.
          1   -1    0    0  501    0  0.00000000000E+00 -0.00000000000E+00 -0.77908985822E+02  0.77908985822E+02  0.00000000000E+00 0. -1.
         23    2    1    2    0    0  0.98807191494E+02  0.98447177906E+02  0.24346788946E+03  0.30837758296E+03  0.12792737215E+03 0.  0.
          5    1    3    3  502    0  0.11147082117E+03  0.73189211555E+02  0.11305977074E+03  0.17487821140E+03  0.41800000000E+01 0. -1.
         -5    1    3    3    0  502 -0.12663629677E+02  0.25257966351E+02  0.13040811872E+03  0.13349937156E+03  0.41800000000E+01 0.  1.
        -11    1    1    2    0    0 -0.71058032030E+01 -0.10394899695E+03  0.81455442117E+02  0.13225307353E+03  0.00000000000E+00 0.  1.
         11    1    1    2    0    0 -0.91701388291E+02  0.55018190483E+01  0.85146353928E+02  0.12525700066E+03  0.00000000000E+00 0. -1.
</event>
<event>
 7    1  0.6671761E-006  0.8524316E+02  0.7561462E-02  0.1314798E+00
         -2   -1    0    0    0  501 -0.00000000000E+00  0.00000000000E+00  0.34123113704E+02  0.34123113704E+02  0.00000000000E+00 0.  1.
          2   -1    0    0  501    0  0.00000000000E+00 -0.00000000000E+00 -0.44227881976E+03  0.44227881976E+03  0.00000000000E+00 0. -1.
         23    2    1    2    0    0 -0.43563305859E+02 -0.36400479913E+02 -0.24892197102E+03  0.28431023376E+03  0.12508958712E+03 0.  0.
          5    1    3    3  502    0 -0.33074315996E+02 -0.40548845377E+02 -0.21752019010E+02  0.56822020124E+02  0.41800000000E+01 0.  1.
         -5    1    3    3    0  502 -0.10488989863E+02  0.41483654644E+01 -0.22716995201E+03  0.22748821363E+03  0.41800000000E+01 0.  1.
        -11    1    1    2    0    0 -0.14263287829E+02  0.45267081178E+02 -0.87343996229E+02  0.99405853426E+02  0.00000000000E+00 0.  1.
         11    1    1    2    0    0  0.57826593687E+02 -0.88666012655E+01 -0.71889738804E+02  0.92685846281E+02  0.00000000000E+00 0. -1.
</event>
<event>
 7    1  0.9592495E-006  0.1234978E+03  0.7561462E-02  0.1237436E+00
          1   -1    0    0  501    0  0.00000000000E+00  0.00000000000E+00  0.54725514636E+03  0.54725514636E+03  0.00000000000E+00 0. -1.
         -1   -1    0    0    0  501 -0.00000000000E+00 -0.00000000000E+00 -0.56292742669E+02  0.56292742669E+02  0.00000000000E+00 0.  1.
         23    2    1    2    0    0 -0.93837865072E+02  0.48722944513E+02  0.10765698008E+03  0.19600194982E+03  0.12508904320E+03 0.  0.
          5    1    3    3  502    0 -0.28552147189E+02  0.35605260168E+02 -0.21504609472E+02  0.50624897918E+02  0.41800000000E+01 0.  1.
         -5    1    3    3    0  502 -0.65285717883E+02  0.13117684345E+02  0.12916158956E+03  0.14537705190E+03  0.41800000000E+01 0.  1.
        -11    1    1    2    0    0  0.87857725239E+02 -0.25601488457E+01  0.29371563587E+03  0.30658507628E+03  0.00000000000E+00 0. -1.
         11    1    1    2    0    0  0.59801398336E+01 -0.46162795667E+02  0.89589787734E+02  0.10096086292E+03  0.00000000000E+00 0.  1.
</event>
<event>
 7    1  0.6671761E-006  0.1548217E+03  0.7561462E-02  0.1194670E+00
          2   -1    0    0  501    0  0.00000000000E+00  0.00000000000E+00  0.40357385025E+03  0.40357385025E+03  0.00000000000E+00 0.  1.
         -2   -1    0    0    0  501 -0.00000000000E+00 -0.00000000000E+00 -0.85056649534E+02  0.85056649534E+02  0.00000000000E+00 0. -1.
         23    2    1    2    0    0  0.11627934975E+03 -0.16809794061E+02  0.48197654858E+02  0.17825295125E+03  0.12509054457E+03 0.  0.
          5    1    3    3  502    0  0.13631251466E+03 -0.31310107139E+02  0.21404345697E+02  0.14155226200E+03  0.41800000000E+01 0. -1.
         -5    1    3    3    0  502 -0.20033164912E+02  0.14500313078E+02  0.26793309161E+02  0.36700689252E+02  0.41800000000E+01 0. -1.
        -11    1    1    2    0    0 -0.41461232811E+02  0.48132383605E+02  0.16929138967E+03  0.18081851342E+03  0.00000000000E+00 0.  1.
         11    1    1    2    0    0 -0.74818116937E+02 -0.31322589544E+02  0.10102815619E+03  0.12955903512E+03  0.00000000000E+00 0. -1.
</event>
<event>
 7    1  0.6671761E-006  0.7966922E+02  0.7561462E-02  0.1329993E+00
         -2   -1    0    0    0  501 -0.00000000000E+00  0.00000000000E+00  0.16479117019E+03  0.16479117019E+03  0.00000000000E+00 0.  1.
          2   -1    0    0  501    0  0.00000000000E+00 -0.00000000000E+00 -0.79354723191E+02  0.79354723191E+02  0.00000000000E+00 0. -1.
         23    2    1    2    0    0  0.17803992910E+02  0.25315270071E+02  0.70286176955E+02  0.14678658045E+03  0.12509319912E+03 0.  0.
          5    1    3    3  502    0 -0.29823359642E+02  0.23823462615E+02 -0.20971608789E+02  0.43752381953E+02  0.41800000000E+01 0. -1.
         -5    1    3    3    0  502  0.47627352552E+02  0.14918074556E+01  0.91257785745E+02  0.10303419850E+03  0.41800000000E+01 0. -1.
        -11    1    1    2    0    0  0.18524964937E+02 -0.31217971919E+02  0.39174052073E+02  0.53407325831E+02  0.00000000000E+00 0.  1.
         11    1    1    2    0    0 -0.36328957847E+02  0.59027018482E+01 -0.24023782028E+02  0.43951987103E+02  0.00000000000E+00 0. -1.
</event>
<event>
 7    1  0.6671761E-006  0.1088590E+03  0.7561462E-02  0.1262697E+00
          1   -1    0    0  501    0  0.00000000000E+00  0.00000000000E+00  0.62951741787E+03  0.62951741787E+03  0.00000000000E+00 0. -1.
         -1   -1    0    0    0  501 -0.00000000000E+00 -0.00000000000E+00 -0.20650467741E+02  0.20650467741E+02  0.00000000000E+00 0.  1.
         23    2    1    2    0    0 -0.29210891699E+02  0.23133734512E+02  0.34797838645E+03  0.37165176263E+03  0.12509048470E+03 0.  0.
          5    1    3    3  502    0 -0.54340868569E+02  0.58781801818E+02  0.27582256656E+03  0.28723473127E+03  0.41800000000E+01 0. -1.
         -5    1    3    3    0  502  0.25129976870E+02 -0.35648067306E+02  0.72155819889E+02  0.84417031362E+02  0.41800000000E+01 0. -1.
        -11    1    1    2    0    0  0.23517632907E+02 -0.55815883794E+02  0.12887714626E+03  0.14240017826E+03  0.00000000000E+00 0.  1.
         11    1    1    2    0    0  0.56932587917E+01  0.32682149282E+02  0.13201141741E+03  0.13611594471E+03  0.00000000000E+00 0. -1.
</event>
<event>
 7    1  0.6671761E-006  0.6493611E+02  0.7561462E-02  0.1378212E+00
         -1   -1    0    0    0  501 -0.00000000000E+00  0.00000000000E+00  0.27586239352E+02  0.27586239352E+02  0.00000000000E+00 0.  1.
          1   -1    0    0  501    0  0.00000000000E+00 -0.00000000000E+00 -0.42742230971E+03  0.42742230971E+03  0.00000000000E+00 0. -1.
         23    2    1    2    0    0 -0.44306596611E+01  0.10799456540E+02 -0.20509909582E+03  0.24094847135E+03  0.12591373131E+03 0.  0.
          5    1    3    3  502    0 -0.23858160702E+02  0.57961978978E+01 -0.21620873457E+03  0.21763845489E+03  0.41800000000E+01 0.  1.
         -5    1    3    3    0  502  0.19427501041E+02  0.50032586426E+01  0.11109638757E+02  0.23310016453E+02  0.41800000000E+01 0.  1.
        -11    1    1    2    0    0 -0.19360259421E+02  0.30900918002E+02 -0.11833562738E+03  0.12382652013E+03  0.00000000000E+00 0.  1.
         11    1    1    2    0    0  0.23790919082E+02 -0.41700374543E+02 -0.76401347153E+02  0.90233557586E+02  0.00000000000E+00 0. -1.
</event>
<event>
 7    1  0.6671761E-006  0.1037974E+03  0.7561462E-02  0.1272507E+00
          1   -1    0    0  501    0  0.00000000000E+00  0.00000000000E+00  0.16702665474E+03  0.16702665474E+03  0.00000000000E+00 0. -1.
         -1   -1    0    0    0  501 -0.00000000000E+00 -0.00000000000E+00 -0.68944873915E+02  0.68944873915E+02  0.00000000000E+00 0.  1.
         23    2    1    2    0    0  0.14205878335E+02 -0.18945624193E+02  0.42320822887E+02  0.13415898645E+03  0.12508732126E+03 0.  0.
          5    1    3    3  502    0  0.45878266764E+02  0.37384606803E+02  0.35261669334E+02  0.69016533609E+02  0.41800000000E+01 0. -1.
         -5    1    3    3    0  502 -0.31672388430E+02 -0.56330230996E+02  0.70591535528E+01  0.65142452838E+02  0.41800000000E+01 0. -1.
        -11    1    1    2    0    0 -0.30044844945E+02  0.44350523862E+02  0.25802921827E+02  0.59459670781E+02  0.00000000000E+00 0.  1.
         11    1    1    2    0    0  0.15838966610E+02 -0.25404899669E+02  0.29958036109E+02  0.42352871425E+02  0.00000000000E+00 0. -1.
</event>
<event>
 7    1  0.6671761E-006  0.1567918E+03  0.7561462E-02  0.1192367E+00
         -1   -1    0    0    0  501 -0.00000000000E+00  0.00000000000E+00  0.57560038051E+03  0.57560038051E+03  0.00000000000E+00 0.  1.
          1   -1    0    0  501    0  0.00000000000E+00 -0.00000000000E+00 -0.53790537333E+02  0.53790537333E+02  0.00000000000E+00 0. -1.
         23    2    1    2    0    0  0.74605932939E+02 -0.90889785450E+02  0.40713317431E+03  0.44185056107E+03  0.12508996110E+03 0.  0.
          5    1    3    3  502    0  0.89005081742E+02 -0.11334318487E+03  0.32967472760E+03  0.35982145650E+03  0.41800000000E+01 0.  1.
         -5    1    3    3    0  502 -0.14399148803E+02  0.22453399425E+02  0.77458446705E+02  0.82029104579E+02  0.41800000000E+01 0.  1.
        -11    1    1    2    0    0 -0.91774653219E+02  0.70323959358E+02  0.69164109968E+02  0.13472832049E+03  0.00000000000E+00 0. -1.
         11    1    1    2    0    0  0.17168720280E+02  0.20565826092E+02  0.45512558899E+02  0.52812036283E+02  0.00000000000E+00 0.  1.
</event>
<event>
 7    1  0.6671761E-006  0.1134544E+03  0.7561462E-02  0.1254303E+00
          1   -1    0    0  501    0  0.00000000000E+00  0.00000000000E+00  0.31816039303E+03  0.31816039303E+03  0.00000000000E+00 0. -1.
         -1   -1    0    0    0  501 -0.00000000000E+00 -0.00000000000E+00 -0.53790519380E+02  0.53790519380E+02  0.00000000000E+00 0.  1.
         23    2    1    2    0    0 -0.27020281946E+02 -0.49890863180E+02  0.84222735817E+02  0.16112072034E+03  0.12508886213E+03 0.  0.
          5    1    3    3  502    0 -0.68423226714E+02 -0.57878032198E+02  0.35332035382E+02  0.96423180249E+02  0.41800000000E+01 0. -1.
         -5    1    3    3    0  502  0.41402944769E+02  0.79871690175E+01  0.48890700435E+02  0.64697540088E+02  0.41800000000E+01 0. -1.
        -11    1    1    2    0    0  0.53447823594E+02  0.39332310490E+02  0.67551528364E+02  0.94693766847E+02  0.00000000000E+00 0.  1.
         11    1    1    2    0    0 -0.26427541648E+02  0.10558552690E+02  0.11259560947E+03  0.11613642522E+03  0.00000000000E+00 0. -1.
</event>
<event>
 7    1  0.6671761E-006  0.1493904E+03  0.7561462E-02  0.1201224E+00
          3   -1    0    0  501    0  0.00000000000E+00  0.00000000000E+00  0.22036036879E+03  0.22036036879E+03  0.00000000000E+00 0. -1.
         -3   -1    0    0    0  501 -0.00000000000E+00 -0.00000000000E+00 -0.13572412121E+03  0.13572412121E+03  0.00000000000E+00 0.  1.
         23    2    1    2    0    0  0.70602337675E+02 -0.98829898302E+02 -0.14453732904E+02  0.17495275153E+03  0.12509003154E+03 0.  0.
          5    1    3    3  502    0  0.61990794760E+02 -0.11365091665E+03 -0.47116772775E+02  0.13782906866E+03  0.41800000000E+01 0. -1.
         -5    1    3    3    0  502  0.86115429146E+01  0.14821018350E+02  0.32663039871E+02  0.37123682871E+02  0.41800000000E+01 0. -1.
        -11    1    1    2    0    0 -0.15634434775E+02  0.95253006803E+02  0.61970750729E+02  0.11470808516E+03  0.00000000000E+00 0. -1.
         11    1    1    2    0    0 -0.54967902900E+02  0.35768914985E+01  0.37119229755E+02  0.66423653314E+02  0.00000000000E+00 0.  1.
</event>
<event>
 7    1  0.6671761E-006  0.1159683E+03  0.7561462E-02  0.1249900E+00
         -2   -1    0    0    0  501 -0.00000000000E+00  0.00000000000E+00  0.50834196471E+03  0.50834196471E+03  0.00000000000E+00 0.  1.
          2   -1    0    0  501    0  0.00000000000E+00 -0.00000000000E+00 -0.31926794377E+02  0.31926794377E+02  0.00000000000E+00 0. -1.
         23    2    1    2    0    0  0.53768807605E+02  0.46271212668E+01  0.31900315850E+03  0.34687644936E+03  0.12509101112E+03 0.  0.
          5    1    3    3  502    0  0.92872889986E+02 -0.11565497653E+02  0.21646183210E+03  0.23586507072E+03  0.41800000000E+01 0.  1.
         -5    1    3    3    0  502 -0.39104082381E+02  0.16192618920E+02  0.10254132640E+03  0.11101137864E+03  0.41800000000E+01 0.  1.
        -11    1    1    2    0    0  0.20721981134E+02 -0.46270877133E+01  0.91487924015E+02  0.93919383960E+02  0.00000000000E+00 0.  1.
         11    1    1    2    0    0 -0.74490788739E+02 -0.33553468267E-04  0.65924087816E+02  0.99472925770E+02  0.00000000000E+00 0. -1.
</event>
<event>
 7    1  0.6671761E-006  0.3195390E+03  0.7561462E-02  0.1075862E+00
         -4   -1    0    0    0  501 -0.00000000000E+00  0.00000000000E+00  0.20240718235E+03  0.20240718235E+03  0.00000000000E+00 0.  1.
          4   -1    0    0  501    0  0.00000000000E+00 -0.00000000000E+00 -0.57337368232E+03  0.57337368232E+03  0.00000000000E+00 0. -1.
         23    2    1    2    0    0  0.29268292221E+03 -0.11431321725E+03 -0.10472303807E+03  0.35405291610E+03  0.12512293197E+03 0.  0.
          5    1    3    3  502    0  0.11819124947E+03 -0.69319824360E+02 -0.10682748895E+03  0.17379296388E+03  0.41800000000E+01 0. -1.
         -5    1    3    3    0  502  0.17449167274E+03 -0.44993392886E+02  0.21044508750E+01  0.18025995222E+03  0.41800000000E+01 0. -1.
        -11    1    1    2    0    0 -0.42944557041E+02  0.45792633661E+02 -0.84855664443E+02  0.10555417597E+03  0.00000000000E+00 0.  1.
         11    1    1    2    0    0 -0.24973836517E+03  0.68520583585E+02 -0.18138779746E+03  0.31617377260E+03  0.00000000000E+00 0. -1.
</event>
<event>
 7    1  0.6671761E-006  0.9735834E+02  0.7561462E-02  0.1285951E+00
         -2   -1    0    0    0  501 -0.00000000000E+00  0.00000000000E+00  0.26369851968E+02  0.26369851968E+02  0.00000000000E+00 0.  1.
          2   -1    0    0  501    0  0.00000000000E+00 -0.00000000000E+00 -0.50295805996E+03  0.50295805996E+03  0.00000000000E+00 0. -1.
         23    2    1    2    0    0 -0.26951243973E+02 -0.33050046062E+01 -0.20572965929E+03  0.24229662908E+03  0.12508265725E+03 0.  0.
          5    1    3    3  502    0  0.33962752479E+02 -0.16342569599E+02 -0.13614411948E+02  0.40291100131E+02  0.41800000000E+01 0.  1.
         -5    1    3    3    0  502 -0.60913996453E+02  0.13037564992E+02 -0.19211524734E+03  0.20200552895E+03  0.41800000000E+01 0.  1.
        -11    1    1    2    0    0 -0.31454037008E+02 -0.12514203129E+02 -0.11345590763E+03  0.11839849957E+03  0.00000000000E+00 0.  1.
         11    1    1    2    0    0  0.58405280981E+02  0.15819207735E+02 -0.15740264107E+03  0.16863278328E+03  0.00000000000E+00 0. -1.
</event>
<event>
 7    1  0.6671761E-006  0.1018034E+03  0.7561462E-02  0.1276549E+00
         -1   -1    0    0    0  501 -0.00000000000E+00  0.00000000000E+00  0.32722047078E+03  0.32722047078E+03  0.00000000000E+00 0.  1.
          1   -1    0    0  501    0  0.00000000000E+00 -0.00000000000E+00 -0.38443243152E+02  0.38443243152E+02  0.00000000000E+00 0. -1.
         23    2    1    2    0    0  0.35051599578E+02 -0.27479381608E+02  0.18515975733E+03  0.22784799274E+03  0.12508733355E+03 0.  0.
          5    1    3    3  502    0  0.83154952621E+01  0.49550555777E+02  0.82424979172E+02  0.96621708900E+02  0.41800000000E+01 0. -1.
         -5    1    3    3    0  502  0.26736104316E+02 -0.77029937385E+02  0.10273477816E+03  0.13122628384E+03  0.41800000000E+01 0. -1.
        -11    1    1    2    0    0 -0.50545687899E+02  0.20336265851E+02  0.10731941812E+03  0.12035733371E+03  0.00000000000E+00 0.  1.
         11    1    1    2    0    0  0.15494088321E+02  0.71431157567E+01 -0.37019478182E+01  0.17458387476E+02  0.00000000000E+00 0. -1.
</event>
<event>
 7    1  0.6671761E-006  0.1501699E+03  0.7561462E-02  0.1200264E+00
         -1   -1    0    0    0  501 -0.00000000000E+00  0.00000000000E+00  0.59406565914E+02  0.59406565914E+02  0.00000000000E+00 0.  1.
          1   -1    0    0  501    0  0.00000000000E+00 -0.00000000000E+00 -0.58162313030E+03  0.58162313030E+03  0.00000000000E+00 0. -1.
         23    2    1    2    0    0 -0.16883280124E+02  0.10797998631E+03 -0.96138120440E+02  0.19192879765E+03  0.12509757222E+03 0.  0.
          5    1    3    3  502    0  0.30267212458E+02  0.11374441856E+03 -0.75978211878E+02  0.14015726162E+03  0.41800000000E+01 0.  1.
         -5    1    3    3    0  502 -0.47150492582E+02 -0.57644322518E+01 -0.20159908562E+02  0.51771536033E+02  0.41800000000E+01 0.  1.
        -11    1    1    2    0    0  0.43827278530E+02 -0.95718316483E+02 -0.26175144354E+03  0.28212877317E+03  0.00000000000E+00 0.  1.
         11    1    1    2    0    0 -0.26943998406E+02 -0.12261669828E+02 -0.16432700040E+03  0.16697212539E+03  0.00000000000E+00 0. -1.
</event>
<event>
 7    1  0.6671761E-006  0.9042791E+02  0.7561462E-02  0.1301819E+00
          2   -1    0    0  501    0  0.00000000000E+00  0.00000000000E+00  0.25717128818E+03  0.25717128818E+03  0.00000000000E+00 0. -1.
         -2   -1    0    0    0  501 -0.00000000000E+00 -0.00000000000E+00 -0.45428485054E+02  0.45428485054E+02  0.00000000000E+00 0.  1.
         23    2    1    2    0    0 -0.13572630018E+02 -0.73817373355E+01  0.75731604177E+02  0.13804101935E+03  0.11437368937E+03 0.  0.
          5    1    3    3  502    0 -0.26654565303E+02 -0.53083803784E+02  0.66806445262E+02  0.89492623183E+02  0.41800000000E+01 0. -1.
         -5    1    3    3    0  502  0.13081935285E+02  0.45702066448E+02  0.89251589154E+01  0.48548396164E+02  0.41800000000E+01 0.  1.
        -11    1    1    2    0    0 -0.27513665150E+02  0.15685860208E+02  0.12362444054E+02  0.33998205885E+02  0.00000000000E+00 0.  1.
         11    1    1    2    0    0  0.41086295168E+02 -0.83041228721E+01  0.12364875489E+03  0.13056054800E+03  0.00000000000E+00 0. -1.
</event>
<event>
 7    1  0.6671761E-006  0.9969280E+02  0.7561462E-02  0.1280943E+00
          4   -1    0    0  501    0  0.00000000000E+00  0.00000000000E+00  0.37066228159E+02  0.37066228159E+02  0.00000000000E+00 0. -1.
         -4   -1    0    0    0  501 -0.00000000000E+00 -0.00000000000E+00 -0.71557500794E+03  0.71557500794E+03  0.00000000000E+00 0.  1.
         23    2    1    2    0    0 -0.23984598335E+02  0.21494318279E+02 -0.62764260499E+03  0.64079488750E+03  0.12508229920E+03 0.  0.
          5    1    3    3  502    0 -0.43884262065E+02 -0.36029161032E+02 -0.43530616630E+03  0.43901350744E+03  0.41800000000E+01 0.  1.
         -5    1    3    3    0  502  0.19899663730E+02  0.57523479311E+02 -0.19233643869E+03  0.20178138005E+03  0.41800000000E+01 0.  1.
        -11    1    1    2    0    0  0.35338108481E+02  0.18484790242E+02 -0.57278432282E+02  0.69794614305E+02  0.00000000000E+00 0.  1.
         11    1    1    2    0    0 -0.11353510146E+02 -0.39979108521E+02  0.64122574930E+01  0.42051734292E+02  0.00000000000E+00 0. -1.
</event>
<event>
 7    1  0.8008810E-006  0.3055617E+03  0.7561462E-02  0.1082493E+00
          2   -1    0    0  501    0  0.00000000000E+00  0.00000000000E+00  0.37535532508E+03  0.37535532508E+03  0.00000000000E+00 0.  1.
         -2   -1    0    0    0  501 -0.00000000000E+00 -0.00000000000E+00 -0.27534008621E+03  0.27534008621E+03  0.00000000000E+00 0. -1.
         23    2    1    2    0    0 -0.26478933977E+03  0.12395084475E+03 -0.26588481638E+02  0.31911123131E+03  0.12509126357E+03 0.  0.
          5    1    3    3  502    0 -0.71109763964E+01  0.31734306114E+02 -0.31337532326E+02  0.45355765920E+02  0.41800000000E+01 0. -1.
         -5    1    3    3    0  502 -0.25767836337E+03  0.92216538636E+02  0.47490506879E+01  0.27375546539E+03  0.41800000000E+01 0. -1.
        -11    1    1    2    0    0  0.65780143950E+02  0.73649051088E+01  0.12923892738E+02  0.67441056997E+02  0.00000000000E+00 0.  1.
         11    1    1    2    0    0  0.19900919582E+03 -0.13131574986E+03  0.11367982777E+03  0.26414312299E+03  0.00000000000E+00 0. -1.
</event>
<event>
 6    1  0.6671761E-006  0.1446410E+03  0.7561462E-02  0.1207217E+00
          1   -1    0    0  501    0  0.00000000000E+00  0.00000000000E+00  0.11934034332E+03  0.11934034332E+03  0.00000000000E+00 0. -1.
         -1   -1    0    0    0  501 -0.00000000000E+00 -0.00000000000E+00 -0.27606479800E+03  0.27606479800E+03  0.00000000000E+00 0.  1.
          5    1    1    2  502    0 -0.85340214328E+02  0.26316923992E+02  0.12784568696E+02  0.90313068084E+02  0.41800000000E+01 0. -1.
         -5    1    1    2    0  502  0.37337007667E+02 -0.10177045010E+03 -0.13897705312E+03  0.17630476553E+03  0.41800000000E+01 0.  1.
        -11    1    1    2    0    0  0.39572574923E+02  0.45615857337E+02 -0.60631612826E+02  0.85574456472E+02  0.00000000000E+00 0.  1.
         11    1    1    2    0    0  0.84306317381E+01  0.29837668774E+02  0.30099642561E+02  0.43212851232E+02  0.00000000000E+00 0. -1.
</event>
<event>
 7    1  0.6671761E-006  0.8652989E+02  0.7561462E-02  0.1311480E+00
          1   -1    0    0  501    0  0.00000000000E+00  0.00000000000E+00  0.35710627471E+03  0.35710627471E+03  0.00000000000E+00 0. -1.
         -1   -1    0    0    0  501 -0.00000000000E+00 -0.00000000000E+00 -0.36373088769E+02  0.36373088769E+02  0.00000000000E+00 0.  1.
         23    2    1    2    0    0 -0.60901633875E+01  0.35798744867E+02  0.18652567797E+03  0.22750345048E+03  0.12508937290E+03 0.  0.
          5    1    3    3  502    0 -0.12853484987E+02  0.67164298035E+02  0.18245145735E+03  0.19489038380E+03  0.41800000000E+01 0.  1.
         -5    1    3    3    0  502  0.67633215999E+01 -0.31365553168E+02  0.40742206142E+01  0.32613066679E+02  0.41800000000E+01 0.  1.
        -11    1    1    2    0    0  0.27108098394E+02 -0.42256144835E+02  0.27934778457E+02  0.57452437914E+02  0.00000000000E+00 0.  1.
         11    1    1    2    0    0 -0.21017935006E+02  0.64573999682E+01  0.10627272952E+03  0.10852347509E+03  0.00000000000E+00 0. -1.
</event>
<event>
 7    1  0.6671761E-006  0.3864877E+03  0.7561462E-02  0.1048562E+00
          1   -1    0    0  501    0  0.00000000000E+00  0.00000000000E+00  0.81327721355E+03  0.81327721355E+03  0.00000000000E+00 0.  1.
         -1   -1    0    0    0  501 -0.00000000000E+00 -0.00000000000E+00 -0.19076114999E+03  0.19076114999E+03  0.00000000000E+00 0. -1.
         23    2    1    2    0    0  0.89080695720E+02  0.36484752854E+03  0.37889995924E+03  0.54796226630E+03  0.12509347202E+03 0.  0.
          5    1    3    3  502    0  0.84066420521E+02  0.13214037233E+03  0.20168380247E+03  0.25538611872E+03  0.41800000000E+01 0.  1.
         -5    1    3    3    0  502  0.50142751985E+01  0.23270715621E+03  0.17721615677E+03  0.29257614758E+03  0.41800000000E+01 0.  1.
        -11    1    1    2    0    0 -0.21224578605E+02 -0.24391622087E+03  0.13257215360E+03  0.27842589939E+03  0.00000000000E+00 0.  1.
         11    1    1    2    0    0 -0.67856117115E+02 -0.12093130767E+03  0.11104395071E+03  0.17765019785E+03  0.00000000000E+00 0. -1.
</event>
<event>
 7    1  0.6671761E-006  0.2189780E+03  0.7561462E-02  0.1134647E+00
         -1   -1    0    0    0  501 -0.00000000000E+00  0.00000000000E+00  0.62663007613E+02  0.62663007613E+02  0.00000000000E+00 0.  1.
          1   -1    0    0  501    0  0.00000000000E+00 -0.00000000000E+00 -0.86007588214E+03  0.86007588214E+03  0.00000000000E+00 0. -1.
         23    2    1    2    0    0  0.13724748234E+03 -0.14365962054E+03 -0.31071408365E+03  0.38944309599E+03  0.12509086800E+03 0.  0.
          5    1    3    3  502    0  0.15165400630E+03 -0.84397896363E+02 -0.23309151653E+03  0.29063907173E+03  0.41800000000E+01 0. -1.
         -5    1    3    3    0  502 -0.14406523960E+02 -0.59261724173E+02 -0.77622567113E+02  0.98804024259E+02  0.41800000000E+01 0. -1.
        -11    1    1    2    0    0 -0.68344184067E+02  0.10174311436E+03 -0.38170812480E+03  0.40090358112E+03  0.00000000000E+00 0. -1.
         11    1    1    2    0    0 -0.68903298277E+02  0.41916506180E+02 -0.10499066607E+03  0.13239221263E+03  0.00000000000E+00 0.  1.
</event>
<event>
 7    1  0.6671761E-006  0.1152382E+03  0.7561462E-02  0.1251166E+00
          2   -1    0    0  501    0  0.00000000000E+00  0.00000000000E+00  0.35565860929E+03  0.35565860929E+03  0.00000000000E+00 0. -1.
         -2   -1    0    0    0  501 -0.00000000000E+00 -0.00000000000E+00 -0.64064623668E+02  0.64064623668E+02  0.00000000000E+00 0.  1.
         23    2    1    2    0    0 -0.54840754728E+02 -0.87168562454E+02  0.13330663771E+03  0.20981786755E+03  0.12508801392E+03 0.  0.
          5    1    3    3  502    0 -0.25712276954E+02 -0.26694074204E+02 -0.20061860432E+02  0.42351451307E+02  0.41800000000E+01 0. -1.
         -5    1    3    3    0  502 -0.29128477773E+02 -0.60474488250E+02  0.15336849815E+03  0.16746641625E+03  0.41800000000E+01 0. -1.
        -11    1    1    2    0    0 -0.17895257099E+02  0.13669028645E+02  0.71319849319E+02  0.74790396962E+02  0.00000000000E+00 0. -1.
         11    1    1    2    0    0  0.72736011827E+02  0.73499533809E+02  0.86967498588E+02  0.13511496844E+03  0.00000000000E+00 0.  1.
</event>
<event>
 7    1  0.6671761E-006  0.1252865E+03  0.7561462E-02  0.1234622E+00
         -1   -1    0    0    0  501 -0.00000000000E+00  0.00000000000E+00  0.33165308453E+02  0.33165308453E+02  0.00000000000E+00 0.  1.
          1   -1    0    0  501    0  0.00000000000E+00 -0.00000000000E+00 -0.56469665741E+03  0.56469665741E+03  0.00000000000E+00 0. -1.
         23    2    1    2    0    0  0.60947452608E+02 -0.36340662550E+02 -0.19579289411E+03  0.24293624150E+03  0.12509166366E+03 0.  0.
          5    1    3    3  502    0  0.20472024731E+02 -0.80736329644E+02 -0.11993828718E+03  0.14608259257E+03  0.41800000000E+01 0.  1.
         -5    1    3    3    0  502  0.40475427877E+02  0.44395667095E+02 -0.75854606931E+02  0.96853648931E+02  0.41800000000E+01 0.  1.
        -11    1    1    2    0    0 -0.79101100181E+02  0.17947543610E+02 -0.30032417026E+03  0.31108472417E+03  0.00000000000E+00 0.  1.
         11    1    1    2    0    0  0.18153647573E+02  0.18393118940E+02 -0.35414284586E+02  0.43841000186E+02  0.00000000000E+00 0. -1.
</event>
<event>
 7    1  0.6671761E-006  0.1672972E+03  0.7561462E-02  0.1180696E+00
          1   -1    0    0  501    0  0.00000000000E+00  0.00000000000E+00  0.24120799454E+03  0.24120799454E+03  0.00000000000E+00 0. -1.
         -1   -1    0    0    0  501 -0.00000000000E+00 -0.00000000000E+00 -0.15254332653E+03  0.15254332653E+03  0.00000000000E+00 0.  1.
         23    2    1    2    0    0  0.10960488985E+03 -0.63975798558E+02 -0.47240192991E+02  0.18614031595E+03  0.12771235925E+03 0.  0.
          5    1    3    3  502    0 -0.24383615444E+02 -0.35026498664E+02 -0.10077280760E+02  0.44050429037E+02  0.41800000000E+01 0. -1.
         -5    1    3    3    0  502  0.13398850530E+03 -0.28949299893E+02 -0.37162912232E+02  0.14208988691E+03  0.41800000000E+01 0.  1.
        -11    1    1    2    0    0 -0.56411160108E+02  0.81007937559E+02  0.10354661416E+03  0.14306084802E+03  0.00000000000E+00 0.  1.
         11    1    1    2    0    0 -0.53193729746E+02 -0.17032139001E+02  0.32358246842E+02  0.64550157103E+02  0.00000000000E+00 0. -1.
</event>
<event>
 7    1  0.6671761E-006  0.1105966E+03  0.7561462E-02  0.1259469E+00
          2   -1    0    0  501    0  0.00000000000E+00  0.00000000000E+00  0.19423771793E+03  0.19423771793E+03  0.00000000000E+00 0. -1.
         -2   -1    0    0    0  501 -0.00000000000E+00 -0.00000000000E+00 -0.12266487322E+03  0.12266487322E+03  0.00000000000E+00 0.  1.
         23    2    1    2    0    0 -0.81608553073E+01 -0.10601124211E+03  0.44480812744E+02  0.17009285156E+03  0.12509217576E+03 0.  0.
          5    1    3    3  502    0 -0.24312761014E+02 -0.58017144873E+02  0.84491104074E+02  0.10541972546E+03  0.41800000000E+01 0. -1.
         -5    1    3    3    0  502  0.16151905707E+02 -0.47994097235E+02 -0.40010291330E+02  0.64673126101E+02  0.41800000000E+01 0. -1.
        -11    1    1    2    0    0 -0.43304300947E+01  0.27639106048E+02 -0.35881449424E+02  0.45498914501E+02  0.00000000000E+00 0.  1.
         11    1    1    2    0    0  0.12491285402E+02  0.78372136059E+02  0.62973481398E+02  0.10131082509E+03  0.00000000000E+00 0. -1.
</event>
<event>
 7    1  0.6671761E-006  0.1259566E+03  0.7561462E-02  0.1233582E+00
         -1   -1    0    0    0  501 -0.00000000000E+00  0.00000000000E+00  0.26412110351E+02  0.26412110351E+02  0.00000000000E+00 0.  1.
          1   -1    0    0  501    0  0.00000000000E+00 -0.00000000000E+00 -0.79691943674E+03  0.79691943674E+03  0.00000000000E+00 0. -1.
         23    2    1    2    0    0  0.81413408863E+02 -0.20546182072E+02 -0.28658250401E+03  0.32377079811E+03  0.12509080448E+03 0.  0.
          5    1    3    3  502    0  0.64926584519E+02  0.32338787724E+02 -0.24160513541E+03  0.25229302888E+03  0.41800000000E+01 0. -1.
         -5    1    3    3    0  502  0.16486824344E+02 -0.52884969796E+02 -0.44977368607E+02  0.71477769230E+02  0.41800000000E+01 0. -1.
        -11    1    1    2    0    0 -0.52884192672E+02  0.56776762632E+02 -0.32006055622E+03  0.32933128952E+03  0.00000000000E+00 0. -1.
         11    1    1    2    0    0 -0.28529216191E+02 -0.36230580560E+02 -0.16386426616E+03  0.17022945946E+03  0.00000000000E+00 0.  1.
</event>
<event>
 7    1  0.6671761E-006  0.9403120E+02  0.7561462E-02  0.1293373E+00
         -2   -1    0    0    0  501 -0.00000000000E+00  0.00000000000E+00  0.75192203425E+02  0.75192203425E+02  0.00000000000E+00 0. -1.
          2   -1    0    0  501    0  0.00000000000E+00 -0.00000000000E+00 -0.19124848952E+03  0.19124848952E+03  0.00000000000E+00 0.  1.
         23    2    1    2    0    0  0.17611623795E+02  0.45003849010E+02 -0.49507060781E+02  0.14294967127E+03  0.12509254067E+03 0.  0.
          5    1    3    3  502    0  0.87749471530E+01 -0.20172561912E+02  0.31419284339E+02  0.38582065523E+02  0.41800000000E+01 0. -1.
         -5    1    3    3    0  502  0.88366766421E+01  0.65176410922E+02 -0.80926345120E+02  0.10436760575E+03  0.41800000000E+01 0. -1.
        -11    1    1    2    0    0 -0.33489558846E+02  0.15722873222E+02 -0.84244888159E+01  0.37943791401E+02  0.00000000000E+00 0.  1.
         11    1    1    2    0    0  0.15877935051E+02 -0.60726722232E+02 -0.58124736494E+02  0.85547230271E+02  0.00000000000E+00 0. -1.
</event>
<event>
 7    1  0.6671761E-006  0.1248072E+03  0.7561462E-02  0.1235371E+00
         -1   -1    0    0    0  501 -0.00000000000E+00  0.00000000000E+00  0.51422733984E+02  0.51422733984E+02  0.00000000000E+00 0.  1.
          1   -1    0    0  501    0  0.00000000000E+00 -0.00000000000E+00 -0.50261813129E+03  0.50261813129E+03  0.00000000000E+00 0. -1.
         23    2    1    2    0    0 -0.64885399449E+02 -0.65360238798E+02 -0.11528171516E+03  0.19344075817E+03  0.12508947676E+03 0.  0.
          5    1    3    3  502    0  0.30391282750E+02 -0.15955548657E+01 -0.57030255556E+02  0.64777297808E+02  0.41800000000E+01 0.  1.
         -5    1    3    3    0  502 -0.95276682199E+02 -0.63764683932E+02 -0.58251459601E+02  0.12866346037E+03  0.41800000000E+01 0.  1.
        -11    1    1    2    0    0  0.48183818785E+01  0.37765453960E+02 -0.32462289196E+02  0.50032454832E+02  0.00000000000E+00 0.  1.
         11    1    1    2    0    0  0.60067017571E+02  0.27594784838E+02 -0.30345139295E+03  0.31056765227E+03  0.00000000000E+00 0. -1.
</event>
<event>
 7    1  0.6671761E-006  0.2359912E+03  0.7561462E-02  0.1122493E+00
          1   -1    0    0  501    0  0.00000000000E+00  0.00000000000E+00  0.13142923230E+04  0.13142923230E+04  0.00000000000E+00 0.  1.
         -1   -1    0    0    0  501 -0.00000000000E+00 -0.00000000000E+00 -0.51902019081E+02  0.51902019081E+02  0.00000000000E+00 0. -1.
         23    2    1    2    0    0  0.83665640099E+02 -0.20634703552E+03  0.43126106571E+03  0.50121247690E+03  0.12509517099E+03 0.  0.
          5    1    3    3  502    0  0.44816345041E+02 -0.19292099373E+03  0.40859824221E+03  0.45408920990E+03  0.41800000000E+01 0.  1.
         -5    1    3    3    0  502  0.38849295058E+02 -0.13426041784E+02  0.22662823498E+02  0.47123267007E+02  0.41800000000E+01 0.  1.
        -11    1    1    2    0    0 -0.68937655150E+02  0.81040738895E+02  0.48610637604E+03  0.49761371614E+03  0.00000000000E+00 0.  1.
         11    1    1    2    0    0 -0.14727984949E+02  0.12530629662E+03  0.34502286221E+03  0.36736814909E+03  0.00000000000E+00 0. -1.
</event>
<event>
 7    1  0.6671761E-006  0.1159695E+03  0.7561462E-02  0.1249898E+00
         -2   -1    0    0    0  501 -0.00000000000E+00  0.00000000000E+00  0.36247143824E+02  0.36247143824E+02  0.00000000000E+00 0. -1.
          2   -1    0    0  501    0  0.00000000000E+00 -0.00000000000E+00 -0.59693418982E+03  0.59693418982E+03  0.00000000000E+00 0.  1.
         23    2    1    2    0    0 -0.14196717303E+02  0.41640520123E+02 -0.11247385277E+03  0.17387608474E+03  0.12508815128E+03 0.  0.
          5    1    3    3  502    0 -0.59212464621E+02  0.58735330382E+02 -0.80022776092E+02  0.11565929316E+03  0.41800000000E+01 0.  1.
         -5    1    3    3    0  502  0.45015747318E+02 -0.17094810259E+02 -0.32451076679E+02  0.58216791581E+02  0.41800000000E+01 0.  1.
        -11    1    1    2    0    0  0.36151566804E+02  0.15160783549E+02 -0.19100415035E+03  0.19498556508E+03  0.00000000000E+00 0.  1.
         11    1    1    2    0    0 -0.21954849501E+02 -0.56801303672E+02 -0.25720904287E+03  0.26431968381E+03  0.00000000000E+00 0. -1.
</event>
<event>
 7    1  0.6671761E-006  0.9423459E+02  0.7561462E-02  0.1292909E+00
         -2   -1    0    0    0  501 -0.00000000000E+00  0.00000000000E+00  0.60921218680E+02  0.60921218680E+02  0.00000000000E+00 0.  1.
          2   -1    0    0  501    0  0.00000000000E+00 -0.00000000000E+00 -0.23275075237E+03  0.23275075237E+03  0.00000000000E+00 0. -1.
         23    2    1    2    0    0  0.86106772457E+01  0.45168423678E+02 -0.97867648584E+02  0.16534097626E+03  0.12508089995E+03 0.  0.
          5    1    3    3  502    0  0.61641424678E+02  0.23644376492E+02 -0.82856199589E+02  0.10602520449E+03  0.41800000000E+01 0. -1.
         -5    1    3    3    0  502 -0.53030747432E+02  0.21524047186E+02 -0.15011448995E+02  0.59315771777E+02  0.41800000000E+01 0. -1.
        -11    1    1    2    0    0 -0.21382507540E+02 -0.39042134340E+01  0.17025902173E+02  0.27610430204E+02  0.00000000000E+00 0.  1.
         11    1    1    2    0    0  0.12771830294E+02 -0.41264210244E+02 -0.90987787281E+02  0.10072056459E+03  0.00000000000E+00 0. -1.
</event>
<event>
 7    1  0.6671761E-006  0.1435684E+03  0.7561462E-02  0.1208606E+00
         -3   -1    0    0    0  501 -0.00000000000E+00  0.00000000000E+00  0.37166353843E+03  0.37166353843E+03  0.00000000000E+00 0.  1.
          3   -1    0    0  501    0  0.00000000000E+00 -0.00000000000E+00 -0.71559789733E+02  0.71559789733E+02  0.00000000000E+00 0. -1.
         23    2    1    2    0    0  0.10125264069E+02 -0.11275282496E+03  0.21917324210E+03  0.27658955767E+03  0.12509657408E+03 0.  0.
          5    1    3    3  502    0 -0.36666629345E+02 -0.69956471583E+02  0.19166284259E+03  0.20734142677E+03  0.41800000000E+01 0. -1.
         -5    1    3    3    0  502  0.46791893414E+02 -0.42796353379E+02  0.27510399512E+02  0.69248130900E+02  0.41800000000E+01 0. -1.
        -11    1    1    2    0    0 -0.20891042240E+02 -0.86527405677E+01  0.20810297510E+02  0.30730669496E+02  0.00000000000E+00 0.  1.
         11    1    1    2    0    0  0.10765778172E+02  0.12140556553E+03  0.60120209083E+02  0.13590310100E+03  0.00000000000E+00 0. -1.
</event>
<event>
 7    1  0.6671761E-006  0.1573879E+03  0.7561462E-02  0.1191678E+00
         -1   -1    0    0    0  501 -0.00000000000E+00  0.00000000000E+00  0.35737518091E+03  0.35737518091E+03  0.00000000000E+00 0.  1.
          1   -1    0    0  501    0  0.00000000000E+00 -0.00000000000E+00 -0.85335559326E+02  0.85335559326E+02  0.00000000000E+00 0. -1.
         23    2    1    2    0    0 -0.13115405805E+03  0.27431936443E+02  0.17883189485E+03  0.25608954201E+03  0.12508840407E+03 0.  0.
          5    1    3    3  502    0  0.11929843390E+02  0.16145572622E+02 -0.66193733676E+01  0.21547370661E+02  0.41800000000E+01 0. -1.
         -5    1    3    3    0  502 -0.14308390144E+03  0.11286363821E+02  0.18545126821E+03  0.23454217135E+03  0.41800000000E+01 0. -1.
        -11    1    1    2    0    0  0.13032624441E+03 -0.72982219636E+01  0.51541105450E+02  0.14033773397E+03  0.00000000000E+00 0. -1.
         11    1    1    2    0    0  0.82781363943E+00 -0.20133714480E+02  0.41666621289E+02  0.46283464259E+02  0.00000000000E+00 0.  1.
</event>
<event>
 7    1  0.6671761E-006  0.3537005E+03  0.7561462E-02  0.1061106E+00
          2   -1    0    0  501    0  0.00000000000E+00  0.00000000000E+00  0.16170354320E+04  0.16170354320E+04  0.00000000000E+00 0. -1.
         -2   -1    0    0    0  501 -0.00000000000E+00 -0.00000000000E+00 -0.10893782307E+03  0.10893782307E+03  0.00000000000E+00 0.  1.
         23    2    1    2    0    0 -0.28891871114E+03  0.19076743287E+03  0.32903202575E+03  0.49373674857E+03  0.12509063844E+03 0.  0.
          5    1    3    3  502    0 -0.98899144202E+02  0.10007856950E+03  0.20704715662E+03  0.25036524971E+03  0.41800000000E+01 0.  1.
         -5    1    3    3    0  502 -0.19001956694E+03  0.90688863369E+02  0.12198486912E+03  0.24337149885E+03  0.41800000000E+01 0.  1.
        -11    1    1    2    0    0  0.20904249068E+03 -0.17919373541E+03  0.85329361951E+03  0.89661539069E+03  0.00000000000E+00 0.  1.
         11    1    1    2    0    0  0.79876220466E+02 -0.11573697460E+02  0.32577196368E+03  0.33562111582E+03  0.00000000000E+00 0. -1.
</event>
<event>
 7    1  0.6671761E-006  0.8141385E+02  0.7561462E-02  0.1325086E+00
          1   -1    0    0  501    0  0.00000000000E+00  0.00000000000E+00  0.21583909576E+03  0.21583909576E+03  0.00000000000E+00 0. -1.
         -1   -1    0    0    0  501 -0.00000000000E+00 -0.00000000000E+00 -0.83099744811E+02  0.83099744811E+02  0.00000000000E+00 0.  1.
         23    2    1    2    0    0 -0.63749339185E+02  0.38107962524E+02  0.40128124897E+02  0.15091097050E+03  0.12509060538E+03 0.  0.
          5    1    3    3  502    0 -0.69176833462E+02  0.39111359446E+02 -0.26538170213E+02  0.83886110911E+02  0.41800000000E+01 0.  1.
         -5    1    3    3    0  502  0.54274942765E+01 -0.10033969216E+01  0.66666295109E+02  0.67024859590E+02  0.41800000000E+01 0.  1.
        -11    1    1    2    0    0  0.36733423646E+02 -0.31795256313E+02 -0.28014515215E+01  0.48663444878E+02  0.00000000000E+00 0.  1.
         11    1    1    2    0    0  0.27015915539E+02 -0.63127062114E+01  0.95412677576E+02  0.99364425196E+02  0.00000000000E+00 0. -1.
</event>
<event>
 7    1  0.6671761E-006  0.1256376E+03  0.7561462E-02  0.1234076E+00
         -2   -1    0    0    0  501 -0.00000000000E+00  0.00000000000E+00  0.27309417949E+02  0.27309417949E+02  0.00000000000E+00 0.  1.
          2   -1    0    0  501    0  0.00000000000E+00 -0.00000000000E+00 -0.72145464399E+03  0.72145464399E+03  0.00000000000E+00 0. -1.
         23    2    1    2    0    0 -0.71878966365E+02  0.47822293389E+02 -0.32590280133E+03  0.35960253417E+03  0.12509112325E+03 0.  0.
          5    1    3    3  502    0 -0.10098264413E+03  0.47858208658E+02 -0.18923148208E+03  0.21980429651E+03  0.41800000000E+01 0. -1.
         -5    1    3    3    0  502  0.29103677762E+02 -0.35915268545E-01 -0.13667131925E+03  0.13979823766E+03  0.41800000000E+01 0. -1.
        -11    1    1    2    0    0 -0.60878930763E+00 -0.36704986013E+02 -0.46907990280E+02  0.59564974396E+02  0.00000000000E+00 0.  1.
         11    1    1    2    0    0  0.72487755672E+02 -0.11117307376E+02 -0.32133443443E+03  0.32959655337E+03  0.00000000000E+00 0. -1.
</event>
<event>
 7    1  0.6671761E-006  0.1389017E+03  0.7561462E-02  0.1214814E+00
         -2   -1    0    0    0  501 -0.00000000000E+00  0.00000000000E+00  0.66110202056E+03  0.66110202056E+03  0.00000000000E+00 0.  1.
          2   -1    0    0  501    0  0.00000000000E+00 -0.00000000000E+00 -0.31382341582E+02  0.31382341582E+02  0.00000000000E+00 0. -1.
         23    2    1    2    0    0 -0.40684608765E+02  0.77588670660E+02  0.37819462090E+03  0.40786498193E+03  0.12508969982E+03 0.  0.
          5    1    3    3  502    0 -0.38663310306E+02 -0.25106868766E+02  0.79735303504E+02  0.92197600012E+02  0.41800000000E+01 0. -1.
         -5    1    3    3    0  502 -0.20212984585E+01  0.10269553943E+03  0.29845931740E+03  0.31566738192E+03  0.41800000000E+01 0. -1.
        -11    1    1    2    0    0  0.36512775478E+02  0.12451262981E+02  0.44942664919E+02  0.59228876850E+02  0.00000000000E+00 0. -1.
         11    1    1    2    0    0  0.41718332866E+01 -0.90039933642E+02  0.20658239316E+03  0.22539050336E+03  0.00000000000E+00 0.  1.
</event>
<event>
 7    1  0.6671761E-006  0.1081659E+03  0.7561462E-02  0.1264005E+00
         -1   -1    0    0    0  501 -0.00000000000E+00  0.00000000000E+00  0.12772052892E+02  0.12772052892E+02  0.00000000000E+00 0.  1.
          1   -1    0    0  501    0  0.00000000000E+00 -0.00000000000E+00 -0.10140623031E+04  0.10140623031E+04  0.00000000000E+00 0. -1.
         23    2    1    2    0    0 -0.22841291255E+02  0.38522632048E+02 -0.55539041740E+03  0.57106292299E+03  0.12509447833E+03 0.  0.
          5    1    3    3  502    0 -0.60859097545E+02  0.53921072536E+02 -0.45990629561E+03  0.46705736795E+03  0.41800000000E+01 0. -1.
         -5    1    3    3    0  502  0.38017806290E+02 -0.15398440488E+02 -0.95484121796E+02  0.10400555504E+03  0.41800000000E+01 0. -1.
        -11    1    1    2    0    0  0.20173462804E+02  0.23859530111E+02 -0.12434215226E+03  0.12820770885E+03  0.00000000000E+00 0. -1.
         11    1    1    2    0    0  0.26678284512E+01 -0.62382162159E+02 -0.32155768056E+03  0.32756372417E+03  0.00000000000E+00 0.  1.
</event>
<event>
 6    1  0.6671761E-006  0.1838241E+03  0.7561462E-02  0.1164153E+00
         -1   -1    0    0    0  501 -0.00000000000E+00  0.00000000000E+00  0.60131180663E+03  0.60131180663E+03  0.00000000000E+00 0.  1.
          1   -1    0    0  501    0  0.00000000000E+00 -0.00000000000E+00 -0.84935826264E+02  0.84935826264E+02  0.00000000000E+00 0. -1.
          5    1    1    2  502    0  0.37889517212E+02  0.14871752024E+02  0.21170277058E+03  0.21562077821E+03  0.41800000000E+01 0. -1.
         -5    1    1    2    0  502  0.91200022621E+02 -0.11428457355E+03  0.21639890456E+03  0.26119794443E+03  0.41800000000E+01 0.  1.
        -11    1    1    2    0    0 -0.85334886437E+02  0.16800083548E+02  0.10083530771E+02  0.87555486654E+02  0.00000000000E+00 0. -1.
         11    1    1    2    0    0 -0.43754653395E+02  0.82612737983E+02  0.78190774442E+02  0.12187342359E+03  0.00000000000E+00 0.  1.
</event>
<event>
 7    1  0.6671761E-006  0.1366655E+03  0.7561462E-02  0.1217888E+00
          2   -1    0    0  501    0  0.00000000000E+00  0.00000000000E+00  0.12048077041E+04  0.12048077041E+04  0.00000000000E+00 0.  1.
         -2   -1    0    0    0  501 -0.00000000000E+00 -0.00000000000E+00 -0.23800638380E+02  0.23800638380E+02  0.00000000000E+00 0. -1.
         23    2    1    2    0    0  0.86430695588E+02 -0.84327370745E+02  0.45743173224E+03  0.48935379535E+03  0.12506788862E+03 0.  0.
          5    1    3    3  502    0  0.40789720841E+02 -0.29688852106E+02  0.38277723812E+03  0.38611023774E+03  0.41800000000E+01 0.  1.
         -5    1    3    3    0  502  0.45640974747E+02 -0.54638518639E+02  0.74654494118E+02  0.10324355760E+03  0.41800000000E+01 0.  1.
        -11    1    1    2    0    0 -0.52008518624E+02 -0.82166703169E+01  0.26117057109E+03  0.26642534955E+03  0.00000000000E+00 0.  1.
         11    1    1    2    0    0 -0.34422176964E+02  0.92544041062E+02  0.46240476244E+03  0.47282919763E+03  0.00000000000E+00 0. -1.
</event>
<event>
 7    1  0.6671761E-006  0.8093347E+02  0.7561462E-02  0.1326423E+00
         -1   -1    0    0    0  501 -0.00000000000E+00  0.00000000000E+00  0.56431309166E+02  0.56431309166E+02  0.00000000000E+00 0.  1.
          1   -1    0    0  501    0  0.00000000000E+00 -0.00000000000E+00 -0.21196387042E+03  0.21196387042E+03  0.00000000000E+00 0. -1.
         23    2    1    2    0    0 -0.63026909504E+01 -0.19876621705E+02 -0.75196471382E+02  0.14743206509E+03  0.12508757134E+03 0.  0.
          5    1    3    3  502    0  0.47532973893E+02 -0.27458725442E+01 -0.77142315247E+02  0.90748733461E+02  0.41800000000E+01 0. -1.
         -5    1    3    3    0  502 -0.53835664843E+02 -0.17130749160E+02  0.19458438650E+01  0.56683331626E+02  0.41800000000E+01 0. -1.
        -11    1    1    2    0    0 -0.18547521223E+02  0.25895824365E+02  0.46713695878E+01  0.32193570117E+02  0.00000000000E+00 0.  1.
         11    1    1    2    0    0  0.24850212173E+02 -0.60192026608E+01 -0.85007459465E+02  0.88769544385E+02  0.00000000000E+00 0. -1.
</event>
<event>
 7    1  0.1274554E-005  0.1057641E+03  0.7561462E-02  0.1268621E+00
          1   -1    0    0  501    0  0.00000000000E+00  0.00000000000E+00  0.56852870255E+03  0.56852870255E+03  0.00000000000E+00 0. -1.
         -1   -1    0    0    0  501 -0.00000000000E+00 -0.00000000000E+00 -0.24202697240E+02  0.24202697240E+02  0.00000000000E+00 0.  1.
         23    2    1    2    0    0  0.34177854810E+02  0.15124261287E+02  0.24448359483E+03  0.27715799114E+03  0.12508978723E+03 0.  0.
          5    1    3    3  502    0 -0.32618411161E+02  0.45893635212E+02  0.95004809656E+02  0.11051503408E+03  0.41800000000E+01 0.  1.
         -5    1    3    3    0  502  0.66796265972E+02 -0.30769373925E+02  0.14947878517E+03  0.16664295706E+03  0.41800000000E+01 0.  1.
        -11    1    1    2    0    0  0.14706356817E+02  0.17331542119E+02  0.22108675199E+02  0.31708875763E+02  0.00000000000E+00 0.  1.
         11    1    1    2    0    0 -0.48884211628E+02 -0.32455803406E+02  0.27773373528E+03  0.28386453290E+03  0.00000000000E+00 0. -1.
</event>
<event>
 7    1  0.6671761E-006  0.1453805E+03  0.7561462E-02  0.1206267E+00
         -2   -1    0    0    0  501 -0.00000000000E+00  0.00000000000E+00  0.12712425760E+03  0.12712425760E+03  0.00000000000E+00 0.  1.
          2   -1    0    0  501    0  0.00000000000E+00 -0.00000000000E+00 -0.20575632755E+03  0.20575632755E+03  0.00000000000E+00 0. -1.
         23    2    1    2    0    0 -0.93743098960E+02 -0.41194306189E+02  0.21687758041E+02  0.16310675952E+03  0.12509483077E+03 0.  0.
          5    1    3    3  502    0 -0.23353640566E+02  0.40810415664E+02 -0.13967765269E+02  0.49228583374E+02  0.41800000000E+01 0.  1.
         -5    1    3    3    0  502 -0.70389458394E+02 -0.82004721853E+02  0.35655523310E+02  0.11387817614E+03  0.41800000000E+01 0.  1.
        -11    1    1    2    0    0  0.43423947064E+02 -0.26639044074E+02 -0.25636122291E+02  0.57030593666E+02  0.00000000000E+00 0.  1.
         11    1    1    2    0    0  0.50319151896E+02  0.67833350263E+02 -0.74683705704E+02  0.11274323196E+03  0.00000000000E+00 0. -1.
</event>
<event>
 7    1  0.6671761E-006  0.1112875E+03  0.7561462E-02  0.1258204E+00
         -4   -1    0    0    0  501 -0.00000000000E+00  0.00000000000E+00  0.61135997302E+02  0.61135997302E+02  0.00000000000E+00 0.  1.
          4   -1    0    0  501    0  0.00000000000E+00 -0.00000000000E+00 -0.22975293882E+03  0.22975293882E+03  0.00000000000E+00 0. -1.
         23    2    1    2    0    0 -0.92633425195E+01  0.35925206833E+02 -0.68670304321E+02  0.14740302517E+03  0.12504243733E+03 0.  0.
          5    1    3    3  502    0  0.24774563448E+02  0.72342527515E+02 -0.58470809004E+02  0.96351067388E+02  0.41800000000E+01 0.  1.
         -5    1    3    3    0  502 -0.34037905967E+02 -0.36417320682E+02 -0.10199495317E+02  0.51051957779E+02  0.41800000000E+01 0.  1.
        -11    1    1    2    0    0  0.42532510343E+02  0.54487226835E+01 -0.19514412609E+02  0.47111732238E+02  0.00000000000E+00 0.  1.
         11    1    1    2    0    0 -0.33269167823E+02 -0.41373929517E+02 -0.80432224587E+02  0.96374178717E+02  0.00000000000E+00 0. -1.
</event>
<event>
 7    1  0.6671761E-006  0.1058463E+03  0.7561462E-02  0.1268461E+00
          1   -1    0    0  501    0  0.00000000000E+00  0.00000000000E+00  0.68266982569E+03  0.68266982569E+03  0.00000000000E+00 0. -1.
         -1   -1    0    0    0  501 -0.00000000000E+00 -0.00000000000E+00 -0.18612845201E+02  0.18612845201E+02  0.00000000000E+00 0.  1.
         23    2    1    2    0    0 -0.17851306924E+02  0.20609681106E+02  0.32854867543E+03  0.35261260327E+03  0.12509191719E+03 0.  0.
          5    1    3    3  502    0 -0.16037226147E+02  0.67833599373E+02  0.12093566542E+03  0.13964776187E+03  0.41800000000E+01 0.  1.
         -5    1    3    3    0  502 -0.18140807770E+01 -0.47223918267E+02  0.20761301001E+03  0.21296484140E+03  0.41800000000E+01 0.  1.
        -11    1    1    2    0    0  0.13693941090E+02  0.35555677323E+02  0.11863008091E+03  0.12459866095E+03  0.00000000000E+00 0. -1.
         11    1    1    2    0    0  0.41573658341E+01 -0.56165358429E+02  0.21687822414E+03  0.22407140667E+03  0.00000000000E+00 0.  1.
</event>
<event>
 7    1  0.6671761E-006  0.1128610E+03  0.7561462E-02  0.1255362E+00
          1   -1    0    0  501    0  0.00000000000E+00  0.00000000000E+00  0.68080805006E+03  0.68080805006E+03  0.00000000000E+00 0. -1.
         -1   -1    0    0    0  501 -0.00000000000E+00 -0.00000000000E+00 -0.23503290210E+02  0.23503290210E+02  0.00000000000E+00 0.  1.
         23    2    1    2    0    0 -0.62328976203E+02 -0.12972654850E+02  0.32178820598E+03  0.35106668725E+03  0.12508788246E+03 0.  0.
          5    1    3    3  502    0 -0.19032916363E+02 -0.58885317886E+02  0.80481480787E+02  0.10160941746E+03  0.41800000000E+01 0.  1.
         -5    1    3    3    0  502 -0.43296059840E+02  0.45912663036E+02  0.24130672519E+03  0.24945726978E+03  0.41800000000E+01 0.  1.
        -11    1    1    2    0    0  0.49795314850E+02  0.44337769161E+02  0.14289957788E+03  0.15768861884E+03  0.00000000000E+00 0.  1.
         11    1    1    2    0    0  0.12533661353E+02 -0.31365114311E+02  0.19261697600E+03  0.19555603418E+03  0.00000000000E+00 0. -1.
</event>
<event>
 7    1  0.6671761E-006  0.1143851E+03  0.7561462E-02  0.1252658E+00
         -2   -1    0    0    0  501 -0.00000000000E+00  0.00000000000E+00  0.36404928634E+03  0.36404928634E+03  0.00000000000E+00 0.  1.
          2   -1    0    0  501    0  0.00000000000E+00 -0.00000000000E+00 -0.55156471394E+02  0.55156471394E+02  0.00000000000E+00 0. -1.
         23    2    1    2    0    0  0.63842981391E+02  0.64884944333E+02  0.18366340714E+03  0.24013881604E+03  0.12509365121E+03 0.  0.
          5    1    3    3  502    0  0.72879536384E+02  0.72583926030E+02  0.19670538681E+03  0.22201426698E+03  0.41800000000E+01 0. -1.
         -5    1    3    3    0  502 -0.90365549928E+01 -0.76989816974E+01 -0.13041979665E+02  0.18124549067E+02  0.41800000000E+01 0. -1.
        -11    1    1    2    0    0 -0.55762932092E+02 -0.86515619389E+01  0.20718850229E+02  0.60113433392E+02  0.00000000000E+00 0. -1.
         11    1    1    2    0    0 -0.80800492999E+01 -0.56233382394E+02  0.10451055757E+03  0.11895350830E+03  0.00000000000E+00 0.  1.
</event>
<event>
 7    1  0.6671761E-006  0.1469064E+03  0.7561462E-02  0.1204327E+00
          2   -1    0    0  501    0  0.00000000000E+00  0.00000000000E+00  0.12217011082E+04  0.12217011082E+04  0.00000000000E+00 0. -1.
         -2   -1    0    0    0  501 -0.00000000000E+00 -0.00000000000E+00 -0.24909628243E+02  0.24909628243E+02  0.00000000000E+00 0.  1.
         23    2    1    2    0    0  0.95825245681E+02  0.65583500520E+02  0.38835168686E+03  0.42420402629E+03  0.12509336507E+03 0.  0.
          5    1    3    3  502    0  0.76277232364E+02  0.56046288072E+00  0.31513631722E+03  0.32426362906E+03  0.41800000000E+01 0. -1.
         -5    1    3    3    0  502  0.19548013317E+02  0.65023037639E+02  0.73215369635E+02  0.99940397234E+02  0.41800000000E+01 0. -1.
        -11    1    1    2    0    0 -0.70030205813E+01  0.22943032051E+02  0.92086838118E+02  0.95159922087E+02  0.00000000000E+00 0. -1.
         11    1    1    2    0    0 -0.88822225099E+02 -0.88526532571E+02  0.71635295494E+03  0.72724678802E+03  0.00000000000E+00 0.  1.
</event>
<event>
 7    1  0.6671761E-006  0.1878170E+03  0.7561462E-02  0.1160445E+00
          1   -1    0    0  501    0  0.00000000000E+00  0.00000000000E+00  0.60810738112E+03  0.60810738112E+03  0.00000000000E+00 0. -1.
         -1   -1    0    0    0  501 -0.00000000000E+00 -0.00000000000E+00 -0.63623183160E+02  0.63623183160E+02  0.00000000000E+00 0.  1.
         23    2    1    2    0    0 -0.72983520403E+02 -0.13536448630E+03  0.19231161464E+03  0.27619013600E+03  0.12508835156E+03 0.  0.
          5    1    3    3  502    0 -0.26444846892E+02 -0.14569920740E+03  0.12638676704E+03  0.19472718415E+03  0.41800000000E+01 0.  1.
         -5    1    3    3    0  502 -0.46538673511E+02  0.10334721101E+02  0.65924847597E+02  0.81462951844E+02  0.41800000000E+01 0.  1.
        -11    1    1    2    0    0 -0.22443854875E+02  0.30304506622E+02  0.63229675094E+02  0.73621203167E+02  0.00000000000E+00 0.  1.
         11    1    1    2    0    0  0.95427375277E+02  0.10505997968E+03  0.28894290823E+03  0.32191922511E+03  0.00000000000E+00 0. -1.
</event>
<event>
 7    1  0.6671761E-006  0.9089479E+02  0.7561462E-02  0.1300699E+00
         -2   -1    0    0    0  501 -0.00000000000E+00  0.00000000000E+00  0.50927542175E+02  0.50927542175E+02  0.00000000000E+00 0.  1.
          2   -1    0    0  501    0  0.00000000000E+00 -0.00000000000E+00 -0.29359788406E+03  0.29359788406E+03  0.00000000000E+00 0. -1.
         23    2    1    2    0    0  0.54220838497E-01 -0.12661783403E+01 -0.55608012586E+02  0.13691307058E+03  0.12510528240E+03 0.  0.
          5    1    3    3  502    0  0.45375296817E+02  0.14560123756E+02 -0.71627946410E+02  0.86133326141E+02  0.41800000000E+01 0. -1.
         -5    1    3    3    0  502 -0.45321075979E+02 -0.15826302096E+02  0.16019933824E+02  0.50779744443E+02  0.41800000000E+01 0. -1.
        -11    1    1    2    0    0 -0.26407355526E+02  0.34439839817E+02 -0.12621635016E+03  0.13346916513E+03  0.00000000000E+00 0. -1.
         11    1    1    2    0    0  0.26353134687E+02 -0.33173661477E+02 -0.60845979136E+02  0.74143190521E+02  0.00000000000E+00 0.  1.
</event>
<event>
 6    1  0.6671761E-006  0.1935411E+03  0.7561462E-02  0.1155306E+00
         -2   -1    0    0    0  501 -0.00000000000E+00  0.00000000000E+00  0.56944160695E+02  0.56944160695E+02  0.00000000000E+00 0.  1.
          2   -1    0    0  501    0  0.00000000000E+00 -0.00000000000E+00 -0.11839095131E+04  0.11839095131E+04  0.00000000000E+00 0. -1.
          5    1    1    2  502    0  0.14062368189E+02 -0.39539931465E+01 -0.25501663740E+03  0.25546886701E+03  0.41800000000E+01 0. -1.
         -5    1    1    2    0  502  0.19615003671E+02  0.17726873317E+03 -0.13906804544E+03  0.22619979176E+03  0.41800000000E+01 0.  1.
        -11    1    1    2    0    0  0.26158749432E+02 -0.54984431448E+02 -0.16090697406E+03  0.17204250107E+03  0.00000000000E+00 0.  1.
         11    1    1    2    0    0 -0.59836121292E+02 -0.11833030858E+03 -0.57197369549E+03  0.58714251394E+03  0.00000000000E+00 0. -1.
</event>
<event>
 7    1  0.6671761E-006  0.2245424E+03  0.7561462E-02  0.1130541E+00
         -2   -1    0    0    0  501 -0.00000000000E+00  0.00000000000E+00  0.88269592860E+02  0.88269592860E+02  0.00000000000E+00 0.  1.
          2   -1    0    0  501    0  0.00000000000E+00 -0.00000000000E+00 -0.72264590403E+03  0.72264590403E+03  0.00000000000E+00 0. -1.
         23    2    1    2    0    0  0.20099651904E+03 -0.59994132165E+02 -0.21078492613E+03  0.32260914123E+03  0.12508987314E+03 0.  0.
          5    1    3    3  502    0  0.56239151174E+02 -0.19532721950E+02  0.46808067485E+01  0.59864444401E+02  0.41800000000E+01 0. -1.
         -5    1    3    3    0  502  0.14475736787E+03 -0.40461410215E+02 -0.21546573288E+03  0.26274469683E+03  0.41800000000E+01 0. -1.
        -11    1    1    2    0    0 -0.40761101691E+02 -0.34165921860E+02 -0.61538733388E+02  0.81337527222E+02  0.00000000000E+00 0.  1.
         11    1    1    2    0    0 -0.16023541735E+03  0.94160054025E+02 -0.36205265165E+03  0.40696882843E+03  0.00000000000E+00 0. -1.
</event>
<event>
 7    1  0.6671761E-006  0.1256976E+03  0.7561462E-02  0.1233983E+00
         -2   -1    0    0    0  501 -0.00000000000E+00  0.00000000000E+00  0.48921599956E+02  0.48921599956E+02  0.00000000000E+00 0.  1.
          2   -1    0    0  501    0  0.00000000000E+00 -0.00000000000E+00 -0.39410195375E+03  0.39410195375E+03  0.00000000000E+00 0. -1.
         23    2    1    2    0    0  0.48099979526E+02 -0.72009525172E+02 -0.19845061030E+03  0.25005878038E+03  0.12509104353E+03 0.  0.
          5    1    3    3  502    0 -0.15294253197E+02 -0.85684849146E+02 -0.11535485249E+03  0.14456839885E+03  0.41800000000E+01 0.  1.
         -5    1    3    3    0  502  0.63394232723E+02  0.13675323975E+02 -0.83095757808E+02  0.10549038152E+03  0.41800000000E+01 0.  1.
        -11    1    1    2    0    0 -0.58103611541E+02  0.64108169021E+02 -0.15518026095E+03  0.17767048263E+03  0.00000000000E+00 0. -1.
         11    1    1    2    0    0  0.10003632015E+02  0.79013561507E+01  0.84505174594E+01  0.15294290694E+02  0.00000000000E+00 0.  1.
</event>
<event>
 7    1  0.6671761E-006  0.1140646E+03  0.7561462E-02  0.1253223E+00
         -1   -1    0    0    0  501 -0.00000000000E+00  0.00000000000E+00  0.25357012646E+02  0.25357012646E+02  0.00000000000E+00 0.  1.
          1   -1    0    0  501    0  0.00000000000E+00 -0.00000000000E+00 -0.61675826907E+03  0.61675826907E+03  0.00000000000E+00 0. -1.
         23    2    1    2    0    0  0.62134693317E+02 -0.84937800430E+01 -0.32721136583E+03  0.35587594943E+03  0.12509016367E+03 0.  0.
          5    1    3    3  502    0 -0.21483459703E+02 -0.29706668209E+02 -0.33878827099E+02  0.50092639205E+02  0.41800000000E+01 0. -1.
         -5    1    3    3    0  502  0.83618153020E+02  0.21212888166E+02 -0.29333253873E+03  0.30578331023E+03  0.41800000000E+01 0. -1.
        -11    1    1    2    0    0 -0.38330612587E+02 -0.37153258485E+02 -0.17813067530E+03  0.18595735522E+03  0.00000000000E+00 0. -1.
         11    1    1    2    0    0 -0.23804080730E+02  0.45647038529E+02 -0.86059215301E+02  0.10028197706E+03  0.00000000000E+00 0.  1.
</event>
<event>
 7    1  0.6671761E-006  0.1675449E+03  0.7561462E-02  0.1180433E+00
         -2   -1    0    0    0  501 -0.00000000000E+00  0.00000000000E+00  0.64852885414E+02  0.64852885414E+02  0.00000000000E+00 0. -1.
          2   -1    0    0  501    0  0.00000000000E+00 -0.00000000000E+00 -0.52362552176E+03  0.52362552176E+03  0.00000000000E+00 0.  1.
         23    2    1    2    0    0 -0.12489763689E+03  0.62191524609E+02 -0.15914477030E+03  0.24584309707E+03  0.12507823564E+03 0.  0.
          5    1    3    3  502    0 -0.49998883932E+02 -0.37310852258E+02 -0.47322553941E+02  0.78414823867E+02  0.41800000000E+01 0. -1.
         -5    1    3    3    0  502 -0.74898752961E+02  0.99502376867E+02 -0.11182221636E+03  0.16742827321E+03  0.41800000000E+01 0. -1.
        -11    1    1    2    0    0  0.95497513472E+01 -0.24992476571E+02 -0.13824577744E+03  0.14081092506E+03  0.00000000000E+00 0.  1.
         11    1    1    2    0    0  0.11534788555E+03 -0.37199048038E+02 -0.16138208860E+03  0.20182438504E+03  0.00000000000E+00 0. -1.
</event>
<event>
 7    1  0.6671761E-006  0.1166026E+03  0.7561462E-02  0.1248809E+00
          3   -1    0    0  501    0  0.00000000000E+00  0.00000000000E+00  0.73690252882E+03  0.73690252882E+03  0.00000000000E+00 0. -1.
         -3   -1    0    0    0  501 -0.00000000000E+00 -0.00000000000E+00 -0.49540817650E+02  0.49540817650E+02  0.00000000000E+00 0.  1.
         23    2    1    2    0    0  0.12120012563E+02 -0.50469260588E+02  0.56404868345E+02  0.14670839102E+03  0.12509117417E+03 0.  0.
          5    1    3    3  502    0  0.64180989699E+02 -0.21197615914E+02  0.51876859771E+01  0.67918501492E+02  0.41800000000E+01 0.  1.
         -5    1    3    3    0  502 -0.52060977135E+02 -0.29271644674E+02  0.51217182368E+02  0.78789889528E+02  0.41800000000E+01 0.  1.
        -11    1    1    2    0    0 -0.52440468553E+02  0.29407257327E+02  0.35811415336E+03  0.36312606125E+03  0.00000000000E+00 0. -1.
         11    1    1    2    0    0  0.40320455990E+02  0.21062003260E+02  0.27284268947E+03  0.27660889420E+03  0.00000000000E+00 0.  1.
</event>
<event>
 7    1  0.6671761E-006  0.1128787E+03  0.7561462E-02  0.1255330E+00
          1   -1    0    0  501    0  0.00000000000E+00  0.00000000000E+00  0.42163578992E+03  0.42163578992E+03  0.00000000000E+00 0. -1.
         -1   -1    0    0    0  501 -0.00000000000E+00 -0.00000000000E+00 -0.62590881642E+02  0.62590881642E+02  0.00000000000E+00 0.  1.
         23    2    1    2    0    0  0.69334948564E+02 -0.57343673744E+02  0.72688132351E+02  0.17037267818E+03  0.12509057868E+03 0.  0.
          5    1    3    3  502    0 -0.72198537348E+01 -0.47289142735E+01  0.76702767935E+02  0.77299908972E+02  0.41800000000E+01 0. -1.
         -5    1    3    3    0  502  0.76554802298E+02 -0.52614759470E+02 -0.40146355842E+01  0.93072769207E+02  0.41800000000E+01 0. -1.
        -11    1    1    2    0    0 -0.18056671665E+02  0.68384414159E+02  0.11860547337E+03  0.13809319247E+03  0.00000000000E+00 0.  1.
         11    1    1    2    0    0 -0.51278276898E+02 -0.11040740415E+02  0.16775130256E+03  0.17576080092E+03  0.00000000000E+00 0. -1.
</event>
<event>
 7    1  0.6671761E-006  0.1264606E+03  0.7561462E-02  0.1232804E+00
         -2   -1    0    0    0  501 -0.00000000000E+00  0.00000000000E+00  0.50358429989E+02  0.50358429989E+02  0.00000000000E+00 0.  1.
          2   -1    0    0  501    0  0.00000000000E+00 -0.00000000000E+00 -0.41260972296E+03  0.41260972296E+03  0.00000000000E+00 0. -1.
         23    2    1    2    0    0  0.10739272756E+02 -0.93149786530E+02 -0.17304912102E+03  0.23320574190E+03  0.12508679011E+03 0.  0.
          5    1    3    3  502    0  0.44896513303E+02 -0.61581613623E+02 -0.17007102442E+03  0.18641249365E+03  0.41800000000E+01 0. -1.
         -5    1    3    3    0  502 -0.34157240547E+02 -0.31568172907E+02 -0.29780966034E+01  0.46793248251E+02  0.41800000000E+01 0. -1.
        -11    1    1    2    0    0 -0.46699710466E+02  0.25312094135E+02 -0.68004664174E+02  0.86291363511E+02  0.00000000000E+00 0. -1.
         11    1    1    2    0    0  0.35960437710E+02  0.67837692394E+02 -0.12119750777E+03  0.14347104753E+03  0.00000000000E+00 0.  1.
</event>
<event>
 7    1  0.6671761E-006  0.3973138E+03  0.7561462E-02  0.1044714E+00
          2   -1    0    0  501    0  0.00000000000E+00  0.00000000000E+00  0.49111978139E+03  0.49111978139E+03  0.00000000000E+00 0. -1.
         -2   -1    0    0    0  501 -0.00000000000E+00 -0.00000000000E+00 -0.35689055250E+03  0.35689055250E+03  0.00000000000E+00 0.  1.
         23    2    1    2    0    0 -0.10379401043E+03 -0.37422242046E+03 -0.48147842737E+02  0.41083171670E+03  0.12509543601E+03 0.  0.
          5    1    3    3  502    0  0.13557176665E+02 -0.15226029419E+03  0.94138919387E+01  0.15320929472E+03  0.41800000000E+01 0.  1.
         -5    1    3    3    0  502 -0.11735118709E+03 -0.22196212626E+03 -0.57561734676E+02  0.25762242198E+03  0.41800000000E+01 0.  1.
        -11    1    1    2    0    0  0.85738034218E+02  0.35022414906E+03  0.14354698780E+03  0.38808981281E+03  0.00000000000E+00 0.  1.
         11    1    1    2    0    0  0.18055976208E+02  0.23998271393E+02  0.38830083818E+02  0.49088804386E+02  0.00000000000E+00 0. -1.
</event>
<event>
 7    1  0.6671761E-006  0.1209297E+03  0.7561462E-02  0.1241571E+00
         -2   -1    0    0    0  501 -0.00000000000E+00  0.00000000000E+00  0.23236248150E+03  0.23236248150E+03  0.00000000000E+00 0.  1.
          2   -1    0    0  501    0  0.00000000000E+00 -0.00000000000E+00 -0.13800635787E+03  0.13800635787E+03  0.00000000000E+00 0. -1.
         23    2    1    2    0    0  0.53622153308E+02 -0.27692345602E+02  0.18323195694E+03  0.22992012496E+03  0.12508841868E+03 0.  0.
          5    1    3    3  502    0  0.70660820028E+02  0.30734708040E+02  0.11377782931E+03  0.13747887332E+03  0.41800000000E+01 0. -1.
         -5    1    3    3    0  502 -0.17038666720E+02 -0.58427053642E+02  0.69454127626E+02  0.92441251642E+02  0.41800000000E+01 0. -1.
        -11    1    1    2    0    0  0.20370548486E+02 -0.75560553093E+01 -0.33354751900E+01  0.21981324169E+02  0.00000000000E+00 0.  1.
         11    1    1    2    0    0 -0.73992701794E+02  0.35248400911E+02 -0.85540358115E+02  0.11846739025E+03  0.00000000000E+00 0. -1.
</event>
<event>
 7    1  0.6671761E-006  0.1183179E+03  0.7561462E-02  0.1245898E+00
         -1   -1    0    0    0  501 -0.00000000000E+00  0.00000000000E+00  0.43288782299E+03  0.43288782299E+03  0.00000000000E+00 0.  1.
          1   -1    0    0  501    0  0.00000000000E+00 -0.00000000000E+00 -0.39421910167E+02  0.39421910167E+02  0.00000000000E+00 0. -1.
         23    2    1    2    0    0 -0.36195962798E+02 -0.24076283336E+02  0.30902694802E+03  0.33620630475E+03  0.12508880690E+03 0.  0.
          5    1    3    3  502    0 -0.80846117793E+02 -0.31684295404E+02  0.20458245455E+03  0.22228684722E+03  0.41800000000E+01 0. -1.
         -5    1    3    3    0  502  0.44650154995E+02  0.76080120681E+01  0.10444449347E+03  0.11391945753E+03  0.41800000000E+01 0. -1.
        -11    1    1    2    0    0  0.66975192903E+01 -0.36356426567E+02  0.44643620709E+02  0.57962913896E+02  0.00000000000E+00 0.  1.
         11    1    1    2    0    0  0.29498443508E+02  0.60432709903E+02  0.39795344093E+02  0.78140514505E+02  0.00000000000E+00 0. -1.
</event>
<event>
 7    1  0.6671761E-006  0.1720708E+03  0.7561462E-02  0.1175705E+00
          1   -1    0    0  501    0  0.00000000000E+00  0.00000000000E+00  0.84988228432E+03  0.84988228432E+03  0.00000000000E+00 0. -1.
         -1   -1    0    0    0  501 -0.00000000000E+00 -0.00000000000E+00 -0.37339829056E+02  0.37339829056E+02  0.00000000000E+00 0.  1.
         23    2    1    2    0    0 -0.12601021812E+03 -0.63063447925E+02  0.41025759823E+03  0.45145872498E+03  0.12509240552E+03 0.  0.
          5    1    3    3  502    0  0.23219343474E+02 -0.46959035729E+01  0.27762229694E+02  0.36734224088E+02  0.41800000000E+01 0.  1.
         -5    1    3    3    0  502 -0.14922956160E+03 -0.58367544352E+02  0.38249536853E+03  0.41472450089E+03  0.41800000000E+01 0.  1.
        -11    1    1    2    0    0  0.56445441061E+01  0.35978118267E+02  0.15736388097E+03  0.16152299188E+03  0.00000000000E+00 0. -1.
         11    1    1    2    0    0  0.12036567402E+03  0.27085329658E+02  0.24492097607E+03  0.27424039652E+03  0.00000000000E+00 0.  1.
</event>
<event>
 7    1  0.6671761E-006  0.9353235E+02  0.7561462E-02  0.1294516E+00
          4   -1    0    0  501    0  0.00000000000E+00  0.00000000000E+00  0.16871858230E+02  0.16871858230E+02  0.00000000000E+00 0. -1.
         -4   -1    0    0    0  501 -0.00000000000E+00 -0.00000000000E+00 -0.77057785927E+03  0.77057785927E+03  0.00000000000E+00 0.  1.
         23    2    1    2    0    0 -0.11176234555E+02  0.27536758754E+00 -0.54724351217E+03  0.56146856122E+03  0.12508596879E+03 0.  0.
          5    1    3    3  502    0 -0.51161163029E+02 -0.17264271370E+02 -0.46603857712E+03  0.46917475148E+03  0.41800000000E+01 0.  1.
         -5    1    3    3    0  502  0.39984928474E+02  0.17539638957E+02 -0.81204935050E+02  0.92293809740E+02  0.41800000000E+01 0.  1.
        -11    1    1    2    0    0 -0.14853071054E+02  0.39110192865E+02 -0.12515046635E+03  0.13195779679E+03  0.00000000000E+00 0.  1.
         11    1    1    2    0    0  0.26029305609E+02 -0.39385560452E+02 -0.81312022521E+02  0.94023359486E+02  0.00000000000E+00 0. -1.
</event>
<event>
 7    1  0.6671761E-006  0.1146678E+03  0.7561462E-02  0.1252162E+00
         -4   -1    0    0    0  501 -0.00000000000E+00  0.00000000000E+00  0.14809317286E+03  0.14809317286E+03  0.00000000000E+00 0. -1.
          4   -1    0    0  501    0  0.00000000000E+00 -0.00000000000E+00 -0.10572006068E+03  0.10572006068E+03  0.00000000000E+00 0.  1.
         23    2    1    2    0    0  0.28222548402E+02  0.55518095050E+02  0.36529109236E+02  0.14442904748E+03  0.12508638142E+03 0.  0.
          5    1    3    3  502    0  0.45912457845E+02 -0.27248933258E+02  0.24312274368E+02  0.58813410324E+02  0.41800000000E+01 0. -1.
         -5    1    3    3    0  502 -0.17689909443E+02  0.82767028308E+02  0.12216834868E+02  0.85615637154E+02  0.41800000000E+01 0. -1.
        -11    1    1    2    0    0 -0.39144080421E+02 -0.51227787913E+01 -0.27379211225E+02  0.48042929780E+02  0.00000000000E+00 0.  1.
         11    1    1    2    0    0  0.10921532019E+02 -0.50395316259E+02  0.33223214167E+02  0.61341256281E+02  0.00000000000E+00 0. -1.
</event>
<event>
 7    1  0.6671761E-006  0.1035319E+03  0.7561462E-02  0.1273039E+00
          2   -1    0    0  501    0  0.00000000000E+00  0.00000000000E+00  0.34141736649E+03  0.34141736649E+03  0.00000000000E+00 0. -1.
         -2   -1    0    0    0  501 -0.00000000000E+00 -0.00000000000E+00 -0.48863544763E+02  0.48863544763E+02  0.00000000000E+00 0.  1.
         23    2    1    2    0    0 -0.64979215213E+02  0.12724826679E+02  0.12609522737E+03  0.18955973032E+03  0.12509462566E+03 0.  0.
          5    1    3    3  502    0  0.34836925580E+02 -0.75121723684E+00  0.11491594955E+02  0.36928374806E+02  0.41800000000E+01 0.  1.
         -5    1    3    3    0  502 -0.99816140793E+02  0.13476043916E+02  0.11460363241E+03  0.15263135551E+03  0.41800000000E+01 0.  1.
        -11    1    1    2    0    0  0.10168502980E+02  0.76083102174E+01 -0.91399732500E+01  0.15646851064E+02  0.00000000000E+00 0.  1.
         11    1    1    2    0    0  0.54810712233E+02 -0.20333136896E+02  0.17559856761E+03  0.18507432987E+03  0.00000000000E+00 0. -1.
</event>
<event>
 7    1  0.6671761E-006  0.1302867E+03  0.7561462E-02  0.1227031E+00
          4   -1    0    0  501    0  0.00000000000E+00  0.00000000000E+00  0.25031816773E+03  0.25031816773E+03  0.00000000000E+00 0. -1.
         -4   -1    0    0    0  501 -0.00000000000E+00 -0.00000000000E+00 -0.10824029558E+03  0.10824029558E+03  0.00000000000E+00 0.  1.
         23    2    1    2    0    0 -0.76715096608E+02 -0.10382859139E+03  0.33069269648E+02  0.18273538699E+03  0.12503224635E+03 0.  0.
          5    1    3    3  502    0 -0.46165889168E+02 -0.56842662413E+02  0.80710523429E+02  0.10905979362E+03  0.41800000000E+01 0. -1.
         -5    1    3    3    0  502 -0.30549207440E+02 -0.46985928972E+02 -0.47641253781E+02  0.73675593370E+02  0.41800000000E+01 0. -1.
        -11    1    1    2    0    0  0.21635909539E+02  0.47748164452E+02  0.71684399374E+02  0.88806829150E+02  0.00000000000E+00 0. -1.
         11    1    1    2    0    0  0.55079187069E+02  0.56080426934E+02  0.37324203125E+02  0.87016247173E+02  0.00000000000E+00 0.  1.
</event>
<event>
 7    1  0.6671761E-006  0.1150595E+03  0.7561462E-02  0.1251477E+00
         -2   -1    0    0    0  501 -0.00000000000E+00  0.00000000000E+00  0.24146165053E+02  0.24146165053E+02  0.00000000000E+00 0. -1.
          2   -1    0    0  501    0  0.00000000000E+00 -0.00000000000E+00 -0.81760154570E+03  0.81760154570E+03  0.00000000000E+00 0.  1.
         23    2    1    2    0    0  0.37838012900E+01 -0.87474052363E+02 -0.38898982003E+03  0.41788288106E+03  0.12508794990E+03 0.  0.
          5    1    3    3  502    0 -0.25287143068E+02 -0.38461369770E+02 -0.33847599154E+03  0.34161701629E+03  0.41800000000E+01 0. -1.
         -5    1    3    3    0  502  0.29070944358E+02 -0.49012682592E+02 -0.50513828484E+02  0.76265864768E+02  0.41800000000E+01 0. -1.
        -11    1    1    2    0    0  0.43097027362E+02  0.29606057295E+02 -0.16806094497E+03  0.17600668629E+03  0.00000000000E+00 0.  1.
         11    1    1    2    0    0 -0.46880828652E+02  0.57867995068E+02 -0.23640461566E+03  0.24785814341E+03  0.00000000000E+00 0. -1.
</event>
<event>
 7    1  0.6671761E-006  0.9506090E+02  0.7561462E-02  0.1291039E+00
         -2   -1    0    0    0  501 -0.00000000000E+00  0.00000000000E+00  0.14619998146E+03  0.14619998146E+03  0.00000000000E+00 0.  1.
          2   -1    0    0  501    0  0.00000000000E+00 -0.00000000000E+00 -0.16531615497E+03  0.16531615497E+03  0.00000000000E+00 0. -1.
         23    2    1    2    0    0 -0.30200169848E+01  0.50133287202E+02  0.96166070421E+02  0.15588668364E+03  0.11193872452E+03 0.  0.
          5    1    3    3  502    0  0.29345036528E+02  0.43204747531E+02 -0.17693118046E+01  0.52425034500E+02  0.41800000000E+01 0. -1.
         -5    1    3    3    0  502 -0.32365053513E+02  0.69285396710E+01  0.97935382226E+02  0.10346164914E+03  0.41800000000E+01 0.  1.
        -11    1    1    2    0    0 -0.42565300364E+02 -0.10218111051E+02 -0.52938341036E+02  0.68692667296E+02  0.00000000000E+00 0.  1.
         11    1    1    2    0    0  0.45585317349E+02 -0.39915176150E+02 -0.62343902890E+02  0.86936785497E+02  0.00000000000E+00 0. -1.
</event>
<event>
 7    1  0.6671761E-006  0.1318534E+03  0.7561462E-02  0.1224731E+00
          1   -1    0    0  501    0  0.00000000000E+00  0.00000000000E+00  0.14446331367E+02  0.14446331367E+02  0.00000000000E+00 0. -1.
         -1   -1    0    0    0  501 -0.00000000000E+00 -0.00000000000E+00 -0.12551320997E+04  0.12551320997E+04  0.00000000000E+00 0.  1.
         23    2    1    2    0    0 -0.21786688850E+02 -0.74024340094E+02 -0.78347313738E+03  0.79714054395E+03  0.12509447260E+03 0.  0.
          5    1    3    3  502    0  0.89637103957E+01 -0.10362048954E+03 -0.55208861241E+03  0.56181568357E+03  0.41800000000E+01 0.  1.
         -5    1    3    3    0  502 -0.30750399246E+02  0.29596149444E+02 -0.23138452498E+03  0.23532486038E+03  0.41800000000E+01 0.  1.
        -11    1    1    2    0    0 -0.28167699638E+02  0.57648182934E+02 -0.29585986776E+03  0.30273716925E+03  0.00000000000E+00 0.  1.
         11    1    1    2    0    0  0.49954388489E+02  0.16376157160E+02 -0.16135276323E+03  0.16970071789E+03  0.00000000000E+00 0. -1.
</event>
<event>
 7    1  0.6671761E-006  0.8653742E+02  0.7561462E-02  0.1311460E+00
          1   -1    0    0  501    0  0.00000000000E+00  0.00000000000E+00  0.46451553885E+02  0.46451553885E+02  0.00000000000E+00 0. -1.
         -1   -1    0    0    0  501 -0.00000000000E+00 -0.00000000000E+00 -0.34365243320E+03  0.34365243320E+03  0.00000000000E+00 0.  1.
         23    2    1    2    0    0  0.40310820232E+02 -0.15795706649E+02 -0.23607872257E+03  0.27065517664E+03  0.12508634944E+03 0.  0.
          5    1    3    3  502    0  0.53946688814E+02 -0.48173154776E+02 -0.69610456905E+02  0.10046883191E+03  0.41800000000E+01 0.  1.
         -5    1    3    3    0  502 -0.13635868582E+02  0.32377448127E+02 -0.16646826567E+03  0.17018634473E+03  0.41800000000E+01 0.  1.
        -11    1    1    2    0    0 -0.30575471364E+02 -0.14201243663E+02  0.15115161543E+02  0.36945945369E+02  0.00000000000E+00 0. -1.
         11    1    1    2    0    0 -0.97353488686E+01  0.29996950312E+02 -0.76237318288E+02  0.82502865074E+02  0.00000000000E+00 0.  1.
</event>
<event>
 7    1  0.6671761E-006  0.9929041E+02  0.7561462E-02  0.1281795E+00
          1   -1    0    0  501    0  0.00000000000E+00  0.00000000000E+00  0.15553843609E+02  0.15553843609E+02  0.00000000000E+00 0. -1.
         -1   -1    0    0    0  501 -0.00000000000E+00 -0.00000000000E+00 -0.97720476886E+03  0.97720476886E+03  0.00000000000E+00 0.  1.
         23    2    1    2    0    0 -0.10195969869E+02  0.31317483530E+02 -0.71628839385E+03  0.72787422649E+03  0.12508830417E+03 0.  0.
          5    1    3    3  502    0 -0.27442975953E+02 -0.32810335458E+02 -0.11248770938E+03  0.12041840476E+03  0.41800000000E+01 0. -1.
         -5    1    3    3    0  502  0.17247006084E+02  0.64127818988E+02 -0.60380068447E+03  0.60745582173E+03  0.41800000000E+01 0. -1.
        -11    1    1    2    0    0 -0.41692145495E+01  0.27859233820E+02 -0.14324476830E+03  0.14598829715E+03  0.00000000000E+00 0.  1.
         11    1    1    2    0    0  0.14365184418E+02 -0.59176717350E+02 -0.10211776310E+03  0.11889608884E+03  0.00000000000E+00 0. -1.
</event>
<event>
 6    1  0.6671761E-006  0.1162496E+03  0.7561462E-02  0.1249415E+00
          2   -1    0    0  501    0  0.00000000000E+00  0.00000000000E+00  0.81367887586E+02  0.81367887586E+02  0.00000000000E+00 0. -1.
         -2   -1    0    0    0  501 -0.00000000000E+00 -0.00000000000E+00 -0.24419517327E+03  0.24419517327E+03  0.00000000000E+00 0.  1.
          5    1    1    2  502    0  0.37886191160E+02 -0.70482611431E+02 -0.91632917357E+02  0.12172602819E+03  0.41800000000E+01 0.  1.
         -5    1    1    2    0  502 -0.83714571932E+01  0.84564983815E+02 -0.63497013279E+02  0.10616336882E+03  0.41800000000E+01 0.  1.
        -11    1    1    2    0    0 -0.23602511725E+02  0.21072595117E+02 -0.39007987151E+02  0.50227043375E+02  0.00000000000E+00 0.  1.
         11    1    1    2    0    0 -0.59122222418E+01 -0.35154967500E+02  0.31310632104E+02  0.47446620475E+02  0.00000000000E+00 0. -1.
</event>
<event>
 7    1  0.8092985E-006  0.1084772E+03  0.7561462E-02  0.1263416E+00
          1   -1    0    0  501    0  0.00000000000E+00  0.00000000000E+00  0.73577042958E+02  0.73577042958E+02  0.00000000000E+00 0. -1.
         -1   -1    0    0    0  501 -0.00000000000E+00 -0.00000000000E+00 -0.30195357404E+03  0.30195357404E+03  0.00000000000E+00 0.  1.
         23    2    1    2    0    0 -0.92655890464E+02 -0.22128901863E+02 -0.16914832985E+03  0.23094107341E+03  0.12509124494E+03 0.  0.
          5    1    3    3  502    0 -0.63106829498E+02 -0.26806146761E+02 -0.18463217656E+03  0.19699633107E+03  0.41800000000E+01 0.  1.
         -5    1    3    3    0  502 -0.29549060966E+02  0.46772448978E+01  0.15483846708E+02  0.33944742343E+02  0.41800000000E+01 0.  1.
        -11    1    1    2    0    0  0.16353403696E+00  0.25501172598E+02  0.11627475164E+02  0.28027392421E+02  0.00000000000E+00 0. -1.
         11    1    1    2    0    0  0.92492356427E+02 -0.33722707343E+01 -0.70855676397E+02  0.11656215117E+03  0.00000000000E+00 0.  1.
</event>
<event>
 7    1  0.6671761E-006  0.7908932E+02  0.7561462E-02  0.1331656E+00
          1   -1    0    0  501    0  0.00000000000E+00  0.00000000000E+00  0.30914556971E+02  0.30914556971E+02  0.00000000000E+00 0. -1.
         -1   -1    0    0    0  501 -0.00000000000E+00 -0.00000000000E+00 -0.40631317131E+03  0.40631317131E+03  0.00000000000E+00 0.  1.
         23    2    1    2    0    0 -0.16869274414E+02  0.11175782778E+02 -0.26264953285E+03  0.29161679296E+03  0.12508439667E+03 0.  0.
          5    1    3    3  502    0 -0.28371512791E+02 -0.35068488160E+02 -0.30552220998E+02  0.54641121948E+02  0.41800000000E+01 0.  1.
         -5    1    3    3    0  502  0.11502238376E+02  0.46244270939E+02 -0.23209731185E+03  0.23697567101E+03  0.41800000000E+01 0.  1.
        -11    1    1    2    0    0  0.12420372500E+02  0.25358511168E+02 -0.10402182538E+03  0.10778617674E+03  0.00000000000E+00 0.  1.
         11    1    1    2    0    0  0.44489019145E+01 -0.36534293947E+02 -0.87272561132E+01  0.37824758581E+02  0.00000000000E+00 0. -1.
</event>
<event>
 7    1  0.6671761E-006  0.2318253E+03  0.7561462E-02  0.1125362E+00
          1   -1    0    0  501    0  0.00000000000E+00  0.00000000000E+00  0.14478688028E+03  0.14478688028E+03  0.00000000000E+00 0. -1.
         -1   -1    0    0    0  501 -0.00000000000E+00 -0.00000000000E+00 -0.53277525863E+03  0.53277525863E+03  0.00000000000E+00 0.  1.
         23    2    1    2    0    0  0.18763107360E+03 -0.10435174065E+03 -0.36705740636E+03  0.44325300622E+03  0.12508949757E+03 0.  0.
          5    1    3    3  502    0  0.95208743673E+02 -0.11452455386E+03 -0.27251338945E+03  0.31058267521E+03  0.41800000000E+01 0.  1.
         -5    1    3    3    0  502  0.92422329925E+02  0.10172813208E+02 -0.94544016909E+02  0.13267033101E+03  0.41800000000E+01 0.  1.
        -11    1    1    2    0    0 -0.84906880331E+02  0.16666691162E+02 -0.44355926691E+02  0.97233765506E+02  0.00000000000E+00 0.  1.
         11    1    1    2    0    0 -0.10272419327E+03  0.87685049489E+02  0.23424954698E+02  0.13707536719E+03  0.00000000000E+00 0. -1.
</event>
<event>
 7    1  0.6671761E-006  0.8955844E+02  0.7561462E-02  0.1303925E+00
          2   -1    0    0  501    0  0.00000000000E+00  0.00000000000E+00  0.12483333595E+03  0.12483333595E+03  0.00000000000E+00 0. -1.
         -2   -1    0    0    0  501 -0.00000000000E+00 -0.00000000000E+00 -0.11468499996E+03  0.11468499996E+03  0.00000000000E+00 0.  1.
         23    2    1    2    0    0  0.17509594445E+02 -0.18039565986E+02 -0.36855687904E+02  0.13280135788E+03  0.12508336054E+03 0.  0.
          5    1    3    3  502    0 -0.34552939889E+02 -0.47309345324E+01 -0.63582685625E+02  0.72639642812E+02  0.41800000000E+01 0.  1.
         -5    1    3    3    0  502  0.52062534335E+02 -0.13308631454E+02  0.26726997721E+02  0.60161715066E+02  0.41800000000E+01 0.  1.
        -11    1    1    2    0    0  0.30685897461E+02  0.27234091799E+02  0.39737102365E+02  0.57117049674E+02  0.00000000000E+00 0. -1.
         11    1    1    2    0    0 -0.48195491906E+02 -0.91945258130E+01  0.72669215312E+01  0.49599928362E+02  0.00000000000E+00 0.  1.
</event>
<event>
 7    1  0.6671761E-006  0.9957089E+02  0.7561462E-02  0.1281201E+00
          4   -1    0    0  501    0  0.00000000000E+00  0.00000000000E+00  0.71942996301E+02  0.71942996301E+02  0.00000000000E+00 0. -1.
         -4   -1    0    0    0  501 -0.00000000000E+00 -0.00000000000E+00 -0.17819385325E+03  0.17819385325E+03  0.00000000000E+00 0.  1.
         23    2    1    2    0    0  0.41287903396E+02 -0.28132644949E+02 -0.11526447692E+03  0.17728353886E+03  0.12508963520E+03 0.  0.
          5    1    3    3  502    0 -0.10697910023E+02 -0.63628968661E+02 -0.86379931724E+02  0.10789835929E+03  0.41800000000E+01 0. -1.
         -5    1    3    3    0  502  0.51985813419E+02  0.35496323713E+02 -0.28884545191E+02  0.69385179577E+02  0.41800000000E+01 0. -1.
        -11    1    1    2    0    0 -0.52946458011E+02  0.17915467774E+02  0.11735790609E+02  0.57114097934E+02  0.00000000000E+00 0.  1.
         11    1    1    2    0    0  0.11658554615E+02  0.10217177174E+02 -0.27221706400E+01  0.15739212754E+02  0.00000000000E+00 0. -1.
</event>
<event>
 7    1  0.6671761E-006  0.1413690E+03  0.7561462E-02  0.1211499E+00
         -1   -1    0    0    0  501 -0.00000000000E+00  0.00000000000E+00  0.34810380909E+02  0.34810380909E+02  0.00000000000E+00 0.  1.
          1   -1    0    0  501    0  0.00000000000E+00 -0.00000000000E+00 -0.74959160577E+03  0.74959160577E+03  0.00000000000E+00 0. -1.
         23    2    1    2    0    0  0.87965519148E+02  0.42701374309E+02 -0.21441974154E+03  0.26679408309E+03  0.12506765083E+03 0.  0.
          5    1    3    3  502    0 -0.30727089602E+02  0.17851355741E+02 -0.33937188857E+02  0.49315617452E+02  0.41800000000E+01 0.  1.
         -5    1    3    3    0  502  0.11869260875E+03  0.24850018568E+02 -0.18048255268E+03  0.21747846564E+03  0.41800000000E+01 0.  1.
        -11    1    1    2    0    0 -0.80552669812E+01 -0.44960626737E+02 -0.10932200081E+03  0.11848056863E+03  0.00000000000E+00 0.  1.
         11    1    1    2    0    0 -0.79910252167E+02  0.22592524284E+01 -0.39103948251E+03  0.39912733495E+03  0.00000000000E+00 0. -1.
</event>
<event>
 7    1  0.6671761E-006  0.1081634E+03  0.7561462E-02  0.1264009E+00
         -4   -1    0    0    0  501 -0.00000000000E+00  0.00000000000E+00  0.14567054932E+03  0.14567054932E+03  0.00000000000E+00 0. -1.
          4   -1    0    0  501    0  0.00000000000E+00 -0.00000000000E+00 -0.13868741493E+03  0.13868741493E+03  0.00000000000E+00 0.  1.
         23    2    1    2    0    0  0.62727275891E+02 -0.58959735046E+02 -0.23231354570E+02  0.15357235395E+03  0.12503523730E+03 0.  0.
          5    1    3    3  502    0  0.47557627502E+02 -0.67168499776E+02 -0.67087268293E+02  0.10626151355E+03  0.41800000000E+01 0. -1.
         -5    1    3    3    0  502  0.15169648389E+02  0.82087647297E+01  0.43855913723E+02  0.47310840397E+02  0.41800000000E+01 0. -1.
        -11    1    1    2    0    0 -0.16428363131E+02  0.67171592221E+02 -0.87699120005E+01  0.69705274357E+02  0.00000000000E+00 0.  1.
         11    1    1    2    0    0 -0.46298912760E+02 -0.82118571748E+01  0.38984400957E+02  0.61080335944E+02  0.00000000000E+00 0. -1.
</event>
<event>
 7    1  0.6671761E-006  0.1489781E+03  0.7561462E-02  0.1201734E+00
         -2   -1    0    0    0  501 -0.00000000000E+00  0.00000000000E+00  0.11630970790E+03  0.11630970790E+03  0.00000000000E+00 0.  1.
          2   -1    0    0  501    0  0.00000000000E+00 -0.00000000000E+00 -0.24974131730E+03  0.24974131730E+03  0.00000000000E+00 0. -1.
         23    2    1    2    0    0 -0.11294860773E+03 -0.53353958410E+01 -0.37526044586E+01  0.16866524715E+03  0.12509208257E+03 0.  0.
          5    1    3    3  502    0 -0.20025014499E+02  0.43807200592E+02 -0.34112531168E+02  0.59171016656E+02  0.41800000000E+01 0.  1.
         -5    1    3    3    0  502 -0.92923593227E+02 -0.49142596433E+02  0.30359926710E+02  0.10949423050E+03  0.41800000000E+01 0.  1.
        -11    1    1    2    0    0  0.52909051142E+02  0.47449937618E+02 -0.87708703051E+02  0.11288791283E+03  0.00000000000E+00 0. -1.
         11    1    1    2    0    0  0.60039556584E+02 -0.42114541777E+02 -0.41970301891E+02  0.84497865209E+02  0.00000000000E+00 0.  1.
</event>
<event>
 7    1  0.6671761E-006  0.2080749E+03  0.7561462E-02  0.1143100E+00
          2   -1    0    0  501    0  0.00000000000E+00  0.00000000000E+00  0.78731528072E+03  0.78731528072E+03  0.00000000000E+00 0. -1.
         -2   -1    0    0    0  501 -0.00000000000E+00 -0.00000000000E+00 -0.63754508159E+02  0.63754508159E+02  0.00000000000E+00 0.  1.
         23    2    1    2    0    0 -0.15874132100E+03 -0.10409491046E+03  0.28419975379E+03  0.36393831307E+03  0.12508812208E+03 0.  0.
          5    1    3    3  502    0 -0.79333411438E+02  0.17176730570E+02  0.11912891606E+03  0.14421512155E+03  0.41800000000E+01 0.  1.
         -5    1    3    3    0  502 -0.79407909558E+02 -0.12127164103E+03  0.16507083773E+03  0.21972319151E+03  0.41800000000E+01 0.  1.
        -11    1    1    2    0    0  0.73070677038E+02  0.46044268368E+02  0.30813316720E+03  0.32000851117E+03  0.00000000000E+00 0. -1.
         11    1    1    2    0    0  0.85670643958E+02  0.58050642092E+02  0.13122785157E+03  0.16712296464E+03  0.00000000000E+00 0.  1.
</event>
<event>
 7    1  0.6671761E-006  0.9504032E+02  0.7561462E-02  0.1291085E+00
          1   -1    0    0  501    0  0.00000000000E+00  0.00000000000E+00  0.33095077228E+03  0.33095077228E+03  0.00000000000E+00 0. -1.
         -1   -1    0    0    0  501 -0.00000000000E+00 -0.00000000000E+00 -0.54877340630E+02  0.54877340630E+02  0.00000000000E+00 0.  1.
         23    2    1    2    0    0  0.59306779408E+01  0.55358701665E+02  0.67093563002E+02  0.15247869185E+03  0.12509375076E+03 0.  0.
          5    1    3    3  502    0 -0.30541499360E+02  0.14834528921E+02 -0.27046933546E+02  0.43610267664E+02  0.41800000000E+01 0.  1.
         -5    1    3    3    0  502  0.36472177301E+02  0.40524172744E+02  0.94140496547E+02  0.10886842418E+03  0.41800000000E+01 0.  1.
        -11    1    1    2    0    0 -0.45003337771E+02 -0.23462413464E+02  0.13090692723E+03  0.14040088623E+03  0.00000000000E+00 0. -1.
         11    1    1    2    0    0  0.39072659830E+02 -0.31896288201E+02  0.78072941417E+02  0.92948534839E+02  0.00000000000E+00 0.  1.
</event>
<event>
 7    1  0.6671761E-006  0.1462784E+03  0.7561462E-02  0.1205122E+00
         -1   -1    0    0    0  501 -0.00000000000E+00  0.00000000000E+00  0.64004874464E+02  0.64004874464E+02  0.00000000000E+00 0.  1.
          1   -1    0    0  501    0  0.00000000000E+00 -0.00000000000E+00 -0.41248029912E+03  0.41248029912E+03  0.00000000000E+00 0. -1.
         23    2    1    2    0    0  0.55080523969E+02 -0.10614150258E+03 -0.16329081737E+03  0.23792735297E+03  0.12508257899E+03 0.  0.
          5    1    3    3  502    0 -0.17758038571E+02  0.77098433953E+00  0.10630181252E+02  0.21128547139E+02  0.41800000000E+01 0. -1.
         -5    1    3    3    0  502  0.72838562540E+02 -0.10691248691E+03 -0.17392099862E+03  0.21679880583E+03  0.41800000000E+01 0. -1.
        -11    1    1    2    0    0  0.20178047818E+02  0.93040638495E+01 -0.91890019663E+01  0.24044894988E+02  0.00000000000E+00 0.  1.
         11    1    1    2    0    0 -0.75258571787E+02  0.96837438726E+02 -0.17599560533E+03  0.21451292563E+03  0.00000000000E+00 0. -1.
</event>
<event>
 7    1  0.6671761E-006  0.1048880E+03  0.7561462E-02  0.1270341E+00
          1   -1    0    0  501    0  0.00000000000E+00  0.00000000000E+00  0.20654487028E+03  0.20654487028E+03  0.00000000000E+00 0. -1.
         -1   -1    0    0    0  501 -0.00000000000E+00 -0.00000000000E+00 -0.10101039952E+03  0.10101039952E+03  0.00000000000E+00 0.  1.
         23    2    1    2    0    0 -0.60160059084E+02 -0.67153174355E+02  0.16357674413E+02  0.15505907723E+03  0.12508781868E+03 0.  0.
          5    1    3    3  502    0 -0.67841288946E+02 -0.29166033078E+02  0.60942848863E+02  0.95836325049E+02  0.41800000000E+01 0. -1.
         -5    1    3    3    0  502  0.76812298625E+01 -0.37987141278E+02 -0.44585174450E+02  0.59222752177E+02  0.41800000000E+01 0. -1.
        -11    1    1    2    0    0  0.10199085304E+02  0.37215840759E+02 -0.78043093803E+01  0.39369371208E+02  0.00000000000E+00 0.  1.
         11    1    1    2    0    0  0.49960973780E+02  0.29937333597E+02  0.96981105728E+02  0.11312682136E+03  0.00000000000E+00 0. -1.
</event>
<event>
 7    1  0.6671761E-006  0.8759313E+02  0.7561462E-02  0.1308787E+00
          2   -1    0    0  501    0  0.00000000000E+00  0.00000000000E+00  0.76116232219E+02  0.76116232219E+02  0.00000000000E+00 0. -1.
         -2   -1    0    0    0  501 -0.00000000000E+00 -0.00000000000E+00 -0.18105978768E+03  0.18105978768E+03  0.00000000000E+00 0.  1.
         23    2    1    2    0    0  0.23414110923E+02  0.39594441747E+02 -0.67944738888E+02  0.14959970920E+03  0.12509054738E+03 0.  0.
          5    1    3    3  502    0 -0.22506949197E+02 -0.33287519684E+02 -0.44756597708E+02  0.60293010932E+02  0.41800000000E+01 0.  1.
         -5    1    3    3    0  502  0.45921060120E+02  0.72881961430E+02 -0.23188141180E+02  0.89306698270E+02  0.41800000000E+01 0.  1.
        -11    1    1    2    0    0 -0.19117536973E+02 -0.17122916860E+02  0.28407566395E+02  0.38283995745E+02  0.00000000000E+00 0. -1.
         11    1    1    2    0    0 -0.42965739500E+01 -0.22471524886E+02 -0.65406382966E+02  0.69292314949E+02  0.00000000000E+00 0.  1.
</event>
<event>
 6    1  0.6671761E-006  0.1530735E+03  0.7561462E-02  0.1196746E+00
         -2   -1    0    0    0  501 -0.00000000000E+00  0.00000000000E+00  0.76438912849E+02  0.76438912849E+02  0.00000000000E+00 0.  1.
          2   -1    0    0  501    0  0.00000000000E+00 -0.00000000000E+00 -0.81903458327E+03  0.81903458327E+03  0.00000000000E+00 0. -1.
          5    1    1    2  502    0  0.48990133113E+02  0.45705891119E+02  0.38151421407E+02  0.77214409153E+02  0.41800000000E+01 0. -1.
         -5    1    1    2    0  502 -0.10502422739E+03 -0.77107392555E+02 -0.34915355258E+03  0.37269466592E+03  0.41800000000E+01 0.  1.
        -11    1    1    2    0    0 -0.99301420335E+01 -0.21773193560E+02 -0.13506211253E+03  0.13716578990E+03  0.00000000000E+00 0.  1.
         11    1    1    2    0    0  0.65964236312E+02  0.53174694996E+02 -0.29653142672E+03  0.30839863114E+03  0.00000000000E+00 0. -1.
</event>
<event>
 7    1  0.6671761E-006  0.1102744E+03  0.7561462E-02  0.1260063E+00
          1   -1    0    0  501    0  0.00000000000E+00  0.00000000000E+00  0.25700067642E+03  0.25700067642E+03  0.00000000000E+00 0. -1.
         -1   -1    0    0    0  501 -0.00000000000E+00 -0.00000000000E+00 -0.93555994567E+02  0.93555994567E+02  0.00000000000E+00 0.  1.
         23    2    1    2    0    0 -0.10167541033E+03  0.21964676250E+02  0.46516224675E+02  0.16920184091E+03  0.12508064494E+03 0.  0.
          5    1    3    3  502    0 -0.10078997722E+03  0.31813701455E+02  0.80909987046E+02  0.13317142904E+03  0.41800000000E+01 0.  1.
         -5    1    3    3    0  502 -0.88543310921E+00 -0.98490252055E+01 -0.34393762371E+02  0.36030411867E+02  0.41800000000E+01 0.  1.
        -11    1    1    2    0    0  0.49707715240E+02 -0.97581797316E+01 -0.23133998467E+01  0.50709277700E+02  0.00000000000E+00 0.  1.
         11    1    1    2    0    0  0.51967695090E+02 -0.12206496518E+02  0.11924185702E+03  0.13064555238E+03  0.00000000000E+00 0. -1.
</event>
<event>
 6    1  0.6671761E-006  0.1207153E+03  0.7561462E-02  0.1241922E+00
         -1   -1    0    0    0  501 -0.00000000000E+00  0.00000000000E+00  0.11145229678E+03  0.11145229678E+03  0.00000000000E+00 0.  1.
          1   -1    0    0  501    0  0.00000000000E+00 -0.00000000000E+00 -0.17017821684E+03  0.17017821684E+03  0.00000000000E+00 0. -1.
          5    1    1    2  502    0  0.71150704917E+02  0.56749233177E+02 -0.37199111495E+02  0.98408051360E+02  0.41800000000E+01 0. -1.
         -5    1    1    2    0  502 -0.44483116791E+02 -0.26244837960E+02  0.40892853249E+02  0.66009370894E+02  0.41800000000E+01 0.  1.
        -11    1    1    2    0    0 -0.25762729374E+02 -0.61926633164E+02 -0.35839951753E+02  0.76046881997E+02  0.00000000000E+00 0.  1.
         11    1    1    2    0    0 -0.90485875261E+00  0.31422237947E+02 -0.26579710065E+02  0.41166209373E+02  0.00000000000E+00 0. -1.
</event>
<event>
 7    1  0.6671761E-006  0.8206102E+02  0.7561462E-02  0.1323302E+00
          1   -1    0    0  501    0  0.00000000000E+00  0.00000000000E+00  0.33539546867E+03  0.33539546867E+03  0.00000000000E+00 0. -1.
         -1   -1    0    0    0  501 -0.00000000000E+00 -0.00000000000E+00 -0.43189343408E+02  0.43189343408E+02  0.00000000000E+00 0.  1.
         23    2    1    2    0    0 -0.14762196314E+02 -0.39697450448E+02  0.10479002903E+03  0.16858002051E+03  0.12507782825E+03 0.  0.
          5    1    3    3  502    0 -0.49879846710E+01 -0.58078699092E+02  0.12579769675E+03  0.13871030310E+03  0.41800000000E+01 0.  1.
         -5    1    3    3    0  502 -0.97742116428E+01  0.18381248643E+02 -0.21007667725E+02  0.29869717410E+02  0.41800000000E+01 0.  1.
        -11    1    1    2    0    0  0.44513054495E+02  0.27282341655E+02  0.64765864947E+02  0.83188673802E+02  0.00000000000E+00 0.  1.
         11    1    1    2    0    0 -0.29750858181E+02  0.12415108793E+02  0.12265023129E+03  0.12681611776E+03  0.00000000000E+00 0. -1.
</event>
<event>
 7    1  0.6671761E-006  0.1776271E+03  0.7561462E-02  0.1170119E+00
         -3   -1    0    0    0  501 -0.00000000000E+00  0.00000000000E+00  0.82093424778E+02  0.82093424778E+02  0.00000000000E+00 0.  1.
          3   -1    0    0  501    0  0.00000000000E+00 -0.00000000000E+00 -0.41916318980E+03  0.41916318980E+03  0.00000000000E+00 0. -1.
         23    2    1    2    0    0  0.27900255053E+02  0.14247947983E+03 -0.22967438179E+03  0.29912667477E+03  0.12509044529E+03 0.  0.
          5    1    3    3  502    0  0.59576982028E+02  0.17386976962E+02 -0.83035968538E+02  0.10375050952E+03  0.41800000000E+01 0. -1.
         -5    1    3    3    0  502 -0.31676726974E+02  0.12509250287E+03 -0.14663841325E+03  0.19537616525E+03  0.41800000000E+01 0. -1.
        -11    1    1    2    0    0  0.18041647527E+00 -0.13484183662E+03 -0.62486410910E+02  0.14861663770E+03  0.00000000000E+00 0.  1.
         11    1    1    2    0    0 -0.28080671529E+02 -0.76376432049E+01 -0.44908972322E+02  0.53513302106E+02  0.00000000000E+00 0. -1.
</event>
<event>
 7    1  0.6671761E-006  0.1000483E+03  0.7561462E-02  0.1280195E+00
          1   -1    0    0  501    0  0.00000000000E+00  0.00000000000E+00  0.13951189298E+03  0.13951189298E+03  0.00000000000E+00 0. -1.
         -1   -1    0    0    0  501 -0.00000000000E+00 -0.00000000000E+00 -0.10716613736E+03  0.10716613736E+03  0.00000000000E+00 0.  1.
         23    2    1    2    0    0  0.98818587427E+01  0.19887847690E+02 -0.33233911687E+02  0.13131991680E+03  0.12508896852E+03 0.  0.
          5    1    3    3  502    0  0.40493501019E+02  0.61683278376E+02 -0.28195486254E+02  0.79101253473E+02  0.41800000000E+01 0. -1.
         -5    1    3    3    0  502 -0.30611642276E+02 -0.41795430685E+02 -0.50384254337E+01  0.52218663329E+02  0.41800000000E+01 0. -1.
        -11    1    1    2    0    0 -0.29754205001E+02 -0.37356030882E+02  0.35122496169E+01  0.47886549843E+02  0.00000000000E+00 0. -1.
         11    1    1    2    0    0  0.19872346258E+02  0.17468183192E+02  0.62067417686E+02  0.67471563699E+02  0.00000000000E+00 0.  1.
</event>
<event>
 7    1  0.6671761E-006  0.1454993E+03  0.7561462E-02  0.1206115E+00
         -1   -1    0    0    0  501 -0.00000000000E+00  0.00000000000E+00  0.29829965032E+02  0.29829965032E+02  0.00000000000E+00 0.  1.
          1   -1    0    0  501    0  0.00000000000E+00 -0.00000000000E+00 -0.73915267700E+03  0.73915267700E+03  0.00000000000E+00 0. -1.
         23    2    1    2    0    0 -0.85962413465E+02 -0.25334765357E+02 -0.32438049666E+03  0.35908926103E+03  0.12526373742E+03 0.  0.
          5    1    3    3  502    0 -0.41747962064E+02 -0.73947725746E+02 -0.14610208899E+03  0.16903979202E+03  0.41800000000E+01 0.  1.
         -5    1    3    3    0  502 -0.44214451401E+02  0.48612960389E+02 -0.17827840767E+03  0.19004946901E+03  0.41800000000E+01 0.  1.
        -11    1    1    2    0    0  0.10882848226E+03  0.36366284964E+02 -0.29828057080E+03  0.31958949317E+03  0.00000000000E+00 0.  1.
         11    1    1    2    0    0 -0.22866068791E+02 -0.11031519607E+02 -0.86661644514E+02  0.90303887827E+02  0.00000000000E+00 0. -1.
</event>
<event>
 7    1  0.6671761E-006  0.7422585E+02  0.7561462E-02  0.1346285E+00
         -1   -1    0    0    0  501 -0.00000000000E+00  0.00000000000E+00  0.53758265781E+02  0.53758265781E+02  0.00000000000E+00 0.  1.
          1   -1    0    0  501    0  0.00000000000E+00 -0.00000000000E+00 -0.30182325242E+03  0.30182325242E+03  0.00000000000E+00 0. -1.
         23    2    1    2    0    0 -0.42023605572E+02 -0.16665940349E+02 -0.72331189334E+02  0.15140366441E+03  0.12509009414E+03 0.  0.
          5    1    3    3  502    0  0.31666525222E+00  0.47335241694E+01 -0.97385660542E+02  0.97590705536E+02  0.41800000000E+01 0.  1.
         -5    1    3    3    0  502 -0.42340270824E+02 -0.21399464518E+02  0.25054471208E+02  0.53812958873E+02  0.41800000000E+01 0.  1.
        -11    1    1    2    0    0  0.12956784636E+02 -0.33837552267E+02 -0.11249318091E+03  0.11818449121E+03  0.00000000000E+00 0. -1.
         11    1    1    2    0    0  0.29066820936E+02  0.50503492616E+02 -0.63240616391E+02  0.85993362577E+02  0.00000000000E+00 0.  1.
</event>
<event>
 7    1  0.6671761E-006  0.1631917E+03  0.7561462E-02  0.1185140E+00
         -1   -1    0    0    0  501 -0.00000000000E+00  0.00000000000E+00  0.15941711899E+03  0.15941711899E+03  0.00000000000E+00 0.  1.
          1   -1    0    0  501    0  0.00000000000E+00 -0.00000000000E+00 -0.17022082140E+03  0.17022082140E+03  0.00000000000E+00 0. -1.
         23    2    1    2    0    0  0.89559175264E+02  0.87461270414E+02 -0.32554157093E+01  0.17699932633E+03  0.12509134300E+03 0.  0.
          5    1    3    3  502    0  0.66876797449E+01  0.91045920859E+02 -0.16592833714E+02  0.92880995344E+02  0.41800000000E+01 0.  1.
         -5    1    3    3    0  502  0.82871495519E+02 -0.35846504452E+01  0.13337418005E+02  0.84118330983E+02  0.41800000000E+01 0.  1.
        -11    1    1    2    0    0 -0.10608824423E+03 -0.83336745196E+02 -0.10636645633E+02  0.13532504164E+03  0.00000000000E+00 0. -1.
         11    1    1    2    0    0  0.16529068970E+02 -0.41245252176E+01  0.30883589259E+01  0.17313572425E+02  0.00000000000E+00 0.  1.
</event>
<event>
 7    1  0.6671761E-006  0.1121414E+03  0.7561462E-02  0.1256655E+00
          1   -1    0    0  501    0  0.00000000000E+00  0.00000000000E+00  0.10463469177E+03  0.10463469177E+03  0.00000000000E+00 0. -1.
         -1   -1    0    0    0  501 -0.00000000000E+00 -0.00000000000E+00 -0.18907010963E+03  0.18907010963E+03  0.00000000000E+00 0.  1.
         23    2    1    2    0    0 -0.65385154035E+02  0.24236583877E+02 -0.10402913182E+03  0.17700618586E+03  0.12508596724E+03 0.  0.
          5    1    3    3  502    0  0.26889691961E+02 -0.25406814374E+02 -0.17920568012E+02  0.41318045795E+02  0.41800000000E+01 0. -1.
         -5    1    3    3    0  502 -0.92274845997E+02  0.49643398251E+02 -0.86108563811E+02  0.13568814007E+03  0.41800000000E+01 0. -1.
        -11    1    1    2    0    0  0.37615841387E+02 -0.35966440725E+02 -0.28952155714E+02  0.59554711839E+02  0.00000000000E+00 0.  1.
         11    1    1    2    0    0  0.27769312648E+02  0.11729856848E+02  0.48545869683E+02  0.57143903698E+02  0.00000000000E+00 0. -1.
</event>
<event>
 7    1  0.6671761E-006  0.9647414E+02  0.7561462E-02  0.1287890E+00
         -1   -1    0    0    0  501 -0.00000000000E+00  0.00000000000E+00  0.26172487596E+02  0.26172487596E+02  0.00000000000E+00 0.  1.
          1   -1    0    0  501    0  0.00000000000E+00 -0.00000000000E+00 -0.50174082129E+03  0.50174082129E+03  0.00000000000E+00 0. -1.
         23    2    1    2    0    0 -0.35647371520E+02 -0.11848878360E+02 -0.25948903380E+03  0.29050435150E+03  0.12508832306E+03 0.  0.
          5    1    3    3  502    0 -0.34681580995E+02 -0.51850250902E+02 -0.23551497666E+03  0.24367198692E+03  0.41800000000E+01 0. -1.
         -5    1    3    3    0  502 -0.96579052500E+00  0.40001372542E+02 -0.23974057140E+02  0.46832364581E+02  0.41800000000E+01 0. -1.
        -11    1    1    2    0    0  0.47979577775E+02 -0.23017133709E+02 -0.17106435129E+03  0.17915032964E+03  0.00000000000E+00 0. -1.
         11    1    1    2    0    0 -0.12332206255E+02  0.34866012069E+02 -0.45014948603E+02  0.58258627743E+02  0.00000000000E+00 0.  1.
</event>
<event>
 7    1  0.6671761E-006  0.1037521E+03  0.7561462E-02  0.1272598E+00
         -3   -1    0    0    0  501 -0.00000000000E+00  0.00000000000E+00  0.17390613406E+03  0.17390613406E+03  0.00000000000E+00 0.  1.
          3   -1    0    0  501    0  0.00000000000E+00 -0.00000000000E+00 -0.79596985683E+02  0.79596985683E+02  0.00000000000E+00 0. -1.
         23    2    1    2    0    0  0.56252172322E+01 -0.23442657446E+02  0.97323445229E+02  0.16031433657E+03  0.12509049629E+03 0.  0.
          5    1    3    3  502    0 -0.47504652029E+02  0.13453776274E+02  0.83736548065E+01  0.50252229356E+02  0.41800000000E+01 0.  1.
         -5    1    3    3    0  502  0.53129869262E+02 -0.36896433720E+02  0.88949790423E+02  0.11006210722E+03  0.41800000000E+01 0.  1.
        -11    1    1    2    0    0 -0.34640448734E+02 -0.20667248248E+02 -0.17992956112E+01  0.40377386038E+02  0.00000000000E+00 0. -1.
         11    1    1    2    0    0  0.29015231501E+02  0.44109905693E+02 -0.12150012364E+01  0.52811397135E+02  0.00000000000E+00 0.  1.
</event>
<event>
 7    1  0.6671761E-006  0.8170512E+02  0.7561462E-02  0.1324281E+00
          4   -1    0    0  501    0  0.00000000000E+00  0.00000000000E+00  0.26236915367E+02  0.26236915367E+02  0.00000000000E+00 0.  1.
         -4   -1    0    0    0  501 -0.00000000000E+00 -0.00000000000E+00 -0.72743277144E+03  0.72743277144E+03  0.00000000000E+00 0. -1.
         23    2    1    2    0    0  0.34549986292E+02 -0.39746617043E+01 -0.60957587336E+03  0.62324944891E+03  0.12509049004E+03 0.  0.
          5    1    3    3  502    0  0.22587154691E+02 -0.40333786121E+02 -0.55222346742E+03  0.55417075368E+03  0.41800000000E+01 0.  1.
         -5    1    3    3    0  502  0.11962831601E+02  0.36359124417E+02 -0.57352405935E+02  0.69078695231E+02  0.41800000000E+01 0.  1.
        -11    1    1    2    0    0 -0.51696820544E+02  0.19603763933E+02 -0.91863157530E+02  0.10721804198E+03  0.00000000000E+00 0. -1.
         11    1    1    2    0    0  0.17146834252E+02 -0.15629102228E+02  0.24317481704E+00  0.23202195916E+02  0.00000000000E+00 0.  1.
</event>
<event>
 7    1  0.6671761E-006  0.9776351E+02  0.7561462E-02  0.1285071E+00
         -2   -1    0    0    0  501 -0.00000000000E+00  0.00000000000E+00  0.13401488537E+03  0.13401488537E+03  0.00000000000E+00 0. -1.
          2   -1    0    0  501    0  0.00000000000E+00 -0.00000000000E+00 -0.90086114114E+02  0.90086114114E+02  0.00000000000E+00 0.  1.
         23    2    1    2    0    0  0.70818005200E+01 -0.57734840519E+01  0.37143889142E+02  0.13080993980E+03  0.12509231325E+03 0.  0.
          5    1    3    3  502    0  0.51536408733E+02 -0.24246982676E+02 -0.15676562309E+02  0.59221149936E+02  0.41800000000E+01 0.  1.
         -5    1    3    3    0  502 -0.44454608213E+02  0.18473498624E+02  0.52820451450E+02  0.71588789864E+02  0.41800000000E+01 0.  1.
        -11    1    1    2    0    0 -0.15255733465E+01 -0.41986887798E+02  0.14800030695E+02  0.44545112297E+02  0.00000000000E+00 0.  1.
         11    1    1    2    0    0 -0.55562271736E+01  0.47760371850E+02 -0.80151485832E+01  0.48745947385E+02  0.00000000000E+00 0. -1.
</event>
<event>
 7    1  0.6671761E-006  0.1160425E+03  0.7561462E-02  0.1249772E+00
         -1   -1    0    0    0  501 -0.00000000000E+00  0.00000000000E+00  0.32963031225E+02  0.32963031225E+02  0.00000000000E+00 0.  1.
          1   -1    0    0  501    0  0.00000000000E+00 -0.00000000000E+00 -0.54192555811E+03  0.54192555811E+03  0.00000000000E+00 0. -1.
         23    2    1    2    0    0 -0.43701975611E+02 -0.62521763868E+02 -0.24538174841E+03  0.28579569935E+03  0.12509254847E+03 0.  0.
          5    1    3    3  502    0  0.36510218009E+02  0.70008773489E+01 -0.41318874739E+02  0.55738049054E+02  0.41800000000E+01 0.  1.
         -5    1    3    3    0  502 -0.80212193620E+02 -0.69522641217E+02 -0.20406287367E+03  0.23005765029E+03  0.41800000000E+01 0.  1.
        -11    1    1    2    0    0  0.24676953159E+02  0.17205050082E+01 -0.84687834913E+01  0.26146365876E+02  0.00000000000E+00 0.  1.
         11    1    1    2    0    0  0.19025022452E+02  0.60801258859E+02 -0.25511199498E+03  0.26294652411E+03  0.00000000000E+00 0. -1.
</event>
<event>
 7    1  0.6671761E-006  0.1269195E+03  0.7561462E-02  0.1232100E+00
         -1   -1    0    0    0  501 -0.00000000000E+00  0.00000000000E+00  0.72913301276E+02  0.72913301276E+02  0.00000000000E+00 0.  1.
          1   -1    0    0  501    0  0.00000000000E+00 -0.00000000000E+00 -0.46093656170E+03  0.46093656170E+03  0.00000000000E+00 0. -1.
         23    2    1    2    0    0  0.28707051596E+02 -0.27362818049E+02 -0.17156981314E+02  0.13234448814E+03  0.12509149816E+03 0.  0.
          5    1    3    3  502    0 -0.45750259804E+02 -0.68315152301E+01 -0.28008999071E+02  0.54237738719E+02  0.41800000000E+01 0. -1.
         -5    1    3    3    0  502  0.74457311400E+02 -0.20531302819E+02  0.10852017756E+02  0.78106749425E+02  0.41800000000E+01 0. -1.
        -11    1    1    2    0    0  0.45596330384E+02 -0.10292705676E+02 -0.44010630665E+02  0.64202030701E+02  0.00000000000E+00 0.  1.
         11    1    1    2    0    0 -0.74303381981E+02  0.37655523725E+02 -0.32685564844E+03  0.33730334413E+03  0.00000000000E+00 0. -1.
</event>
<event>
 7    1  0.6671761E-006  0.1028873E+03  0.7561462E-02  0.1274339E+00
          1   -1    0    0  501    0  0.00000000000E+00  0.00000000000E+00  0.67319453299E+03  0.67319453299E+03  0.00000000000E+00 0.  1.
         -1   -1    0    0    0  501 -0.00000000000E+00 -0.00000000000E+00 -0.20652406561E+02  0.20652406561E+02  0.00000000000E+00 0. -1.
         23    2    1    2    0    0 -0.39927586722E+01  0.41200647187E+02  0.29797137090E+03  0.32580128604E+03  0.12508439016E+03 0.  0.
          5    1    3    3  502    0 -0.43790910223E+02  0.49611783909E+02  0.26530132329E+03  0.27346158315E+03  0.41800000000E+01 0. -1.
         -5    1    3    3    0  502  0.39798151551E+02 -0.84111367224E+01  0.32670047607E+02  0.52339702889E+02  0.41800000000E+01 0. -1.
        -11    1    1    2    0    0 -0.39396428404E+02 -0.38530690481E+02  0.20638076131E+03  0.21361112171E+03  0.00000000000E+00 0.  1.
         11    1    1    2    0    0  0.43389187076E+02 -0.26699567061E+01  0.14818999422E+03  0.15443453180E+03  0.00000000000E+00 0. -1.
</event>
<event>
 7    1  0.6671761E-006  0.1144578E+03  0.7561462E-02  0.1252531E+00
         -1   -1    0    0    0  501 -0.00000000000E+00  0.00000000000E+00  0.31517457657E+02  0.31517457657E+02  0.00000000000E+00 0.  1.
          1   -1    0    0  501    0  0.00000000000E+00 -0.00000000000E+00 -0.53465638932E+03  0.53465638932E+03  0.00000000000E+00 0. -1.
         23    2    1    2    0    0 -0.61534787389E+02 -0.22724882738E+02 -0.22350037816E+03  0.26439178897E+03  0.12509056194E+03 0.  0.
          5    1    3    3  502    0  0.11983776896E+02  0.31399896679E+02 -0.12719316675E+03  0.13162499188E+03  0.41800000000E+01 0. -1.
         -5    1    3    3    0  502 -0.73518564284E+02 -0.54124779416E+02 -0.96307211407E+02  0.13276679709E+03  0.41800000000E+01 0. -1.
        -11    1    1    2    0    0  0.80849361315E+02  0.12517052906E+02 -0.25942301606E+03  0.27201764116E+03  0.00000000000E+00 0. -1.
         11    1    1    2    0    0 -0.19314573927E+02  0.10207829831E+02 -0.20215537443E+02  0.29764416842E+02  0.00000000000E+00 0.  1.
</event>
<event>
 7    1  0.6671761E-006  0.9360152E+02  0.7561462E-02  0.1294357E+00
          4   -1    0    0  501    0  0.00000000000E+00  0.00000000000E+00  0.39857630123E+02  0.39857630123E+02  0.00000000000E+00 0. -1.
         -4   -1    0    0    0  501 -0.00000000000E+00 -0.00000000000E+00 -0.29154042007E+03  0.29154042007E+03  0.00000000000E+00 0.  1.
         23    2    1    2    0    0  0.34828987843E+01 -0.90408271657E+01 -0.15077975314E+03  0.19615049290E+03  0.12508642919E+03 0.  0.
          5    1    3    3  502    0 -0.37455170712E+02  0.43905080137E+02 -0.60807868267E+02  0.83938162465E+02  0.41800000000E+01 0.  1.
         -5    1    3    3    0  502  0.40938069497E+02 -0.52945907303E+02 -0.89971884877E+02  0.11221233044E+03  0.41800000000E+01 0.  1.
        -11    1    1    2    0    0 -0.12633338320E+02 -0.24473976756E+02 -0.96349627408E+02  0.10020891915E+03  0.00000000000E+00 0.  1.
         11    1    1    2    0    0  0.91504395361E+01  0.33514803921E+02 -0.45534093955E+01  0.35038638140E+02  0.00000000000E+00 0. -1.
</event>
<event>
 7    1  0.7056265E-006  0.1617852E+03  0.7561462E-02  0.1186696E+00
          3   -1    0    0  501    0  0.00000000000E+00  0.00000000000E+00  0.89377345904E+02  0.89377345904E+02  0.00000000000E+00 0. -1.
         -3   -1    0    0    0  501 -0.00000000000E+00 -0.00000000000E+00 -0.36755709665E+03  0.36755709665E+03  0.00000000000E+00 0.  1.
         23    2    1    2    0    0 -0.14059576145E+03  0.90573902737E+01 -0.19527637597E+03  0.27134721441E+03  0.12508894156E+03 0.  0.
          5    1    3    3  502    0 -0.14302038764E+03  0.39269410197E+02 -0.12252304425E+03  0.19242215733E+03  0.41800000000E+01 0. -1.
         -5    1    3    3    0  502  0.24246261865E+01 -0.30212019923E+02 -0.72753331715E+02  0.78925057084E+02  0.41800000000E+01 0. -1.
        -11    1    1    2    0    0  0.50461553471E+02 -0.19002079391E+02 -0.77935368949E+02  0.94770085645E+02  0.00000000000E+00 0.  1.
         11    1    1    2    0    0  0.90134207979E+02  0.99446891178E+01 -0.49680058280E+01  0.90817142498E+02  0.00000000000E+00 0. -1.
</event>
<event>
 7    1  0.6671761E-006  0.1293553E+03  0.7561462E-02  0.1228416E+00
          3   -1    0    0  501    0  0.00000000000E+00  0.00000000000E+00  0.50741617854E+02  0.50741617854E+02  0.00000000000E+00 0. -1.
         -3   -1    0    0    0  501 -0.00000000000E+00 -0.00000000000E+00 -0.38733686084E+03  0.38733686084E+03  0.00000000000E+00 0.  1.
         23    2    1    2    0    0 -0.60068792905E+02  0.24408151585E+02 -0.26396028620E+03  0.29920905387E+03  0.12508799897E+03 0.  0.
          5    1    3    3  502    0 -0.71967136221E+02 -0.34669869419E+02 -0.13788399155E+03  0.15940745299E+03  0.41800000000E+01 0.  1.
         -5    1    3    3    0  502  0.11898343316E+02  0.59078021003E+02 -0.12607629465E+03  0.13980160089E+03  0.41800000000E+01 0.  1.
        -11    1    1    2    0    0  0.78771972116E+02  0.97429021280E+01 -0.46827852922E+02  0.92156364632E+02  0.00000000000E+00 0. -1.
         11    1    1    2    0    0 -0.18703179211E+02 -0.34151053713E+02 -0.25807103872E+02  0.46713060192E+02  0.00000000000E+00 0.  1.
</event>
<event>
 7    1  0.6671761E-006  0.1689985E+03  0.7561462E-02  0.1178896E+00
         -1   -1    0    0    0  501 -0.00000000000E+00  0.00000000000E+00  0.33252895598E+03  0.33252895598E+03  0.00000000000E+00 0.  1.
          1   -1    0    0  501    0  0.00000000000E+00 -0.00000000000E+00 -0.11704304996E+03  0.11704304996E+03  0.00000000000E+00 0. -1.
         23    2    1    2    0    0  0.12902940344E+03 -0.80695638935E+02  0.18386401674E+03  0.26949672709E+03  0.12514845651E+03 0.  0.
          5    1    3    3  502    0  0.28541121423E+02  0.17033937435E+02 -0.54075371036E+01  0.33933235834E+02  0.41800000000E+01 0.  1.
         -5    1    3    3    0  502  0.10048828202E+03 -0.97729576370E+02  0.18927155385E+03  0.23556349126E+03  0.41800000000E+01 0.  1.
        -11    1    1    2    0    0 -0.82656035886E+02  0.15251029417E+02  0.49984862380E+02  0.97791107131E+02  0.00000000000E+00 0.  1.
         11    1    1    2    0    0 -0.46373367552E+02  0.65444609519E+02 -0.18362973107E+02  0.82284171713E+02  0.00000000000E+00 0. -1.
</event>
<event>
 7    1  0.6671761E-006  0.1022879E+03  0.7561462E-02  0.1275557E+00
          2   -1    0    0  501    0  0.00000000000E+00  0.00000000000E+00  0.41364130501E+02  0.41364130501E+02  0.00000000000E+00 0. -1.
         -2   -1    0    0    0  501 -0.00000000000E+00 -0.00000000000E+00 -0.60079695014E+03  0.60079695014E+03  0.00000000000E+00 0.  1.
         23    2    1    2    0    0  0.65818690120E+02 -0.19998279195E+02 -0.49063082237E+03  0.51097796733E+03  0.12509135900E+03 0.  0.
          5    1    3    3  502    0 -0.13002237928E+01 -0.42729093451E+02 -0.35779815992E+03  0.36036712066E+03  0.41800000000E+01 0.  1.
         -5    1    3    3    0  502  0.67118913913E+02  0.22730814256E+02 -0.13283266245E+03  0.15061084667E+03  0.41800000000E+01 0.  1.
        -11    1    1    2    0    0 -0.70865286206E+02  0.31896056339E+02 -0.81816786330E+02  0.11284163117E+03  0.00000000000E+00 0.  1.
         11    1    1    2    0    0  0.50465960855E+01 -0.11897777144E+02  0.13014789060E+02  0.18341482146E+02  0.00000000000E+00 0. -1.
</event>
<event>
 7    1  0.6671761E-006  0.2186697E+03  0.7561462E-02  0.1134879E+00
         -2   -1    0    0    0  501 -0.00000000000E+00  0.00000000000E+00  0.38876014218E+02  0.38876014218E+02  0.00000000000E+00 0.  1.
          2   -1    0    0  501    0  0.00000000000E+00 -0.00000000000E+00 -0.13008930328E+04  0.13008930328E+04  0.00000000000E+00 0. -1.
         23    2    1    2    0    0  0.16584543370E+03 -0.10569160891E+03 -0.70022808437E+03  0.73799453529E+03  0.12506454297E+03 0.  0.
          5    1    3    3  502    0  0.46596447173E+02 -0.99060013815E+02 -0.40343412119E+03  0.41804387062E+03  0.41800000000E+01 0.  1.
         -5    1    3    3    0  502  0.11924898653E+03 -0.66315950932E+01 -0.29679396318E+03  0.31995066467E+03  0.41800000000E+01 0.  1.
        -11    1    1    2    0    0 -0.95433647566E+02  0.20238271885E+02 -0.34241318094E+03  0.35603926078E+03  0.00000000000E+00 0. -1.
         11    1    1    2    0    0 -0.70411786132E+02  0.85453337023E+02 -0.21937575329E+03  0.24573525097E+03  0.00000000000E+00 0.  1.
</event>
<event>
 7    1  0.6671761E-006  0.8425991E+02  0.7561462E-02  0.1317379E+00
         -3   -1    0    0    0  501 -0.00000000000E+00  0.00000000000E+00  0.10552172816E+03  0.10552172816E+03  0.00000000000E+00 0.  1.
          3   -1    0    0  501    0  0.00000000000E+00 -0.00000000000E+00 -0.10242788785E+03  0.10242788785E+03  0.00000000000E+00 0. -1.
         23    2    1    2    0    0  0.37828549996E+01 -0.97644252580E+01  0.24160497110E+02  0.11603357685E+03  0.11300622701E+03 0.  0.
          5    1    3    3  502    0 -0.47737506669E+02  0.16532410723E+02 -0.53309549855E+01  0.50971380483E+02  0.41800000000E+01 0. -1.
         -5    1    3    3    0  502  0.51520361668E+02 -0.26296835981E+02  0.29491452095E+02  0.65062196364E+02  0.41800000000E+01 0.  1.
        -11    1    1    2    0    0  0.92974879102E+01 -0.22863394722E+02  0.24224993370E+02  0.34583643583E+02  0.00000000000E+00 0.  1.
         11    1    1    2    0    0 -0.13080342910E+02  0.32627819980E+02 -0.45291650171E+02  0.57332395576E+02  0.00000000000E+00 0. -1.
</event>
<event>
 7    1  0.6671761E-006  0.9514065E+02  0.7561462E-02  0.1290860E+00
          1   -1    0    0  501    0  0.00000000000E+00  0.00000000000E+00  0.88475591448E+02  0.88475591448E+02  0.00000000000E+00 0. -1.
         -1   -1    0    0    0  501 -0.00000000000E+00 -0.00000000000E+00 -0.20523388538E+03  0.20523388538E+03  0.00000000000E+00 0.  1.
         23    2    1    2    0    0 -0.41183070363E+02  0.47832623556E+01 -0.14088160162E+03  0.19291048453E+03  0.12509158439E+03 0.  0.
          5    1    3    3  502    0  0.37217934462E+02  0.99847706301E-01 -0.94382072835E+02  0.10154128563E+03  0.41800000000E+01 0.  1.
         -5    1    3    3    0  502 -0.78401004825E+02  0.46834146493E+01 -0.46499528782E+02  0.91369198898E+02  0.41800000000E+01 0.  1.
        -11    1    1    2    0    0  0.49940325195E+02 -0.22223532386E+02 -0.15340326503E+02  0.56773647844E+02  0.00000000000E+00 0.  1.
         11    1    1    2    0    0 -0.87572548315E+01  0.17440270030E+02  0.39463634188E+02  0.44025344454E+02  0.00000000000E+00 0. -1.
</event>
<event>
 7    1  0.6671761E-006  0.1128901E+03  0.7561462E-02  0.1255310E+00
         -2   -1    0    0    0  501 -0.00000000000E+00  0.00000000000E+00  0.14066337466E+03  0.14066337466E+03  0.00000000000E+00 0.  1.
          2   -1    0    0  501    0  0.00000000000E+00 -0.00000000000E+00 -0.10462368148E+03  0.10462368148E+03  0.00000000000E+00 0. -1.
         23    2    1    2    0    0 -0.84451207969E+01 -0.50725996474E+02  0.44424020857E+02  0.14235816579E+03  0.12509159425E+03 0.  0.
          5    1    3    3  502    0 -0.39647060731E+02 -0.75788122990E+02  0.46199778625E+01  0.85758647414E+02  0.41800000000E+01 0. -1.
         -5    1    3    3    0  502  0.31201939934E+02  0.25062126516E+02  0.39804042995E+02  0.56599518371E+02  0.41800000000E+01 0. -1.
        -11    1    1    2    0    0 -0.32502725833E+02  0.49155422871E+02 -0.16411632399E+02  0.61172088915E+02  0.00000000000E+00 0. -1.
         11    1    1    2    0    0  0.40947846630E+02  0.15705736029E+01  0.80273047258E+01  0.41756801437E+02  0.00000000000E+00 0.  1.
</event>
<event>
 7    1  0.6671761E-006  0.2281751E+03  0.7561462E-02  0.1127931E+00
         -2   -1    0    0    0  501 -0.00000000000E+00  0.00000000000E+00  0.85556691582E+02  0.85556691582E+02  0.00000000000E+00 0.  1.
          2   -1    0    0  501    0  0.00000000000E+00 -0.00000000000E+00 -0.95694619135E+03  0.95694619135E+03  0.00000000000E+00 0. -1.
         23    2    1    2    0    0  0.17393721794E+03 -0.13362902082E+03 -0.71485764835E+03  0.75814218375E+03  0.12508893795E+03 0.  0.
          5    1    3    3  502    0  0.16163233593E+03 -0.77327276094E+02 -0.63342099630E+03  0.65828880486E+03  0.41800000000E+01 0. -1.
         -5    1    3    3    0  502  0.12304882012E+02 -0.56301744728E+02 -0.81436652048E+02  0.99853378899E+02  0.41800000000E+01 0. -1.
        -11    1    1    2    0    0 -0.11259369545E+03  0.86336058736E+02 -0.15024055193E+03  0.20664820042E+03  0.00000000000E+00 0. -1.
         11    1    1    2    0    0 -0.61343522490E+02  0.47292962086E+02 -0.62912994991E+01  0.77712498761E+02  0.00000000000E+00 0.  1.
</event>
<event>
 7    1  0.6835828E-006  0.1365027E+03  0.7561462E-02  0.1218114E+00
          1   -1    0    0  501    0  0.00000000000E+00  0.00000000000E+00  0.10542288944E+03  0.10542288944E+03  0.00000000000E+00 0. -1.
         -1   -1    0    0    0  501 -0.00000000000E+00 -0.00000000000E+00 -0.17841916856E+03  0.17841916856E+03  0.00000000000E+00 0.  1.
         23    2    1    2    0    0 -0.75670528899E+02 -0.35731617974E+02 -0.49445835410E+02  0.15841408955E+03  0.12508939068E+03 0.  0.
          5    1    3    3  502    0 -0.99004956455E+02  0.93761052261E+01 -0.32017394708E+02  0.10455849423E+03  0.41800000000E+01 0.  1.
         -5    1    3    3    0  502  0.23334427556E+02 -0.45107723200E+02 -0.17428440702E+02  0.53855595317E+02  0.41800000000E+01 0.  1.
        -11    1    1    2    0    0  0.88353744139E+02  0.41186582933E+01 -0.22871224140E+02  0.91358854760E+02  0.00000000000E+00 0.  1.
         11    1    1    2    0    0 -0.12683215240E+02  0.31612959680E+02 -0.67921957661E+00  0.34069113693E+02  0.00000000000E+00 0. -1.
</event>
<event>
 7    1  0.6671761E-006  0.1221738E+03  0.7561462E-02  0.1239553E+00
         -3   -1    0    0    0  501 -0.00000000000E+00  0.00000000000E+00  0.88146740746E+02  0.88146740746E+02  0.00000000000E+00 0.  1.
          3   -1    0    0  501    0  0.00000000000E+00 -0.00000000000E+00 -0.30436275199E+03  0.30436275199E+03  0.00000000000E+00 0. -1.
         23    2    1    2    0    0  0.77651115819E+02  0.79913711971E+02 -0.17209675565E+03  0.24016794439E+03  0.12508977200E+03 0.  0.
          5    1    3    3  502    0  0.27819276515E+02  0.55997786231E+02 -0.35805793537E+01  0.62769078033E+02  0.41800000000E+01 0. -1.
         -5    1    3    3    0  502  0.49831839305E+02  0.23915925740E+02 -0.16851617630E+03  0.17739886636E+03  0.41800000000E+01 0. -1.
        -11    1    1    2    0    0  0.59230380810E+01 -0.26294722622E+02  0.20506365501E+02  0.33867474720E+02  0.00000000000E+00 0.  1.
         11    1    1    2    0    0 -0.83574153900E+02 -0.53618989349E+02 -0.64625621095E+02  0.11847407362E+03  0.00000000000E+00 0. -1.
</event>
<event>
 7    1  0.6671761E-006  0.1051432E+03  0.7561462E-02  0.1269838E+00
          2   -1    0    0  501    0  0.00000000000E+00  0.00000000000E+00  0.50996914467E+03  0.50996914467E+03  0.00000000000E+00 0. -1.
         -2   -1    0    0    0  501 -0.00000000000E+00 -0.00000000000E+00 -0.40701558802E+02  0.40701558802E+02  0.00000000000E+00 0.  1.
         23    2    1    2    0    0 -0.75077857728E+02  0.24500062096E+02  0.15813874497E+03  0.21654672811E+03  0.12509070722E+03 0.  0.
          5    1    3    3  502    0 -0.50688815741E+02 -0.19152976979E+02  0.15723226742E+03  0.16636000386E+03  0.41800000000E+01 0. -1.
         -5    1    3    3    0  502 -0.24389041987E+02  0.43653039075E+02  0.90647755051E+00  0.50186724252E+02  0.41800000000E+01 0. -1.
        -11    1    1    2    0    0  0.34520946707E+02  0.24367679173E+02  0.50385244221E+02  0.65758287577E+02  0.00000000000E+00 0.  1.
         11    1    1    2    0    0  0.40556911021E+02 -0.48867741269E+02  0.26074359668E+03  0.26836568778E+03  0.00000000000E+00 0. -1.
</event>
<event>
 7    1  0.6671761E-006  0.9166845E+02  0.7561462E-02  0.1298861E+00
         -1   -1    0    0    0  501 -0.00000000000E+00  0.00000000000E+00  0.20384316551E+03  0.20384316551E+03  0.00000000000E+00 0.  1.
          1   -1    0    0  501    0  0.00000000000E+00 -0.00000000000E+00 -0.13838720720E+03  0.13838720720E+03  0.00000000000E+00 0. -1.
         23    2    1    2    0    0  0.17306898963E+02 -0.40587379189E+02  0.15465597391E+03  0.20374756346E+03  0.12509090794E+03 0.  0.
          5    1    3    3  502    0 -0.32909833407E+02 -0.47167522566E+02  0.13913558805E+03  0.15061213955E+03  0.41800000000E+01 0.  1.
         -5    1    3    3    0  502  0.50216732369E+02  0.65801433763E+01  0.15520385868E+02  0.53135423911E+02  0.41800000000E+01 0.  1.
        -11    1    1    2    0    0 -0.25976716413E+01  0.54526574756E+02 -0.84619217188E+01  0.55240378092E+02  0.00000000000E+00 0.  1.
         11    1    1    2    0    0 -0.14709227321E+02 -0.13939195567E+02 -0.80738093880E+02  0.83242431156E+02  0.00000000000E+00 0. -1.
</event>
<event>
 7    1  0.6671761E-006  0.1074937E+03  0.7561462E-02  0.1265283E+00
          1   -1    0    0  501    0  0.00000000000E+00  0.00000000000E+00  0.64653101770E+02  0.64653101770E+02  0.00000000000E+00 0. -1.
         -1   -1    0    0    0  501 -0.00000000000E+00 -0.00000000000E+00 -0.19948581114E+03  0.19948581114E+03  0.00000000000E+00 0.  1.
         23    2    1    2    0    0 -0.11077955649E+02 -0.26531509473E+02 -0.97429169315E+02  0.16114162057E+03  0.12509011452E+03 0.  0.
          5    1    3    3  502    0 -0.56268138476E+02 -0.46636193415E+02 -0.34311369835E+02  0.80844173839E+02  0.41800000000E+01 0. -1.
         -5    1    3    3    0  502  0.45190182827E+02  0.20104683942E+02 -0.63117799479E+02  0.80297446730E+02  0.41800000000E+01 0. -1.
        -11    1    1    2    0    0  0.40423259269E+02 -0.13406644272E+02 -0.31739217272E+02  0.53114554631E+02  0.00000000000E+00 0.  1.
         11    1    1    2    0    0 -0.29345303620E+02  0.39938153745E+02 -0.56643227870E+01  0.49882737713E+02  0.00000000000E+00 0. -1.
</event>
<event>
 7    1  0.6671761E-006  0.1663865E+03  0.7561462E-02  0.1181669E+00
         -2   -1    0    0    0  501 -0.00000000000E+00  0.00000000000E+00  0.21841718741E+03  0.21841718741E+03  0.00000000000E+00 0.  1.
          2   -1    0    0  501    0  0.00000000000E+00 -0.00000000000E+00 -0.20135200091E+03  0.20135200091E+03  0.00000000000E+00 0. -1.
         23    2    1    2    0    0  0.12694900631E+03  0.14967826004E+01  0.13064798770E+03  0.22037504477E+03  0.12400795582E+03 0.  0.
          5    1    3    3  502    0  0.80814500527E+02  0.55211783122E+02  0.41345718856E+02  0.10633092381E+03  0.41800000000E+01 0. -1.
         -5    1    3    3    0  502  0.46134505779E+02 -0.53715000521E+02  0.89302268840E+02  0.11404412095E+03  0.41800000000E+01 0.  1.
        -11    1    1    2    0    0 -0.68080709312E+02 -0.52513428598E+02 -0.60083822747E+02  0.10489379829E+03  0.00000000000E+00 0.  1.
         11    1    1    2    0    0 -0.58868296994E+02  0.51016645997E+02 -0.53498978448E+02  0.94500345262E+02  0.00000000000E+00 0. -1.
</event>
<event>
 7    1  0.6671761E-006  0.9310281E+02  0.7561462E-02  0.1295507E+00
         -2   -1    0    0    0  501 -0.00000000000E+00  0.00000000000E+00  0.28778439965E+02  0.28778439965E+02  0.00000000000E+00 0.  1.
          2   -1    0    0  501    0  0.00000000000E+00 -0.00000000000E+00 -0.44185331786E+03  0.44185331786E+03  0.00000000000E+00 0. -1.
         23    2    1    2    0    0 -0.58615096026E+01 -0.30449096332E+02 -0.23233032891E+03  0.26568738921E+03  0.12510356627E+03 0.  0.
          5    1    3    3  502    0 -0.42331711218E+02 -0.39722749459E+02 -0.21728616923E+03  0.22494582090E+03  0.41800000000E+01 0. -1.
         -5    1    3    3    0  502  0.36470201616E+02  0.92736531263E+01 -0.15044159674E+02  0.40741568312E+02  0.41800000000E+01 0. -1.
        -11    1    1    2    0    0 -0.41211068793E+00  0.59965413590E+02 -0.81306474831E+02  0.10102852821E+03  0.00000000000E+00 0.  1.
         11    1    1    2    0    0  0.62736202905E+01 -0.29516317257E+02 -0.99438074155E+02  0.10391584041E+03  0.00000000000E+00 0. -1.
</event>
<event>
 7    1  0.6671761E-006  0.8761413E+02  0.7561462E-02  0.1308734E+00
          2   -1    0    0  501    0  0.00000000000E+00  0.00000000000E+00  0.79346744304E+03  0.79346744304E+03  0.00000000000E+00 0. -1.
         -2   -1    0    0    0  501 -0.00000000000E+00 -0.00000000000E+00 -0.19099603262E+02  0.19099603262E+02  0.00000000000E+00 0.  1.
         23    2    1    2    0    0  0.13361186471E+02 -0.39547583759E+02  0.31549979232E+03  0.34195420503E+03  0.12510006673E+03 0.  0.
          5    1    3    3  502    0 -0.21486182345E+02 -0.10754402206E+01  0.27529015670E+03  0.27616110403E+03  0.41800000000E+01 0. -1.
         -5    1    3    3    0  502  0.34847368817E+02 -0.38472143539E+02  0.40209635625E+02  0.65793100998E+02  0.41800000000E+01 0. -1.
        -11    1    1    2    0    0 -0.44289291896E+02 -0.75139474139E+01  0.14734785149E+03  0.15404346829E+03  0.00000000000E+00 0.  1.
         11    1    1    2    0    0  0.30928105425E+02  0.47061531173E+02  0.31152019597E+03  0.31656937299E+03  0.00000000000E+00 0. -1.
</event>
<event>
 7    1  0.6671761E-006  0.1252256E+03  0.7561462E-02  0.1234717E+00
         -1   -1    0    0    0  501 -0.00000000000E+00  0.00000000000E+00  0.31520219906E+02  0.31520219906E+02  0.00000000000E+00 0.  1.
          1   -1    0    0  501    0  0.00000000000E+00 -0.00000000000E+00 -0.90013893400E+03  0.90013893400E+03  0.00000000000E+00 0. -1.
         23    2    1    2    0    0 -0.11708114127E+03 -0.35720678189E+02 -0.57700924628E+03  0.60296843970E+03  0.12508920212E+03 0.  0.
          5    1    3    3  502    0 -0.68125700829E+02 -0.43851106813E+01 -0.92883796165E+02  0.11534822192E+03  0.41800000000E+01 0.  1.
         -5    1    3    3    0  502 -0.48955440437E+02 -0.31335567508E+02 -0.48412545011E+03  0.48762021778E+03  0.41800000000E+01 0.  1.
        -11    1    1    2    0    0  0.69564925499E+02  0.30574099281E+02 -0.74619077572E+02  0.10649911335E+03  0.00000000000E+00 0.  1.
         11    1    1    2    0    0  0.47516215767E+02  0.51465789088E+01 -0.21699039024E+03  0.22219160086E+03  0.00000000000E+00 0. -1.
</event>
<event>
 7    1  0.6671761E-006  0.9602068E+02  0.7561462E-02  0.1288894E+00
         -3   -1    0    0    0  501 -0.00000000000E+00  0.00000000000E+00  0.48173750494E+03  0.48173750494E+03  0.00000000000E+00 0.  1.
          3   -1    0    0  501    0  0.00000000000E+00 -0.00000000000E+00 -0.27570546339E+02  0.27570546339E+02  0.00000000000E+00 0. -1.
         23    2    1    2    0    0 -0.10112842432E+02  0.71803743749E+01  0.33932549573E+03  0.36186010285E+03  0.12508842723E+03 0.  0.
          5    1    3    3  502    0 -0.45033192306E+02 -0.28916892123E+02  0.27475542092E+03  0.27995033271E+03  0.41800000000E+01 0. -1.
         -5    1    3    3    0  502  0.34920349874E+02  0.36097266498E+02  0.64570074806E+02  0.81909770140E+02  0.41800000000E+01 0. -1.
        -11    1    1    2    0    0 -0.30931287261E+02 -0.28193523599E+02  0.32173157123E+02  0.52789500318E+02  0.00000000000E+00 0.  1.
         11    1    1    2    0    0  0.41044129694E+02  0.21013149224E+02  0.82668305746E+02  0.94658448104E+02  0.00000000000E+00 0. -1.
</event>
<event>
 7    1  0.6671761E-006  0.4306950E+03  0.7561462E-02  0.1033641E+00
         -1   -1    0    0    0  501 -0.00000000000E+00  0.00000000000E+00  0.55609258502E+03  0.55609258502E+03  0.00000000000E+00 0.  1.
          1   -1    0    0  501    0  0.00000000000E+00 -0.00000000000E+00 -0.34370241250E+03  0.34370241250E+03  0.00000000000E+00 0. -1.
         23    2    1    2    0    0 -0.35742820125E+03  0.22572572609E+03  0.13230054602E+03  0.46028554490E+03  0.12510925585E+03 0.  0.
          5    1    3    3  502    0 -0.27612445068E+03  0.13371323797E+03  0.46253060868E+02  0.31029141192E+03  0.41800000000E+01 0. -1.
         -5    1    3    3    0  502 -0.81303750565E+02  0.92012488119E+02  0.86047485151E+02  0.14999413297E+03  0.41800000000E+01 0. -1.
        -11    1    1    2    0    0  0.81442133711E+02 -0.11320618232E+02  0.23124564829E+02  0.85415004766E+02  0.00000000000E+00 0. -1.
         11    1    1    2    0    0  0.27598606754E+03 -0.21440510786E+03  0.56965061669E+02  0.35409444785E+03  0.00000000000E+00 0.  1.
</event>
<event>
 7    1  0.6671761E-006  0.1165068E+03  0.7561462E-02  0.1248974E+00
          1   -1    0    0  501    0  0.00000000000E+00  0.00000000000E+00  0.45380692686E+03  0.45380692686E+03  0.00000000000E+00 0. -1.
         -1   -1    0    0    0  501 -0.00000000000E+00 -0.00000000000E+00 -0.39777229914E+02  0.39777229914E+02  0.00000000000E+00 0.  1.
         23    2    1    2    0    0 -0.52589421401E+02 -0.47364032479E+02  0.16449052960E+03  0.21843308812E+03  0.12508749274E+03 0.  0.
          5    1    3    3  502    0 -0.16358201898E+02  0.31194008741E+02  0.35246480094E+01  0.35644810201E+02  0.41800000000E+01 0.  1.
         -5    1    3    3    0  502 -0.36231219502E+02 -0.78558041220E+02  0.16096588159E+03  0.18278827792E+03  0.41800000000E+01 0.  1.
        -11    1    1    2    0    0  0.65611475330E+02  0.40874377314E+01  0.10662624016E+03  0.12526263582E+03  0.00000000000E+00 0.  1.
         11    1    1    2    0    0 -0.13022053929E+02  0.43276594748E+02  0.14291292718E+03  0.14988843283E+03  0.00000000000E+00 0. -1.
</event>
<event>
 7    1  0.6671761E-006  0.1461909E+03  0.7561462E-02  0.1205233E+00
          2   -1    0    0  501    0  0.00000000000E+00  0.00000000000E+00  0.13554285623E+04  0.13554285623E+04  0.00000000000E+00 0. -1.
         -2   -1    0    0    0  501 -0.00000000000E+00 -0.00000000000E+00 -0.22847633592E+02  0.22847633592E+02  0.00000000000E+00 0.  1.
         23    2    1    2    0    0 -0.11489674161E+03  0.40355671456E+02  0.45328829035E+03  0.48575135971E+03  0.12511701660E+03 0.  0.
          5    1    3    3  502    0 -0.49972803163E+02 -0.16756225220E+02  0.33512120650E+03  0.33926648462E+03  0.41800000000E+01 0.  1.
         -5    1    3    3    0  502 -0.64923938443E+02  0.57111896676E+02  0.11816708385E+03  0.14648487509E+03  0.41800000000E+01 0.  1.
        -11    1    1    2    0    0  0.53485493836E+02  0.28558583618E+02  0.32772056795E+03  0.33328225486E+03  0.00000000000E+00 0.  1.
         11    1    1    2    0    0  0.61411247770E+02 -0.68914255074E+02  0.55157207038E+03  0.55924258129E+03  0.00000000000E+00 0. -1.
</event>
<event>
 7    1  0.6671761E-006  0.1156098E+03  0.7561462E-02  0.1250520E+00
          1   -1    0    0  501    0  0.00000000000E+00  0.00000000000E+00  0.42415104381E+03  0.42415104381E+03  0.00000000000E+00 0. -1.
         -1   -1    0    0    0  501 -0.00000000000E+00 -0.00000000000E+00 -0.35983281084E+02  0.35983281084E+02  0.00000000000E+00 0.  1.
         23    2    1    2    0    0 -0.44344724572E+02  0.40428219876E+02  0.17605359125E+03  0.22415419018E+03  0.12509731582E+03 0.  0.
          5    1    3    3  502    0 -0.82325156960E+02  0.49660853514E+02  0.10148067269E+03  0.13985503627E+03  0.41800000000E+01 0. -1.
         -5    1    3    3    0  502  0.37980432389E+02 -0.92326336382E+01  0.74572918562E+02  0.84299153918E+02  0.41800000000E+01 0. -1.
        -11    1    1    2    0    0  0.23145216657E+02  0.20653026336E+02  0.31797355757E+02  0.44422070911E+02  0.00000000000E+00 0.  1.
         11    1    1    2    0    0  0.21199507915E+02 -0.61081246212E+02  0.18031681572E+03  0.19155806379E+03  0.00000000000E+00 0. -1.
</event>
<event>
 7    1  0.6671761E-006  0.9688193E+02  0.7561462E-02  0.1286993E+00
          1   -1    0    0  501    0  0.00000000000E+00  0.00000000000E+00  0.69611960810E+03  0.69611960810E+03  0.00000000000E+00 0. -1.
         -1   -1    0    0    0  501 -0.00000000000E+00 -0.00000000000E+00 -0.18849664541E+02  0.18849664541E+02  0.00000000000E+00 0.  1.
         23    2    1    2    0    0  0.32534614822E+02  0.20734215564E+02  0.40466230022E+03  0.42530852622E+03  0.12508939362E+03 0.  0.
          5    1    3    3  502    0 -0.28276967124E+02 -0.62444957011E+01  0.29865695089E+03  0.30008669966E+03  0.41800000000E+01 0.  1.
         -5    1    3    3    0  502  0.60811581946E+02  0.26978711265E+02  0.10600534934E+03  0.12522182657E+03  0.41800000000E+01 0.  1.
        -11    1    1    2    0    0 -0.43733503477E+02  0.25263106873E+02  0.13509394382E+03  0.14422627206E+03  0.00000000000E+00 0.  1.
         11    1    1    2    0    0  0.11198888654E+02 -0.45997322437E+02  0.13751369952E+03  0.14543447436E+03  0.00000000000E+00 0. -1.
</event>
<event>
 7    1  0.6671761E-006  0.1260688E+03  0.7561462E-02  0.1233408E+00
         -1   -1    0    0    0  501 -0.00000000000E+00  0.00000000000E+00  0.34973338319E+03  0.34973338319E+03  0.00000000000E+00 0.  1.
          1   -1    0    0  501    0  0.00000000000E+00 -0.00000000000E+00 -0.52634082509E+02  0.52634082509E+02  0.00000000000E+00 0. -1.
         23    2    1    2    0    0 -0.77128235924E+02  0.19922419227E+02  0.18852555901E+03  0.23986435500E+03  0.12508938737E+03 0.  0.
          5    1    3    3  502    0 -0.10089007714E+03 -0.18765906329E+02  0.13045576185E+03  0.16603356620E+03  0.41800000000E+01 0.  1.
         -5    1    3    3    0  502  0.23761841213E+02  0.38688325556E+02  0.58069797163E+02  0.73830788799E+02  0.41800000000E+01 0.  1.
        -11    1    1    2    0    0  0.81294320678E+02 -0.34768749249E+02  0.11561740567E+03  0.14555073683E+03  0.00000000000E+00 0.  1.
         11    1    1    2    0    0 -0.41660847544E+01  0.14846330021E+02 -0.70436640002E+01  0.16952373870E+02  0.00000000000E+00 0. -1.
</event>
<event>
 7    1  0.6671761E-006  0.7769663E+02  0.7561462E-02  0.1335718E+00
          4   -1    0    0  501    0  0.00000000000E+00  0.00000000000E+00  0.12870173986E+03  0.12870173986E+03  0.00000000000E+00 0. -1.
         -4   -1    0    0    0  501 -0.00000000000E+00 -0.00000000000E+00 -0.15876192383E+03  0.15876192383E+03  0.00000000000E+00 0.  1.
         23    2    1    2    0    0  0.27974507085E+02 -0.57535018265E+02 -0.85803138186E+02  0.16463014034E+03  0.12509217886E+03 0.  0.
          5    1    3    3  502    0  0.84820683048E+01  0.62877831331E+01 -0.96282672381E+02  0.96950023725E+02  0.41800000000E+01 0.  1.
         -5    1    3    3    0  502  0.19492438781E+02 -0.63822801398E+02  0.10479534195E+02  0.67680116614E+02  0.41800000000E+01 0.  1.
        -11    1    1    2    0    0 -0.28700408417E+02  0.11161445675E+02 -0.18036348940E+02  0.35687549593E+02  0.00000000000E+00 0.  1.
         11    1    1    2    0    0  0.72590133196E+00  0.46373572589E+02  0.73779303159E+02  0.87145973757E+02  0.00000000000E+00 0. -1.
</event>
<event>
 7    1  0.6671761E-006  0.1051642E+03  0.7561462E-02  0.1269796E+00
          2   -1    0    0  501    0  0.00000000000E+00  0.00000000000E+00  0.12630122266E+03  0.12630122266E+03  0.00000000000E+00 0. -1.
         -2   -1    0    0    0  501 -0.00000000000E+00 -0.00000000000E+00 -0.10910715112E+03  0.10910715112E+03  0.00000000000E+00 0.  1.
         23    2    1    2    0    0  0.41395231251E+02  0.27585714140E+01  0.18104508180E+01  0.13181023440E+03  0.12509790276E+03 0.  0.
          5    1    3    3  502    0  0.21779425341E+02  0.63793539645E+02  0.18762130649E+01  0.67564425877E+02  0.41800000000E+01 0. -1.
         -5    1    3    3    0  502  0.19615805910E+02 -0.61034968231E+02 -0.65762246951E-01  0.64245808526E+02  0.41800000000E+01 0. -1.
        -11    1    1    2    0    0  0.12255762290E+02  0.17355697217E+02  0.36747194044E+02  0.42447381607E+02  0.00000000000E+00 0. -1.
         11    1    1    2    0    0 -0.53650993542E+02 -0.20114268631E+02 -0.21363573328E+02  0.61150757770E+02  0.00000000000E+00 0.  1.
</event>
<event>
 7    1  0.6671761E-006  0.8690521E+02  0.7561462E-02  0.1310524E+00
          1   -1    0    0  501    0  0.00000000000E+00  0.00000000000E+00  0.95313282876E+02  0.95313282876E+02  0.00000000000E+00 0. -1.
         -1   -1    0    0    0  501 -0.00000000000E+00 -0.00000000000E+00 -0.14978269246E+03  0.14978269246E+03  0.00000000000E+00 0.  1.
         23    2    1    2    0    0 -0.11260832344E+02 -0.26782923164E+02 -0.79679114571E+02  0.15113142342E+03  0.12509122482E+03 0.  0.
          5    1    3    3  502    0  0.34212980214E+02 -0.60743510729E+02 -0.31711663241E+02  0.76703351272E+02  0.41800000000E+01 0. -1.
         -5    1    3    3    0  502 -0.45473812558E+02  0.33960587565E+02 -0.47967451330E+02  0.74428072146E+02  0.41800000000E+01 0. -1.
        -11    1    1    2    0    0 -0.11400869712E+02  0.20641887260E+02 -0.27521602040E+02  0.36242322203E+02  0.00000000000E+00 0.  1.
         11    1    1    2    0    0  0.22661702055E+02  0.61410359044E+01  0.52731307029E+02  0.57722229712E+02  0.00000000000E+00 0. -1.
</event>
<event>
 7    1  0.6671761E-006  0.9969393E+02  0.7561462E-02  0.1280941E+00
         -4   -1    0    0    0  501 -0.00000000000E+00  0.00000000000E+00  0.24654563064E+03  0.24654563064E+03  0.00000000000E+00 0.  1.
          4   -1    0    0  501    0  0.00000000000E+00 -0.00000000000E+00 -0.48267938489E+02  0.48267938489E+02  0.00000000000E+00 0. -1.
         23    2    1    2    0    0 -0.45785258823E+01 -0.57283707828E+01  0.14167904884E+03  0.18914102462E+03  0.12509035607E+03 0.  0.
          5    1    3    3  502    0 -0.58091653391E+02  0.14825949435E+01  0.31170764451E+02  0.66075163548E+02  0.41800000000E+01 0.  1.
         -5    1    3    3    0  502  0.53513127509E+02 -0.72109657263E+01  0.11050828439E+03  0.12306586107E+03  0.41800000000E+01 0.  1.
        -11    1    1    2    0    0 -0.27711745549E+02  0.34131088648E+02  0.40432761223E+02  0.59730061391E+02  0.00000000000E+00 0. -1.
         11    1    1    2    0    0  0.32290271432E+02 -0.28402717865E+02  0.16165882085E+02  0.45942483116E+02  0.00000000000E+00 0.  1.
</event>
<event>
 7    1  0.6671761E-006  0.8165403E+02  0.7561462E-02  0.1324422E+00
          1   -1    0    0  501    0  0.00000000000E+00  0.00000000000E+00  0.35272164497E+02  0.35272164497E+02  0.00000000000E+00 0. -1.
         -1   -1    0    0    0  501 -0.00000000000E+00 -0.00000000000E+00 -0.40606110659E+03  0.40606110659E+03  0.00000000000E+00 0.  1.
         23    2    1    2    0    0 -0.29152203857E+02 -0.38347945283E+02 -0.17462459574E+03  0.22014293363E+03  0.12509494750E+03 0.  0.
          5    1    3    3  502    0  0.75883850924E+01 -0.29894849420E+02 -0.17924844723E+03  0.18193065669E+03  0.41800000000E+01 0. -1.
         -5    1    3    3    0  502 -0.36740588949E+02 -0.84530958633E+01  0.46238514871E+01  0.38212276935E+02  0.41800000000E+01 0. -1.
        -11    1    1    2    0    0 -0.90752710655E+01  0.52657459139E+02 -0.15168098447E+03  0.16081756620E+03  0.00000000000E+00 0.  1.
         11    1    1    2    0    0  0.38227474922E+02 -0.14309513855E+02 -0.44483361881E+02  0.60372771263E+02  0.00000000000E+00 0. -1.
</event>
<event>
 7    1  0.6671761E-006  0.1516988E+03  0.7561462E-02  0.1198401E+00
          1   -1    0    0  501    0  0.00000000000E+00  0.00000000000E+00  0.12280866065E+04  0.12280866065E+04  0.00000000000E+00 0. -1.
         -1   -1    0    0    0  501 -0.00000000000E+00 -0.00000000000E+00 -0.25688313081E+02  0.25688313081E+02  0.00000000000E+00 0.  1.
         23    2    1    2    0    0  0.88196325284E+02  0.74490738846E+02  0.35430718904E+03  0.39307723963E+03  0.12509464477E+03 0.  0.
          5    1    3    3  502    0  0.95900587101E+02  0.94584835484E+02  0.34275821405E+03  0.36829862803E+03  0.41800000000E+01 0.  1.
         -5    1    3    3    0  502 -0.77042618168E+01 -0.20094096638E+02  0.11548974983E+02  0.24778611603E+02  0.41800000000E+01 0.  1.
        -11    1    1    2    0    0 -0.48305925354E+01 -0.62269568234E+02  0.34907993397E+03  0.35462322831E+03  0.00000000000E+00 0.  1.
         11    1    1    2    0    0 -0.83365732748E+02 -0.12221170613E+02  0.49901117041E+03  0.50607445164E+03  0.00000000000E+00 0. -1.
</event>
<event>
 7    1  0.6671761E-006  0.1684448E+03  0.7561462E-02  0.1179479E+00
          1   -1    0    0  501    0  0.00000000000E+00  0.00000000000E+00  0.33844994230E+02  0.33844994230E+02  0.00000000000E+00 0. -1.
         -1   -1    0    0    0  501 -0.00000000000E+00 -0.00000000000E+00 -0.10111382845E+04  0.10111382845E+04  0.00000000000E+00 0.  1.
         23    2    1    2    0    0 -0.13120590741E+03  0.64808709455E+02 -0.60062770214E+03  0.63072711298E+03  0.12509154853E+03 0.  0.
          5    1    3    3  502    0 -0.10966597572E+03  0.13235324348E+02 -0.22226458164E+03  0.24823540580E+03  0.41800000000E+01 0.  1.
         -5    1    3    3    0  502 -0.21539931689E+02  0.51573385107E+02 -0.37836312050E+03  0.38249170718E+03  0.41800000000E+01 0.  1.
        -11    1    1    2    0    0  0.66374543943E+02 -0.79763615475E+02 -0.26015694019E+03  0.28008828602E+03  0.00000000000E+00 0.  1.
         11    1    1    2    0    0  0.64831363471E+02  0.14954906019E+02 -0.11650864789E+03  0.13416787968E+03  0.00000000000E+00 0. -1.
</event>
<event>
 7    1  0.6671761E-006  0.1231780E+03  0.7561462E-02  0.1237945E+00
         -2   -1    0    0    0  501 -0.00000000000E+00  0.00000000000E+00  0.17260964664E+03  0.17260964664E+03  0.00000000000E+00 0.  1.
          2   -1    0    0  501    0  0.00000000000E+00 -0.00000000000E+00 -0.40189483009E+03  0.40189483009E+03  0.00000000000E+00 0. -1.
         23    2    1    2    0    0  0.60079001496E+02  0.43823331088E+02  0.13065972405E+03  0.19557458660E+03  0.12508990635E+03 0.  0.
          5    1    3    3  502    0  0.81194947830E+02 -0.18657914151E+01  0.37388543678E+02  0.89506850738E+02  0.41800000000E+01 0. -1.
         -5    1    3    3    0  502 -0.21115946334E+02  0.45689122503E+02  0.93271180368E+02  0.10606773587E+03  0.41800000000E+01 0. -1.
        -11    1    1    2    0    0 -0.71889224106E+02 -0.29163259523E+01 -0.17634572347E+03  0.19045834108E+03  0.00000000000E+00 0.  1.
         11    1    1    2    0    0  0.11810222610E+02 -0.40907005136E+02 -0.18359918402E+03  0.18847154905E+03  0.00000000000E+00 0. -1.
</event>
<event>
 7    1  0.6671761E-006  0.1400249E+03  0.7561462E-02  0.1213295E+00
          2   -1    0    0  501    0  0.00000000000E+00  0.00000000000E+00  0.25247029917E+02  0.25247029917E+02  0.00000000000E+00 0. -1.
         -2   -1    0    0    0  501 -0.00000000000E+00 -0.00000000000E+00 -0.11200131473E+04  0.11200131473E+04  0.00000000000E+00 0.  1.
         23    2    1    2    0    0 -0.67602761775E+02 -0.11464507402E+03 -0.60186222184E+03  0.62896743650E+03  0.12509306817E+03 0.  0.
          5    1    3    3  502    0 -0.30511779134E+02 -0.16512415354E+02 -0.25853923389E+02  0.43468681615E+02  0.41800000000E+01 0. -1.
         -5    1    3    3    0  502 -0.37090982641E+02 -0.98132658664E+02 -0.57600829845E+03  0.58549875488E+03  0.41800000000E+01 0. -1.
        -11    1    1    2    0    0 -0.27999880982E+01  0.29498205209E+02 -0.38123248758E+02  0.48284222472E+02  0.00000000000E+00 0. -1.
         11    1    1    2    0    0  0.70402749873E+02  0.85146868809E+02 -0.45478064675E+03  0.46800851821E+03  0.00000000000E+00 0.  1.
</event>
<event>
 7    1  0.6671761E-006  0.1058252E+03  0.7561462E-02  0.1268502E+00
          1   -1    0    0  501    0  0.00000000000E+00  0.00000000000E+00  0.23070271757E+03  0.23070271757E+03  0.00000000000E+00 0. -1.
         -1   -1    0    0    0  501 -0.00000000000E+00 -0.00000000000E+00 -0.68593200935E+02  0.68593200935E+02  0.00000000000E+00 0.  1.
         23    2    1    2    0    0  0.51717199167E+02  0.34978794145E+02  0.70940961254E+02  0.15677344032E+03  0.12508839625E+03 0.  0.
          5    1    3    3  502    0 -0.32994812048E+02  0.35978084729E+02  0.48326450249E+01  0.49233190642E+02  0.41800000000E+01 0. -1.
         -5    1    3    3    0  502  0.84712011215E+02 -0.99929058340E+00  0.66108316229E+02  0.10754024968E+03  0.41800000000E+01 0. -1.
        -11    1    1    2    0    0 -0.20004832831E+02  0.10342001378E+02 -0.11958035865E+02  0.25497940129E+02  0.00000000000E+00 0.  1.
         11    1    1    2    0    0 -0.31712366336E+02 -0.45320795524E+02  0.10312659125E+03  0.11702453806E+03  0.00000000000E+00 0. -1.
</event>
<event>
 7    1  0.6671761E-006  0.1151806E+03  0.7561462E-02  0.1251266E+00
          2   -1    0    0  501    0  0.00000000000E+00  0.00000000000E+00  0.14689094243E+04  0.14689094243E+04  0.00000000000E+00 0. -1.
         -2   -1    0    0    0  501 -0.00000000000E+00 -0.00000000000E+00 -0.14323298799E+02  0.14323298799E+02  0.00000000000E+00 0.  1.
         23    2    1    2    0    0  0.32780529618E+02 -0.74860232840E+02  0.10288588426E+04  0.10396514386E+04  0.12508388396E+03 0.  0.
          5    1    3    3  502    0  0.18949744923E+01 -0.95712393483E+02  0.47754844659E+03  0.48706718677E+03  0.41800000000E+01 0. -1.
         -5    1    3    3    0  502  0.30885555125E+02  0.20852160643E+02  0.55131039606E+03  0.55258425179E+03  0.41800000000E+01 0. -1.
        -11    1    1    2    0    0 -0.28764328481E+02  0.77240529109E+01  0.30343176185E+02  0.42517713101E+02  0.00000000000E+00 0.  1.
         11    1    1    2    0    0 -0.40162011365E+01  0.67136179929E+02  0.39538410669E+03  0.40106357146E+03  0.00000000000E+00 0. -1.
</event>
<event>
 6    1  0.6671761E-006  0.1368557E+03  0.7561462E-02  0.1217624E+00
          2   -1    0    0  501    0  0.00000000000E+00  0.00000000000E+00  0.75505636846E+03  0.75505636846E+03  0.00000000000E+00 0. -1.
         -2   -1    0    0    0  501 -0.00000000000E+00 -0.00000000000E+00 -0.26600855800E+02  0.26600855800E+02  0.00000000000E+00 0.  1.
          5    1    1    2  502    0  0.50718387935E+02 -0.91341032140E+02  0.23785765493E+03  0.25982547110E+03  0.41800000000E+01 0. -1.
         -5    1    1    2    0  502 -0.47636101420E+02  0.62549183065E+02  0.15790527975E+03  0.17644587905E+03  0.41800000000E+01 0.  1.
        -11    1    1    2    0    0 -0.16188283578E+02 -0.27885236332E+02  0.15818196744E+03  0.16143476005E+03  0.00000000000E+00 0.  1.
         11    1    1    2    0    0  0.13105997063E+02  0.56677085407E+02  0.17451061055E+03  0.18395111406E+03  0.00000000000E+00 0. -1.
</event>
<event>
 7    1  0.6671761E-006  0.1155349E+03  0.7561462E-02  0.1250650E+00
          1   -1    0    0  501    0  0.00000000000E+00  0.00000000000E+00  0.76759097036E+02  0.76759097036E+02  0.00000000000E+00 0. -1.
         -1   -1    0    0    0  501 -0.00000000000E+00 -0.00000000000E+00 -0.22143470815E+03  0.22143470815E+03  0.00000000000E+00 0.  1.
         23    2    1    2    0    0 -0.57610851220E+02 -0.62900881806E+01 -0.13231917615E+03  0.19110728552E+03  0.12512016151E+03 0.  0.
          5    1    3    3  502    0  0.15933279650E+02 -0.43897203496E+02 -0.81530351572E+02  0.94050542277E+02  0.41800000000E+01 0. -1.
         -5    1    3    3    0  502 -0.73544130870E+02  0.37607115315E+02 -0.50788824578E+02  0.97056743247E+02  0.41800000000E+01 0. -1.
        -11    1    1    2    0    0  0.44076037159E+01  0.38850892950E+02 -0.20554987167E+02  0.44173819746E+02  0.00000000000E+00 0.  1.
         11    1    1    2    0    0  0.53203247504E+02 -0.32560804769E+02  0.81985522051E+01  0.62912699914E+02  0.00000000000E+00 0. -1.
</event>
<event>
 7    1  0.6671761E-006  0.9807101E+02  0.7561462E-02  0.1284405E+00
         -2   -1    0    0    0  501 -0.00000000000E+00  0.00000000000E+00  0.15956834763E+02  0.15956834763E+02  0.00000000000E+00 0.  1.
          2   -1    0    0  501    0  0.00000000000E+00 -0.00000000000E+00 -0.87035627856E+03  0.87035627856E+03  0.00000000000E+00 0. -1.
         23    2    1    2    0    0 -0.42979948457E+02 -0.17998336987E+02 -0.47846458560E+03  0.49673298805E+03  0.12507631930E+03 0.  0.
          5    1    3    3  502    0 -0.29307162345E+01  0.31314728306E+02 -0.36699342255E+03  0.36836238394E+03  0.41800000000E+01 0.  1.
         -5    1    3    3    0  502 -0.40049232222E+02 -0.49313065292E+02 -0.11147116304E+03  0.12837060411E+03  0.41800000000E+01 0.  1.
        -11    1    1    2    0    0  0.56627292687E+02 -0.20249949329E+02 -0.25551817043E+03  0.26249999266E+03  0.00000000000E+00 0. -1.
         11    1    1    2    0    0 -0.13647344230E+02  0.38248286316E+02 -0.12041668777E+03  0.12708013261E+03  0.00000000000E+00 0.  1.
</event>
<event>
 7    1  0.6671761E-006  0.8826678E+02  0.7561462E-02  0.1307104E+00
          2   -1    0    0  501    0  0.00000000000E+00  0.00000000000E+00  0.33406016607E+03  0.33406016607E+03  0.00000000000E+00 0. -1.
         -2   -1    0    0    0  501 -0.00000000000E+00 -0.00000000000E+00 -0.40586802284E+02  0.40586802284E+02  0.00000000000E+00 0.  1.
         23    2    1    2    0    0  0.22263235805E+02  0.40124238012E+01  0.10851094610E+03  0.16714239557E+03  0.12510077441E+03 0.  0.
          5    1    3    3  502    0 -0.13022408317E+02 -0.32216552045E+02  0.11094905676E+03  0.11633853592E+03  0.41800000000E+01 0. -1.
         -5    1    3    3    0  502  0.35285644122E+02  0.36228975846E+02 -0.24381106542E+01  0.50803859652E+02  0.41800000000E+01 0. -1.
        -11    1    1    2    0    0 -0.47910963484E+01 -0.45510763371E+02  0.12029790840E+03  0.12870808425E+03  0.00000000000E+00 0. -1.
         11    1    1    2    0    0 -0.17472139457E+02  0.41498339569E+02  0.64664509286E+02  0.78796488535E+02  0.00000000000E+00 0.  1.
</event>
<event>
 7    1  0.6671761E-006  0.1093521E+03  0.7561462E-02  0.1261774E+00
         -1   -1    0    0    0  501 -0.00000000000E+00  0.00000000000E+00  0.72623492887E+02  0.72623492887E+02  0.00000000000E+00 0.  1.
          1   -1    0    0  501    0  0.00000000000E+00 -0.00000000000E+00 -0.25564576547E+03  0.25564576547E+03  0.00000000000E+00 0. -1.
         23    2    1    2    0    0  0.50724868115E+02  0.48984984741E+02 -0.51873860112E+02  0.15267872794E+03  0.12508939055E+03 0.  0.
          5    1    3    3  502    0 -0.37338693346E+02  0.56597577442E+01 -0.37526576818E+02  0.53403438524E+02  0.41800000000E+01 0. -1.
         -5    1    3    3    0  502  0.88063561461E+02  0.43325226997E+02 -0.14347283293E+02  0.99275289420E+02  0.41800000000E+01 0. -1.
        -11    1    1    2    0    0 -0.25290112181E+01 -0.30891734637E+02  0.37327247887E+01  0.31219039079E+02  0.00000000000E+00 0.  1.
         11    1    1    2    0    0 -0.48195856897E+02 -0.18093250104E+02 -0.13488113726E+03  0.14437149133E+03  0.00000000000E+00 0. -1.
</event>
<event>
 7    1  0.6671761E-006  0.1017358E+03  0.7561462E-02  0.1276688E+00
         -3   -1    0    0    0  501 -0.00000000000E+00  0.00000000000E+00  0.16300852948E+03  0.16300852948E+03  0.00000000000E+00 0.  1.
          3   -1    0    0  501    0  0.00000000000E+00 -0.00000000000E+00 -0.81800652573E+02  0.81800652573E+02  0.00000000000E+00 0. -1.
         23    2    1    2    0    0 -0.28649090527E+02  0.10148806007E+02  0.70235960372E+02  0.14662733186E+03  0.12507084259E+03 0.  0.
          5    1    3    3  502    0  0.25137197695E+02  0.37582927482E+02  0.73079326984E+02  0.86037291790E+02  0.41800000000E+01 0.  1.
         -5    1    3    3    0  502 -0.53786288222E+02 -0.27434121475E+02 -0.28433666116E+01  0.60590040069E+02  0.41800000000E+01 0.  1.
        -11    1    1    2    0    0 -0.73635867646E+01 -0.46082492842E+02  0.63809542967E+01  0.47101328371E+02  0.00000000000E+00 0.  1.
         11    1    1    2    0    0  0.36012677291E+02  0.35933686835E+02  0.45909622348E+01  0.51080521821E+02  0.00000000000E+00 0. -1.
</event>
<event>
 7    1  0.6671761E-006  0.1567643E+03  0.7561462E-02  0.1192399E+00
          2   -1    0    0  501    0  0.00000000000E+00  0.00000000000E+00  0.31967102843E+03  0.31967102843E+03  0.00000000000E+00 0. -1.
         -2   -1    0    0    0  501 -0.00000000000E+00 -0.00000000000E+00 -0.86198724476E+02  0.86198724476E+02  0.00000000000E+00 0.  1.
         23    2    1    2    0    0 -0.11936164241E+03 -0.82654362802E+00  0.77923717087E+02  0.18965203598E+03  0.12509158331E+03 0.  0.
          5    1    3    3  502    0 -0.21268758164E+02  0.52291080221E+02  0.47647062518E+02  0.73989405398E+02  0.41800000000E+01 0. -1.
         -5    1    3    3    0  502 -0.98092884242E+02 -0.53117623849E+02  0.30276654569E+02  0.11566263059E+03  0.41800000000E+01 0. -1.
        -11    1    1    2    0    0  0.65971730292E+02  0.41707280570E+02  0.11047674563E+03  0.13526595202E+03  0.00000000000E+00 0. -1.
         11    1    1    2    0    0  0.53389912113E+02 -0.40880736942E+02  0.45071841235E+02  0.80951764902E+02  0.00000000000E+00 0.  1.
</event>
<event>
 7    1  0.6671761E-006  0.9907672E+02  0.7561462E-02  0.1282250E+00
          1   -1    0    0  501    0  0.00000000000E+00  0.00000000000E+00  0.38554957447E+02  0.38554957447E+02  0.00000000000E+00 0. -1.
         -1   -1    0    0    0  501 -0.00000000000E+00 -0.00000000000E+00 -0.44321372646E+03  0.44321372646E+03  0.00000000000E+00 0.  1.
         23    2    1    2    0    0 -0.40672242448E+02 -0.41521077940E+02 -0.30944191057E+03  0.33879286403E+03  0.12509227585E+03 0.  0.
          5    1    3    3  502    0  0.11726361008E+02 -0.50222835031E+02 -0.43596110020E+02  0.67660430903E+02  0.41800000000E+01 0.  1.
         -5    1    3    3    0  502 -0.52398603456E+02  0.87017570909E+01 -0.26584580055E+03  0.27113243312E+03  0.41800000000E+01 0.  1.
        -11    1    1    2    0    0  0.41985722509E+02 -0.87119258108E+01 -0.99748909863E+01  0.44024958786E+02  0.00000000000E+00 0. -1.
         11    1    1    2    0    0 -0.13134800615E+01  0.50233003751E+02 -0.85241967454E+02  0.98950861093E+02  0.00000000000E+00 0.  1.
</event>
<event>
 7    1  0.6671761E-006  0.1000822E+03  0.7561462E-02  0.1280123E+00
          1   -1    0    0  501    0  0.00000000000E+00  0.00000000000E+00  0.61946047459E+03  0.61946047459E+03  0.00000000000E+00 0. -1.
         -1   -1    0    0    0  501 -0.00000000000E+00 -0.00000000000E+00 -0.29726423576E+02  0.29726423576E+02  0.00000000000E+00 0.  1.
         23    2    1    2    0    0  0.75112249650E+02  0.71852184890E+01  0.22217234240E+03  0.26315491963E+03  0.11914900162E+03 0.  0.
          5    1    3    3  502    0 -0.11093063564E+01  0.47750104277E+01  0.17122758286E+03  0.17134873450E+03  0.41800000000E+01 0. -1.
         -5    1    3    3    0  502  0.76221556006E+02  0.24102080613E+01  0.50944759545E+02  0.91806185129E+02  0.41800000000E+01 0.  1.
        -11    1    1    2    0    0 -0.73821476989E+02  0.30330906375E+02  0.23066070989E+03  0.24407772826E+03  0.00000000000E+00 0. -1.
         11    1    1    2    0    0 -0.12907726606E+01 -0.37516124864E+02  0.13690099873E+03  0.14195425028E+03  0.00000000000E+00 0.  1.
</event>
<event>
 7    1  0.6671761E-006  0.9936204E+02  0.7561462E-02  0.1281643E+00
         -1   -1    0    0    0  501 -0.00000000000E+00  0.00000000000E+00  0.24142883060E+03  0.24142883060E+03  0.00000000000E+00 0.  1.
          1   -1    0    0  501    0  0.00000000000E+00 -0.00000000000E+00 -0.56800411790E+02  0.56800411790E+02  0.00000000000E+00 0. -1.
         23    2    1    2    0    0  0.36828879066E+02  0.23506110009E+02  0.10812071216E+03  0.17101667340E+03  0.12509080959E+03 0.  0.
          5    1    3    3  502    0  0.11818393740E+02  0.62126789416E+02  0.12190577215E+02  0.64540645848E+02  0.41800000000E+01 0.  1.
         -5    1    3    3    0  502  0.25010485326E+02 -0.38620679407E+02  0.95930134941E+02  0.10647602756E+03  0.41800000000E+01 0.  1.
        -11    1    1    2    0    0  0.23872969180E+02  0.47256837574E+00 -0.33121910133E+01  0.24106276934E+02  0.00000000000E+00 0. -1.
         11    1    1    2    0    0 -0.60701848246E+02 -0.23978678385E+02  0.79819897669E+02  0.10310629205E+03  0.00000000000E+00 0.  1.
</event>
<event>
 7    1  0.6671761E-006  0.1699914E+03  0.7561462E-02  0.1177857E+00
          4   -1    0    0  501    0  0.00000000000E+00  0.00000000000E+00  0.58415046722E+02  0.58415046722E+02  0.00000000000E+00 0. -1.
         -4   -1    0    0    0  501 -0.00000000000E+00 -0.00000000000E+00 -0.50453135016E+03  0.50453135016E+03  0.00000000000E+00 0.  1.
         23    2    1    2    0    0 -0.13044286737E+03  0.48621443722E+01 -0.26447786623E+03  0.32037067988E+03  0.12509935534E+03 0.  0.
          5    1    3    3  502    0 -0.70573538906E+02 -0.58675146977E+02 -0.11472110946E+03  0.14697551709E+03  0.41800000000E+01 0. -1.
         -5    1    3    3    0  502 -0.59869328466E+02  0.63537291350E+02 -0.14975675677E+03  0.17339516279E+03  0.41800000000E+01 0. -1.
        -11    1    1    2    0    0  0.12474532117E+03  0.27589949751E+02 -0.14728973231E+03  0.19497914177E+03  0.00000000000E+00 0.  1.
         11    1    1    2    0    0  0.56975462039E+01 -0.32452094123E+02 -0.34348704889E+02  0.47596575226E+02  0.00000000000E+00 0. -1.
</event>
<event>
 7    1  0.6671761E-006  0.1116256E+03  0.7561462E-02  0.1257589E+00
          4   -1    0    0  501    0  0.00000000000E+00  0.00000000000E+00  0.29510131909E+02  0.29510131909E+02  0.00000000000E+00 0. -1.
         -4   -1    0    0    0  501 -0.00000000000E+00 -0.00000000000E+00 -0.51124594047E+03  0.51124594047E+03  0.00000000000E+00 0.  1.
         23    2    1    2    0    0 -0.50092725138E+02 -0.28835717000E+02 -0.26834496193E+03  0.30128648379E+03  0.12419237912E+03 0.  0.
          5    1    3    3  502    0 -0.79556938807E+02  0.71794223145E+01 -0.21984364609E+03  0.23394347980E+03  0.41800000000E+01 0. -1.
         -5    1    3    3    0  502  0.29464213669E+02 -0.36015139314E+02 -0.48501315843E+02  0.67343003983E+02  0.41800000000E+01 0.  1.
        -11    1    1    2    0    0  0.65453950778E+02  0.18371852275E+01 -0.84569244200E+02  0.10695584129E+03  0.00000000000E+00 0.  1.
         11    1    1    2    0    0 -0.15361225640E+02  0.26998531772E+02 -0.12882160243E+03  0.13251374730E+03  0.00000000000E+00 0. -1.
</event>
<event>
 7    1  0.6671761E-006  0.1150581E+03  0.7561462E-02  0.1251480E+00
         -1   -1    0    0    0  501 -0.00000000000E+00  0.00000000000E+00  0.12134078591E+03  0.12134078591E+03  0.00000000000E+00 0.  1.
          1   -1    0    0  501    0  0.00000000000E+00 -0.00000000000E+00 -0.13132750527E+03  0.13132750527E+03  0.00000000000E+00 0. -1.
         23    2    1    2    0    0  0.58298757839E+02 -0.19718674068E+02  0.14842026953E+02  0.14019938690E+03  0.12509201034E+03 0.  0.
          5    1    3    3  502    0  0.88445149910E+02 -0.20047461062E+02 -0.20995498139E+02  0.93181160004E+02  0.41800000000E+01 0.  1.
         -5    1    3    3    0  502 -0.30146392071E+02  0.32878699383E+00  0.35837525092E+02  0.47018226897E+02  0.41800000000E+01 0.  1.
        -11    1    1    2    0    0 -0.68148960138E+02 -0.17528362901E+02 -0.95061817967E+01  0.71006279767E+02  0.00000000000E+00 0.  1.
         11    1    1    2    0    0  0.98502022993E+01  0.37247036969E+02 -0.15322564520E+02  0.41462624516E+02  0.00000000000E+00 0. -1.
</event>
<event>
 7    1  0.6671761E-006  0.6701716E+02  0.7561462E-02  0.1370540E+00
          3   -1    0    0  501    0  0.00000000000E+00  0.00000000000E+00  0.63566495184E+02  0.63566495184E+02  0.00000000000E+00 0. -1.
         -3   -1    0    0    0  501 -0.00000000000E+00 -0.00000000000E+00 -0.19284567994E+03  0.19284567994E+03  0.00000000000E+00 0.  1.
         23    2    1    2    0    0 -0.28616012069E+02  0.38196097640E+01 -0.63259623446E+02  0.14308813859E+03  0.12505586705E+03 0.  0.
          5    1    3    3  502    0  0.37525241959E+02  0.40301035101E+01 -0.66671923588E+02  0.76726809612E+02  0.41800000000E+01 0.  1.
         -5    1    3    3    0  502 -0.66141254028E+02 -0.21049374614E+00  0.34123001426E+01  0.66361328982E+02  0.41800000000E+01 0.  1.
        -11    1    1    2    0    0  0.19425125107E+02  0.92214105667E+00 -0.87419331461E+02  0.89556269142E+02  0.00000000000E+00 0.  1.
         11    1    1    2    0    0  0.91908869623E+01 -0.47417508206E+01  0.21399770151E+02  0.23767767386E+02  0.00000000000E+00 0. -1.
</event>
<event>
 7    1  0.6671761E-006  0.1064748E+03  0.7561462E-02  0.1267241E+00
         -3   -1    0    0    0  501 -0.00000000000E+00  0.00000000000E+00  0.22942956472E+03  0.22942956472E+03  0.00000000000E+00 0.  1.
          3   -1    0    0  501    0  0.00000000000E+00 -0.00000000000E+00 -0.10289848979E+03  0.10289848979E+03  0.00000000000E+00 0. -1.
         23    2    1    2    0    0 -0.12660647269E+02  0.14806493290E+02  0.18341797457E+03  0.22286675718E+03  0.12509162174E+03 0.  0.
          5    1    3    3  502    0 -0.10992336344E+02  0.70120559908E+02  0.10374049643E+03  0.12576679761E+03  0.41800000000E+01 0. -1.
         -5    1    3    3    0  502 -0.16683109248E+01 -0.55314066618E+02  0.79677478134E+02  0.97099959573E+02  0.41800000000E+01 0. -1.
        -11    1    1    2    0    0 -0.34823867862E+02  0.44603560670E+01 -0.32163460667E+01  0.35255374500E+02  0.00000000000E+00 0.  1.
         11    1    1    2    0    0  0.47484515131E+02 -0.19266849357E+02 -0.53670553570E+02  0.74205922822E+02  0.00000000000E+00 0. -1.
</event>
<event>
 7    1  0.6671761E-006  0.1186342E+03  0.7561462E-02  0.1245367E+00
          1   -1    0    0  501    0  0.00000000000E+00  0.00000000000E+00  0.15063336013E+03  0.15063336013E+03  0.00000000000E+00 0. -1.
         -1   -1    0    0    0  501 -0.00000000000E+00 -0.00000000000E+00 -0.19306220767E+03  0.19306220767E+03  0.00000000000E+00 0.  1.
         23    2    1    2    0    0 -0.41042442667E+02  0.10681588375E+03 -0.87801422484E+02  0.19091969295E+03  0.12508846567E+03 0.  0.
          5    1    3    3  502    0 -0.13408408591E+02  0.30746546928E+01 -0.82077599046E+02  0.83327327976E+02  0.41800000000E+01 0.  1.
         -5    1    3    3    0  502 -0.27634034076E+02  0.10374122906E+03 -0.57238234380E+01  0.10759236497E+03  0.41800000000E+01 0.  1.
        -11    1    1    2    0    0  0.64342405688E+01 -0.36692375019E+02 -0.27172204084E+02  0.46109202021E+02  0.00000000000E+00 0.  1.
         11    1    1    2    0    0  0.34608202098E+02 -0.70123508731E+02  0.72544779033E+02  0.10666667284E+03  0.00000000000E+00 0. -1.
</event>
<event>
 6    1  0.6671761E-006  0.1058453E+03  0.7561462E-02  0.1268463E+00
         -1   -1    0    0    0  501 -0.00000000000E+00  0.00000000000E+00  0.19341688038E+03  0.19341688038E+03  0.00000000000E+00 0.  1.
          1   -1    0    0  501    0  0.00000000000E+00 -0.00000000000E+00 -0.94697799247E+02  0.94697799247E+02  0.00000000000E+00 0. -1.
          5    1    1    2  502    0 -0.64998972290E+02  0.60948204389E+01  0.35219922186E+02  0.74296221666E+02  0.41800000000E+01 0. -1.
         -5    1    1    2    0  502  0.56599610910E+02 -0.48018813751E+02  0.83360472405E+02  0.11169495597E+03  0.41800000000E+01 0.  1.
        -11    1    1    2    0    0 -0.77721355117E+01 -0.12740495140E+02  0.25315120114E+02  0.29386759148E+02  0.00000000000E+00 0.  1.
         11    1    1    2    0    0  0.16171496892E+02  0.54664488451E+02 -0.45176433573E+02  0.72736742845E+02  0.00000000000E+00 0. -1.
</event>
<event>
 7    1  0.6671761E-006  0.1123596E+03  0.7561462E-02  0.1256262E+00
         -2   -1    0    0    0  501 -0.00000000000E+00  0.00000000000E+00  0.95248050193E+02  0.95248050193E+02  0.00000000000E+00 0.  1.
          2   -1    0    0  501    0  0.00000000000E+00 -0.00000000000E+00 -0.15068578613E+03  0.15068578613E+03  0.00000000000E+00 0. -1.
         23    2    1    2    0    0 -0.36404120418E+02 -0.25549501284E+02 -0.31600797166E+01  0.13279432716E+03  0.12508521185E+03 0.  0.
          5    1    3    3  502    0  0.79521280809E+01  0.43606050345E+02 -0.20026546483E+02  0.48818633039E+02  0.41800000000E+01 0. -1.
         -5    1    3    3    0  502 -0.44356248499E+02 -0.69155551629E+02  0.16866466766E+02  0.83975694122E+02  0.41800000000E+01 0. -1.
        -11    1    1    2    0    0  0.57219366415E+02 -0.86773101648E+01 -0.18553827770E+02  0.60774963016E+02  0.00000000000E+00 0. -1.
         11    1    1    2    0    0 -0.20815245997E+02  0.34226811449E+02 -0.33723828453E+02  0.52364546149E+02  0.00000000000E+00 0.  1.
</event>
<event>
 7    1  0.6671761E-006  0.1435813E+03  0.7561462E-02  0.1208590E+00
         -1   -1    0    0    0  501 -0.00000000000E+00  0.00000000000E+00  0.22134370957E+03  0.22134370957E+03  0.00000000000E+00 0.  1.
          1   -1    0    0  501    0  0.00000000000E+00 -0.00000000000E+00 -0.12483573145E+03  0.12483573145E+03  0.00000000000E+00 0. -1.
         23    2    1    2    0    0 -0.10930750879E+03  0.35094609981E+02  0.10404305770E+03  0.19912656406E+03  0.12508664010E+03 0.  0.
          5    1    3    3  502    0 -0.34721940987E+02  0.71368390208E+02  0.79778243683E+02  0.11261039416E+03  0.41800000000E+01 0. -1.
         -5    1    3    3    0  502 -0.74585567800E+02 -0.36273780227E+02  0.24264814018E+02  0.86516169907E+02  0.41800000000E+01 0. -1.
        -11    1    1    2    0    0  0.44757833744E+02 -0.39836951084E+02 -0.42526370816E+02  0.73476108824E+02  0.00000000000E+00 0. -1.
         11    1    1    2    0    0  0.64549675043E+02  0.47423411036E+01  0.34991291235E+02  0.73576768138E+02  0.00000000000E+00 0.  1.
</event>
<event>
 7    1  0.6671761E-006  0.1800113E+03  0.7561462E-02  0.1167792E+00
         -1   -1    0    0    0  501 -0.00000000000E+00  0.00000000000E+00  0.61093681913E+02  0.61093681913E+02  0.00000000000E+00 0.  1.
          1   -1    0    0  501    0  0.00000000000E+00 -0.00000000000E+00 -0.75269887317E+03  0.75269887317E+03  0.00000000000E+00 0. -1.
         23    2    1    2    0    0 -0.71553558714E+02  0.14737154183E+03 -0.19831973089E+03  0.28603386486E+03  0.12508546312E+03 0.  0.
          5    1    3    3  502    0 -0.62525138355E+02  0.65131196101E+02 -0.24751267634E+02  0.93709995632E+02  0.41800000000E+01 0.  1.
         -5    1    3    3    0  502 -0.90284203589E+01  0.82240345726E+02 -0.17356846325E+03  0.19232386923E+03  0.41800000000E+01 0.  1.
        -11    1    1    2    0    0  0.14035643011E+02 -0.12387612375E+03 -0.30536789476E+03  0.32983608726E+03  0.00000000000E+00 0.  1.
         11    1    1    2    0    0  0.57517915704E+02 -0.23495418073E+02 -0.18791756561E+03  0.19792260296E+03  0.00000000000E+00 0. -1.
</event>
<event>
 7    1  0.6671761E-006  0.1047822E+03  0.7561462E-02  0.1270549E+00
         -3   -1    0    0    0  501 -0.00000000000E+00  0.00000000000E+00  0.89062396685E+02  0.89062396685E+02  0.00000000000E+00 0.  1.
          3   -1    0    0  501    0  0.00000000000E+00 -0.00000000000E+00 -0.15963626558E+03  0.15963626558E+03  0.00000000000E+00 0. -1.
         23    2    1    2    0    0 -0.34470989793E+02  0.12252994214E+02 -0.59152317898E+00  0.13032981861E+03  0.12508847555E+03 0.  0.
          5    1    3    3  502    0 -0.80368292625E+02 -0.94639068830E+00  0.10383217858E+02  0.81149502326E+02  0.41800000000E+01 0. -1.
         -5    1    3    3    0  502  0.45897302832E+02  0.13199384902E+02 -0.10974741037E+02  0.49180316285E+02  0.41800000000E+01 0. -1.
        -11    1    1    2    0    0  0.39203592420E+02  0.23080184315E+02 -0.69073038101E+02  0.82708531356E+02  0.00000000000E+00 0. -1.
         11    1    1    2    0    0 -0.47326026270E+01 -0.35333178529E+02 -0.90930761030E+00  0.35660312294E+02  0.00000000000E+00 0.  1.
</event>
<event>
 7    1  0.6671761E-006  0.8649745E+02  0.7561462E-02  0.1311562E+00
         -1   -1    0    0    0  501 -0.00000000000E+00  0.00000000000E+00  0.55937255013E+03  0.55937255013E+03  0.00000000000E+00 0.  1.
          1   -1    0    0  501    0  0.00000000000E+00 -0.00000000000E+00 -0.25662195450E+02  0.25662195450E+02  0.00000000000E+00 0. -1.
         23    2    1    2    0    0 -0.24265321674E+01 -0.46365210327E+02  0.28624816365E+03  0.31581868065E+03  0.12509119501E+03 0.  0.
          5    1    3    3  502    0 -0.44918173813E+02 -0.29180417613E+02  0.25400008821E+03  0.25962021555E+03  0.41800000000E+01 0.  1.
         -5    1    3    3    0  502  0.42491641646E+02 -0.17184792714E+02  0.32248075439E+02  0.56198465103E+02  0.41800000000E+01 0.  1.
        -11    1    1    2    0    0  0.13518541956E+02  0.56574471165E+02  0.24739458331E+03  0.25414071223E+03  0.00000000000E+00 0.  1.
         11    1    1    2    0    0 -0.11092009789E+02 -0.10209260838E+02  0.67607721340E-01  0.15075352693E+02  0.00000000000E+00 0. -1.
</event>
<event>
 6    1  0.6671761E-006  0.1141091E+03  0.7561462E-02  0.1253144E+00
         -1   -1    0    0    0  501 -0.00000000000E+00  0.00000000000E+00  0.45588607651E+03  0.45588607651E+03  0.00000000000E+00 0.  1.
          1   -1    0    0  501    0  0.00000000000E+00 -0.00000000000E+00 -0.34374245404E+02  0.34374245404E+02  0.00000000000E+00 0. -1.
          5    1    1    2  502    0 -0.15453591140E+02 -0.50565896971E+02  0.18970274935E+03  0.19697799097E+03  0.41800000000E+01 0. -1.
         -5    1    1    2    0  502 -0.10071890470E+01  0.78009279632E+02  0.13566933282E+03  0.15655702605E+03  0.41800000000E+01 0.  1.
        -11    1    1    2    0    0  0.20254677505E+02  0.31791044477E+02  0.33495134274E+02  0.50426644641E+02  0.00000000000E+00 0.  1.
         11    1    1    2    0    0 -0.37938973178E+01 -0.59234427138E+02  0.62644614674E+02  0.86298660261E+02  0.00000000000E+00 0. -1.
</event>
<event>
 6    1  0.6671761E-006  0.1329818E+03  0.7561462E-02  0.1223097E+00
         -1   -1    0    0    0  501 -0.00000000000E+00  0.00000000000E+00  0.10859277886E+04  0.10859277886E+04  0.00000000000E+00 0.  1.
          1   -1    0    0  501    0  0.00000000000E+00 -0.00000000000E+00 -0.33048046449E+02  0.33048046449E+02  0.00000000000E+00 0. -1.
          5    1    1    2  502    0  0.31094254773E+02 -0.64286659079E+02  0.44664549926E+03  0.45233759697E+03  0.41800000000E+01 0. -1.
         -5    1    1    2    0  502 -0.13319379237E+02  0.10358803338E+03  0.53794245960E+03  0.54800314667E+03  0.41800000000E+01 0.  1.
        -11    1    1    2    0    0 -0.30711501861E+02  0.14932792815E+02  0.48817404799E+02  0.59576200442E+02  0.00000000000E+00 0.  1.
         11    1    1    2    0    0  0.12936626324E+02 -0.54234167112E+02  0.19474378462E+02  0.59058890943E+02  0.00000000000E+00 0. -1.
</event>
<event>
 7    1  0.6671761E-006  0.1521262E+03  0.7561462E-02  0.1197884E+00
         -1   -1    0    0    0  501 -0.00000000000E+00  0.00000000000E+00  0.22807714190E+03  0.22807714190E+03  0.00000000000E+00 0.  1.
          1   -1    0    0  501    0  0.00000000000E+00 -0.00000000000E+00 -0.16255336212E+03  0.16255336212E+03  0.00000000000E+00 0. -1.
         23    2    1    2    0    0  0.60329437647E+02 -0.13490123809E+03  0.94935708510E+02  0.21563255616E+03  0.12508647185E+03 0.  0.
          5    1    3    3  502    0  0.67282289751E+02 -0.11618582554E+03  0.17387938289E+02  0.13544690977E+03  0.41800000000E+01 0.  1.
         -5    1    3    3    0  502 -0.69528521037E+01 -0.18715412559E+02  0.77547770221E+02  0.80185646383E+02  0.41800000000E+01 0.  1.
        -11    1    1    2    0    0 -0.11152756637E+02  0.51623677420E+02  0.30735281810E+02  0.61106837579E+02  0.00000000000E+00 0.  1.
         11    1    1    2    0    0 -0.49176681010E+02  0.83277560675E+02 -0.60147210534E+02  0.11389111029E+03  0.00000000000E+00 0. -1.
</event>
<event>
 6    1  0.6671761E-006  0.1044728E+03  0.7561462E-02  0.1271162E+00
          2   -1    0    0  501    0  0.00000000000E+00  0.00000000000E+00  0.20515255162E+03  0.20515255162E+03  0.00000000000E+00 0. -1.
         -2   -1    0    0    0  501 -0.00000000000E+00 -0.00000000000E+00 -0.13882105240E+03  0.13882105240E+03  0.00000000000E+00 0.  1.
          5    1    1    2  502    0  0.17702350303E+02 -0.56514218324E+02 -0.61351798041E+01  0.59685365964E+02  0.41800000000E+01 0. -1.
         -5    1    1    2    0  502 -0.10812360137E+02  0.56857214072E+02 -0.84538446972E+02  0.10253717053E+03  0.41800000000E+01 0.  1.
        -11    1    1    2    0    0 -0.46610028737E+02 -0.15374637928E+02  0.85397199428E+02  0.98496476792E+02  0.00000000000E+00 0. -1.
         11    1    1    2    0    0  0.39720038572E+02  0.15031642180E+02  0.71607926571E+02  0.83254590735E+02  0.00000000000E+00 0.  1.
</event>
<event>
 7    1  0.6671761E-006  0.9859538E+02  0.7561462E-02  0.1283278E+00
          1   -1    0    0  501    0  0.00000000000E+00  0.00000000000E+00  0.94632945606E+03  0.94632945606E+03  0.00000000000E+00 0. -1.
         -1   -1    0    0    0  501 -0.00000000000E+00 -0.00000000000E+00 -0.20228595094E+02  0.20228595094E+02  0.00000000000E+00 0.  1.
         23    2    1    2    0    0 -0.15561468139E+02  0.64248977191E+02  0.28891212441E+03  0.31923399113E+03  0.11861717879E+03 0.  0.
          5    1    3    3  502    0  0.25959191125E+01  0.64271032639E+02  0.29312718288E+03  0.30013084176E+03  0.41800000000E+01 0. -1.
         -5    1    3    3    0  502 -0.18157387252E+02 -0.22055448185E-01 -0.42150584667E+01  0.19103149377E+02  0.41800000000E+01 0.  1.
        -11    1    1    2    0    0 -0.39056201295E+02 -0.20432274921E+02  0.24464541423E+03  0.24858447944E+03  0.00000000000E+00 0.  1.
         11    1    1    2    0    0  0.54617669434E+02 -0.43816702270E+02  0.39254332233E+03  0.39873958058E+03  0.00000000000E+00 0. -1.
</event>
<event>
 7    1  0.6671761E-006  0.1074605E+03  0.7561462E-02  0.1265346E+00
         -2   -1    0    0    0  501 -0.00000000000E+00  0.00000000000E+00  0.18877207184E+03  0.18877207184E+03  0.00000000000E+00 0.  1.
          2   -1    0    0  501    0  0.00000000000E+00 -0.00000000000E+00 -0.10220231728E+03  0.10220231728E+03  0.00000000000E+00 0. -1.
         23    2    1    2    0    0  0.11602234486E+02 -0.82603679200E+02  0.72793426247E+02  0.16704663676E+03  0.12509083214E+03 0.  0.
          5    1    3    3  502    0 -0.22144029661E+02 -0.90321710217E+02  0.79586768253E+01  0.93430093241E+02  0.41800000000E+01 0. -1.
         -5    1    3    3    0  502  0.33746264147E+02  0.77180310167E+01  0.64834749421E+02  0.73616543516E+02  0.41800000000E+01 0. -1.
        -11    1    1    2    0    0 -0.13901441164E+02  0.20232499380E+02 -0.36360007421E+02  0.43870881428E+02  0.00000000000E+00 0. -1.
         11    1    1    2    0    0  0.22992066781E+01  0.62371179821E+02  0.50136335733E+02  0.80056870938E+02  0.00000000000E+00 0.  1.
</event>
<event>
 7    1  0.6671761E-006  0.1209958E+03  0.7561462E-02  0.1241463E+00
         -2   -1    0    0    0  501 -0.00000000000E+00  0.00000000000E+00  0.56772560642E+03  0.56772560642E+03  0.00000000000E+00 0.  1.
          2   -1    0    0  501    0  0.00000000000E+00 -0.00000000000E+00 -0.28661687928E+02  0.28661687928E+02  0.00000000000E+00 0. -1.
         23    2    1    2    0    0  0.55256857033E+02 -0.13753278167E+02  0.38633014523E+03  0.41004996063E+03  0.12509003233E+03 0.  0.
          5    1    3    3  502    0 -0.11726429298E+02 -0.56499926488E+02  0.15966893484E+03  0.16982753602E+03  0.41800000000E+01 0.  1.
         -5    1    3    3    0  502  0.66983286331E+02  0.42746648320E+02  0.22666121039E+03  0.24022242461E+03  0.41800000000E+01 0.  1.
        -11    1    1    2    0    0 -0.26089404533E+02 -0.37447540571E+02  0.85630849279E+02  0.97034105716E+02  0.00000000000E+00 0.  1.
         11    1    1    2    0    0 -0.29167452500E+02  0.51200818739E+02  0.67102923986E+02  0.89303228007E+02  0.00000000000E+00 0. -1.
</event>
<event>
 7    1  0.6671761E-006  0.1168917E+03  0.7561462E-02  0.1248315E+00
         -2   -1    0    0    0  501 -0.00000000000E+00  0.00000000000E+00  0.15972991322E+03  0.15972991322E+03  0.00000000000E+00 0.  1.
          2   -1    0    0  501    0  0.00000000000E+00 -0.00000000000E+00 -0.13896438641E+03  0.13896438641E+03  0.00000000000E+00 0. -1.
         23    2    1    2    0    0  0.49192684683E+02 -0.65321301762E+02  0.72144283706E+02  0.16595032390E+03  0.12509164496E+03 0.  0.
          5    1    3    3  502    0 -0.20697938313E+02 -0.29027066180E+02  0.79017108846E+02  0.86787966400E+02  0.41800000000E+01 0.  1.
         -5    1    3    3    0  502  0.69890622995E+02 -0.36294235582E+02 -0.68728251397E+01  0.79162357497E+02  0.41800000000E+01 0.  1.
        -11    1    1    2    0    0  0.24897845679E+02  0.11361250401E+02  0.59933777275E+00  0.27374074156E+02  0.00000000000E+00 0.  1.
         11    1    1    2    0    0 -0.74090530361E+02  0.53960051361E+02 -0.51978094670E+02  0.10536990157E+03  0.00000000000E+00 0. -1.
</event>
<event>
 7    1  0.6671761E-006  0.1002572E+03  0.7561462E-02  0.1279756E+00
         -1   -1    0    0    0  501 -0.00000000000E+00  0.00000000000E+00  0.65902116194E+02  0.65902116194E+02  0.00000000000E+00 0.  1.
          1   -1    0    0  501    0  0.00000000000E+00 -0.00000000000E+00 -0.27201760847E+03  0.27201760847E+03  0.00000000000E+00 0. -1.
         23    2    1    2    0    0 -0.23253767070E+02  0.66747678101E+00 -0.20070302628E+02  0.12880767686E+03  0.12508963731E+03 0.  0.
          5    1    3    3  502    0 -0.67248692696E+02  0.12387857327E+02 -0.39556257341E+02  0.79107620197E+02  0.41800000000E+01 0. -1.
         -5    1    3    3    0  502  0.43994925626E+02 -0.11720380546E+02  0.19485954713E+02  0.49700056660E+02  0.41800000000E+01 0. -1.
        -11    1    1    2    0    0  0.25090334243E+02 -0.39833451803E+02 -0.55352303657E+02  0.72664339776E+02  0.00000000000E+00 0.  1.
         11    1    1    2    0    0 -0.18365671733E+01  0.39165975022E+02 -0.13069288599E+03  0.13644770803E+03  0.00000000000E+00 0. -1.
</event>
<event>
 7    1  0.6671761E-006  0.9293439E+02  0.7561462E-02  0.1295897E+00
          1   -1    0    0  501    0  0.00000000000E+00  0.00000000000E+00  0.11560342628E+03  0.11560342628E+03  0.00000000000E+00 0.  1.
         -1   -1    0    0    0  501 -0.00000000000E+00 -0.00000000000E+00 -0.12909425428E+03  0.12909425428E+03  0.00000000000E+00 0. -1.
         23    2    1    2    0    0  0.12591608302E+02  0.10663106357E+02 -0.60923521912E+02  0.14010369866E+03  0.12508045579E+03 0.  0.
          5    1    3    3  502    0 -0.40211692456E+02  0.15291439048E+02 -0.73681758686E+02  0.85424131727E+02  0.41800000000E+01 0.  1.
         -5    1    3    3    0  502  0.52803300758E+02 -0.46283326907E+01  0.12758236774E+02  0.54679566933E+02  0.41800000000E+01 0.  1.
        -11    1    1    2    0    0 -0.48191631020E+02 -0.20756585751E+02  0.13021710782E+02  0.54063241709E+02  0.00000000000E+00 0.  1.
         11    1    1    2    0    0  0.35600022718E+02  0.10093479394E+02  0.34410983127E+02  0.50530740184E+02  0.00000000000E+00 0. -1.
</event>
<event>
 7    1  0.6671761E-006  0.7390258E+02  0.7561462E-02  0.1347303E+00
          2   -1    0    0  501    0  0.00000000000E+00  0.00000000000E+00  0.77966736777E+02  0.77966736777E+02  0.00000000000E+00 0. -1.
         -2   -1    0    0    0  501 -0.00000000000E+00 -0.00000000000E+00 -0.16103033347E+03  0.16103033347E+03  0.00000000000E+00 0.  1.
         23    2    1    2    0    0  0.19430799012E+02 -0.67791141776E+01 -0.61475286612E+02  0.14089010979E+03  0.12508916753E+03 0.  0.
          5    1    3    3  502    0  0.60157221492E+02 -0.64154328055E+00 -0.75998804517E+02  0.97018521755E+02  0.41800000000E+01 0.  1.
         -5    1    3    3    0  502 -0.40726422479E+02 -0.61375708970E+01  0.14523517905E+02  0.43871588036E+02  0.41800000000E+01 0.  1.
        -11    1    1    2    0    0  0.71606133439E+01  0.16342797589E+02 -0.52959660127E+02  0.55884586580E+02  0.00000000000E+00 0.  1.
         11    1    1    2    0    0 -0.26591412356E+02 -0.95636834110E+01  0.31371350050E+02  0.42222373873E+02  0.00000000000E+00 0. -1.
</event>
<event>
 6    1  0.6671761E-006  0.3725393E+03  0.7561462E-02  0.1053726E+00
          2   -1    0    0  501    0  0.00000000000E+00  0.00000000000E+00  0.71405767706E+03  0.71405767706E+03  0.00000000000E+00 0. -1.
         -2   -1    0    0    0  501 -0.00000000000E+00 -0.00000000000E+00 -0.21381439160E+03  0.21381439160E+03  0.00000000000E+00 0.  1.
          5    1    1    2  502    0 -0.14106741561E+03 -0.19771941766E+03  0.45565072339E+02  0.24715710001E+03  0.41800000000E+01 0. -1.
         -5    1    1    2    0  502 -0.47755147247E+02 -0.11823907514E+03  0.12637757455E+03  0.17958228401E+03  0.41800000000E+01 0.  1.
        -11    1    1    2    0    0  0.17764666330E+03  0.24438393548E+03  0.29171876556E+03  0.41997819358E+03  0.00000000000E+00 0. -1.
         11    1    1    2    0    0  0.11175899561E+02  0.71574557329E+02  0.36581873004E+02  0.81154491067E+02  0.00000000000E+00 0.  1.
</event>
<event>
 7    1  0.6671761E-006  0.1280852E+03  0.7561462E-02  0.1230325E+00
         -3   -1    0    0    0  501 -0.00000000000E+00  0.00000000000E+00  0.46163054328E+02  0.46163054328E+02  0.00000000000E+00 0.  1.
          3   -1    0    0  501    0  0.00000000000E+00 -0.00000000000E+00 -0.54406194466E+03  0.54406194466E+03  0.00000000000E+00 0. -1.
         23    2    1    2    0    0  0.12647927156E+02  0.76536919489E+02 -0.10843692931E+03  0.18282014145E+03  0.12508703520E+03 0.  0.
          5    1    3    3  502    0  0.52657952379E+02 -0.79592967761E+01 -0.35026688189E+02  0.63879195670E+02  0.41800000000E+01 0. -1.
         -5    1    3    3    0  502 -0.40010025223E+02  0.84496216265E+02 -0.73410241117E+02  0.11894094578E+03  0.41800000000E+01 0. -1.
        -11    1    1    2    0    0 -0.32720468176E+02 -0.29062685797E+01 -0.52669208131E+02  0.62073512224E+02  0.00000000000E+00 0.  1.
         11    1    1    2    0    0  0.20072541019E+02 -0.73630650909E+02 -0.33679275290E+03  0.34533134532E+03  0.00000000000E+00 0. -1.
</event>
<event>
 6    1  0.6671761E-006  0.1448677E+03  0.7561462E-02  0.1206925E+00
          2   -1    0    0  501    0  0.00000000000E+00  0.00000000000E+00  0.10895246664E+04  0.10895246664E+04  0.00000000000E+00 0. -1.
         -2   -1    0    0    0  501 -0.00000000000E+00 -0.00000000000E+00 -0.21786177485E+02  0.21786177485E+02  0.00000000000E+00 0.  1.
          5    1    1    2  502    0  0.21777059001E+02  0.64218779561E+02  0.35717836314E+03  0.36358238054E+03  0.41800000000E+01 0. -1.
         -5    1    1    2    0  502 -0.93439593172E+02  0.37331120019E+01  0.29282941807E+03  0.30742712012E+03  0.41800000000E+01 0.  1.
        -11    1    1    2    0    0  0.75985584889E+02 -0.83001504165E+02  0.40431207302E+03  0.41968001048E+03  0.00000000000E+00 0. -1.
         11    1    1    2    0    0 -0.43230507176E+01  0.15049612602E+02  0.13418634659E+02  0.20621332719E+02  0.00000000000E+00 0.  1.
</event>
<event>
 7    1  0.6671761E-006  0.1427629E+03  0.7561462E-02  0.1209659E+00
          1   -1    0    0  501    0  0.00000000000E+00  0.00000000000E+00  0.13282179159E+03  0.13282179159E+03  0.00000000000E+00 0. -1.
         -1   -1    0    0    0  501 -0.00000000000E+00 -0.00000000000E+00 -0.29366976701E+03  0.29366976701E+03  0.00000000000E+00 0.  1.
         23    2    1    2    0    0 -0.11415040366E+03 -0.30698628019E+01 -0.21252254609E+03  0.27175979877E+03  0.12509123437E+03 0.  0.
          5    1    3    3  502    0 -0.36652718418E+02 -0.61839651193E+02 -0.92188011627E+02  0.11697720340E+03  0.41800000000E+01 0. -1.
         -5    1    3    3    0  502 -0.77497685240E+02  0.58769788391E+02 -0.12033453446E+03  0.15478259537E+03  0.41800000000E+01 0. -1.
        -11    1    1    2    0    0  0.32186077287E+02  0.10528893738E+02 -0.25120947734E+02  0.42164714982E+02  0.00000000000E+00 0.  1.
         11    1    1    2    0    0  0.81964326371E+02 -0.74590309358E+01  0.76795518402E+02  0.11256704485E+03  0.00000000000E+00 0. -1.
</event>
<event>
 6    1  0.6671761E-006  0.1156760E+03  0.7561462E-02  0.1250406E+00
         -1   -1    0    0    0  501 -0.00000000000E+00  0.00000000000E+00  0.22749893063E+03  0.22749893063E+03  0.00000000000E+00 0.  1.
          1   -1    0    0  501    0  0.00000000000E+00 -0.00000000000E+00 -0.45708172900E+03  0.45708172900E+03  0.00000000000E+00 0. -1.
          5    1    1    2  502    0 -0.39720074126E+02  0.43554752873E+02  0.35198899491E+02  0.68783251680E+02  0.41800000000E+01 0. -1.
         -5    1    1    2    0  502  0.45554961902E+02 -0.63776027346E+02  0.16137156373E+03  0.17944606487E+03  0.41800000000E+01 0.  1.
        -11    1    1    2    0    0  0.38387789056E+02 -0.10651279295E+02 -0.17714732015E+03  0.18157159782E+03  0.00000000000E+00 0. -1.
         11    1    1    2    0    0 -0.44222676833E+02  0.30872553769E+02 -0.24900594143E+03  0.25477974526E+03  0.00000000000E+00 0.  1.
</event>
<event>
 7    1  0.6671761E-006  0.1299924E+03  0.7561462E-02  0.1227467E+00
          2   -1    0    0  501    0  0.00000000000E+00  0.00000000000E+00  0.39580890254E+03  0.39580890254E+03  0.00000000000E+00 0.  1.
         -2   -1    0    0    0  501 -0.00000000000E+00 -0.00000000000E+00 -0.48140958914E+02  0.48140958914E+02  0.00000000000E+00 0. -1.
         23    2    1    2    0    0 -0.60906383683E+02  0.55459876399E+02  0.15854527421E+03  0.21810526687E+03  0.12509163840E+03 0.  0.
          5    1    3    3  502    0  0.16780337881E+01  0.78874102714E+02  0.61084626639E+02  0.99863626451E+02  0.41800000000E+01 0. -1.
         -5    1    3    3    0  502 -0.62584417471E+02 -0.23414226315E+02  0.97460647567E+02  0.11824164042E+03  0.41800000000E+01 0. -1.
        -11    1    1    2    0    0  0.54288566195E+02  0.37821318320E+01  0.47676588381E+02  0.72350604837E+02  0.00000000000E+00 0. -1.
         11    1    1    2    0    0  0.66178174885E+01 -0.59242008231E+02  0.14144608104E+03  0.15349398974E+03  0.00000000000E+00 0.  1.
</event>
<event>
 7    1  0.6671761E-006  0.1387640E+03  0.7561462E-02  0.1215002E+00
          2   -1    0    0  501    0  0.00000000000E+00  0.00000000000E+00  0.65505560683E+03  0.65505560683E+03  0.00000000000E+00 0. -1.
         -2   -1    0    0    0  501 -0.00000000000E+00 -0.00000000000E+00 -0.36610265679E+02  0.36610265679E+02  0.00000000000E+00 0.  1.
         23    2    1    2    0    0 -0.87393995390E+02  0.59928539160E+02  0.26526036719E+03  0.31183256327E+03  0.12508934760E+03 0.  0.
          5    1    3    3  502    0 -0.65173340930E+02  0.92496158079E+02  0.13781951373E+03  0.17836702159E+03  0.41800000000E+01 0. -1.
         -5    1    3    3    0  502 -0.22220654460E+02 -0.32567618918E+02  0.12744085346E+03  0.13346554168E+03  0.41800000000E+01 0. -1.
        -11    1    1    2    0    0  0.16748045229E+02 -0.50714909848E+02  0.71304776081E+02  0.89089113767E+02  0.00000000000E+00 0.  1.
         11    1    1    2    0    0  0.70645950161E+02 -0.92136293127E+01  0.28188019789E+03  0.29074419547E+03  0.00000000000E+00 0. -1.
</event>
<event>
 7    1  0.6671761E-006  0.1224994E+03  0.7561462E-02  0.1239030E+00
         -2   -1    0    0    0  501 -0.00000000000E+00  0.00000000000E+00  0.67968623106E+02  0.67968623106E+02  0.00000000000E+00 0.  1.
          2   -1    0    0  501    0  0.00000000000E+00 -0.00000000000E+00 -0.30958925544E+03  0.30958925544E+03  0.00000000000E+00 0. -1.
         23    2    1    2    0    0 -0.53761580828E+02 -0.32144271470E+02 -0.35402717161E+02  0.14430460512E+03  0.12508758897E+03 0.  0.
          5    1    3    3  502    0 -0.10496272925E+02  0.45745117506E+02 -0.27976048959E+02  0.54798898131E+02  0.41800000000E+01 0.  1.
         -5    1    3    3    0  502 -0.43265307903E+02 -0.77889388976E+02 -0.74266682026E+01  0.89505706989E+02  0.41800000000E+01 0.  1.
        -11    1    1    2    0    0 -0.21703014733E+02  0.24655363111E+02 -0.70759152051E+02  0.78011315702E+02  0.00000000000E+00 0.  1.
         11    1    1    2    0    0  0.75464595561E+02  0.74889083587E+01 -0.13545876312E+03  0.15524195773E+03  0.00000000000E+00 0. -1.
</event>
<event>
 7    1  0.6671761E-006  0.1450734E+03  0.7561462E-02  0.1206661E+00
         -2   -1    0    0    0  501 -0.00000000000E+00  0.00000000000E+00  0.23382922974E+02  0.23382922974E+02  0.00000000000E+00 0.  1.
          2   -1    0    0  501    0  0.00000000000E+00 -0.00000000000E+00 -0.11144735730E+04  0.11144735730E+04  0.00000000000E+00 0. -1.
         23    2    1    2    0    0 -0.11018900950E+03  0.20527236501E+02 -0.44957395438E+03  0.47992455876E+03  0.12509139217E+03 0.  0.
          5    1    3    3  502    0 -0.29077551044E+01  0.36499710994E+02 -0.33090992546E+02  0.49529487480E+02  0.41800000000E+01 0.  1.
         -5    1    3    3    0  502 -0.10728125439E+03 -0.15972474493E+02 -0.41648296184E+03  0.43039507128E+03  0.41800000000E+01 0.  1.
        -11    1    1    2    0    0  0.48132688848E+02 -0.55542097539E+02 -0.36944888951E+03  0.37668841540E+03  0.00000000000E+00 0.  1.
         11    1    1    2    0    0  0.62056320648E+02  0.35014861038E+02 -0.27206780611E+03  0.28124352178E+03  0.00000000000E+00 0. -1.
</event>
<event>
 6    1  0.6671761E-006  0.1538196E+03  0.7561462E-02  0.1195857E+00
          2   -1    0    0  501    0  0.00000000000E+00  0.00000000000E+00  0.16797895113E+04  0.16797895113E+04  0.00000000000E+00 0. -1.
         -2   -1    0    0    0  501 -0.00000000000E+00 -0.00000000000E+00 -0.18696063104E+02  0.18696063104E+02  0.00000000000E+00 0.  1.
          5    1    1    2  502    0 -0.67443009097E+02  0.33701859888E+02  0.79717957660E+03  0.80074785331E+03  0.41800000000E+01 0. -1.
         -5    1    1    2    0  502  0.17685581850E+02  0.77322763134E+02  0.17729798741E+03  0.19427722008E+03  0.41800000000E+01 0.  1.
        -11    1    1    2    0    0  0.76612234243E+02 -0.70692002197E+02  0.48943050666E+03  0.50040884730E+03  0.00000000000E+00 0.  1.
         11    1    1    2    0    0 -0.26854806996E+02 -0.40332620825E+02  0.19718537749E+03  0.20305165367E+03  0.00000000000E+00 0. -1.
</event>
<event>
 7    1  0.6671761E-006  0.1090126E+03  0.7561462E-02  0.1262409E+00
         -1   -1    0    0    0  501 -0.00000000000E+00  0.00000000000E+00  0.12151928381E+03  0.12151928381E+03  0.00000000000E+00 0.  1.
          1   -1    0    0  501    0  0.00000000000E+00 -0.00000000000E+00 -0.13481701621E+03  0.13481701621E+03  0.00000000000E+00 0. -1.
         23    2    1    2    0    0 -0.14771383512E+02  0.44550870536E+02  0.41795976311E+02  0.13998809900E+03  0.12508713119E+03 0.  0.
          5    1    3    3  502    0  0.46583424271E+02  0.52671537455E+02  0.31277287997E+02  0.77071703102E+02  0.41800000000E+01 0.  1.
         -5    1    3    3    0  502 -0.61354807783E+02 -0.81206669189E+01  0.10518688314E+02  0.62916395901E+02  0.41800000000E+01 0.  1.
        -11    1    1    2    0    0 -0.26543360688E+02 -0.25924615055E+01 -0.50716137551E+02  0.57300937701E+02  0.00000000000E+00 0. -1.
         11    1    1    2    0    0  0.41314744201E+02 -0.41958409030E+02 -0.43775711591E+01  0.59047263323E+02  0.00000000000E+00 0.  1.
</event>
<event>
 7    1  0.6671761E-006  0.1089161E+03  0.7561462E-02  0.1262590E+00
          1   -1    0    0  501    0  0.00000000000E+00  0.00000000000E+00  0.15313191761E+03  0.15313191761E+03  0.00000000000E+00 0.  1.
         -1   -1    0    0    0  501 -0.00000000000E+00 -0.00000000000E+00 -0.10694091503E+03  0.10694091503E+03  0.00000000000E+00 0. -1.
         23    2    1    2    0    0  0.33230723319E+02  0.57484419599E+02  0.32950337054E+02  0.14540354266E+03  0.12509087112E+03 0.  0.
          5    1    3    3  502    0  0.48335165041E+02 -0.21161166293E+02 -0.10848770873E+02  0.54030096871E+02  0.41800000000E+01 0. -1.
         -5    1    3    3    0  502 -0.15104441723E+02  0.78645585892E+02  0.43799107928E+02  0.91373445789E+02  0.41800000000E+01 0. -1.
        -11    1    1    2    0    0 -0.43233642830E+02 -0.60411751076E+02  0.41117335066E+02  0.84907966548E+02  0.00000000000E+00 0.  1.
         11    1    1    2    0    0  0.10002919511E+02  0.29273314769E+01 -0.27876669540E+02  0.29761323441E+02  0.00000000000E+00 0. -1.
</event>
<event>
 7    1  0.6671761E-006  0.1220666E+03  0.7561462E-02  0.1239726E+00
          2   -1    0    0  501    0  0.00000000000E+00  0.00000000000E+00  0.15006345111E+03  0.15006345111E+03  0.00000000000E+00 0. -1.
         -2   -1    0    0    0  501 -0.00000000000E+00 -0.00000000000E+00 -0.21373233498E+03  0.21373233498E+03  0.00000000000E+00 0.  1.
         23    2    1    2    0    0 -0.23153569889E+02  0.11428443953E+03 -0.11602302514E+03  0.20665543474E+03  0.12509238757E+03 0.  0.
          5    1    3    3  502    0  0.14896312642E+02  0.52322057563E+02  0.15143857454E+02  0.56624258552E+02  0.41800000000E+01 0.  1.
         -5    1    3    3    0  502 -0.38049882531E+02  0.61962381966E+02 -0.13116688259E+03  0.15003117619E+03  0.41800000000E+01 0.  1.
        -11    1    1    2    0    0  0.15024577542E+02 -0.86281019972E+02 -0.10153372748E+02  0.88165998639E+02  0.00000000000E+00 0.  1.
         11    1    1    2    0    0  0.81289923465E+01 -0.28003419557E+02  0.62507514013E+02  0.68974352708E+02  0.00000000000E+00 0. -1.
</event>
<event>
 7    1  0.6671761E-006  0.1650184E+03  0.7561462E-02  0.1183145E+00
          1   -1    0    0  501    0  0.00000000000E+00  0.00000000000E+00  0.55110730087E+03  0.55110730087E+03  0.00000000000E+00 0. -1.
         -1   -1    0    0    0  501 -0.00000000000E+00 -0.00000000000E+00 -0.59859380812E+02  0.59859380812E+02  0.00000000000E+00 0.  1.
         23    2    1    2    0    0  0.11975920164E+03  0.69300705048E+02  0.17988123494E+03  0.25913233668E+03  0.12508978829E+03 0.  0.
          5    1    3    3  502    0  0.12869212857E+03  0.13658086021E+02  0.11600391984E+03  0.17384645262E+03  0.41800000000E+01 0. -1.
         -5    1    3    3    0  502 -0.89329269347E+01  0.55642619027E+02  0.63877315100E+02  0.85285884061E+02  0.41800000000E+01 0. -1.
        -11    1    1    2    0    0 -0.72372782918E+02 -0.18762236529E+02  0.76519260634E+02  0.10698148660E+03  0.00000000000E+00 0.  1.
         11    1    1    2    0    0 -0.47386418721E+02 -0.50538468519E+02  0.23484742449E+03  0.24485285841E+03  0.00000000000E+00 0. -1.
</event>
<event>
 7    1  0.6671761E-006  0.3626845E+03  0.7561462E-02  0.1057526E+00
         -1   -1    0    0    0  501 -0.00000000000E+00  0.00000000000E+00  0.25210728667E+03  0.25210728667E+03  0.00000000000E+00 0.  1.
          1   -1    0    0  501    0  0.00000000000E+00 -0.00000000000E+00 -0.57937724232E+03  0.57937724232E+03  0.00000000000E+00 0. -1.
         23    2    1    2    0    0  0.33906946680E+03 -0.12219749932E+03 -0.95545746125E+02  0.39328086826E+03  0.12506206293E+03 0.  0.
          5    1    3    3  502    0  0.21991804357E+03 -0.57236701954E+02 -0.42199120916E-01  0.22728277568E+03  0.41800000000E+01 0. -1.
         -5    1    3    3    0  502  0.11915142323E+03 -0.64960797368E+02 -0.95503547004E+02  0.16599809259E+03  0.41800000000E+01 0. -1.
        -11    1    1    2    0    0 -0.10721831662E+03  0.57205635489E+02 -0.12653990104E+03  0.17544400448E+03  0.00000000000E+00 0.  1.
         11    1    1    2    0    0 -0.23185115018E+03  0.64991863833E+02 -0.10518430849E+03  0.26275965626E+03  0.00000000000E+00 0. -1.
</event>
<event>
 7    1  0.6671761E-006  0.1153197E+03  0.7561462E-02  0.1251024E+00
          2   -1    0    0  501    0  0.00000000000E+00  0.00000000000E+00  0.10747723191E+03  0.10747723191E+03  0.00000000000E+00 0. -1.
         -2   -1    0    0    0  501 -0.00000000000E+00 -0.00000000000E+00 -0.14327443675E+03  0.14327443675E+03  0.00000000000E+00 0.  1.
         23    2    1    2    0    0  0.35848558886E+02 -0.40427228608E+02 -0.45554914064E+02  0.14367620083E+03  0.12509244782E+03 0.  0.
          5    1    3    3  502    0 -0.11083199677E+02  0.36977532719E+02  0.62001399592E+01  0.39320343038E+02  0.41800000000E+01 0.  1.
         -5    1    3    3    0  502  0.46931758563E+02 -0.77404761327E+02 -0.51755054023E+02  0.10435585779E+03  0.41800000000E+01 0.  1.
        -11    1    1    2    0    0  0.28328914039E+02  0.15920420217E+02 -0.12567513963E+02  0.34841491899E+02  0.00000000000E+00 0.  1.
         11    1    1    2    0    0 -0.64177472925E+02  0.24506808391E+02  0.22325223192E+02  0.72233975933E+02  0.00000000000E+00 0. -1.
</event>
<event>
 6    1  0.6671761E-006  0.1029652E+03  0.7561462E-02  0.1274181E+00
         -1   -1    0    0    0  501 -0.00000000000E+00  0.00000000000E+00  0.10421189887E+03  0.10421189887E+03  0.00000000000E+00 0.  1.
          1   -1    0    0  501    0  0.00000000000E+00 -0.00000000000E+00 -0.19681335482E+03  0.19681335482E+03  0.00000000000E+00 0. -1.
          5    1    1    2  502    0  0.61029036594E+02  0.40517034058E+01  0.58043034072E+02  0.84424083131E+02  0.41800000000E+01 0. -1.
         -5    1    1    2    0  502 -0.36737708577E+02  0.30804840807E+02 -0.27340130932E+02  0.55349368633E+02  0.41800000000E+01 0.  1.
        -11    1    1    2    0    0 -0.37554346325E+02 -0.58425699696E+02 -0.11232469343E+03  0.13206334869E+03  0.00000000000E+00 0.  1.
         11    1    1    2    0    0  0.13263018308E+02  0.23569155483E+02 -0.10979665658E+02  0.29188453244E+02  0.00000000000E+00 0. -1.
</event>
<event>
 7    1  0.6671761E-006  0.1349515E+03  0.7561462E-02  0.1220288E+00
         -4   -1    0    0    0  501 -0.00000000000E+00  0.00000000000E+00  0.91559205577E+03  0.91559205577E+03  0.00000000000E+00 0.  1.
          4   -1    0    0  501    0  0.00000000000E+00 -0.00000000000E+00 -0.20497708087E+02  0.20497708087E+02  0.00000000000E+00 0. -1.
         23    2    1    2    0    0  0.81846381566E+02 -0.15118172532E+01  0.49668703890E+03  0.51869368526E+03  0.12507601187E+03 0.  0.
          5    1    3    3  502    0  0.95194043250E+02 -0.43747131565E+02  0.35891178865E+03  0.37391290674E+03  0.41800000000E+01 0.  1.
         -5    1    3    3    0  502 -0.13347661684E+02  0.42235314312E+02  0.13777525025E+03  0.14478077852E+03  0.41800000000E+01 0.  1.
        -11    1    1    2    0    0 -0.10113903518E+03 -0.72507259033E+00  0.28680317214E+03  0.30411459965E+03  0.00000000000E+00 0. -1.
         11    1    1    2    0    0  0.19292653610E+02  0.22368898435E+01  0.11160413663E+03  0.11328147895E+03  0.00000000000E+00 0.  1.
</event>
<event>
 7    1  0.6671761E-006  0.8524326E+02  0.7561462E-02  0.1314798E+00
          2   -1    0    0  501    0  0.00000000000E+00  0.00000000000E+00  0.45599516564E+03  0.45599516564E+03  0.00000000000E+00 0. -1.
         -2   -1    0    0    0  501 -0.00000000000E+00 -0.00000000000E+00 -0.43477310330E+02  0.43477310330E+02  0.00000000000E+00 0.  1.
         23    2    1    2    0    0 -0.26021636011E+02  0.27431382990E+02  0.75652532998E+02  0.15099425000E+03  0.12508537673E+03 0.  0.
          5    1    3    3  502    0  0.79424650921E+01  0.42831740123E+02  0.97993606541E+02  0.10732129349E+03  0.41800000000E+01 0.  1.
         -5    1    3    3    0  502 -0.33964101103E+02 -0.15400357133E+02 -0.22341073543E+02  0.43672956513E+02  0.41800000000E+01 0.  1.
        -11    1    1    2    0    0  0.43027756553E+02  0.13318921727E+02  0.16704187116E+03  0.17300800048E+03  0.00000000000E+00 0.  1.
         11    1    1    2    0    0 -0.17006120542E+02 -0.40750304717E+02  0.16982345116E+03  0.17547022549E+03  0.00000000000E+00 0. -1.
</event>
<event>
 7    1  0.6671761E-006  0.8042952E+02  0.7561462E-02  0.1327837E+00
         -2   -1    0    0    0  501 -0.00000000000E+00  0.00000000000E+00  0.79784658938E+02  0.79784658938E+02  0.00000000000E+00 0.  1.
          2   -1    0    0  501    0  0.00000000000E+00 -0.00000000000E+00 -0.16740709030E+03  0.16740709030E+03  0.00000000000E+00 0. -1.
         23    2    1    2    0    0 -0.30325378072E+02  0.14545620633E+02 -0.21994878511E+02  0.13138595875E+03  0.12508913559E+03 0.  0.
          5    1    3    3  502    0 -0.62973245487E+01  0.33709634487E+02  0.45486037915E+02  0.57117841336E+02  0.41800000000E+01 0. -1.
         -5    1    3    3    0  502 -0.24028053523E+02 -0.19164013854E+02 -0.67480916426E+02  0.74268117418E+02  0.41800000000E+01 0. -1.
        -11    1    1    2    0    0  0.42439434045E+02  0.28141685944E+02 -0.37958153844E+02  0.63512845103E+02  0.00000000000E+00 0. -1.
         11    1    1    2    0    0 -0.12114055974E+02 -0.42687306577E+02 -0.27669399002E+02  0.52292945376E+02  0.00000000000E+00 0.  1.
</event>
<event>
 7    1  0.6671761E-006  0.1751366E+03  0.7561462E-02  0.1172595E+00
         -2   -1    0    0    0  501 -0.00000000000E+00  0.00000000000E+00  0.75462278762E+02  0.75462278762E+02  0.00000000000E+00 0.  1.
          2   -1    0    0  501    0  0.00000000000E+00 -0.00000000000E+00 -0.51316416153E+03  0.51316416153E+03  0.00000000000E+00 0. -1.
         23    2    1    2    0    0 -0.13916529110E+03  0.59391128895E+02 -0.13081975041E+03  0.23591364223E+03  0.12508858883E+03 0.  0.
          5    1    3    3  502    0 -0.14267881052E+03  0.27887579449E+02 -0.14079091889E+03  0.20242162755E+03  0.41800000000E+01 0.  1.
         -5    1    3    3    0  502  0.35135194211E+01  0.31503549447E+02  0.99711684772E+01  0.33492014679E+02  0.41800000000E+01 0.  1.
        -11    1    1    2    0    0  0.91544075978E+02  0.62592014735E+01 -0.18169507197E+03  0.20354998066E+03  0.00000000000E+00 0.  1.
         11    1    1    2    0    0  0.47621215118E+02 -0.65650330369E+02 -0.12518706039E+03  0.14916281740E+03  0.00000000000E+00 0. -1.
</event>
<event>
 7    1  0.6671761E-006  0.1111627E+03  0.7561462E-02  0.1258432E+00
         -2   -1    0    0    0  501 -0.00000000000E+00  0.00000000000E+00  0.37635345645E+03  0.37635345645E+03  0.00000000000E+00 0.  1.
          2   -1    0    0  501    0  0.00000000000E+00 -0.00000000000E+00 -0.63211126480E+02  0.63211126480E+02  0.00000000000E+00 0. -1.
         23    2    1    2    0    0 -0.70234840502E+02  0.19595596513E+02  0.28572950461E+03  0.32032050508E+03  0.12508779295E+03 0.  0.
          5    1    3    3  502    0  0.66011370663E+01 -0.40967110975E+02  0.12842070839E+03  0.13502307186E+03  0.41800000000E+01 0.  1.
         -5    1    3    3    0  502 -0.76835977568E+02  0.60562707488E+02  0.15730879623E+03  0.18529743322E+03  0.41800000000E+01 0.  1.
        -11    1    1    2    0    0  0.23770927671E+02 -0.26637302728E+02  0.54387274622E+02  0.65058270341E+02  0.00000000000E+00 0.  1.
         11    1    1    2    0    0  0.46463912831E+02  0.70417062152E+01 -0.26974449268E+02  0.54185807508E+02  0.00000000000E+00 0. -1.
</event>
<event>
 7    1  0.6671761E-006  0.9222319E+02  0.7561462E-02  0.1297556E+00
          2   -1    0    0  501    0  0.00000000000E+00  0.00000000000E+00  0.85991433898E+02  0.85991433898E+02  0.00000000000E+00 0. -1.
         -2   -1    0    0    0  501 -0.00000000000E+00 -0.00000000000E+00 -0.17012490260E+03  0.17012490260E+03  0.00000000000E+00 0.  1.
         23    2    1    2    0    0 -0.62218801488E+02 -0.11903621638E+02 -0.45407123247E+02  0.13589927418E+03  0.11132803068E+03 0.  0.
          5    1    3    3  502    0 -0.19985903011E+02  0.10175188650E+02  0.35328859167E+02  0.42054387087E+02  0.41800000000E+01 0. -1.
         -5    1    3    3    0  502 -0.42232898477E+02 -0.22078810288E+02 -0.80735982414E+02  0.93844887095E+02  0.41800000000E+01 0.  1.
        -11    1    1    2    0    0  0.63628169241E+02 -0.31062117896E+02 -0.23166253677E+02  0.74498821458E+02  0.00000000000E+00 0.  1.
         11    1    1    2    0    0 -0.14093677532E+01  0.42965739533E+02 -0.15560091778E+02  0.45718240859E+02  0.00000000000E+00 0. -1.
</event>
<event>
 7    1  0.6671761E-006  0.7666720E+02  0.7561462E-02  0.1338785E+00
          4   -1    0    0  501    0  0.00000000000E+00  0.00000000000E+00  0.30901862663E+02  0.30901862663E+02  0.00000000000E+00 0. -1.
         -4   -1    0    0    0  501 -0.00000000000E+00 -0.00000000000E+00 -0.45785961891E+03  0.45785961891E+03  0.00000000000E+00 0.  1.
         23    2    1    2    0    0 -0.38607953694E+02 -0.32491555683E+02 -0.26623885326E+03  0.29845840104E+03  0.12509202569E+03 0.  0.
          5    1    3    3  502    0 -0.43916250757E+02 -0.59651935512E+02 -0.76138149269E+02  0.10630842236E+03  0.41800000000E+01 0. -1.
         -5    1    3    3    0  502  0.53082970630E+01  0.27160379830E+02 -0.19010070399E+03  0.19214997868E+03  0.41800000000E+01 0. -1.
        -11    1    1    2    0    0  0.25474103431E+02  0.16041322935E+02 -0.16591267203E+03  0.16862167336E+03  0.00000000000E+00 0.  1.
         11    1    1    2    0    0  0.13133850263E+02  0.16450232748E+02  0.51937690368E+01  0.21681407173E+02  0.00000000000E+00 0. -1.
</event>
<event>
 7    1  0.6671761E-006  0.1908941E+03  0.7561462E-02  0.1157657E+00
         -1   -1    0    0    0  501 -0.00000000000E+00  0.00000000000E+00  0.10567044382E+04  0.10567044382E+04  0.00000000000E+00 0.  1.
          1   -1    0    0  501    0  0.00000000000E+00 -0.00000000000E+00 -0.72063697822E+02  0.72063697822E+02  0.00000000000E+00 0. -1.
         23    2    1    2    0    0 -0.17382207514E+03 -0.16690607147E+02  0.88025438135E+03  0.90608341559E+03  0.12508672967E+03 0.  0.
          5    1    3    3  502    0 -0.12243104361E+03 -0.47582321926E+02  0.76388980598E+03  0.77511195700E+03  0.41800000000E+01 0. -1.
         -5    1    3    3    0  502 -0.51391031533E+02  0.30891714780E+02  0.11636457538E+03  0.13097145859E+03  0.41800000000E+01 0. -1.
        -11    1    1    2    0    0  0.75071468606E+02  0.45011281141E+02  0.76464679042E+02  0.11622645125E+03  0.00000000000E+00 0.  1.
         11    1    1    2    0    0  0.98750606538E+02 -0.28320673995E+02  0.27921679996E+02  0.10645826920E+03  0.00000000000E+00 0. -1.
</event>
<event>
 7    1  0.6671761E-006  0.1017437E+03  0.7561462E-02  0.1276671E+00
          1   -1    0    0  501    0  0.00000000000E+00  0.00000000000E+00  0.28820733410E+03  0.28820733410E+03  0.00000000000E+00 0. -1.
         -1   -1    0    0    0  501 -0.00000000000E+00 -0.00000000000E+00 -0.50104908647E+02  0.50104908647E+02  0.00000000000E+00 0.  1.
         23    2    1    2    0    0 -0.13236466395E+01  0.29403365756E+02  0.54665272208E+02  0.13134717070E+03  0.11574747214E+03 0.  0.
          5    1    3    3  502    0 -0.39271778943E+02  0.50461855087E+02  0.59545360820E+02  0.87474532496E+02  0.41800000000E+01 0. -1.
         -5    1    3    3    0  502  0.37948132303E+02 -0.21058489331E+02 -0.48800886124E+01  0.43872638205E+02  0.41800000000E+01 0.  1.
        -11    1    1    2    0    0  0.35832308406E+02 -0.45345940484E+02  0.10801123313E+03  0.12250157194E+03  0.00000000000E+00 0.  1.
         11    1    1    2    0    0 -0.34508661766E+02  0.15942574729E+02  0.75425920112E+02  0.84463500109E+02  0.00000000000E+00 0. -1.
</event>
<event>
 7    1  0.6671761E-006  0.9083813E+02  0.7561462E-02  0.1300835E+00
          2   -1    0    0  501    0  0.00000000000E+00  0.00000000000E+00  0.98512173104E+02  0.98512173104E+02  0.00000000000E+00 0. -1.
         -2   -1    0    0    0  501 -0.00000000000E+00 -0.00000000000E+00 -0.16545168249E+03  0.16545168249E+03  0.00000000000E+00 0.  1.
         23    2    1    2    0    0 -0.29673679622E+02 -0.21385355532E+02 -0.95940385895E+02  0.16183315178E+03  0.12509017018E+03 0.  0.
          5    1    3    3  502    0 -0.46916578980E+02 -0.39099047315E+02 -0.11504145351E+03  0.13031465501E+03  0.41800000000E+01 0.  1.
         -5    1    3    3    0  502  0.17242899359E+02  0.17713691783E+02  0.19101067612E+02  0.31518496773E+02  0.41800000000E+01 0.  1.
        -11    1    1    2    0    0  0.23998892652E+02 -0.32947254286E+02  0.23933115248E+02  0.47267985137E+02  0.00000000000E+00 0. -1.
         11    1    1    2    0    0  0.56747869698E+01  0.54332609817E+02  0.50677612587E+01  0.54862718679E+02  0.00000000000E+00 0.  1.
</event>
<event>
 7    1  0.6671761E-006  0.2881671E+03  0.7561462E-02  0.1091310E+00
         -1   -1    0    0    0  501 -0.00000000000E+00  0.00000000000E+00  0.69424208620E+02  0.69424208620E+02  0.00000000000E+00 0.  1.
          1   -1    0    0  501    0  0.00000000000E+00 -0.00000000000E+00 -0.12608205425E+04  0.12608205425E+04  0.00000000000E+00 0. -1.
         23    2    1    2    0    0 -0.26296924075E+03  0.87707176060E+02 -0.69118707954E+03  0.75513741827E+03  0.12509025238E+03 0.  0.
          5    1    3    3  502    0 -0.26627647849E+03  0.99742724599E+02 -0.68247624729E+03  0.73935314608E+03  0.41800000000E+01 0. -1.
         -5    1    3    3    0  502  0.33072377365E+01 -0.12035548539E+02 -0.87108322465E+01  0.15784272188E+02  0.41800000000E+01 0. -1.
        -11    1    1    2    0    0  0.17047694958E+03 -0.71642215887E+02 -0.27803522467E+03  0.33391403623E+03  0.00000000000E+00 0.  1.
         11    1    1    2    0    0  0.92492291173E+02 -0.16064960173E+02 -0.22217402963E+03  0.24119329658E+03  0.00000000000E+00 0. -1.
</event>
<event>
 7    1  0.6671761E-006  0.7758233E+02  0.7561462E-02  0.1336056E+00
          2   -1    0    0  501    0  0.00000000000E+00  0.00000000000E+00  0.62826005700E+02  0.62826005700E+02  0.00000000000E+00 0. -1.
         -2   -1    0    0    0  501 -0.00000000000E+00 -0.00000000000E+00 -0.25167786020E+03  0.25167786020E+03  0.00000000000E+00 0.  1.
         23    2    1    2    0    0 -0.23709632010E+02 -0.47366268031E+01 -0.19071522493E+03  0.22935922819E+03  0.12509506885E+03 0.  0.
          5    1    3    3  502    0 -0.90041359771E+01  0.42418061116E+02 -0.17024062913E+03  0.17572623760E+03  0.41800000000E+01 0. -1.
         -5    1    3    3    0  502 -0.14705496033E+02 -0.47154687919E+02 -0.20474595802E+02  0.53632990590E+02  0.41800000000E+01 0. -1.
        -11    1    1    2    0    0  0.36457198501E+02 -0.14264396205E+02 -0.27556503020E+02  0.47874431383E+02  0.00000000000E+00 0.  1.
         11    1    1    2    0    0 -0.12747566490E+02  0.19001023008E+02  0.29419873446E+02  0.37270206336E+02  0.00000000000E+00 0. -1.
</event>
<event>
 7    1  0.6671761E-006  0.2511505E+03  0.7561462E-02  0.1112580E+00
         -2   -1    0    0    0  501 -0.00000000000E+00  0.00000000000E+00  0.20505789229E+03  0.20505789229E+03  0.00000000000E+00 0.  1.
          2   -1    0    0  501    0  0.00000000000E+00 -0.00000000000E+00 -0.35420294852E+03  0.35420294852E+03  0.00000000000E+00 0. -1.
         23    2    1    2    0    0 -0.15026629000E+03 -0.18079705777E+03  0.11997129067E+01  0.26630149281E+03  0.12509001461E+03 0.  0.
          5    1    3    3  502    0 -0.17244023922E+02 -0.85150092266E+02  0.43194939269E+02  0.97114209838E+02  0.41800000000E+01 0. -1.
         -5    1    3    3    0  502 -0.13302226608E+03 -0.95646965503E+02 -0.41995226362E+02  0.16918728298E+03  0.41800000000E+01 0. -1.
        -11    1    1    2    0    0  0.33954692886E+02  0.11033020446E+03 -0.70310209236E+02  0.13516360719E+03  0.00000000000E+00 0. -1.
         11    1    1    2    0    0  0.11631159712E+03  0.70466853310E+02 -0.80034559901E+02  0.15779574081E+03  0.00000000000E+00 0.  1.
</event>
<event>
 7    1  0.6671761E-006  0.1440079E+03  0.7561462E-02  0.1208036E+00
          2   -1    0    0  501    0  0.00000000000E+00  0.00000000000E+00  0.93834818710E+03  0.93834818710E+03  0.00000000000E+00 0. -1.
         -2   -1    0    0    0  501 -0.00000000000E+00 -0.00000000000E+00 -0.25853385720E+02  0.25853385720E+02  0.00000000000E+00 0.  1.
         23    2    1    2    0    0  0.32496165516E+02  0.10264297396E+03  0.41004604337E+03  0.44201492607E+03  0.12509139186E+03 0.  0.
          5    1    3    3  502    0  0.54509172534E+02  0.14585064671E+02  0.26411451068E+03  0.27010724009E+03  0.41800000000E+01 0. -1.
         -5    1    3    3    0  502 -0.22013007017E+02  0.88057909286E+02  0.14593153269E+03  0.17190768598E+03  0.41800000000E+01 0. -1.
        -11    1    1    2    0    0 -0.73525234240E+00 -0.10830620380E+03  0.35059467292E+03  0.36694331859E+03  0.00000000000E+00 0.  1.
         11    1    1    2    0    0 -0.31760913174E+02  0.56632298383E+01  0.15185408509E+03  0.15524332816E+03  0.00000000000E+00 0. -1.
</event>
<event>
 7    1  0.6671761E-006  0.1036077E+03  0.7561462E-02  0.1272887E+00
          2   -1    0    0  501    0  0.00000000000E+00  0.00000000000E+00  0.59184882051E+02  0.59184882051E+02  0.00000000000E+00 0. -1.
         -2   -1    0    0    0  501 -0.00000000000E+00 -0.00000000000E+00 -0.27728243395E+03  0.27728243395E+03  0.00000000000E+00 0.  1.
         23    2    1    2    0    0 -0.28064920220E+02  0.45364415982E+02 -0.15788569584E+03  0.20837666911E+03  0.12508946117E+03 0.  0.
          5    1    3    3  502    0  0.37709954091E+02 -0.19226698794E+02 -0.63022727658E+02  0.76033171613E+02  0.41800000000E+01 0. -1.
         -5    1    3    3    0  502 -0.65774874311E+02  0.64591114776E+02 -0.94862968180E+02  0.13234349750E+03  0.41800000000E+01 0. -1.
        -11    1    1    2    0    0  0.27338397247E+02 -0.55695433602E+02 -0.82668593012E+02  0.10336085119E+03  0.00000000000E+00 0.  1.
         11    1    1    2    0    0  0.72652297271E+00  0.10331017620E+02  0.22456736952E+02  0.24729795697E+02  0.00000000000E+00 0. -1.
</event>
<event>
 7    1  0.6671761E-006  0.1045088E+03  0.7561462E-02  0.1271090E+00
         -2   -1    0    0    0  501 -0.00000000000E+00  0.00000000000E+00  0.15054902856E+03  0.15054902856E+03  0.00000000000E+00 0. -1.
          2   -1    0    0  501    0  0.00000000000E+00 -0.00000000000E+00 -0.96353627972E+02  0.96353627972E+02  0.00000000000E+00 0.  1.
         23    2    1    2    0    0 -0.34204470543E+02 -0.19327872180E+02  0.62604078557E+02  0.14528899719E+03  0.12508440992E+03 0.  0.
          5    1    3    3  502    0 -0.13476853167E+02  0.51651706202E+02  0.43008219282E+02  0.68678261849E+02  0.41800000000E+01 0.  1.
         -5    1    3    3    0  502 -0.20727617377E+02 -0.70979578381E+02  0.19595859275E+02  0.76610735344E+02  0.41800000000E+01 0.  1.
        -11    1    1    2    0    0  0.55191075394E+02  0.38327654532E+01  0.23748420833E+02  0.60205750441E+02  0.00000000000E+00 0. -1.
         11    1    1    2    0    0 -0.20986604850E+02  0.15495106727E+02 -0.32157098803E+02  0.41407908895E+02  0.00000000000E+00 0.  1.
</event>
<event>
 7    1  0.6671761E-006  0.1548681E+03  0.7561462E-02  0.1194616E+00
          1   -1    0    0  501    0  0.00000000000E+00  0.00000000000E+00  0.21490664862E+03  0.21490664862E+03  0.00000000000E+00 0. -1.
         -1   -1    0    0    0  501 -0.00000000000E+00 -0.00000000000E+00 -0.13626162827E+03  0.13626162827E+03  0.00000000000E+00 0.  1.
         23    2    1    2    0    0  0.13122722154E+03 -0.93074945873E+01  0.53403660352E+02  0.18922795894E+03  0.12509219152E+03 0.  0.
          5    1    3    3  502    0  0.11365023654E+03  0.23805930422E+02 -0.87522840676E+01  0.11652112884E+03  0.41800000000E+01 0.  1.
         -5    1    3    3    0  502  0.17576984996E+02 -0.33113425010E+02  0.62155944420E+02  0.72706830106E+02  0.41800000000E+01 0.  1.
        -11    1    1    2    0    0 -0.54983631963E+02 -0.37318604196E+02  0.28969499994E+02  0.72492137042E+02  0.00000000000E+00 0.  1.
         11    1    1    2    0    0 -0.76243589574E+02  0.46626098783E+02 -0.37281400007E+01  0.89448180902E+02  0.00000000000E+00 0. -1.
</event>
<event>
 7    1  0.6671761E-006  0.1317523E+03  0.7561462E-02  0.1224879E+00
         -1   -1    0    0    0  501 -0.00000000000E+00  0.00000000000E+00  0.36846702284E+03  0.36846702284E+03  0.00000000000E+00 0.  1.
          1   -1    0    0  501    0  0.00000000000E+00 -0.00000000000E+00 -0.57438916017E+02  0.57438916017E+02  0.00000000000E+00 0. -1.
         23    2    1    2    0    0  0.14732039447E+01 -0.79189105242E+02  0.24924422422E+03  0.28990455256E+03  0.12509548981E+03 0.  0.
          5    1    3    3  502    0  0.51155929297E+02 -0.81361646454E+00  0.59079412385E+02  0.78265193041E+02  0.41800000000E+01 0. -1.
         -5    1    3    3    0  502 -0.49682725352E+02 -0.78375488778E+02  0.19016481183E+03  0.21163935952E+03  0.41800000000E+01 0. -1.
        -11    1    1    2    0    0 -0.20058843794E+02  0.93624109249E+02  0.39449244601E+02  0.10355710476E+03  0.00000000000E+00 0. -1.
         11    1    1    2    0    0  0.18585639850E+02 -0.14435004007E+02  0.22334638002E+02  0.32444281530E+02  0.00000000000E+00 0.  1.
</event>
<event>
 6    1  0.6671761E-006  0.6849331E+02  0.7561462E-02  0.1365293E+00
         -2   -1    0    0    0  501 -0.00000000000E+00  0.00000000000E+00  0.20385898851E+03  0.20385898851E+03  0.00000000000E+00 0. -1.
          2   -1    0    0  501    0  0.00000000000E+00 -0.00000000000E+00 -0.19165460416E+03  0.19165460416E+03  0.00000000000E+00 0.  1.
          5    1    1    2  502    0 -0.35844568538E+01 -0.27350006970E+02  0.18280197748E+03  0.18491864856E+03  0.41800000000E+01 0. -1.
         -5    1    1    2    0  502 -0.12946869139E+02 -0.21475325889E+00 -0.71463845477E+02  0.72747653913E+02  0.41800000000E+01 0.  1.
        -11    1    1    2    0    0  0.49964752596E+02  0.35285143579E+02 -0.58172584969E+02  0.84413076602E+02  0.00000000000E+00 0.  1.
         11    1    1    2    0    0 -0.33433426603E+02 -0.77203833505E+01 -0.40961162695E+02  0.53434213598E+02  0.00000000000E+00 0. -1.
</event>
<event>
 6    1  0.6671761E-006  0.1021279E+03  0.7561462E-02  0.1275884E+00
          3   -1    0    0  501    0  0.00000000000E+00  0.00000000000E+00  0.32692454275E+03  0.32692454275E+03  0.00000000000E+00 0. -1.
         -3   -1    0    0    0  501 -0.00000000000E+00 -0.00000000000E+00 -0.57757253347E+02  0.57757253347E+02  0.00000000000E+00 0.  1.
          5    1    1    2  502    0  0.96012875168E+01  0.11419270881E+02 -0.28087945112E+02  0.32077866670E+02  0.41800000000E+01 0. -1.
         -5    1    1    2    0  502 -0.68634101387E+02 -0.38167274667E+02  0.11300975925E+03  0.13768100382E+03  0.41800000000E+01 0.  1.
        -11    1    1    2    0    0 -0.23560659027E+02  0.91282132410E+00  0.31235632818E+02  0.39135695396E+02  0.00000000000E+00 0.  1.
         11    1    1    2    0    0  0.82593472897E+02  0.25835182462E+02  0.15300984245E+03  0.17578723021E+03  0.00000000000E+00 0. -1.
</event>
<event>
 7    1  0.6671761E-006  0.8676275E+02  0.7561462E-02  0.1310886E+00
          1   -1    0    0  501    0  0.00000000000E+00  0.00000000000E+00  0.15769576322E+03  0.15769576322E+03  0.00000000000E+00 0. -1.
         -1   -1    0    0    0  501 -0.00000000000E+00 -0.00000000000E+00 -0.78768111168E+02  0.78768111168E+02  0.00000000000E+00 0.  1.
         23    2    1    2    0    0  0.18352622076E+02  0.17855168947E+02  0.40789073555E+02  0.13404117419E+03  0.12509061541E+03 0.  0.
          5    1    3    3  502    0  0.51158208853E+01 -0.53205327415E+02  0.67561113065E+01  0.54037911957E+02  0.41800000000E+01 0.  1.
         -5    1    3    3    0  502  0.13236801190E+02  0.71060496362E+02  0.34032962249E+02  0.80003262236E+02  0.41800000000E+01 0.  1.
        -11    1    1    2    0    0  0.12023288468E+02  0.47013344390E+00 -0.26267773012E+02  0.28892497124E+02  0.00000000000E+00 0.  1.
         11    1    1    2    0    0 -0.30375910543E+02 -0.18325302391E+02  0.64406351509E+02  0.73530203072E+02  0.00000000000E+00 0. -1.
</event>
<event>
 7    1  0.6671761E-006  0.9173667E+02  0.7561462E-02  0.1298700E+00
          2   -1    0    0  501    0  0.00000000000E+00  0.00000000000E+00  0.81323612104E+03  0.81323612104E+03  0.00000000000E+00 0. -1.
         -2   -1    0    0    0  501 -0.00000000000E+00 -0.00000000000E+00 -0.13305077415E+02  0.13305077415E+02  0.00000000000E+00 0.  1.
         23    2    1    2    0    0 -0.13615295020E+02  0.57261522519E+01  0.44794065217E+03  0.46531323236E+03  0.12508961292E+03 0.  0.
          5    1    3    3  502    0  0.13531522476E+02  0.49323673284E+02  0.89339321355E+02  0.10302870273E+03  0.41800000000E+01 0. -1.
         -5    1    3    3    0  502 -0.27146817495E+02 -0.43597521032E+02  0.35860133082E+03  0.36228452962E+03  0.41800000000E+01 0. -1.
        -11    1    1    2    0    0 -0.20834552918E+02 -0.31386429962E+02  0.18538120527E+03  0.18917023510E+03  0.00000000000E+00 0.  1.
         11    1    1    2    0    0  0.34449847938E+02  0.25660277711E+02  0.16660918618E+03  0.17205773099E+03  0.00000000000E+00 0. -1.
</event>
<event>
 7    1  0.6671761E-006  0.1765001E+03  0.7561462E-02  0.1171234E+00
          1   -1    0    0  501    0  0.00000000000E+00  0.00000000000E+00  0.21843367894E+03  0.21843367894E+03  0.00000000000E+00 0. -1.
         -1   -1    0    0    0  501 -0.00000000000E+00 -0.00000000000E+00 -0.21436204352E+03  0.21436204352E+03  0.00000000000E+00 0.  1.
         23    2    1    2    0    0  0.44415890790E+02 -0.14473881870E+03 -0.10688869561E+03  0.22359512709E+03  0.12508993013E+03 0.  0.
          5    1    3    3  502    0 -0.38359043302E+02 -0.76082038718E+02 -0.26720591828E+02  0.89394380395E+02  0.41800000000E+01 0.  1.
         -5    1    3    3    0  502  0.82774934092E+02 -0.68656779979E+02 -0.80168103779E+02  0.13420074670E+03  0.41800000000E+01 0.  1.
        -11    1    1    2    0    0 -0.46678835415E+02  0.63564393783E+02  0.97861363531E+01  0.79467693419E+02  0.00000000000E+00 0.  1.
         11    1    1    2    0    0  0.22629446244E+01  0.81174424915E+02  0.10117419468E+03  0.12973290195E+03  0.00000000000E+00 0. -1.
</event>
<event>
 7    1  0.6671761E-006  0.1006075E+03  0.7561462E-02  0.1279024E+00
         -2   -1    0    0    0  501 -0.00000000000E+00  0.00000000000E+00  0.25535797952E+02  0.25535797952E+02  0.00000000000E+00 0.  1.
          2   -1    0    0  501    0  0.00000000000E+00 -0.00000000000E+00 -0.46285701142E+03  0.46285701142E+03  0.00000000000E+00 0. -1.
         23    2    1    2    0    0  0.46617986777E+01 -0.86585288152E+01 -0.24782941502E+03  0.27778249977E+03  0.12508795202E+03 0.  0.
          5    1    3    3  502    0 -0.58612033438E+02  0.93304174773E+01 -0.11319049347E+03  0.12787488951E+03  0.41800000000E+01 0.  1.
         -5    1    3    3    0  502  0.63273832116E+02 -0.17988946293E+02 -0.13463892155E+03  0.14990761026E+03  0.41800000000E+01 0.  1.
        -11    1    1    2    0    0 -0.10565833834E+02 -0.32525634123E+02 -0.14782043886E+03  0.15172486897E+03  0.00000000000E+00 0. -1.
         11    1    1    2    0    0  0.59040351566E+01  0.41184162938E+02 -0.41671359585E+02  0.58885440625E+02  0.00000000000E+00 0.  1.
</event>
<event>
 7    1  0.6671761E-006  0.1724859E+03  0.7561462E-02  0.1175280E+00
         -1   -1    0    0    0  501 -0.00000000000E+00  0.00000000000E+00  0.27703657192E+03  0.27703657192E+03  0.00000000000E+00 0.  1.
          1   -1    0    0  501    0  0.00000000000E+00 -0.00000000000E+00 -0.14041593871E+03  0.14041593871E+03  0.00000000000E+00 0. -1.
         23    2    1    2    0    0 -0.63324907152E+00  0.15778989603E+03  0.12099846582E+03  0.23491756721E+03  0.12509029681E+03 0.  0.
          5    1    3    3  502    0 -0.33525317015E+02  0.10917332385E+03  0.17158460944E+02  0.11556230659E+03  0.41800000000E+01 0. -1.
         -5    1    3    3    0  502  0.32892067944E+02  0.48616572181E+02  0.10384000488E+03  0.11935526062E+03  0.41800000000E+01 0. -1.
        -11    1    1    2    0    0  0.26206291576E+02 -0.23688660899E+02 -0.21121582441E+02  0.41158761135E+02  0.00000000000E+00 0.  1.
         11    1    1    2    0    0 -0.25573042505E+02 -0.13410123513E+03  0.36743749822E+02  0.14137618229E+03  0.00000000000E+00 0. -1.
</event>
<event>
 7    1  0.6671761E-006  0.1729049E+03  0.7561462E-02  0.1174852E+00
          1   -1    0    0  501    0  0.00000000000E+00  0.00000000000E+00  0.98060156341E+03  0.98060156341E+03  0.00000000000E+00 0. -1.
         -1   -1    0    0    0  501 -0.00000000000E+00 -0.00000000000E+00 -0.38776127989E+02  0.38776127989E+02  0.00000000000E+00 0.  1.
         23    2    1    2    0    0 -0.11770369588E+03 -0.10823771890E+03  0.43299495567E+03  0.47822704260E+03  0.12508760456E+03 0.  0.
          5    1    3    3  502    0 -0.99883725116E+02 -0.10745691097E+03  0.43565604385E+03  0.45971448444E+03  0.41800000000E+01 0.  1.
         -5    1    3    3    0  502 -0.17819970767E+02 -0.78080792259E+00 -0.26610881781E+01  0.18512558155E+02  0.41800000000E+01 0.  1.
        -11    1    1    2    0    0  0.50569279096E+01  0.56559280255E+02  0.21228865568E+03  0.21975212862E+03  0.00000000000E+00 0.  1.
         11    1    1    2    0    0  0.11264676797E+03  0.51678438643E+02  0.29654182407E+03  0.32139852019E+03  0.00000000000E+00 0. -1.
</event>
<event>
 7    1  0.6671761E-006  0.1176372E+03  0.7561462E-02  0.1247047E+00
          2   -1    0    0  501    0  0.00000000000E+00  0.00000000000E+00  0.13681741492E+03  0.13681741492E+03  0.00000000000E+00 0. -1.
         -2   -1    0    0    0  501 -0.00000000000E+00 -0.00000000000E+00 -0.12092369161E+03  0.12092369161E+03  0.00000000000E+00 0.  1.
         23    2    1    2    0    0 -0.67087661687E+02 -0.11263734874E+01 -0.33399283812E+01  0.14198853022E+03  0.12509022554E+03 0.  0.
          5    1    3    3  502    0  0.19531001241E+02 -0.41609332174E+02  0.12948701219E+01  0.46172996677E+02  0.41800000000E+01 0. -1.
         -5    1    3    3    0  502 -0.86618662928E+02  0.40482958687E+02 -0.46347985031E+01  0.95815533545E+02  0.41800000000E+01 0. -1.
        -11    1    1    2    0    0  0.21379184672E+02 -0.30921115701E+02 -0.24470964569E+02  0.44855468345E+02  0.00000000000E+00 0.  1.
         11    1    1    2    0    0  0.45708477014E+02  0.32047489189E+02  0.43704616263E+02  0.70897107959E+02  0.00000000000E+00 0. -1.
</event>
<event>
 7    1  0.6671761E-006  0.8240788E+02  0.7561462E-02  0.1322354E+00
         -1   -1    0    0    0  501 -0.00000000000E+00  0.00000000000E+00  0.45714808543E+03  0.45714808543E+03  0.00000000000E+00 0.  1.
          1   -1    0    0  501    0  0.00000000000E+00 -0.00000000000E+00 -0.30016826744E+02  0.30016826744E+02  0.00000000000E+00 0. -1.
         23    2    1    2    0    0 -0.22004365847E+02  0.13338460420E+02  0.31168860579E+03  0.33683744719E+03  0.12509025624E+03 0.  0.
          5    1    3    3  502    0 -0.66761070717E+02 -0.18499572574E+01  0.10304438661E+03  0.12286610971E+03  0.41800000000E+01 0.  1.
         -5    1    3    3    0  502  0.44756704870E+02  0.15188417677E+02  0.20864421919E+03  0.21397133748E+03  0.41800000000E+01 0.  1.
        -11    1    1    2    0    0 -0.51579289157E+01 -0.21482743644E+02 -0.81309622435E+01  0.23541984882E+02  0.00000000000E+00 0. -1.
         11    1    1    2    0    0  0.27162294762E+02  0.81442832243E+01  0.12357361514E+03  0.12678548010E+03  0.00000000000E+00 0.  1.
</event>
<event>
 7    1  0.6671761E-006  0.1276543E+03  0.7561462E-02  0.1230978E+00
         -1   -1    0    0    0  501 -0.00000000000E+00  0.00000000000E+00  0.11222300224E+03  0.11222300224E+03  0.00000000000E+00 0.  1.
          1   -1    0    0  501    0  0.00000000000E+00 -0.00000000000E+00 -0.19001718301E+03  0.19001718301E+03  0.00000000000E+00 0. -1.
         23    2    1    2    0    0  0.33013364332E+02  0.56170030409E+02  0.36963061625E+01  0.14108833219E+03  0.12508916924E+03 0.  0.
          5    1    3    3  502    0  0.66682548403E-01 -0.38863051295E+02 -0.74944843310E+01  0.39799257504E+02  0.41800000000E+01 0.  1.
         -5    1    3    3    0  502  0.32946681784E+02  0.95033081704E+02  0.11190790493E+02  0.10128907469E+03  0.41800000000E+01 0.  1.
        -11    1    1    2    0    0  0.31212218159E+02 -0.37249955392E+02 -0.80687590811E+02  0.94192616749E+02  0.00000000000E+00 0. -1.
         11    1    1    2    0    0 -0.64225582491E+02 -0.18920075017E+02 -0.80289612604E+00  0.66959236310E+02  0.00000000000E+00 0.  1.
</event>
<event>
 7    1  0.6671761E-006  0.1157608E+03  0.7561462E-02  0.1250259E+00
          2   -1    0    0  501    0  0.00000000000E+00  0.00000000000E+00  0.84629030068E+03  0.84629030068E+03  0.00000000000E+00 0. -1.
         -2   -1    0    0    0  501 -0.00000000000E+00 -0.00000000000E+00 -0.19416137120E+02  0.19416137120E+02  0.00000000000E+00 0.  1.
         23    2    1    2    0    0 -0.15622187558E+02  0.64015011605E+02  0.40955172795E+03  0.43327046938E+03  0.12509479331E+03 0.  0.
          5    1    3    3  502    0 -0.68098458659E+02  0.41202842499E+02  0.18369858147E+03  0.20024413983E+03  0.41800000000E+01 0. -1.
         -5    1    3    3    0  502  0.52476271102E+02  0.22812169105E+02  0.22585314648E+03  0.23302632955E+03  0.41800000000E+01 0. -1.
        -11    1    1    2    0    0 -0.23366660323E+02 -0.52921080544E+01  0.28301788638E+02  0.37080971703E+02  0.00000000000E+00 0.  1.
         11    1    1    2    0    0  0.38988847881E+02 -0.58722903550E+02  0.38902064697E+03  0.39535499671E+03  0.00000000000E+00 0. -1.
</event>
<event>
 7    1  0.6671761E-006  0.1081431E+03  0.7561462E-02  0.1264048E+00
          1   -1    0    0  501    0  0.00000000000E+00  0.00000000000E+00  0.15301036158E+03  0.15301036158E+03  0.00000000000E+00 0. -1.
         -1   -1    0    0    0  501 -0.00000000000E+00 -0.00000000000E+00 -0.96236588593E+02  0.96236588593E+02  0.00000000000E+00 0.  1.
         23    2    1    2    0    0  0.24157820786E+02 -0.36135597553E+01 -0.13818372111E+01  0.12746265917E+03  0.12509261325E+03 0.  0.
          5    1    3    3  502    0  0.62938247933E+02 -0.39459378930E+02  0.13898456914E+01  0.74415520622E+02  0.41800000000E+01 0.  1.
         -5    1    3    3    0  502 -0.38780427147E+02  0.35845819175E+02 -0.27716829025E+01  0.53047138548E+02  0.41800000000E+01 0.  1.
        -11    1    1    2    0    0 -0.44951561288E+02 -0.26599481147E+02  0.66110747652E+02  0.84254413621E+02  0.00000000000E+00 0. -1.
         11    1    1    2    0    0  0.20793740501E+02  0.30213040902E+02 -0.79551374516E+01  0.37529877384E+02  0.00000000000E+00 0.  1.
</event>
<event>
 7    1  0.6671761E-006  0.7419363E+02  0.7561462E-02  0.1346386E+00
         -1   -1    0    0    0  501 -0.00000000000E+00  0.00000000000E+00  0.33850775048E+02  0.33850775048E+02  0.00000000000E+00 0.  1.
          1   -1    0    0  501    0  0.00000000000E+00 -0.00000000000E+00 -0.37274536223E+03  0.37274536223E+03  0.00000000000E+00 0. -1.
         23    2    1    2    0    0 -0.75216456803E+01 -0.28458106336E+02 -0.19894571483E+03  0.23684093724E+03  0.12509113931E+03 0.  0.
          5    1    3    3  502    0  0.12959118464E+02  0.17718598319E+02 -0.18204304960E+03  0.18340946482E+03  0.41800000000E+01 0. -1.
         -5    1    3    3    0  502 -0.20480764144E+02 -0.46176704656E+02 -0.16902665222E+02  0.53431472414E+02  0.41800000000E+01 0. -1.
        -11    1    1    2    0    0 -0.27578496730E+02 -0.36052037352E+01 -0.11024232152E+03  0.11369670369E+03  0.00000000000E+00 0.  1.
         11    1    1    2    0    0  0.35100142411E+02  0.32063310072E+02 -0.29706550827E+02  0.56058496341E+02  0.00000000000E+00 0. -1.
</event>
<event>
 7    1  0.1352328E-005  0.8858852E+02  0.7561462E-02  0.1306306E+00
         -1   -1    0    0    0  501 -0.00000000000E+00  0.00000000000E+00  0.11856866796E+03  0.11856866796E+03  0.00000000000E+00 0.  1.
          1   -1    0    0  501    0  0.00000000000E+00 -0.00000000000E+00 -0.14729236407E+03  0.14729236407E+03  0.00000000000E+00 0. -1.
         23    2    1    2    0    0  0.30803161460E+02  0.68145148170E+02 -0.80416842871E+01  0.14596344311E+03  0.12509221424E+03 0.  0.
          5    1    3    3  502    0  0.45688795841E+01  0.55840911358E+02  0.53645636019E+02  0.77681456641E+02  0.41800000000E+01 0.  1.
         -5    1    3    3    0  502  0.26234281876E+02  0.12304236812E+02 -0.61687320307E+02  0.68281986465E+02  0.41800000000E+01 0.  1.
        -11    1    1    2    0    0 -0.52988094913E+01 -0.65901998112E+02  0.22379540859E+02  0.69799674686E+02  0.00000000000E+00 0.  1.
         11    1    1    2    0    0 -0.25504351969E+02 -0.22431500581E+01 -0.43061552681E+02  0.50097914236E+02  0.00000000000E+00 0. -1.
</event>
<event>
 6    1  0.6671761E-006  0.8210603E+02  0.7561462E-02  0.1323179E+00
          1   -1    0    0  501    0  0.00000000000E+00  0.00000000000E+00  0.46666054091E+02  0.46666054091E+02  0.00000000000E+00 0. -1.
         -1   -1    0    0    0  501 -0.00000000000E+00 -0.00000000000E+00 -0.71782730926E+03  0.71782730926E+03  0.00000000000E+00 0.  1.
          5    1    1    2  502    0  0.16487365454E+02  0.21977289351E+02  0.42804137880E+01  0.28118122431E+02  0.41800000000E+01 0. -1.
         -5    1    1    2    0  502 -0.36893491498E+02  0.75701440360E+01 -0.62129049153E+03  0.62244500485E+03  0.41800000000E+01 0.  1.
        -11    1    1    2    0    0 -0.30100835714E+02  0.12710819506E+02 -0.83792468307E+01  0.33731839864E+02  0.00000000000E+00 0.  1.
         11    1    1    2    0    0  0.50506961758E+02 -0.42258252893E+02 -0.45771930593E+02  0.80198396205E+02  0.00000000000E+00 0. -1.
</event>
<event>
 7    1  0.6671761E-006  0.8575616E+02  0.7561462E-02  0.1313467E+00
         -1   -1    0    0    0  501 -0.00000000000E+00  0.00000000000E+00  0.14351762174E+03  0.14351762174E+03  0.00000000000E+00 0.  1.
          1   -1    0    0  501    0  0.00000000000E+00 -0.00000000000E+00 -0.11714064562E+03  0.11714064562E+03  0.00000000000E+00 0. -1.
         23    2    1    2    0    0 -0.63474880880E+02  0.29015053757E+02  0.18166819610E+02  0.14435822170E+03  0.12505330460E+03 0.  0.
          5    1    3    3  502    0 -0.12086617664E+01 -0.19991559713E+02  0.53663729244E+02  0.57431625081E+02  0.41800000000E+01 0. -1.
         -5    1    3    3    0  502 -0.62266219113E+02  0.49006613470E+02 -0.35496909634E+02  0.86926596620E+02  0.41800000000E+01 0. -1.
        -11    1    1    2    0    0  0.76048046723E+01 -0.10257939695E+02  0.45032361386E+02  0.46807819356E+02  0.00000000000E+00 0.  1.
         11    1    1    2    0    0  0.55870076207E+02 -0.18757114062E+02 -0.36822204878E+02  0.69492226295E+02  0.00000000000E+00 0. -1.
</event>
<event>
 7    1  0.6671761E-006  0.1062032E+03  0.7561462E-02  0.1267767E+00
         -1   -1    0    0    0  501 -0.00000000000E+00  0.00000000000E+00  0.40661174753E+02  0.40661174753E+02  0.00000000000E+00 0.  1.
          1   -1    0    0  501    0  0.00000000000E+00 -0.00000000000E+00 -0.33756604390E+03  0.33756604390E+03  0.00000000000E+00 0. -1.
         23    2    1    2    0    0  0.33810730898E+02 -0.25157592657E+02 -0.13458041400E+03  0.18850942703E+03  0.12509135165E+03 0.  0.
          5    1    3    3  502    0 -0.15760759150E+02 -0.63400628459E+02 -0.91047200357E+02  0.11213878148E+03  0.41800000000E+01 0. -1.
         -5    1    3    3    0  502  0.49571490048E+02  0.38243035802E+02 -0.43533213639E+02  0.76370645557E+02  0.41800000000E+01 0. -1.
        -11    1    1    2    0    0 -0.39823342332E+02 -0.15766655317E+02 -0.33382072924E+02  0.54303303832E+02  0.00000000000E+00 0.  1.
         11    1    1    2    0    0  0.60126114341E+01  0.40924247974E+02 -0.12894238222E+03  0.13541448779E+03  0.00000000000E+00 0. -1.
</event>
<event>
 7    1  0.6671761E-006  0.9577506E+02  0.7561462E-02  0.1289440E+00
          2   -1    0    0  501    0  0.00000000000E+00  0.00000000000E+00  0.19342795202E+03  0.19342795202E+03  0.00000000000E+00 0. -1.
         -2   -1    0    0    0  501 -0.00000000000E+00 -0.00000000000E+00 -0.82267352891E+02  0.82267352891E+02  0.00000000000E+00 0.  1.
         23    2    1    2    0    0  0.44863357173E+02  0.31063494145E+02  0.23850796928E+02  0.13854362337E+03  0.12509122102E+03 0.  0.
          5    1    3    3  502    0  0.61292083552E+02 -0.11224626457E+02 -0.28923674967E+02  0.68824146335E+02  0.41800000000E+01 0. -1.
         -5    1    3    3    0  502 -0.16428726379E+02  0.42288120602E+02  0.52774471894E+02  0.69719477036E+02  0.41800000000E+01 0. -1.
        -11    1    1    2    0    0 -0.17998343490E+01  0.18096075460E+02 -0.93681562157E+01  0.20456532004E+02  0.00000000000E+00 0.  1.
         11    1    1    2    0    0 -0.43063522824E+02 -0.49159569605E+02  0.96677958420E+02  0.11669514954E+03  0.00000000000E+00 0. -1.
</event>
<event>
 7    1  0.6671761E-006  0.1066339E+03  0.7561462E-02  0.1266933E+00
         -2   -1    0    0    0  501 -0.00000000000E+00  0.00000000000E+00  0.89586198306E+02  0.89586198306E+02  0.00000000000E+00 0.  1.
          2   -1    0    0  501    0  0.00000000000E+00 -0.00000000000E+00 -0.28189169052E+03  0.28189169052E+03  0.00000000000E+00 0. -1.
         23    2    1    2    0    0 -0.48194791231E+02 -0.34745286052E+02  0.13762347872E+02  0.13916882023E+03  0.12509430643E+03 0.  0.
          5    1    3    3  502    0 -0.26950796809E+02  0.46185013670E+02  0.13836114034E+02  0.55392340516E+02  0.41800000000E+01 0.  1.
         -5    1    3    3    0  502 -0.21243994422E+02 -0.80930299722E+02 -0.73766161585E-01  0.83776479716E+02  0.41800000000E+01 0.  1.
        -11    1    1    2    0    0  0.25938438429E+02 -0.84356346821E+01 -0.80782211315E+01  0.28446795554E+02  0.00000000000E+00 0.  1.
         11    1    1    2    0    0  0.22256352802E+02  0.43180920734E+02 -0.19798961896E+03  0.20386227304E+03  0.00000000000E+00 0. -1.
</event>
<event>
 7    1  0.6671761E-006  0.1040074E+03  0.7561462E-02  0.1272088E+00
         -2   -1    0    0    0  501 -0.00000000000E+00  0.00000000000E+00  0.89519652008E+03  0.89519652008E+03  0.00000000000E+00 0.  1.
          2   -1    0    0  501    0  0.00000000000E+00 -0.00000000000E+00 -0.32027122977E+02  0.32027122977E+02  0.00000000000E+00 0. -1.
         23    2    1    2    0    0 -0.15902050279E+02 -0.64546789536E+02  0.76290105018E+03  0.77593976592E+03  0.12508135242E+03 0.  0.
          5    1    3    3  502    0 -0.31205473610E+02  0.29192909751E+02  0.16339655011E+03  0.16894351882E+03  0.41800000000E+01 0. -1.
         -5    1    3    3    0  502  0.15303423330E+02 -0.93739699287E+02  0.59950450007E+03  0.60699624710E+03  0.41800000000E+01 0. -1.
        -11    1    1    2    0    0 -0.34536687176E+01  0.31649996874E+02 -0.10973631707E+02  0.33675966543E+02  0.00000000000E+00 0. -1.
         11    1    1    2    0    0  0.19355718997E+02  0.32896792662E+02  0.11124197862E+03  0.11760791059E+03  0.00000000000E+00 0.  1.
</event>
<event>
 7    1  0.6671761E-006  0.1127758E+03  0.7561462E-02  0.1255514E+00
          2   -1    0    0  501    0  0.00000000000E+00  0.00000000000E+00  0.75909994696E+03  0.75909994696E+03  0.00000000000E+00 0. -1.
         -2   -1    0    0    0  501 -0.00000000000E+00 -0.00000000000E+00 -0.17475649313E+02  0.17475649313E+02  0.00000000000E+00 0.  1.
         23    2    1    2    0    0 -0.24626197129E+02  0.35874814125E+02  0.41070536342E+03  0.43153230120E+03  0.12509108506E+03 0.  0.
          5    1    3    3  502    0  0.49999083377E+02  0.26160967771E+02  0.15800925677E+03  0.16783534251E+03  0.41800000000E+01 0.  1.
         -5    1    3    3    0  502 -0.74625280505E+02  0.97138463546E+01  0.25269610666E+03  0.26369695869E+03  0.41800000000E+01 0.  1.
        -11    1    1    2    0    0  0.21911791422E+02 -0.62811265242E+02  0.27477214820E+03  0.28271030238E+03  0.00000000000E+00 0. -1.
         11    1    1    2    0    0  0.27144057066E+01  0.26936451117E+02  0.56146786026E+02  0.62332992694E+02  0.00000000000E+00 0.  1.
</event>
<event>
 7    1  0.6671761E-006  0.1358034E+03  0.7561462E-02  0.1219090E+00
         -1   -1    0    0    0  501 -0.00000000000E+00  0.00000000000E+00  0.51976802446E+02  0.51976802446E+02  0.00000000000E+00 0.  1.
          1   -1    0    0  501    0  0.00000000000E+00 -0.00000000000E+00 -0.51619844517E+03  0.51619844517E+03  0.00000000000E+00 0. -1.
         23    2    1    2    0    0  0.39356119044E+02 -0.11175470669E+03 -0.23613278714E+03  0.29230947075E+03  0.12509242565E+03 0.  0.
          5    1    3    3  502    0  0.35429539433E+02 -0.82256945481E+02 -0.47822392665E+02  0.10161648973E+03  0.41800000000E+01 0. -1.
         -5    1    3    3    0  502  0.39265796106E+01 -0.29497761209E+02 -0.18831039448E+03  0.19069298102E+03  0.41800000000E+01 0. -1.
        -11    1    1    2    0    0 -0.88503959318E+01  0.11997641329E+03 -0.15474831021E+03  0.19600946092E+03  0.00000000000E+00 0.  1.
         11    1    1    2    0    0 -0.30505723112E+02 -0.82217066021E+01 -0.73340545370E+02  0.79856315951E+02  0.00000000000E+00 0. -1.
</event>
<event>
 7    1  0.6671761E-006  0.1491593E+03  0.7561462E-02  0.1201510E+00
          2   -1    0    0  501    0  0.00000000000E+00  0.00000000000E+00  0.44214018120E+03  0.44214018120E+03  0.00000000000E+00 0. -1.
         -2   -1    0    0    0  501 -0.00000000000E+00 -0.00000000000E+00 -0.51239237590E+02  0.51239237590E+02  0.00000000000E+00 0.  1.
         23    2    1    2    0    0  0.10952233067E+03  0.19021022779E+02  0.20727810065E+03  0.25988336581E+03  0.11053602396E+03 0.  0.
          5    1    3    3  502    0 -0.22175553609E+02  0.29868794062E+01  0.19778285510E+02  0.30155092508E+02  0.41800000000E+01 0. -1.
         -5    1    3    3    0  502  0.13169788428E+03  0.16034143372E+02  0.18749981514E+03  0.22972827330E+03  0.41800000000E+01 0.  1.
        -11    1    1    2    0    0 -0.41731562906E+02  0.36308375317E+02  0.87414081573E+02  0.10344584631E+03  0.00000000000E+00 0.  1.
         11    1    1    2    0    0 -0.67790767766E+02 -0.55329398095E+02  0.96208761391E+02  0.13005020668E+03  0.00000000000E+00 0. -1.
</event>
<event>
 6    1  0.6671761E-006  0.1363848E+03  0.7561462E-02  0.1218278E+00
          1   -1    0    0  501    0  0.00000000000E+00  0.00000000000E+00  0.20129165219E+03  0.20129165219E+03  0.00000000000E+00 0. -1.
         -1   -1    0    0    0  501 -0.00000000000E+00 -0.00000000000E+00 -0.99480803310E+02  0.99480803310E+02  0.00000000000E+00 0.  1.
          5    1    1    2  502    0 -0.74229546226E+02 -0.75555597017E+01  0.44968976580E+02  0.87216932244E+02  0.41800000000E+01 0. -1.
         -5    1    1    2    0  502  0.59962920679E+02 -0.62611921008E+02  0.36692610509E+01  0.86871976985E+02  0.41800000000E+01 0.  1.
        -11    1    1    2    0    0  0.46133037244E+02  0.63827380743E+02  0.22267045456E+02  0.81841389109E+02  0.00000000000E+00 0.  1.
         11    1    1    2    0    0 -0.31866411697E+02  0.63400999660E+01  0.30905565793E+02  0.44842157163E+02  0.00000000000E+00 0. -1.
</event>
<event>
 7    1  0.6671761E-006  0.1774626E+03  0.7561462E-02  0.1170282E+00
          2   -1    0    0  501    0  0.00000000000E+00  0.00000000000E+00  0.10634141347E+03  0.10634141347E+03  0.00000000000E+00 0. -1.
         -2   -1    0    0    0  501 -0.00000000000E+00 -0.00000000000E+00 -0.34510881968E+03  0.34510881968E+03  0.00000000000E+00 0.  1.
         23    2    1    2    0    0  0.11183235607E+03  0.92643046709E+02 -0.19911086859E+03  0.27637270494E+03  0.12509006386E+03 0.  0.
          5    1    3    3  502    0  0.13436634918E+03  0.89651931025E+02 -0.19439828216E+03  0.25278439238E+03  0.41800000000E+01 0. -1.
         -5    1    3    3    0  502 -0.22533993106E+02  0.29911156840E+01 -0.47125864347E+01  0.23588312556E+02  0.41800000000E+01 0. -1.
        -11    1    1    2    0    0  0.13174214221E+02 -0.24595066672E+02 -0.27095146655E+01  0.28032457878E+02  0.00000000000E+00 0. -1.
         11    1    1    2    0    0 -0.12500657029E+03 -0.68047980036E+02 -0.36947022951E+02  0.14704507033E+03  0.00000000000E+00 0.  1.
</event>
<event>
 7    1  0.6671761E-006  0.9444598E+02  0.7561462E-02  0.1292429E+00
          2   -1    0    0  501    0  0.00000000000E+00  0.00000000000E+00  0.14733798334E+03  0.14733798334E+03  0.00000000000E+00 0. -1.
         -2   -1    0    0    0  501 -0.00000000000E+00 -0.00000000000E+00 -0.13628572018E+03  0.13628572018E+03  0.00000000000E+00 0.  1.
         23    2    1    2    0    0 -0.40491945096E+02  0.31458071780E+02 -0.67514410248E+02  0.15111236581E+03  0.12509014194E+03 0.  0.
          5    1    3    3  502    0  0.23589269388E+02  0.24841811087E+02  0.21866309345E+02  0.40855563791E+02  0.41800000000E+01 0.  1.
         -5    1    3    3    0  502 -0.64081214484E+02  0.66162606935E+01 -0.89380719593E+02  0.11025680201E+03  0.41800000000E+01 0.  1.
        -11    1    1    2    0    0 -0.17998335320E+02 -0.25244679590E+02 -0.38672305323E+01  0.31244029732E+02  0.00000000000E+00 0.  1.
         11    1    1    2    0    0  0.58490280416E+02 -0.62133921900E+01  0.82433903948E+02  0.10126730798E+03  0.00000000000E+00 0. -1.
</event>
<event>
 7    1  0.6671761E-006  0.9395347E+02  0.7561462E-02  0.1293551E+00
          2   -1    0    0  501    0  0.00000000000E+00  0.00000000000E+00  0.13836139170E+03  0.13836139170E+03  0.00000000000E+00 0. -1.
         -2   -1    0    0    0  501 -0.00000000000E+00 -0.00000000000E+00 -0.12150671625E+03  0.12150671625E+03  0.00000000000E+00 0.  1.
         23    2    1    2    0    0  0.26617888152E+02 -0.46435314617E+02 -0.40132567752E+02  0.14183958720E+03  0.12507235941E+03 0.  0.
          5    1    3    3  502    0  0.41707081850E+02  0.61848993765E+01  0.30626693798E+02  0.52280019412E+02  0.41800000000E+01 0.  1.
         -5    1    3    3    0  502 -0.15089193698E+02 -0.52620213993E+02 -0.70759261549E+02  0.89559567787E+02  0.41800000000E+01 0.  1.
        -11    1    1    2    0    0 -0.50412091377E+02  0.17930116454E+02  0.44446233414E+01  0.53690061554E+02  0.00000000000E+00 0.  1.
         11    1    1    2    0    0  0.23794203225E+02  0.28505198163E+02  0.52542619867E+02  0.64338459197E+02  0.00000000000E+00 0. -1.
</event>
<event>
 7    1  0.6671761E-006  0.1921980E+03  0.7561462E-02  0.1156494E+00
          3   -1    0    0  501    0  0.00000000000E+00  0.00000000000E+00  0.60837312125E+02  0.60837312125E+02  0.00000000000E+00 0. -1.
         -3   -1    0    0    0  501 -0.00000000000E+00 -0.00000000000E+00 -0.80384966120E+03  0.80384966120E+03  0.00000000000E+00 0.  1.
         23    2    1    2    0    0 -0.74397727301E+01  0.18460175417E+03 -0.48913622879E+03  0.53761920357E+03  0.12508796856E+03 0.  0.
          5    1    3    3  502    0 -0.84749849864E+01  0.54522043245E+02 -0.35647107661E+02  0.65822999436E+02  0.41800000000E+01 0.  1.
         -5    1    3    3    0  502  0.10352122563E+01  0.13007971092E+03 -0.45348912113E+03  0.47179620414E+03  0.41800000000E+01 0.  1.
        -11    1    1    2    0    0  0.38042545809E+02 -0.63698700000E+02 -0.55139987736E+02  0.92440131550E+02  0.00000000000E+00 0. -1.
         11    1    1    2    0    0 -0.30602773079E+02 -0.12090305417E+03 -0.19873613255E+03  0.23462763820E+03  0.00000000000E+00 0.  1.
</event>
<event>
 7    1  0.6671761E-006  0.1112658E+03  0.7561462E-02  0.1258244E+00
         -1   -1    0    0    0  501 -0.00000000000E+00  0.00000000000E+00  0.44251896165E+02  0.44251896165E+02  0.00000000000E+00 0.  1.
          1   -1    0    0  501    0  0.00000000000E+00 -0.00000000000E+00 -0.37558281448E+03  0.37558281448E+03  0.00000000000E+00 0. -1.
         23    2    1    2    0    0 -0.23663144746E+02  0.62616925964E+02 -0.15605269756E+03  0.21090424618E+03  0.12508929932E+03 0.  0.
          5    1    3    3  502    0 -0.11366958365E+02 -0.37097519904E+02 -0.61745168495E+02  0.73043630509E+02  0.41800000000E+01 0.  1.
         -5    1    3    3    0  502 -0.12296186381E+02  0.99714445868E+02 -0.94307529062E+02  0.13786061567E+03  0.41800000000E+01 0.  1.
        -11    1    1    2    0    0 -0.15370681014E+02 -0.17837559243E+02 -0.13528391769E+03  0.13731778741E+03  0.00000000000E+00 0. -1.
         11    1    1    2    0    0  0.39033825760E+02 -0.44779366721E+02 -0.39994303074E+02  0.71612677061E+02  0.00000000000E+00 0.  1.
</event>
<event>
 7    1  0.6671761E-006  0.1117361E+03  0.7561462E-02  0.1257388E+00
         -1   -1    0    0    0  501 -0.00000000000E+00  0.00000000000E+00  0.62210417782E+03  0.62210417782E+03  0.00000000000E+00 0.  1.
          1   -1    0    0  501    0  0.00000000000E+00 -0.00000000000E+00 -0.35985208192E+02  0.35985208192E+02  0.00000000000E+00 0. -1.
         23    2    1    2    0    0 -0.15760068645E+02 -0.78056792771E+02  0.45843041206E+03  0.48181556351E+03  0.12508617782E+03 0.  0.
          5    1    3    3  502    0  0.23997802389E+02 -0.51339567461E+02  0.68816628249E+02  0.89245988314E+02  0.41800000000E+01 0. -1.
         -5    1    3    3    0  502 -0.39757871035E+02 -0.26717225310E+02  0.38961378381E+03  0.39256957520E+03  0.41800000000E+01 0. -1.
        -11    1    1    2    0    0  0.51048008340E+02  0.30921015572E+02  0.83588958297E+02  0.10270892030E+03  0.00000000000E+00 0. -1.
         11    1    1    2    0    0 -0.35287939695E+02  0.47135777199E+02  0.44099599276E+02  0.73564902205E+02  0.00000000000E+00 0.  1.
</event>
<event>
 7    1  0.6671761E-006  0.1099636E+03  0.7561462E-02  0.1260637E+00
          2   -1    0    0  501    0  0.00000000000E+00  0.00000000000E+00  0.26608533802E+03  0.26608533802E+03  0.00000000000E+00 0.  1.
         -2   -1    0    0    0  501 -0.00000000000E+00 -0.00000000000E+00 -0.61940803521E+02  0.61940803521E+02  0.00000000000E+00 0. -1.
         23    2    1    2    0    0  0.68325006813E+02 -0.48965100118E+01  0.12143073619E+03  0.18731296666E+03  0.12509373055E+03 0.  0.
          5    1    3    3  502    0  0.44726262071E+02  0.51365118657E+02  0.10279707862E+03  0.12338365251E+03  0.41800000000E+01 0.  1.
         -5    1    3    3    0  502  0.23598744741E+02 -0.56261628669E+02  0.18633657570E+02  0.63929314155E+02  0.41800000000E+01 0.  1.
        -11    1    1    2    0    0  0.13499958980E+01  0.19334493202E+02  0.64379799288E+02  0.67233947323E+02  0.00000000000E+00 0.  1.
         11    1    1    2    0    0 -0.69675002711E+02 -0.14437983190E+02  0.18333999015E+02  0.73479227549E+02  0.00000000000E+00 0. -1.
</event>
<event>
 7    1  0.6671761E-006  0.1038572E+03  0.7561462E-02  0.1272388E+00
         -3   -1    0    0    0  501 -0.00000000000E+00  0.00000000000E+00  0.54185342248E+02  0.54185342248E+02  0.00000000000E+00 0.  1.
          3   -1    0    0  501    0  0.00000000000E+00 -0.00000000000E+00 -0.26596286530E+03  0.26596286530E+03  0.00000000000E+00 0. -1.
         23    2    1    2    0    0  0.24811394121E+02  0.13481563317E+02 -0.63472661588E+02  0.14304503158E+03  0.12504297047E+03 0.  0.
          5    1    3    3  502    0 -0.39453004111E+02  0.25193703357E+02  0.62504290634E+01  0.47410995410E+02  0.41800000000E+01 0. -1.
         -5    1    3    3    0  502  0.64264398233E+02 -0.11712140040E+02 -0.69723090651E+02  0.95634036172E+02  0.41800000000E+01 0. -1.
        -11    1    1    2    0    0  0.28984913498E+02 -0.27193623941E+02 -0.46720803204E+02  0.61338828205E+02  0.00000000000E+00 0. -1.
         11    1    1    2    0    0 -0.53796307620E+02  0.13712060624E+02 -0.10158405826E+03  0.11576434776E+03  0.00000000000E+00 0.  1.
</event>
<event>
 7    1  0.6671761E-006  0.4086518E+03  0.7561462E-02  0.1040824E+00
          2   -1    0    0  501    0  0.00000000000E+00  0.00000000000E+00  0.11239974138E+04  0.11239974138E+04  0.00000000000E+00 0. -1.
         -2   -1    0    0    0  501 -0.00000000000E+00 -0.00000000000E+00 -0.23895156699E+03  0.23895156699E+03  0.00000000000E+00 0.  1.
         23    2    1    2    0    0  0.73048058587E+02  0.39798055866E+03  0.44804791896E+02  0.42589040599E+03  0.12510245642E+03 0.  0.
          5    1    3    3  502    0  0.56869434740E+02  0.28440381418E+03 -0.25648984693E+02  0.29119581889E+03  0.41800000000E+01 0.  1.
         -5    1    3    3    0  502  0.16178623847E+02  0.11357674448E+03  0.70453776590E+02  0.13469458709E+03  0.41800000000E+01 0.  1.
        -11    1    1    2    0    0  0.11900667098E+02 -0.14684378074E+03  0.34953778894E+03  0.37931700161E+03  0.00000000000E+00 0. -1.
         11    1    1    2    0    0 -0.84948725685E+02 -0.25113677792E+03  0.49070326599E+03  0.55774157320E+03  0.00000000000E+00 0.  1.
</event>
<event>
 7    1  0.6671761E-006  0.8397876E+02  0.7561462E-02  0.1318125E+00
         -1   -1    0    0    0  501 -0.00000000000E+00  0.00000000000E+00  0.24719951618E+03  0.24719951618E+03  0.00000000000E+00 0.  1.
          1   -1    0    0  501    0  0.00000000000E+00 -0.00000000000E+00 -0.57244291414E+02  0.57244291414E+02  0.00000000000E+00 0. -1.
         23    2    1    2    0    0 -0.22211585780E+02 -0.43660380959E+02  0.94875408436E+02  0.16446405266E+03  0.12508995997E+03 0.  0.
          5    1    3    3  502    0 -0.58334264932E+02 -0.52421152757E+02  0.99514493113E+02  0.12677330342E+03  0.41800000000E+01 0. -1.
         -5    1    3    3    0  502  0.36122679152E+02  0.87607717975E+01 -0.46390846768E+01  0.37690749240E+02  0.41800000000E+01 0. -1.
        -11    1    1    2    0    0  0.19735741068E+02  0.19557168735E+02  0.10869259823E+03  0.11218762514E+03  0.00000000000E+00 0.  1.
         11    1    1    2    0    0  0.24758447115E+01  0.24103212225E+02 -0.13612781908E+02  0.27792129783E+02  0.00000000000E+00 0. -1.
</event>
<event>
 7    1  0.6671761E-006  0.1035905E+03  0.7561462E-02  0.1272922E+00
          1   -1    0    0  501    0  0.00000000000E+00  0.00000000000E+00  0.74659408164E+03  0.74659408164E+03  0.00000000000E+00 0. -1.
         -1   -1    0    0    0  501 -0.00000000000E+00 -0.00000000000E+00 -0.16852533778E+02  0.16852533778E+02  0.00000000000E+00 0.  1.
         23    2    1    2    0    0  0.23859071872E+02  0.16139585180E+02  0.40826121886E+03  0.42796622960E+03  0.12509248315E+03 0.  0.
          5    1    3    3  502    0  0.53703638657E+02 -0.27582838986E+02  0.11515476177E+03  0.13008837523E+03  0.41800000000E+01 0. -1.
         -5    1    3    3    0  502 -0.29844566786E+02  0.43722424166E+02  0.29310645708E+03  0.29787785437E+03  0.41800000000E+01 0. -1.
        -11    1    1    2    0    0 -0.54715856545E+02 -0.26785005988E+02  0.24218432197E+03  0.24972886760E+03  0.00000000000E+00 0. -1.
         11    1    1    2    0    0  0.30856784673E+02  0.10645420808E+02  0.79296007036E+02  0.85751518216E+02  0.00000000000E+00 0.  1.
</event>
<event>
 7    1  0.6671761E-006  0.7687855E+02  0.7561462E-02  0.1338151E+00
         -2   -1    0    0    0  501 -0.00000000000E+00  0.00000000000E+00  0.76956632391E+02  0.76956632391E+02  0.00000000000E+00 0. -1.
          2   -1    0    0  501    0  0.00000000000E+00 -0.00000000000E+00 -0.26378963798E+03  0.26378963798E+03  0.00000000000E+00 0.  1.
         23    2    1    2    0    0 -0.13187967588E+02 -0.30961956615E+02  0.19722288038E+00  0.12953726619E+03  0.12508916496E+03 0.  0.
          5    1    3    3  502    0  0.18320171238E+02 -0.28392908086E+02  0.55841970447E+02  0.65403241259E+02  0.41800000000E+01 0. -1.
         -5    1    3    3    0  502 -0.31508138826E+02 -0.25690485283E+01 -0.55644747567E+02  0.64134024935E+02  0.41800000000E+01 0. -1.
        -11    1    1    2    0    0 -0.22099288373E+02  0.44771149181E+02 -0.15053626414E+03  0.15860012978E+03  0.00000000000E+00 0.  1.
         11    1    1    2    0    0  0.35287255961E+02 -0.13809192566E+02 -0.36493964327E+02  0.52608874393E+02  0.00000000000E+00 0. -1.
</event>
<event>
 6    1  0.6671761E-006  0.1809372E+03  0.7561462E-02  0.1166899E+00
         -2   -1    0    0    0  501 -0.00000000000E+00  0.00000000000E+00  0.15826757660E+03  0.15826757660E+03  0.00000000000E+00 0.  1.
          2   -1    0    0  501    0  0.00000000000E+00 -0.00000000000E+00 -0.30121408729E+03  0.30121408729E+03  0.00000000000E+00 0. -1.
          5    1    1    2  502    0 -0.12097350661E+03 -0.26033442387E+01 -0.15036572591E+03  0.19305100525E+03  0.41800000000E+01 0. -1.
         -5    1    1    2    0  502 -0.79978751583E+00 -0.71788963516E+02  0.55377722566E+02  0.90765960026E+02  0.41800000000E+01 0.  1.
        -11    1    1    2    0    0  0.63066494901E+02  0.88342874835E+02 -0.33789351725E+02  0.11368186576E+03  0.00000000000E+00 0.  1.
         11    1    1    2    0    0  0.58706799220E+02 -0.13950567081E+02 -0.14169155621E+02  0.61982832846E+02  0.00000000000E+00 0. -1.
</event>
<event>
 7    1  0.6671761E-006  0.9898486E+02  0.7561462E-02  0.1282445E+00
         -4   -1    0    0    0  501 -0.00000000000E+00  0.00000000000E+00  0.17994089468E+03  0.17994089468E+03  0.00000000000E+00 0. -1.
          4   -1    0    0  501    0  0.00000000000E+00 -0.00000000000E+00 -0.13361646467E+03  0.13361646467E+03  0.00000000000E+00 0.  1.
         23    2    1    2    0    0 -0.23085948484E+02 -0.90397792439E+02  0.81125680821E+02  0.17588566495E+03  0.12509863768E+03 0.  0.
          5    1    3    3  502    0 -0.16313727639E+02 -0.52889546761E+02 -0.26591996300E+02  0.61547124492E+02  0.41800000000E+01 0. -1.
         -5    1    3    3    0  502 -0.67722208448E+01 -0.37508245679E+02  0.10771767712E+03  0.11433854046E+03  0.41800000000E+01 0. -1.
        -11    1    1    2    0    0  0.28959199920E+01  0.82325702982E+02 -0.61817723934E+02  0.10299193520E+03  0.00000000000E+00 0.  1.
         11    1    1    2    0    0  0.20190028492E+02  0.80720894570E+01  0.27016473125E+02  0.34679759209E+02  0.00000000000E+00 0. -1.
</event>
<event>
 7    1  0.6671761E-006  0.9803563E+02  0.7561462E-02  0.1284482E+00
         -2   -1    0    0    0  501 -0.00000000000E+00  0.00000000000E+00  0.27628239920E+03  0.27628239920E+03  0.00000000000E+00 0.  1.
          2   -1    0    0  501    0  0.00000000000E+00 -0.00000000000E+00 -0.13539162638E+03  0.13539162638E+03  0.00000000000E+00 0. -1.
         23    2    1    2    0    0 -0.53766629375E+02 -0.24174321028E+02  0.23582206325E+03  0.26764035183E+03  0.11200028652E+03 0.  0.
          5    1    3    3  502    0 -0.26645144814E+01 -0.56633409049E+02  0.64966855590E+02  0.86328485352E+02  0.41800000000E+01 0. -1.
         -5    1    3    3    0  502 -0.51102114893E+02  0.32459088020E+02  0.17085520766E+03  0.18131186648E+03  0.41800000000E+01 0.  1.
        -11    1    1    2    0    0 -0.58158468786E+01 -0.87174650233E+01  0.12838743320E+02  0.16572616009E+02  0.00000000000E+00 0.  1.
         11    1    1    2    0    0  0.59582476253E+02  0.32891786052E+02 -0.10777003375E+03  0.12746105774E+03  0.00000000000E+00 0. -1.
</event>
<event>
 7    1  0.6671761E-006  0.1221747E+03  0.7561462E-02  0.1239552E+00
         -1   -1    0    0    0  501 -0.00000000000E+00  0.00000000000E+00  0.10006588797E+03  0.10006588797E+03  0.00000000000E+00 0.  1.
          1   -1    0    0  501    0  0.00000000000E+00 -0.00000000000E+00 -0.19283207711E+03  0.19283207711E+03  0.00000000000E+00 0. -1.
         23    2    1    2    0    0  0.62992690174E+02 -0.60637768708E+02 -0.51199681398E+02  0.16098029118E+03  0.12509288055E+03 0.  0.
          5    1    3    3  502    0 -0.27083011110E+02 -0.36943816942E+02 -0.49721387519E+02  0.67734953147E+02  0.41800000000E+01 0. -1.
         -5    1    3    3    0  502  0.90075701283E+02 -0.23693951765E+02 -0.14782938793E+01  0.93245338032E+02  0.41800000000E+01 0. -1.
        -11    1    1    2    0    0  0.10572568591E+02  0.15651577653E+02 -0.41600675383E+02  0.45687714782E+02  0.00000000000E+00 0. -1.
         11    1    1    2    0    0 -0.73565258765E+02  0.44986191055E+02  0.34167641186E-01  0.86229959122E+02  0.00000000000E+00 0.  1.
</event>
<event>
 7    1  0.6671761E-006  0.1435528E+03  0.7561462E-02  0.1208627E+00
          2   -1    0    0  501    0  0.00000000000E+00  0.00000000000E+00  0.73830564625E+02  0.73830564625E+02  0.00000000000E+00 0.  1.
         -2   -1    0    0    0  501 -0.00000000000E+00 -0.00000000000E+00 -0.38647998834E+03  0.38647998834E+03  0.00000000000E+00 0. -1.
         23    2    1    2    0    0 -0.41901737451E+02  0.84411421808E+02 -0.28539565828E+03  0.32554575323E+03  0.12509321304E+03 0.  0.
          5    1    3    3  502    0  0.25895152395E+02  0.84677160597E+02 -0.16546309093E+03  0.18771331147E+03  0.41800000000E+01 0.  1.
         -5    1    3    3    0  502 -0.67796889846E+02 -0.26573878900E+00 -0.11993256735E+03  0.13783244176E+03  0.41800000000E+01 0.  1.
        -11    1    1    2    0    0  0.42390053814E+02  0.35790276190E+01 -0.18329267587E+02  0.46321573282E+02  0.00000000000E+00 0.  1.
         11    1    1    2    0    0 -0.48831636268E+00 -0.87990449427E+02 -0.89244978464E+01  0.88443226451E+02  0.00000000000E+00 0. -1.
</event>
<event>
 7    1  0.6671761E-006  0.2378567E+03  0.7561462E-02  0.1121229E+00
         -1   -1    0    0    0  501 -0.00000000000E+00  0.00000000000E+00  0.30927069622E+03  0.30927069622E+03  0.00000000000E+00 0.  1.
          1   -1    0    0  501    0  0.00000000000E+00 -0.00000000000E+00 -0.19651167997E+03  0.19651167997E+03  0.00000000000E+00 0. -1.
         23    2    1    2    0    0 -0.79624977922E+02  0.20175905451E+03  0.14439747005E+02  0.25079675323E+03  0.12507458556E+03 0.  0.
          5    1    3    3  502    0 -0.95306014614E+02  0.81288894886E+02  0.28184447024E+02  0.12846383268E+03  0.41800000000E+01 0.  1.
         -5    1    3    3    0  502  0.15681036691E+02  0.12047015962E+03 -0.13744700019E+02  0.12233292055E+03  0.41800000000E+01 0.  1.
        -11    1    1    2    0    0  0.39835726135E+02 -0.17816161754E+03  0.10101938164E+03  0.20864650130E+03  0.00000000000E+00 0. -1.
         11    1    1    2    0    0  0.39789251787E+02 -0.23597436970E+02 -0.27001124006E+01  0.46339121661E+02  0.00000000000E+00 0.  1.
</event>
<event>
 7    1  0.6671761E-006  0.1601364E+03  0.7561462E-02  0.1188543E+00
         -1   -1    0    0    0  501 -0.00000000000E+00  0.00000000000E+00  0.12721707942E+03  0.12721707942E+03  0.00000000000E+00 0.  1.
          1   -1    0    0  501    0  0.00000000000E+00 -0.00000000000E+00 -0.22438567062E+03  0.22438567062E+03  0.00000000000E+00 0. -1.
         23    2    1    2    0    0  0.13386378971E+02  0.12810148369E+03 -0.45076877232E+02  0.18511381245E+03  0.12508402549E+03 0.  0.
          5    1    3    3  502    0  0.54542710530E+02  0.25963431047E+02 -0.44105866860E+02  0.74911994468E+02  0.41800000000E+01 0. -1.
         -5    1    3    3    0  502 -0.41156331559E+02  0.10213805265E+03 -0.97101037262E+00  0.11020181798E+03  0.41800000000E+01 0. -1.
        -11    1    1    2    0    0  0.31628977190E+02 -0.44842755328E+02 -0.46068013999E+02  0.71648634441E+02  0.00000000000E+00 0.  1.
         11    1    1    2    0    0 -0.45015356161E+02 -0.83258728366E+02 -0.60236999725E+01  0.94840303146E+02  0.00000000000E+00 0. -1.
</event>
<event>
 7    1  0.6671761E-006  0.9128418E+02  0.7561462E-02  0.1299771E+00
         -4   -1    0    0    0  501 -0.00000000000E+00  0.00000000000E+00  0.45490349775E+03  0.45490349775E+03  0.00000000000E+00 0. -1.
          4   -1    0    0  501    0  0.00000000000E+00 -0.00000000000E+00 -0.38577209617E+02  0.38577209617E+02  0.00000000000E+00 0.  1.
         23    2    1    2    0    0  0.50945514336E+02  0.48347601542E+02  0.29214356486E+03  0.32546647228E+03  0.12509047161E+03 0.  0.
          5    1    3    3  502    0  0.58294265250E+02  0.17978663452E+02  0.28710298209E+03  0.29354224300E+03  0.41800000000E+01 0.  1.
         -5    1    3    3    0  502 -0.73487509139E+01  0.30368938090E+02  0.50405827655E+01  0.31924229283E+02  0.41800000000E+01 0.  1.
        -11    1    1    2    0    0 -0.16593666583E+02  0.11986263517E+02 -0.52535795309E+01  0.21133394939E+02  0.00000000000E+00 0.  1.
         11    1    1    2    0    0 -0.34351847753E+02 -0.60333865059E+02  0.12943630281E+03  0.14688084015E+03  0.00000000000E+00 0. -1.
</event>
<event>
 7    1  0.6671761E-006  0.6419184E+02  0.7561462E-02  0.1381038E+00
         -1   -1    0    0    0  501 -0.00000000000E+00  0.00000000000E+00  0.11731087102E+03  0.11731087102E+03  0.00000000000E+00 0.  1.
          1   -1    0    0  501    0  0.00000000000E+00 -0.00000000000E+00 -0.12258138663E+03  0.12258138663E+03  0.00000000000E+00 0. -1.
         23    2    1    2    0    0  0.87273237194E+01  0.24193367673E+02  0.42579924998E+02  0.13461422043E+03  0.12508578301E+03 0.  0.
          5    1    3    3  502    0  0.19696740627E+02  0.50164530063E+02 -0.26268688874E+02  0.60099568077E+02  0.41800000000E+01 0. -1.
         -5    1    3    3    0  502 -0.10969416908E+02 -0.25971162390E+02  0.68848613873E+02  0.74514652354E+02  0.41800000000E+01 0. -1.
        -11    1    1    2    0    0  0.93509964323E+01 -0.26028075041E+02 -0.70797366622E+02  0.76007690040E+02  0.00000000000E+00 0. -1.
         11    1    1    2    0    0 -0.18078320152E+02  0.18347073680E+01  0.22946926013E+02  0.29270347181E+02  0.00000000000E+00 0.  1.
</event>
<event>
 6    1  0.6671761E-006  0.9932660E+02  0.7561462E-02  0.1281718E+00
         -2   -1    0    0    0  501 -0.00000000000E+00  0.00000000000E+00  0.81318818715E+03  0.81318818715E+03  0.00000000000E+00 0.  1.
          2   -1    0    0  501    0  0.00000000000E+00 -0.00000000000E+00 -0.26479366241E+02  0.26479366241E+02  0.00000000000E+00 0. -1.
          5    1    1    2  502    0 -0.25016377970E+02  0.24213085238E+01  0.22673371178E+02  0.34106246675E+02  0.41800000000E+01 0. -1.
         -5    1    1    2    0  502  0.71010326400E+02  0.57927630793E+01  0.64335332988E+03  0.64729977756E+03  0.41800000000E+01 0.  1.
        -11    1    1    2    0    0  0.20272418971E+02 -0.26214174791E+02  0.47396516135E+02  0.57832375644E+02  0.00000000000E+00 0.  1.
         11    1    1    2    0    0 -0.66266367400E+02  0.18000103188E+02  0.73285603714E+02  0.10042915351E+03  0.00000000000E+00 0. -1.
</event>
<event>
 7    1  0.6671761E-006  0.1205028E+03  0.7561462E-02  0.1242270E+00
          2   -1    0    0  501    0  0.00000000000E+00  0.00000000000E+00  0.34658645289E+03  0.34658645289E+03  0.00000000000E+00 0. -1.
         -2   -1    0    0    0  501 -0.00000000000E+00 -0.00000000000E+00 -0.69945806678E+02  0.69945806678E+02  0.00000000000E+00 0.  1.
         23    2    1    2    0    0 -0.71468659740E+02  0.35037502592E+02  0.47370126274E+02  0.15564911599E+03  0.12508925826E+03 0.  0.
          5    1    3    3  502    0  0.16761785411E+01 -0.41575412939E+02  0.18871911042E+02  0.45879690081E+02  0.41800000000E+01 0.  1.
         -5    1    3    3    0  502 -0.73144838281E+02  0.76612915531E+02  0.28498215232E+02  0.10976942591E+03  0.41800000000E+01 0.  1.
        -11    1    1    2    0    0  0.14764532154E+02  0.12377000279E+02 -0.74754567426E+00  0.19280569758E+02  0.00000000000E+00 0.  1.
         11    1    1    2    0    0  0.56704127585E+02 -0.47414502871E+02  0.23001806562E+03  0.24160257382E+03  0.00000000000E+00 0. -1.
</event>
<event>
 7    1  0.6671761E-006  0.1858757E+03  0.7561462E-02  0.1162235E+00
          3   -1    0    0  501    0  0.00000000000E+00  0.00000000000E+00  0.23046627717E+03  0.23046627717E+03  0.00000000000E+00 0. -1.
         -3   -1    0    0    0  501 -0.00000000000E+00 -0.00000000000E+00 -0.15354667627E+03  0.15354667627E+03  0.00000000000E+00 0.  1.
         23    2    1    2    0    0 -0.20353690024E+02  0.14728078808E+03  0.19170801542E+02  0.19524861804E+03  0.12509436429E+03 0.  0.
          5    1    3    3  502    0  0.20858795695E+02 -0.14341529337E+02 -0.64297153785E+01  0.26449621196E+02  0.41800000000E+01 0.  1.
         -5    1    3    3    0  502 -0.41212485720E+02  0.16162231742E+03  0.25600516921E+02  0.16879899684E+03  0.41800000000E+01 0.  1.
        -11    1    1    2    0    0  0.23573113139E+02  0.72666749731E+01  0.33666469314E+01  0.24896396120E+02  0.00000000000E+00 0.  1.
         11    1    1    2    0    0 -0.32194231145E+01 -0.15454746306E+03  0.54382152434E+02  0.16386793928E+03  0.00000000000E+00 0. -1.
</event>
<event>
 7    1  0.6671761E-006  0.1122709E+03  0.7561462E-02  0.1256421E+00
         -2   -1    0    0    0  501 -0.00000000000E+00  0.00000000000E+00  0.90388806641E+02  0.90388806641E+02  0.00000000000E+00 0. -1.
          2   -1    0    0  501    0  0.00000000000E+00 -0.00000000000E+00 -0.20644278273E+03  0.20644278273E+03  0.00000000000E+00 0.  1.
         23    2    1    2    0    0  0.49278125656E+02 -0.59420841098E+02 -0.29867184582E+02  0.14999009652E+03  0.12508321355E+03 0.  0.
          5    1    3    3  502    0  0.87830865909E+02 -0.54854929584E+02 -0.37482813607E+02  0.11020779474E+03  0.41800000000E+01 0. -1.
         -5    1    3    3    0  502 -0.38552740253E+02 -0.45659115135E+01  0.76156290257E+01  0.39782301774E+02  0.41800000000E+01 0. -1.
        -11    1    1    2    0    0 -0.49981402377E+02  0.44502212575E+02 -0.10395290817E+03  0.12363168940E+03  0.00000000000E+00 0.  1.
         11    1    1    2    0    0  0.70327672034E+00  0.14918628523E+02  0.17766116661E+02  0.23209803454E+02  0.00000000000E+00 0. -1.
</event>
<event>
 6    1  0.6671761E-006  0.1315308E+03  0.7561462E-02  0.1225202E+00
         -2   -1    0    0    0  501 -0.00000000000E+00  0.00000000000E+00  0.26836338239E+03  0.26836338239E+03  0.00000000000E+00 0.  1.
          2   -1    0    0  501    0  0.00000000000E+00 -0.00000000000E+00 -0.24239781397E+03  0.24239781397E+03  0.00000000000E+00 0. -1.
          5    1    1    2  502    0  0.40893186222E+02 -0.43328889357E+02  0.13573765070E+03  0.14829641786E+03  0.41800000000E+01 0. -1.
         -5    1    1    2    0  502  0.14900812854E+02  0.88546119126E+02  0.92812770169E+02  0.12920577442E+03  0.41800000000E+01 0.  1.
        -11    1    1    2    0    0 -0.79287580653E+02 -0.42031017192E+02 -0.13955721638E+03  0.16591968990E+03  0.00000000000E+00 0. -1.
         11    1    1    2    0    0  0.23493581577E+02 -0.31862125772E+01 -0.63027636069E+02  0.67339314181E+02  0.00000000000E+00 0.  1.
</event>
<event>
 7    1  0.6671761E-006  0.2042494E+03  0.7561462E-02  0.1146203E+00
          2   -1    0    0  501    0  0.00000000000E+00  0.00000000000E+00  0.35136813651E+02  0.35136813651E+02  0.00000000000E+00 0. -1.
         -2   -1    0    0    0  501 -0.00000000000E+00 -0.00000000000E+00 -0.13909500674E+04  0.13909500674E+04  0.00000000000E+00 0.  1.
         23    2    1    2    0    0  0.60073181914E+02 -0.17755828272E+03 -0.74496264775E+03  0.77830265425E+03  0.12509973674E+03 0.  0.
          5    1    3    3  502    0 -0.35554063765E+02 -0.45173631198E+02 -0.13387925195E+03  0.14575964774E+03  0.41800000000E+01 0.  1.
         -5    1    3    3    0  502  0.95627245679E+02 -0.13238465153E+03 -0.61108339579E+03  0.63254300652E+03  0.41800000000E+01 0.  1.
        -11    1    1    2    0    0 -0.35549347333E+02  0.98295841806E+02 -0.17287292834E+03  0.20201702395E+03  0.00000000000E+00 0. -1.
         11    1    1    2    0    0 -0.24523834581E+02  0.79262440918E+02 -0.43797767762E+03  0.44576720281E+03  0.00000000000E+00 0.  1.
</event>
<event>
 7    1  0.6671761E-006  0.9881837E+02  0.7561462E-02  0.1282801E+00
         -1   -1    0    0    0  501 -0.00000000000E+00  0.00000000000E+00  0.45296879414E+02  0.45296879414E+02  0.00000000000E+00 0.  1.
          1   -1    0    0  501    0  0.00000000000E+00 -0.00000000000E+00 -0.28298270302E+03  0.28298270302E+03  0.00000000000E+00 0. -1.
         23    2    1    2    0    0 -0.28673281475E+02  0.10791209676E+02 -0.12231324907E+03  0.17760859994E+03  0.12508267904E+03 0.  0.
          5    1    3    3  502    0 -0.22101495165E+02  0.67298945472E+02 -0.77425050193E+02  0.10502254495E+03  0.41800000000E+01 0.  1.
         -5    1    3    3    0  502 -0.65717863095E+01 -0.56507735796E+02 -0.44888198879E+02  0.72586054987E+02  0.41800000000E+01 0.  1.
        -11    1    1    2    0    0  0.48561016885E+02 -0.10805268095E+02 -0.20618161397E+02  0.53851970799E+02  0.00000000000E+00 0.  1.
         11    1    1    2    0    0 -0.19887735411E+02  0.14058418888E-01 -0.94754413133E+02  0.96819011695E+02  0.00000000000E+00 0. -1.
</event>
<event>
 7    1  0.6671761E-006  0.1109802E+03  0.7561462E-02  0.1258765E+00
          2   -1    0    0  501    0  0.00000000000E+00  0.00000000000E+00  0.20592315919E+03  0.20592315919E+03  0.00000000000E+00 0. -1.
         -2   -1    0    0    0  501 -0.00000000000E+00 -0.00000000000E+00 -0.89670362682E+02  0.89670362682E+02  0.00000000000E+00 0.  1.
         23    2    1    2    0    0 -0.47937990735E+02 -0.30376529841E+02  0.24432630870E+00  0.13739385781E+03  0.12512484944E+03 0.  0.
          5    1    3    3  502    0 -0.78551517971E+02  0.16508944738E+02 -0.74389712184E+01  0.80719866976E+02  0.41800000000E+01 0.  1.
         -5    1    3    3    0  502  0.30613527235E+02 -0.46885474578E+02  0.76832975271E+01  0.56673990835E+02  0.41800000000E+01 0.  1.
        -11    1    1    2    0    0 -0.27597016553E+01  0.34461088306E+02  0.35240668526E+01  0.34750562695E+02  0.00000000000E+00 0.  1.
         11    1    1    2    0    0  0.50697692390E+02 -0.40845584653E+01  0.11248440334E+03  0.12344910136E+03  0.00000000000E+00 0. -1.
</event>
<event>
 6    1  0.6671761E-006  0.1329129E+03  0.7561462E-02  0.1223196E+00
         -1   -1    0    0    0  501 -0.00000000000E+00  0.00000000000E+00  0.42636529102E+02  0.42636529102E+02  0.00000000000E+00 0.  1.
          1   -1    0    0  501    0  0.00000000000E+00 -0.00000000000E+00 -0.72980595034E+03  0.72980595034E+03  0.00000000000E+00 0. -1.
          5    1    1    2  502    0  0.44633573178E+02  0.24823055803E+02 -0.24005170064E+01  0.51298877531E+02  0.41800000000E+01 0. -1.
         -5    1    1    2    0  502  0.12300708612E+01 -0.98349262655E+02 -0.24348259313E+03  0.26263155959E+03  0.41800000000E+01 0.  1.
        -11    1    1    2    0    0  0.13111460137E+02 -0.81176997034E+01 -0.19463611528E+02  0.24832229242E+02  0.00000000000E+00 0.  1.
         11    1    1    2    0    0 -0.58975104177E+02  0.81643906555E+02 -0.42182269958E+03  0.43367981308E+03  0.00000000000E+00 0. -1.
</event>
<event>
 7    1  0.6671761E-006  0.3450107E+03  0.7561462E-02  0.1064682E+00
         -2   -1    0    0    0  501 -0.00000000000E+00  0.00000000000E+00  0.65778621486E+02  0.65778621486E+02  0.00000000000E+00 0. -1.
          2   -1    0    0  501    0  0.00000000000E+00 -0.00000000000E+00 -0.19623177882E+04  0.19623177882E+04  0.00000000000E+00 0.  1.
         23    2    1    2    0    0  0.31886163267E+03 -0.11985989670E+03 -0.86936334470E+03  0.94206205801E+03  0.12509660432E+03 0.  0.
          5    1    3    3  502    0  0.40492177782E+02 -0.41035910682E+02 -0.63695763907E+02  0.86012703519E+02  0.41800000000E+01 0.  1.
         -5    1    3    3    0  502  0.27836945489E+03 -0.78823986016E+02 -0.80566758079E+03  0.85604935449E+03  0.41800000000E+01 0.  1.
        -11    1    1    2    0    0 -0.25189851141E+03  0.11121158099E+03 -0.70513483507E+03  0.75699142097E+03  0.00000000000E+00 0. -1.
         11    1    1    2    0    0 -0.66963121258E+02  0.86483157097E+01 -0.32204098699E+03  0.32904293075E+03  0.00000000000E+00 0.  1.
</event>
<event>
 7    1  0.6671761E-006  0.4451164E+02  0.7561462E-02  0.1477414E+00
          4   -1    0    0  501    0  0.00000000000E+00  0.00000000000E+00  0.17395712386E+03  0.17395712386E+03  0.00000000000E+00 0.  1.
         -4   -1    0    0    0  501 -0.00000000000E+00 -0.00000000000E+00 -0.16474393896E+03  0.16474393896E+03  0.00000000000E+00 0. -1.
         23    2    1    2    0    0  0.30320927911E-01  0.40415929018E+01 -0.12454284816E+03  0.17655802100E+03  0.12508188662E+03 0.  0.
          5    1    3    3  502    0  0.64930465832E+01  0.52308492918E+01  0.25066797381E+02  0.26745806572E+02  0.41800000000E+01 0. -1.
         -5    1    3    3    0  502 -0.64627256553E+01 -0.11892563900E+01 -0.14960964554E+03  0.14981221443E+03  0.41800000000E+01 0. -1.
        -11    1    1    2    0    0 -0.33433268468E+02  0.11108060679E+02  0.11630775813E+03  0.12152640476E+03  0.00000000000E+00 0.  1.
         11    1    1    2    0    0  0.33402947540E+02 -0.15149653581E+02  0.17448274931E+02  0.40616637060E+02  0.00000000000E+00 0. -1.
</event>
<event>
 7    1  0.6671761E-006  0.1423747E+03  0.7561462E-02  0.1210169E+00
         -2   -1    0    0    0  501 -0.00000000000E+00  0.00000000000E+00  0.35138966536E+03  0.35138966536E+03  0.00000000000E+00 0.  1.
          2   -1    0    0  501    0  0.00000000000E+00 -0.00000000000E+00 -0.73671522320E+02  0.73671522320E+02  0.00000000000E+00 0. -1.
         23    2    1    2    0    0 -0.11388437023E+03 -0.71677180631E+01  0.19895661486E+03  0.26125735384E+03  0.12510253543E+03 0.  0.
          5    1    3    3  502    0 -0.11426582902E+03 -0.35435266478E+02  0.93207828797E+02  0.15171522514E+03  0.41800000000E+01 0.  1.
         -5    1    3    3    0  502  0.38145878280E+00  0.28267548415E+02  0.10574878607E+03  0.10954212869E+03  0.41800000000E+01 0.  1.
        -11    1    1    2    0    0  0.96003669385E+02  0.36005399198E+02  0.79689962586E+02  0.12985986079E+03  0.00000000000E+00 0.  1.
         11    1    1    2    0    0  0.17880700848E+02 -0.28837681134E+02 -0.92843441463E+00  0.33943973051E+02  0.00000000000E+00 0. -1.
</event>
<event>
 7    1  0.6671761E-006  0.6458295E+02  0.7561462E-02  0.1379547E+00
          2   -1    0    0  501    0  0.00000000000E+00  0.00000000000E+00  0.57737965729E+02  0.57737965729E+02  0.00000000000E+00 0. -1.
         -2   -1    0    0    0  501 -0.00000000000E+00 -0.00000000000E+00 -0.24947736147E+03  0.24947736147E+03  0.00000000000E+00 0.  1.
         23    2    1    2    0    0 -0.34822412174E+02 -0.34508523749E+02 -0.12334852598E+03  0.18238357024E+03  0.12508185012E+03 0.  0.
          5    1    3    3  502    0 -0.17498727842E+02 -0.34383884400E+02  0.15945168848E+02  0.41954472850E+02  0.41800000000E+01 0. -1.
         -5    1    3    3    0  502 -0.17323684332E+02 -0.12463934858E+00 -0.13929369483E+03  0.14042909739E+03  0.41800000000E+01 0. -1.
        -11    1    1    2    0    0  0.43166913457E+02  0.69232578370E+01 -0.82025934809E+02  0.92949275940E+02  0.00000000000E+00 0.  1.
         11    1    1    2    0    0 -0.83445012823E+01  0.27585265912E+02  0.13635065050E+02  0.31882481020E+02  0.00000000000E+00 0. -1.
</event>
<event>
 7    1  0.6671761E-006  0.7509931E+02  0.7561462E-02  0.1343564E+00
          3   -1    0    0  501    0  0.00000000000E+00  0.00000000000E+00  0.29406134046E+02  0.29406134046E+02  0.00000000000E+00 0. -1.
         -3   -1    0    0    0  501 -0.00000000000E+00 -0.00000000000E+00 -0.46522427104E+03  0.46522427104E+03  0.00000000000E+00 0.  1.
         23    2    1    2    0    0  0.34812459232E+02  0.51357434925E+01 -0.23451242181E+03  0.26810734904E+03  0.12508873429E+03 0.  0.
          5    1    3    3  502    0  0.56144625571E+02 -0.75104707414E+01 -0.34363948531E+02  0.66385084996E+02  0.41800000000E+01 0. -1.
         -5    1    3    3    0  502 -0.21332166339E+02  0.12646214234E+02 -0.20014847328E+03  0.20172226404E+03  0.41800000000E+01 0. -1.
        -11    1    1    2    0    0 -0.49884808018E+02  0.49282348705E+01 -0.20225541219E+03  0.20837474255E+03  0.00000000000E+00 0.  1.
         11    1    1    2    0    0  0.15072348786E+02 -0.10063978363E+02  0.94969701077E+00  0.18148313498E+02  0.00000000000E+00 0. -1.
</event>
<event>
 7    1  0.6671761E-006  0.1152600E+03  0.7561462E-02  0.1251128E+00
          1   -1    0    0  501    0  0.00000000000E+00  0.00000000000E+00  0.37905359366E+03  0.37905359366E+03  0.00000000000E+00 0. -1.
         -1   -1    0    0    0  501 -0.00000000000E+00 -0.00000000000E+00 -0.68358512855E+02  0.68358512855E+02  0.00000000000E+00 0.  1.
         23    2    1    2    0    0  0.80783890346E+02  0.74440973211E+02  0.10341122514E+03  0.19599021354E+03  0.12510310503E+03 0.  0.
          5    1    3    3  502    0  0.32607970442E+02  0.82847336812E+01  0.10870988612E+03  0.11387373837E+03  0.41800000000E+01 0.  1.
         -5    1    3    3    0  502  0.48175919904E+02  0.66156239530E+02 -0.52986609835E+01  0.82116475177E+02  0.41800000000E+01 0.  1.
        -11    1    1    2    0    0 -0.45507611990E+02 -0.19789234470E+02  0.20600086623E+02  0.53730067177E+02  0.00000000000E+00 0.  1.
         11    1    1    2    0    0 -0.35276278356E+02 -0.54651738740E+02  0.18668376904E+03  0.19769182579E+03  0.00000000000E+00 0. -1.
</event>
<event>
 7    1  0.6671761E-006  0.7091697E+02  0.7561462E-02  0.1357002E+00
          3   -1    0    0  501    0  0.00000000000E+00  0.00000000000E+00  0.11960636106E+03  0.11960636106E+03  0.00000000000E+00 0. -1.
         -3   -1    0    0    0  501 -0.00000000000E+00 -0.00000000000E+00 -0.10313409982E+03  0.10313409982E+03  0.00000000000E+00 0.  1.
         23    2    1    2    0    0 -0.15284326657E+02 -0.13414607335E+01 -0.13718611231E+02  0.12678078280E+03  0.12509898655E+03 0.  0.
          5    1    3    3  502    0 -0.23629059990E+02  0.19971516966E+02 -0.64093263437E+02  0.71292445490E+02  0.41800000000E+01 0. -1.
         -5    1    3    3    0  502  0.83447333335E+01 -0.21312977699E+02  0.50374652206E+02  0.55488337312E+02  0.41800000000E+01 0. -1.
        -11    1    1    2    0    0 -0.33378087137E+02 -0.14186136728E+02  0.26166496217E+02  0.44721680430E+02  0.00000000000E+00 0.  1.
         11    1    1    2    0    0  0.48662413794E+02  0.15527597461E+02  0.40243762475E+01  0.51237997652E+02  0.00000000000E+00 0. -1.
</event>
<event>
 7    1  0.6671761E-006  0.1060623E+03  0.7561462E-02  0.1268041E+00
          1   -1    0    0  501    0  0.00000000000E+00  0.00000000000E+00  0.59339502111E+03  0.59339502111E+03  0.00000000000E+00 0. -1.
         -1   -1    0    0    0  501 -0.00000000000E+00 -0.00000000000E+00 -0.25617438369E+02  0.25617438369E+02  0.00000000000E+00 0.  1.
         23    2    1    2    0    0  0.13140462255E+02 -0.30057627001E+02  0.19566431085E+03  0.23454335400E+03  0.12509967897E+03 0.  0.
          5    1    3    3  502    0 -0.46256869458E+02  0.19221583099E+02  0.58748133624E+02  0.77317416105E+02  0.41800000000E+01 0.  1.
         -5    1    3    3    0  502  0.59397331713E+02 -0.49279210100E+02  0.13691617722E+03  0.15722593790E+03  0.41800000000E+01 0.  1.
        -11    1    1    2    0    0 -0.23295266236E+02 -0.21692047536E+02  0.59891190362E+02  0.67824545986E+02  0.00000000000E+00 0.  1.
         11    1    1    2    0    0  0.10154803981E+02  0.51749674537E+02  0.31222208153E+03  0.31664455948E+03  0.00000000000E+00 0. -1.
</event>
<event>
 7    1  0.6671761E-006  0.9385512E+02  0.7561462E-02  0.1293776E+00
         -1   -1    0    0    0  501 -0.00000000000E+00  0.00000000000E+00  0.11851623055E+03  0.11851623055E+03  0.00000000000E+00 0.  1.
          1   -1    0    0  501    0  0.00000000000E+00 -0.00000000000E+00 -0.18769027080E+03  0.18769027080E+03  0.00000000000E+00 0. -1.
         23    2    1    2    0    0 -0.47535078187E+02  0.53782938361E+02  0.66134860641E+02  0.14962529373E+03  0.11340952612E+03 0.  0.
          5    1    3    3  502    0 -0.57605132877E+02 -0.37399270106E+00 -0.67710218309E+01  0.58153334737E+02  0.41800000000E+01 0. -1.
         -5    1    3    3    0  502  0.10070054690E+02  0.54156931062E+02  0.72905882471E+02  0.91471958995E+02  0.41800000000E+01 0.  1.
        -11    1    1    2    0    0  0.44922906224E+02 -0.38378366077E+02 -0.12379679842E+03  0.13717366287E+03  0.00000000000E+00 0. -1.
         11    1    1    2    0    0  0.26121719635E+01 -0.15404572283E+02 -0.11512102473E+02  0.19407544743E+02  0.00000000000E+00 0.  1.
</event>
<event>
 7    1  0.6671761E-006  0.1413431E+03  0.7561462E-02  0.1211533E+00
         -2   -1    0    0    0  501 -0.00000000000E+00  0.00000000000E+00  0.10219137213E+03  0.10219137213E+03  0.00000000000E+00 0.  1.
          2   -1    0    0  501    0  0.00000000000E+00 -0.00000000000E+00 -0.27128028638E+03  0.27128028638E+03  0.00000000000E+00 0. -1.
         23    2    1    2    0    0 -0.11638239600E+03  0.48098707904E+02 -0.10785836090E+03  0.20769781199E+03  0.12508639931E+03 0.  0.
          5    1    3    3  502    0 -0.68459121603E+02  0.16484623382E+01  0.12759948243E+02  0.69782930849E+02  0.41800000000E+01 0. -1.
         -5    1    3    3    0  502 -0.47923274392E+02  0.46450245566E+02 -0.12061830914E+03  0.13791488114E+03  0.41800000000E+01 0. -1.
        -11    1    1    2    0    0  0.64893005792E+02  0.14157073584E+02 -0.52208315765E+02  0.84482147038E+02  0.00000000000E+00 0. -1.
         11    1    1    2    0    0  0.51489390203E+02 -0.62255781488E+02 -0.90222375939E+01  0.81291699474E+02  0.00000000000E+00 0.  1.
</event>
<event>
 6    1  0.6671761E-006  0.1185614E+03  0.7561462E-02  0.1245489E+00
         -2   -1    0    0    0  501 -0.00000000000E+00  0.00000000000E+00  0.80188672124E+02  0.80188672124E+02  0.00000000000E+00 0.  1.
          2   -1    0    0  501    0  0.00000000000E+00 -0.00000000000E+00 -0.53410313388E+03  0.53410313388E+03  0.00000000000E+00 0. -1.
          5    1    1    2  502    0  0.76209407392E+02  0.92381234871E+01 -0.66451153018E+02  0.10161911650E+03  0.41800000000E+01 0. -1.
         -5    1    1    2    0  502 -0.20623149628E+02  0.42062293799E+02  0.44565715720E+02  0.64792949291E+02  0.41800000000E+01 0.  1.
        -11    1    1    2    0    0 -0.36433871875E+02  0.18477217695E+02 -0.99318189230E+02  0.10739151412E+03  0.00000000000E+00 0. -1.
         11    1    1    2    0    0 -0.19152385890E+02 -0.69777634981E+02 -0.33271083523E+03  0.34048822609E+03  0.00000000000E+00 0.  1.
</event>
<event>
 7    1  0.6671761E-006  0.1440177E+03  0.7561462E-02  0.1208023E+00
          2   -1    0    0  501    0  0.00000000000E+00  0.00000000000E+00  0.12752262820E+03  0.12752262820E+03  0.00000000000E+00 0. -1.
         -2   -1    0    0    0  501 -0.00000000000E+00 -0.00000000000E+00 -0.33086871678E+03  0.33086871678E+03  0.00000000000E+00 0.  1.
         23    2    1    2    0    0  0.94558313903E+02 -0.35628047358E+02 -0.26447126344E+03  0.30951391237E+03  0.12507269995E+03 0.  0.
          5    1    3    3  502    0  0.57810238837E+02 -0.82618406122E+02 -0.17043627500E+03  0.19807529119E+03  0.41800000000E+01 0.  1.
         -5    1    3    3    0  502  0.36748075065E+02  0.46990358764E+02 -0.94034988442E+02  0.11143862117E+03  0.41800000000E+01 0.  1.
        -11    1    1    2    0    0 -0.66272299832E+02  0.60435103308E+02  0.65413901385E+02  0.11101080097E+03  0.00000000000E+00 0. -1.
         11    1    1    2    0    0 -0.28286014070E+02 -0.24807055950E+02 -0.42887265263E+01  0.37866631645E+02  0.00000000000E+00 0.  1.
</event>
<event>
 7    1  0.6671761E-006  0.1121891E+03  0.7561462E-02  0.1256569E+00
         -2   -1    0    0    0  501 -0.00000000000E+00  0.00000000000E+00  0.90554761915E+03  0.90554761915E+03  0.00000000000E+00 0.  1.
          2   -1    0    0  501    0  0.00000000000E+00 -0.00000000000E+00 -0.19009140742E+02  0.19009140742E+02  0.00000000000E+00 0. -1.
         23    2    1    2    0    0 -0.27832990812E+02 -0.23194311838E+02  0.71137908336E+03  0.72320133612E+03  0.12508925152E+03 0.  0.
          5    1    3    3  502    0  0.47952752910E+02 -0.13598823893E+02  0.36927635693E+03  0.37264848680E+03  0.41800000000E+01 0.  1.
         -5    1    3    3    0  502 -0.75785743722E+02 -0.95954879446E+01  0.34210272643E+03  0.35055284932E+03  0.41800000000E+01 0.  1.
        -11    1    1    2    0    0 -0.18079403075E+02  0.43909006195E+02  0.10226106703E+03  0.11274835462E+03  0.00000000000E+00 0.  1.
         11    1    1    2    0    0  0.45912393887E+02 -0.20714694357E+02  0.72898328024E+02  0.88607069150E+02  0.00000000000E+00 0. -1.
</event>
<event>
 7    1  0.6671761E-006  0.9929127E+02  0.7561462E-02  0.1281793E+00
         -1   -1    0    0    0  501 -0.00000000000E+00  0.00000000000E+00  0.22421593889E+02  0.22421593889E+02  0.00000000000E+00 0.  1.
          1   -1    0    0  501    0  0.00000000000E+00 -0.00000000000E+00 -0.53041766372E+03  0.53041766372E+03  0.00000000000E+00 0. -1.
         23    2    1    2    0    0 -0.87752720408E+01  0.14251924728E+02 -0.22115248554E+03  0.24897283174E+03  0.11313233989E+03 0.  0.
          5    1    3    3  502    0 -0.20439426696E+02  0.53477088754E+02 -0.18666899846E+03  0.19529556209E+03  0.41800000000E+01 0. -1.
         -5    1    3    3    0  502  0.11664154655E+02 -0.39225164026E+02 -0.34483487075E+02  0.53677269654E+02  0.41800000000E+01 0.  1.
        -11    1    1    2    0    0  0.31609511463E+02  0.34145759541E+02 -0.12313209017E+03  0.13163056537E+03  0.00000000000E+00 0. -1.
         11    1    1    2    0    0 -0.22834239422E+02 -0.48397684269E+02 -0.16371149412E+03  0.17223586049E+03  0.00000000000E+00 0.  1.
</event>
<event>
 7    1  0.6671761E-006  0.1360909E+03  0.7561462E-02  0.1218688E+00
         -1   -1    0    0    0  501 -0.00000000000E+00  0.00000000000E+00  0.88108668609E+03  0.88108668609E+03  0.00000000000E+00 0.  1.
          1   -1    0    0  501    0  0.00000000000E+00 -0.00000000000E+00 -0.23179033304E+02  0.23179033304E+02  0.00000000000E+00 0. -1.
         23    2    1    2    0    0  0.42168242560E+02  0.76221633442E+02  0.55876165921E+03  0.57918078506E+03  0.12509153409E+03 0.  0.
          5    1    3    3  502    0 -0.12629672858E+02 -0.27643450823E+02  0.68881887746E+02  0.75404614377E+02  0.41800000000E+01 0. -1.
         -5    1    3    3    0  502  0.54797915418E+02  0.10386508427E+03  0.48987977146E+03  0.50377617069E+03  0.41800000000E+01 0. -1.
        -11    1    1    2    0    0  0.18670531174E+02 -0.57326016720E+02  0.18215957551E+03  0.19187749185E+03  0.00000000000E+00 0.  1.
         11    1    1    2    0    0 -0.60838773734E+02 -0.18895616722E+02  0.11698641807E+03  0.13320744248E+03  0.00000000000E+00 0. -1.
</event>
<event>
 7    1  0.6671761E-006  0.2511729E+03  0.7561462E-02  0.1112566E+00
         -2   -1    0    0    0  501 -0.00000000000E+00  0.00000000000E+00  0.70172549023E+02  0.70172549023E+02  0.00000000000E+00 0.  1.
          2   -1    0    0  501    0  0.00000000000E+00 -0.00000000000E+00 -0.10962550462E+04  0.10962550462E+04  0.00000000000E+00 0. -1.
         23    2    1    2    0    0  0.11732276966E+03 -0.22060839609E+03 -0.42928559520E+03  0.51221578424E+03  0.12508473399E+03 0.  0.
          5    1    3    3  502    0  0.89099611061E+02 -0.16932218864E+03 -0.40642971007E+03  0.44923415485E+03  0.41800000000E+01 0.  1.
         -5    1    3    3    0  502  0.28223158602E+02 -0.51286207453E+02 -0.22855885132E+02  0.62981629398E+02  0.41800000000E+01 0.  1.
        -11    1    1    2    0    0 -0.13660158326E+02  0.56840160798E+02 -0.25181806248E+03  0.25851448779E+03  0.00000000000E+00 0. -1.
         11    1    1    2    0    0 -0.10366261134E+03  0.16376823529E+03 -0.34497883953E+03  0.39569732322E+03  0.00000000000E+00 0.  1.
</event>
<event>
 7    1  0.6671761E-006  0.9531565E+02  0.7561462E-02  0.1290467E+00
         -1   -1    0    0    0  501 -0.00000000000E+00  0.00000000000E+00  0.78756333661E+02  0.78756333661E+02  0.00000000000E+00 0.  1.
          1   -1    0    0  501    0  0.00000000000E+00 -0.00000000000E+00 -0.24095983444E+03  0.24095983444E+03  0.00000000000E+00 0. -1.
         23    2    1    2    0    0  0.30244275378E+02 -0.68894053239E+02 -0.89267346229E+02  0.17110687846E+03  0.12509115872E+03 0.  0.
          5    1    3    3  502    0  0.43896449055E+02 -0.66026405409E+02 -0.11605586207E+03  0.14061585960E+03  0.41800000000E+01 0. -1.
         -5    1    3    3    0  502 -0.13652173677E+02 -0.28676478307E+01  0.26788515840E+02  0.30491018860E+02  0.41800000000E+01 0. -1.
        -11    1    1    2    0    0  0.41279868653E+01  0.61340360582E+02  0.64065110893E+01  0.61812001231E+02  0.00000000000E+00 0.  1.
         11    1    1    2    0    0 -0.34372262243E+02  0.75536926575E+01 -0.79342665643E+02  0.86797288412E+02  0.00000000000E+00 0. -1.
</event>
<event>
 7    1  0.6671761E-006  0.8046980E+02  0.7561462E-02  0.1327723E+00
          1   -1    0    0  501    0  0.00000000000E+00  0.00000000000E+00  0.12472469782E+02  0.12472469782E+02  0.00000000000E+00 0. -1.
         -1   -1    0    0    0  501 -0.00000000000E+00 -0.00000000000E+00 -0.14524961310E+04  0.14524961310E+04  0.00000000000E+00 0.  1.
         23    2    1    2    0    0  0.19986861857E+02 -0.37355207058E+02 -0.11200468048E+04  0.11278058429E+04  0.12508512435E+03 0.  0.
          5    1    3    3  502    0  0.87011379332E+01 -0.41000335306E+02 -0.11165856984E+03  0.11933920527E+03  0.41800000000E+01 0.  1.
         -5    1    3    3    0  502  0.11285723924E+02  0.36451282483E+01 -0.10083882349E+04  0.10084666377E+04  0.41800000000E+01 0.  1.
        -11    1    1    2    0    0  0.35914587038E+01  0.67711051612E+02 -0.20788831556E+03  0.21866695414E+03  0.00000000000E+00 0. -1.
         11    1    1    2    0    0 -0.23578320561E+02 -0.30355844554E+02 -0.11208854091E+03  0.11849580373E+03  0.00000000000E+00 0.  1.
</event>
<event>
 7    1  0.6671761E-006  0.1436333E+03  0.7561462E-02  0.1208522E+00
          3   -1    0    0  501    0  0.00000000000E+00  0.00000000000E+00  0.26663331032E+03  0.26663331032E+03  0.00000000000E+00 0. -1.
         -3   -1    0    0    0  501 -0.00000000000E+00 -0.00000000000E+00 -0.20428189555E+03  0.20428189555E+03  0.00000000000E+00 0.  1.
         23    2    1    2    0    0 -0.68024102320E+02 -0.12452938304E+03 -0.11857093710E+03  0.22325026274E+03  0.12508703750E+03 0.  0.
          5    1    3    3  502    0 -0.17922461312E+02 -0.51748849587E+02  0.20337362374E+02  0.58568240211E+02  0.41800000000E+01 0. -1.
         -5    1    3    3    0  502 -0.50101641007E+02 -0.72780533456E+02 -0.13890829947E+03  0.16468202253E+03  0.41800000000E+01 0. -1.
        -11    1    1    2    0    0  0.19193691019E+02  0.16415910458E+02  0.10224115283E+03  0.10531444926E+03  0.00000000000E+00 0. -1.
         11    1    1    2    0    0  0.48830411301E+02  0.10811347258E+03  0.78681199031E+02  0.14235049386E+03  0.00000000000E+00 0.  1.
</event>
<event>
 6    1  0.6671761E-006  0.1256197E+03  0.7561462E-02  0.1234104E+00
         -1   -1    0    0    0  501 -0.00000000000E+00  0.00000000000E+00  0.65725605545E+03  0.65725605545E+03  0.00000000000E+00 0.  1.
          1   -1    0    0  501    0  0.00000000000E+00 -0.00000000000E+00 -0.58557106358E+02  0.58557106358E+02  0.00000000000E+00 0. -1.
          5    1    1    2  502    0  0.29967775459E+02  0.35294472684E+02  0.25105802851E+03  0.25532601405E+03  0.41800000000E+01 0. -1.
         -5    1    1    2    0  502  0.75644156710E+00 -0.95968750015E+02  0.33224110845E+03  0.34584996708E+03  0.41800000000E+01 0.  1.
        -11    1    1    2    0    0 -0.38281725779E+02 -0.84070797555E+01 -0.10331569146E+02  0.40532836561E+02  0.00000000000E+00 0. -1.
         11    1    1    2    0    0  0.75575087534E+01  0.69081357087E+02  0.25731381273E+02  0.74104344122E+02  0.00000000000E+00 0.  1.
</event>
<event>
 7    1  0.6671761E-006  0.9085608E+02  0.7561462E-02  0.1300792E+00
         -1   -1    0    0    0  501 -0.00000000000E+00  0.00000000000E+00  0.14270203526E+03  0.14270203526E+03  0.00000000000E+00 0.  1.
          1   -1    0    0  501    0  0.00000000000E+00 -0.00000000000E+00 -0.94286162463E+02  0.94286162463E+02  0.00000000000E+00 0. -1.
         23    2    1    2    0    0 -0.20253032721E+02 -0.33872314995E+02  0.13268723138E+02  0.13183726095E+03  0.12508990887E+03 0.  0.
          5    1    3    3  502    0 -0.36343621288E+02 -0.59823230603E+02  0.48323931898E+02  0.85160745195E+02  0.41800000000E+01 0. -1.
         -5    1    3    3    0  502  0.16090588567E+02  0.25950915608E+02 -0.35055208760E+02  0.46676515750E+02  0.41800000000E+01 0. -1.
        -11    1    1    2    0    0  0.44180349070E+02  0.35660327947E+02 -0.64378543681E+01  0.57140250280E+02  0.00000000000E+00 0. -1.
         11    1    1    2    0    0 -0.23927316349E+02 -0.17880129521E+01  0.41585004026E+02  0.48010686496E+02  0.00000000000E+00 0.  1.
</event>
<event>
 6    1  0.6671761E-006  0.1359648E+03  0.7561462E-02  0.1218864E+00
         -2   -1    0    0    0  501 -0.00000000000E+00  0.00000000000E+00  0.14909586005E+03  0.14909586005E+03  0.00000000000E+00 0.  1.
          2   -1    0    0  501    0  0.00000000000E+00 -0.00000000000E+00 -0.30259951050E+03  0.30259951050E+03  0.00000000000E+00 0. -1.
          5    1    1    2  502    0 -0.62522777426E+02  0.12784939352E+01 -0.24752358402E+02  0.67386080835E+02  0.41800000000E+01 0. -1.
         -5    1    1    2    0  502  0.60534850744E+02 -0.76548624350E+02  0.91791948524E+02  0.13404250915E+03  0.41800000000E+01 0.  1.
        -11    1    1    2    0    0  0.14428214421E+02 -0.14787471751E+02 -0.15048257274E+02  0.25559591921E+02  0.00000000000E+00 0.  1.
         11    1    1    2    0    0 -0.12440287739E+02  0.90057602165E+02 -0.20549498330E+03  0.22470718865E+03  0.00000000000E+00 0. -1.
</event>
<event>
 7    1  0.6671761E-006  0.1941245E+03  0.7561462E-02  0.1154793E+00
         -1   -1    0    0    0  501 -0.00000000000E+00  0.00000000000E+00  0.39044747912E+02  0.39044747912E+02  0.00000000000E+00 0.  1.
          1   -1    0    0  501    0  0.00000000000E+00 -0.00000000000E+00 -0.12397596791E+04  0.12397596791E+04  0.00000000000E+00 0. -1.
         23    2    1    2    0    0 -0.12945578855E+03 -0.12028702204E+03 -0.41166793004E+03  0.46512585983E+03  0.12507522537E+03 0.  0.
          5    1    3    3  502    0 -0.13739309268E+03 -0.11932876057E+03 -0.41675202980E+03  0.45477020764E+03  0.41800000000E+01 0.  1.
         -5    1    3    3    0  502  0.79373041293E+01 -0.95826146760E+00  0.50840997627E+01  0.10355652190E+02  0.41800000000E+01 0.  1.
        -11    1    1    2    0    0  0.43600223725E+02 -0.64971995921E+01 -0.22120109821E+03  0.22555070153E+03  0.00000000000E+00 0. -1.
         11    1    1    2    0    0  0.85855564825E+02  0.12678422163E+03 -0.56784590291E+03  0.58812786562E+03  0.00000000000E+00 0.  1.
</event>
<event>
 7    1  0.6671761E-006  0.1197316E+03  0.7561462E-02  0.1243540E+00
         -2   -1    0    0    0  501 -0.00000000000E+00  0.00000000000E+00  0.17980405748E+03  0.17980405748E+03  0.00000000000E+00 0.  1.
          2   -1    0    0  501    0  0.00000000000E+00 -0.00000000000E+00 -0.87373799956E+02  0.87373799956E+02  0.00000000000E+00 0. -1.
         23    2    1    2    0    0 -0.58109296905E+02 -0.23278380919E+02  0.48933841445E+02  0.14819028887E+03  0.12508903817E+03 0.  0.
          5    1    3    3  502    0 -0.30199326593E+02 -0.68977562270E+02 -0.17221529328E+00  0.75414888991E+02  0.41800000000E+01 0.  1.
         -5    1    3    3    0  502 -0.27909970312E+02  0.45699181351E+02  0.49106056738E+02  0.72775399878E+02  0.41800000000E+01 0.  1.
        -11    1    1    2    0    0  0.82388067712E+02  0.10963524831E+02  0.37122868770E+02  0.91028017466E+02  0.00000000000E+00 0. -1.
         11    1    1    2    0    0 -0.24278770807E+02  0.12314856088E+02  0.63735473062E+01  0.27959551098E+02  0.00000000000E+00 0.  1.
</event>
<event>
 7    1  0.6671761E-006  0.2242052E+03  0.7561462E-02  0.1130786E+00
          2   -1    0    0  501    0  0.00000000000E+00  0.00000000000E+00  0.55633869167E+03  0.55633869167E+03  0.00000000000E+00 0. -1.
         -2   -1    0    0    0  501 -0.00000000000E+00 -0.00000000000E+00 -0.10792965884E+03  0.10792965884E+03  0.00000000000E+00 0.  1.
         23    2    1    2    0    0  0.20618511488E+03  0.73395122937E+02  0.21207852201E+03  0.32974565674E+03  0.12591962901E+03 0.  0.
          5    1    3    3  502    0  0.99285565585E+02  0.23470684367E+02  0.18075914634E+03  0.20760500462E+03  0.41800000000E+01 0. -1.
         -5    1    3    3    0  502  0.10689954930E+03  0.49924438571E+02  0.31319375669E+02  0.12214065212E+03  0.41800000000E+01 0.  1.
        -11    1    1    2    0    0 -0.15122345711E+02  0.11670625914E+02  0.21991870714E+00  0.19103329900E+02  0.00000000000E+00 0.  1.
         11    1    1    2    0    0 -0.19106276917E+03 -0.85065748851E+02  0.23611059211E+03  0.31541936386E+03  0.00000000000E+00 0. -1.
</event>
<event>
 7    1  0.6671761E-006  0.9878640E+02  0.7561462E-02  0.1282869E+00
          4   -1    0    0  501    0  0.00000000000E+00  0.00000000000E+00  0.41132313116E+03  0.41132313116E+03  0.00000000000E+00 0. -1.
         -4   -1    0    0    0  501 -0.00000000000E+00 -0.00000000000E+00 -0.29931730492E+02  0.29931730492E+02  0.00000000000E+00 0.  1.
         23    2    1    2    0    0 -0.87874199747E+01 -0.75893039894E+01  0.17845571988E+03  0.21823843580E+03  0.12508698821E+03 0.  0.
          5    1    3    3  502    0 -0.34650810963E+02 -0.56846584707E+02  0.72682073160E+02  0.98652770118E+02  0.41800000000E+01 0. -1.
         -5    1    3    3    0  502  0.25863390988E+02  0.49257280717E+02  0.10577364672E+03  0.11958566568E+03  0.41800000000E+01 0. -1.
        -11    1    1    2    0    0 -0.30128624398E+02  0.17599958021E+02  0.31743181842E+02  0.47171200154E+02  0.00000000000E+00 0.  1.
         11    1    1    2    0    0  0.38916044373E+02 -0.10010654032E+02  0.17119249895E+03  0.17584522570E+03  0.00000000000E+00 0. -1.
</event>
<event>
 7    1  0.6671761E-006  0.1502319E+03  0.7561462E-02  0.1200188E+00
         -2   -1    0    0    0  501 -0.00000000000E+00  0.00000000000E+00  0.17893108403E+02  0.17893108403E+02  0.00000000000E+00 0.  1.
          2   -1    0    0  501    0  0.00000000000E+00 -0.00000000000E+00 -0.13930190626E+04  0.13930190626E+04  0.00000000000E+00 0. -1.
         23    2    1    2    0    0 -0.55289958407E+02 -0.97472540564E+02 -0.83960304397E+03  0.85623515577E+03  0.12508994713E+03 0.  0.
          5    1    3    3  502    0  0.38520143956E+02 -0.47549677309E+02 -0.33033427049E+03  0.33598061844E+03  0.41800000000E+01 0. -1.
         -5    1    3    3    0  502 -0.93810102364E+02 -0.49922863255E+02 -0.50926877347E+03  0.52025453733E+03  0.41800000000E+01 0. -1.
        -11    1    1    2    0    0  0.72452439549E+02  0.84205690015E+02 -0.50594922255E+03  0.51800055022E+03  0.00000000000E+00 0. -1.
         11    1    1    2    0    0 -0.17162481142E+02  0.13266850550E+02 -0.29573687648E+02  0.36676464981E+02  0.00000000000E+00 0.  1.
</event>
<event>
 7    1  0.6671761E-006  0.8589237E+02  0.7561462E-02  0.1313115E+00
          4   -1    0    0  501    0  0.00000000000E+00  0.00000000000E+00  0.17546972377E+03  0.17546972377E+03  0.00000000000E+00 0. -1.
         -4   -1    0    0    0  501 -0.00000000000E+00 -0.00000000000E+00 -0.80278719003E+02  0.80278719003E+02  0.00000000000E+00 0.  1.
         23    2    1    2    0    0 -0.18516040702E+02 -0.37870616448E+02  0.27652347091E+02  0.13486595067E+03  0.12508854862E+03 0.  0.
          5    1    3    3  502    0 -0.66770752143E+02 -0.28327562057E+01 -0.42685773641E+01  0.67097324851E+02  0.41800000000E+01 0.  1.
         -5    1    3    3    0  502  0.48254711442E+02 -0.35037860242E+02  0.31920924455E+02  0.67768625814E+02  0.41800000000E+01 0.  1.
        -11    1    1    2    0    0 -0.88439719721E+00  0.15112660646E+02 -0.21873870238E+02  0.26601520057E+02  0.00000000000E+00 0.  1.
         11    1    1    2    0    0  0.19400437899E+02  0.22757955802E+02  0.89412527916E+02  0.94280972053E+02  0.00000000000E+00 0. -1.
</event>
<event>
 6    1  0.6671761E-006  0.1203497E+03  0.7561462E-02  0.1242521E+00
          1   -1    0    0  501    0  0.00000000000E+00  0.00000000000E+00  0.77605274032E+02  0.77605274032E+02  0.00000000000E+00 0. -1.
         -1   -1    0    0    0  501 -0.00000000000E+00 -0.00000000000E+00 -0.39553152890E+03  0.39553152890E+03  0.00000000000E+00 0.  1.
          5    1    1    2  502    0 -0.21888721201E+02 -0.28425921290E+02 -0.12807057227E+03  0.13306649841E+03  0.41800000000E+01 0. -1.
         -5    1    1    2    0  502  0.74718702803E+02  0.79301494049E+02 -0.19795189726E+03  0.22599565822E+03  0.41800000000E+01 0.  1.
        -11    1    1    2    0    0 -0.24105806868E+02 -0.60598892944E+02  0.34575458995E+02  0.73815839191E+02  0.00000000000E+00 0. -1.
         11    1    1    2    0    0 -0.28724174733E+02  0.97233201852E+01 -0.26479244339E+02  0.40258807115E+02  0.00000000000E+00 0.  1.
</event>
<event>
 6    1  0.6671761E-006  0.1154153E+03  0.7561462E-02  0.1250858E+00
         -1   -1    0    0    0  501 -0.00000000000E+00  0.00000000000E+00  0.38866855781E+02  0.38866855781E+02  0.00000000000E+00 0.  1.
          1   -1    0    0  501    0  0.00000000000E+00 -0.00000000000E+00 -0.37133168655E+03  0.37133168655E+03  0.00000000000E+00 0. -1.
          5    1    1    2  502    0 -0.65352699408E+02  0.21439650457E+02 -0.55616540267E+02  0.88551148400E+02  0.41800000000E+01 0. -1.
         -5    1    1    2    0  502  0.53672020179E+02 -0.35195245616E+02 -0.88204129750E+02  0.10916424309E+03  0.41800000000E+01 0.  1.
        -11    1    1    2    0    0 -0.46265664141E+01  0.53992174401E+02 -0.98250368218E+02  0.11220380951E+03  0.00000000000E+00 0.  1.
         11    1    1    2    0    0  0.16307245644E+02 -0.40236579242E+02 -0.90393792533E+02  0.10027934133E+03  0.00000000000E+00 0. -1.
</event>
<event>
 7    1  0.6671761E-006  0.1420825E+03  0.7561462E-02  0.1210554E+00
         -1   -1    0    0    0  501 -0.00000000000E+00  0.00000000000E+00  0.12779104334E+03  0.12779104334E+03  0.00000000000E+00 0.  1.
          1   -1    0    0  501    0  0.00000000000E+00 -0.00000000000E+00 -0.19653116567E+03  0.19653116567E+03  0.00000000000E+00 0. -1.
         23    2    1    2    0    0 -0.11090763839E+03  0.30912443809E+02 -0.43861728571E+02  0.17557618907E+03  0.12508822286E+03 0.  0.
          5    1    3    3  502    0 -0.16020366881E+02 -0.44632912905E+02 -0.37197405109E+01  0.47749952239E+02  0.41800000000E+01 0.  1.
         -5    1    3    3    0  502 -0.94887271512E+02  0.75545356714E+02 -0.40141988060E+02  0.12782623683E+03  0.41800000000E+01 0.  1.
        -11    1    1    2    0    0  0.29333794723E+02 -0.64067552815E+01 -0.51408669904E+02  0.59534606469E+02  0.00000000000E+00 0. -1.
         11    1    1    2    0    0  0.81573843669E+02 -0.24505688527E+02  0.26530276151E+02  0.89211413473E+02  0.00000000000E+00 0.  1.
</event>
<event>
 7    1  0.6671761E-006  0.6935258E+02  0.7561462E-02  0.1362309E+00
          2   -1    0    0  501    0  0.00000000000E+00  0.00000000000E+00  0.96250851753E+02  0.96250851753E+02  0.00000000000E+00 0. -1.
         -2   -1    0    0    0  501 -0.00000000000E+00 -0.00000000000E+00 -0.16069774411E+03  0.16069774411E+03  0.00000000000E+00 0.  1.
         23    2    1    2    0    0  0.42541323569E+02  0.34343289490E+02 -0.42919497590E+02  0.14310467177E+03  0.12509051948E+03 0.  0.
          5    1    3    3  502    0  0.24438528159E+02 -0.16577240164E+02 -0.74586317062E+02  0.80328311590E+02  0.41800000000E+01 0. -1.
         -5    1    3    3    0  502  0.18102795409E+02  0.50920529655E+02  0.31666819472E+02  0.62776360180E+02  0.41800000000E+01 0. -1.
        -11    1    1    2    0    0 -0.16462115733E+02 -0.13613677446E+02 -0.59565219789E+02  0.63279924751E+02  0.00000000000E+00 0.  1.
         11    1    1    2    0    0 -0.26079207836E+02 -0.20729612045E+02  0.38037825022E+02  0.50563999341E+02  0.00000000000E+00 0. -1.
</event>
<event>
 7    1  0.6671761E-006  0.9789466E+02  0.7561462E-02  0.1284787E+00
         -1   -1    0    0    0  501 -0.00000000000E+00  0.00000000000E+00  0.34095560036E+02  0.34095560036E+02  0.00000000000E+00 0.  1.
          1   -1    0    0  501    0  0.00000000000E+00 -0.00000000000E+00 -0.45001014786E+03  0.45001014786E+03  0.00000000000E+00 0. -1.
         23    2    1    2    0    0 -0.42165755096E+02 -0.29760726649E+02 -0.17408182426E+03  0.22048882388E+03  0.12508872117E+03 0.  0.
          5    1    3    3  502    0  0.16358246326E+02 -0.33350275958E+02 -0.67186807083E+00  0.37386587649E+02  0.41800000000E+01 0.  1.
         -5    1    3    3    0  502 -0.58524001423E+02  0.35895493091E+01 -0.17340995619E+03  0.18310223623E+03  0.41800000000E+01 0.  1.
        -11    1    1    2    0    0 -0.99008644560E+00 -0.27725672637E+02 -0.11017052269E+03  0.11361002272E+03  0.00000000000E+00 0. -1.
         11    1    1    2    0    0  0.43155841542E+02  0.57486399286E+02 -0.13166224087E+03  0.15000686129E+03  0.00000000000E+00 0.  1.
</event>
<event>
 7    1  0.6671761E-006  0.9610379E+02  0.7561462E-02  0.1288709E+00
          3   -1    0    0  501    0  0.00000000000E+00  0.00000000000E+00  0.15058154642E+03  0.15058154642E+03  0.00000000000E+00 0. -1.
         -3   -1    0    0    0  501 -0.00000000000E+00 -0.00000000000E+00 -0.75878149161E+02  0.75878149161E+02  0.00000000000E+00 0.  1.
         23    2    1    2    0    0  0.20248165373E+02 -0.25936433550E+01  0.35244041140E+02  0.13155479156E+03  0.12509118898E+03 0.  0.
          5    1    3    3  502    0 -0.10490984897E+02 -0.49644794490E+02  0.51984451858E+02  0.72763466238E+02  0.41800000000E+01 0. -1.
         -5    1    3    3    0  502  0.30739150270E+02  0.47051151135E+02 -0.16740410718E+02  0.58791325325E+02  0.41800000000E+01 0. -1.
        -11    1    1    2    0    0 -0.29237292276E+01 -0.39400888684E+02  0.99792921620E+01  0.40750024463E+02  0.00000000000E+00 0.  1.
         11    1    1    2    0    0 -0.17324436145E+02  0.41994532039E+02  0.29480063961E+02  0.54154879560E+02  0.00000000000E+00 0. -1.
</event>
<event>
 6    1  0.6671761E-006  0.9390641E+02  0.7561462E-02  0.1293658E+00
          1   -1    0    0  501    0  0.00000000000E+00  0.00000000000E+00  0.37561029031E+03  0.37561029031E+03  0.00000000000E+00 0. -1.
         -1   -1    0    0    0  501 -0.00000000000E+00 -0.00000000000E+00 -0.36594756829E+02  0.36594756829E+02  0.00000000000E+00 0.  1.
          5    1    1    2  502    0 -0.60074553173E+02 -0.10126257807E+00  0.27587676336E+02  0.66238315790E+02  0.41800000000E+01 0. -1.
         -5    1    1    2    0  502  0.51881390153E+02  0.23137458767E+02  0.11806591148E+03  0.13108795709E+03  0.41800000000E+01 0.  1.
        -11    1    1    2    0    0 -0.27342135916E+02 -0.21979969083E+02  0.16693508847E+03  0.17058146206E+03  0.00000000000E+00 0. -1.
         11    1    1    2    0    0  0.35535298936E+02 -0.10562271063E+01  0.26426857205E+02  0.44297312198E+02  0.00000000000E+00 0.  1.
</event>
<event>
 7    1  0.6671761E-006  0.9876369E+02  0.7561462E-02  0.1282917E+00
          2   -1    0    0  501    0  0.00000000000E+00  0.00000000000E+00  0.30193583500E+03  0.30193583500E+03  0.00000000000E+00 0. -1.
         -2   -1    0    0    0  501 -0.00000000000E+00 -0.00000000000E+00 -0.44639503311E+02  0.44639503311E+02  0.00000000000E+00 0.  1.
         23    2    1    2    0    0 -0.18464824568E+02 -0.13661542833E+02  0.92636831863E+02  0.15734437357E+03  0.12509229304E+03 0.  0.
          5    1    3    3  502    0 -0.51909127181E+02  0.26324375384E+02  0.86984274468E+02  0.10474381427E+03  0.41800000000E+01 0. -1.
         -5    1    3    3    0  502  0.33444302613E+02 -0.39985918217E+02  0.56525573950E+01  0.52600559294E+02  0.41800000000E+01 0. -1.
        -11    1    1    2    0    0  0.51987017511E+02  0.48171920809E+01  0.62998646977E+02  0.81821053832E+02  0.00000000000E+00 0.  1.
         11    1    1    2    0    0 -0.33522192943E+02  0.88443507524E+01  0.10166085285E+03  0.10740991091E+03  0.00000000000E+00 0. -1.
</event>
<event>
 7    1  0.6671761E-006  0.1939278E+03  0.7561462E-02  0.1154966E+00
         -1   -1    0    0    0  501 -0.00000000000E+00  0.00000000000E+00  0.57724114845E+02  0.57724114845E+02  0.00000000000E+00 0.  1.
          1   -1    0    0  501    0  0.00000000000E+00 -0.00000000000E+00 -0.74714397384E+03  0.74714397384E+03  0.00000000000E+00 0. -1.
         23    2    1    2    0    0  0.37178121213E+02  0.17266867443E+03 -0.34709597837E+03  0.40904727124E+03  0.12508944031E+03 0.  0.
          5    1    3    3  502    0  0.35282946067E+02  0.19544932587E+02 -0.14849118703E+02  0.43184017868E+02  0.41800000000E+01 0.  1.
         -5    1    3    3    0  502  0.18951751465E+01  0.15312374184E+03 -0.33224685967E+03  0.36586325337E+03  0.41800000000E+01 0.  1.
        -11    1    1    2    0    0  0.20370625311E+02 -0.12455217695E+02 -0.19367322784E+02  0.30743910214E+02  0.00000000000E+00 0.  1.
         11    1    1    2    0    0 -0.57548746525E+02 -0.16021345673E+03 -0.32295655783E+03  0.36507690723E+03  0.00000000000E+00 0. -1.
</event>
<event>
 7    1  0.6671761E-006  0.1330354E+03  0.7561462E-02  0.1223020E+00
          1   -1    0    0  501    0  0.00000000000E+00  0.00000000000E+00  0.10382072720E+04  0.10382072720E+04  0.00000000000E+00 0. -1.
         -1   -1    0    0    0  501 -0.00000000000E+00 -0.00000000000E+00 -0.25440311193E+02  0.25440311193E+02  0.00000000000E+00 0.  1.
         23    2    1    2    0    0 -0.10877036786E+03 -0.46224936089E+02  0.64094808949E+03  0.66364866069E+03  0.12508938314E+03 0.  0.
          5    1    3    3  502    0 -0.34028033387E+01 -0.18105574289E+02  0.66451046209E+01  0.20025501400E+02  0.41800000000E+01 0. -1.
         -5    1    3    3    0  502 -0.10536756452E+03 -0.28119361800E+02  0.63430298486E+03  0.64362315929E+03  0.41800000000E+01 0. -1.
        -11    1    1    2    0    0  0.78424726851E+01  0.35721066387E+02  0.17252888940E+03  0.17636245813E+03  0.00000000000E+00 0. -1.
         11    1    1    2    0    0  0.10092789517E+03  0.10503869702E+02  0.19928998191E+03  0.22363646436E+03  0.00000000000E+00 0.  1.
</event>
<event>
 7    1  0.6671761E-006  0.1224756E+03  0.7561462E-02  0.1239068E+00
         -1   -1    0    0    0  501 -0.00000000000E+00  0.00000000000E+00  0.19476329816E+03  0.19476329816E+03  0.00000000000E+00 0.  1.
          1   -1    0    0  501    0  0.00000000000E+00 -0.00000000000E+00 -0.81415130623E+02  0.81415130623E+02  0.00000000000E+00 0. -1.
         23    2    1    2    0    0 -0.26308690564E+02 -0.44428430464E+02  0.76587932820E+02  0.15549630045E+03  0.12508938950E+03 0.  0.
          5    1    3    3  502    0  0.49836702483E+02 -0.13925406923E+02  0.40216134608E+02  0.65669047162E+02  0.41800000000E+01 0. -1.
         -5    1    3    3    0  502 -0.76145393047E+02 -0.30503023541E+02  0.36371798212E+02  0.89827253284E+02  0.41800000000E+01 0. -1.
        -11    1    1    2    0    0 -0.25523201432E+02 -0.16895333249E+02 -0.35919478260E+01  0.30818633749E+02  0.00000000000E+00 0.  1.
         11    1    1    2    0    0  0.51831891996E+02  0.61323763713E+02  0.40352182544E+02  0.89863494590E+02  0.00000000000E+00 0. -1.
</event>
<event>
 7    1  0.6671761E-006  0.1197943E+03  0.7561462E-02  0.1243437E+00
         -1   -1    0    0    0  501 -0.00000000000E+00  0.00000000000E+00  0.20144966256E+03  0.20144966256E+03  0.00000000000E+00 0.  1.
          1   -1    0    0  501    0  0.00000000000E+00 -0.00000000000E+00 -0.86954116868E+02  0.86954116868E+02  0.00000000000E+00 0. -1.
         23    2    1    2    0    0  0.11749442070E+02  0.70761662199E+02  0.94059329459E+02  0.17216207018E+03  0.12508940293E+03 0.  0.
          5    1    3    3  502    0  0.22436067688E+02  0.10113451216E+03  0.44296944751E+02  0.11274421669E+03  0.41800000000E+01 0. -1.
         -5    1    3    3    0  502 -0.10686625618E+02 -0.30372849958E+02  0.49762384708E+02  0.59417853492E+02  0.41800000000E+01 0. -1.
        -11    1    1    2    0    0 -0.17847040937E+00  0.15955753987E+02 -0.14953998786E+02  0.21868699474E+02  0.00000000000E+00 0. -1.
         11    1    1    2    0    0 -0.11570971661E+02 -0.86717416186E+02  0.35390215022E+02  0.94373009777E+02  0.00000000000E+00 0.  1.
</event>
<event>
 7    1  0.6671761E-006  0.9536511E+02  0.7561462E-02  0.1290356E+00
          2   -1    0    0  501    0  0.00000000000E+00  0.00000000000E+00  0.40675705118E+03  0.40675705118E+03  0.00000000000E+00 0. -1.
         -2   -1    0    0    0  501 -0.00000000000E+00 -0.00000000000E+00 -0.24519194323E+02  0.24519194323E+02  0.00000000000E+00 0.  1.
         23    2    1    2    0    0 -0.27349386483E+02 -0.84048064458E+01  0.24657572717E+03  0.27796745420E+03  0.12509071369E+03 0.  0.
          5    1    3    3  502    0 -0.55612350792E+02  0.38452370569E+02  0.17585169642E+03  0.18844789704E+03  0.41800000000E+01 0. -1.
         -5    1    3    3    0  502  0.28262964309E+02 -0.46857177015E+02  0.70724030745E+02  0.89519557161E+02  0.41800000000E+01 0. -1.
        -11    1    1    2    0    0  0.97593417279E+01  0.34937698655E+02  0.48863645556E+02  0.60856744863E+02  0.00000000000E+00 0.  1.
         11    1    1    2    0    0  0.17590044755E+02 -0.26532892209E+02  0.86798484131E+02  0.92452046440E+02  0.00000000000E+00 0. -1.
</event>
<event>
 7    1  0.6671761E-006  0.1663099E+03  0.7561462E-02  0.1181752E+00
          1   -1    0    0  501    0  0.00000000000E+00  0.00000000000E+00  0.17374111223E+03  0.17374111223E+03  0.00000000000E+00 0. -1.
         -1   -1    0    0    0  501 -0.00000000000E+00 -0.00000000000E+00 -0.19603429532E+03  0.19603429532E+03  0.00000000000E+00 0.  1.
         23    2    1    2    0    0 -0.12243958160E+03  0.76634468178E+02  0.20816220876E+02  0.19221115563E+03  0.12509004933E+03 0.  0.
          5    1    3    3  502    0 -0.57027521045E+01  0.38830499738E+02  0.52243027082E+02  0.65476219883E+02  0.41800000000E+01 0. -1.
         -5    1    3    3    0  502 -0.11673682949E+03  0.37803968440E+02 -0.31426806206E+02  0.12673493575E+03  0.41800000000E+01 0. -1.
        -11    1    1    2    0    0  0.35543924501E+02 -0.75525680130E+02 -0.34199712831E+02  0.90205982538E+02  0.00000000000E+00 0. -1.
         11    1    1    2    0    0  0.86895657097E+02 -0.11087880484E+01 -0.89096911337E+01  0.87358269382E+02  0.00000000000E+00 0.  1.
</event>
<event>
 7    1  0.6671761E-006  0.1292756E+03  0.7561462E-02  0.1228535E+00
         -2   -1    0    0    0  501 -0.00000000000E+00  0.00000000000E+00  0.38161394647E+02  0.38161394647E+02  0.00000000000E+00 0.  1.
          2   -1    0    0  501    0  0.00000000000E+00 -0.00000000000E+00 -0.52479479121E+03  0.52479479121E+03  0.00000000000E+00 0. -1.
         23    2    1    2    0    0 -0.24267113794E+02 -0.77404542391E+02 -0.18595306034E+03  0.23833944431E+03  0.12508714590E+03 0.  0.
          5    1    3    3  502    0  0.15967651419E+02  0.29105648336E+02 -0.28278515226E+02  0.43809262494E+02  0.41800000000E+01 0. -1.
         -5    1    3    3    0  502 -0.40234765213E+02 -0.10651019073E+03 -0.15767454511E+03  0.19453018181E+03  0.41800000000E+01 0. -1.
        -11    1    1    2    0    0 -0.15835582314E+02  0.68197879947E+02 -0.24844997364E+03  0.25812614339E+03  0.00000000000E+00 0. -1.
         11    1    1    2    0    0  0.40102696108E+02  0.92066624447E+01 -0.52230362584E+02  0.66490598163E+02  0.00000000000E+00 0.  1.
</event>
<event>
 7    1  0.6671761E-006  0.1617005E+03  0.7561462E-02  0.1186790E+00
         -2   -1    0    0    0  501 -0.00000000000E+00  0.00000000000E+00  0.52327238943E+03  0.52327238943E+03  0.00000000000E+00 0.  1.
          2   -1    0    0  501    0  0.00000000000E+00 -0.00000000000E+00 -0.60246016847E+02  0.60246016847E+02  0.00000000000E+00 0. -1.
         23    2    1    2    0    0 -0.47237119433E+02 -0.13225068395E+03  0.25940071865E+03  0.32040323907E+03  0.12509162206E+03 0.  0.
          5    1    3    3  502    0 -0.57008201970E+02 -0.56820720359E+02  0.43776359771E+02  0.91718980744E+02  0.41800000000E+01 0.  1.
         -5    1    3    3    0  502  0.97710825370E+01 -0.75429963595E+02  0.21562435888E+03  0.22868425832E+03  0.41800000000E+01 0.  1.
        -11    1    1    2    0    0 -0.13018061882E+02  0.94785348432E+02  0.11778160289E+03  0.15174398898E+03  0.00000000000E+00 0.  1.
         11    1    1    2    0    0  0.60255181315E+02  0.37465335522E+02  0.85844051042E+02  0.11137117823E+03  0.00000000000E+00 0. -1.
</event>
<event>
 7    1  0.6671761E-006  0.1067751E+03  0.7561462E-02  0.1266661E+00
          1   -1    0    0  501    0  0.00000000000E+00  0.00000000000E+00  0.15592609597E+03  0.15592609597E+03  0.00000000000E+00 0. -1.
         -1   -1    0    0    0  501 -0.00000000000E+00 -0.00000000000E+00 -0.12825166419E+03  0.12825166419E+03  0.00000000000E+00 0.  1.
         23    2    1    2    0    0 -0.53938110774E+02  0.33378966964E+02 -0.50800275136E+02  0.14916739745E+03  0.12508704680E+03 0.  0.
          5    1    3    3  502    0  0.46845690822E+01  0.68313720589E+02 -0.41473141981E+02  0.80163604672E+02  0.41800000000E+01 0.  1.
         -5    1    3    3    0  502 -0.58622679857E+02 -0.34934753625E+02 -0.93271331556E+01  0.69003792775E+02  0.41800000000E+01 0.  1.
        -11    1    1    2    0    0  0.14507142797E+02 -0.34188182545E+02  0.87057249940E+02  0.94648052198E+02  0.00000000000E+00 0. -1.
         11    1    1    2    0    0  0.39430967977E+02  0.80921558067E+00 -0.85825430197E+01  0.40362310516E+02  0.00000000000E+00 0.  1.
</event>
<event>
 7    1  0.6671761E-006  0.2359937E+03  0.7561462E-02  0.1122491E+00
         -1   -1    0    0    0  501 -0.00000000000E+00  0.00000000000E+00  0.12937216055E+03  0.12937216055E+03  0.00000000000E+00 0.  1.
          1   -1    0    0  501    0  0.00000000000E+00 -0.00000000000E+00 -0.85702498605E+03  0.85702498605E+03  0.00000000000E+00 0. -1.
         23    2    1    2    0    0 -0.18096172645E+03 -0.11860075774E+03 -0.31941923885E+02  0.25195647254E+03  0.12509393022E+03 0.  0.
          5    1    3    3  502    0 -0.16816104190E+03 -0.45223778088E+02 -0.33305625183E+02  0.17734165666E+03  0.41800000000E+01 0. -1.
         -5    1    3    3    0  502 -0.12800684544E+02 -0.73376979651E+02  0.13637012976E+01  0.74614815880E+02  0.41800000000E+01 0. -1.
        -11    1    1    2    0    0  0.13150921054E+02 -0.57332019499E+01 -0.96389018201E+01  0.17283655790E+02  0.00000000000E+00 0. -1.
         11    1    1    2    0    0  0.16781080539E+03  0.12433395969E+03 -0.68607199980E+03  0.71715701826E+03  0.00000000000E+00 0.  1.
</event>
<event>
 7    1  0.6671761E-006  0.1015625E+03  0.7561462E-02  0.1277044E+00
         -2   -1    0    0    0  501 -0.00000000000E+00  0.00000000000E+00  0.10771672520E+03  0.10771672520E+03  0.00000000000E+00 0.  1.
          2   -1    0    0  501    0  0.00000000000E+00 -0.00000000000E+00 -0.15477478148E+03  0.15477478148E+03  0.00000000000E+00 0. -1.
         23    2    1    2    0    0 -0.21756974044E+02  0.20014296478E+02  0.38297358441E+02  0.13412063432E+03  0.12509084261E+03 0.  0.
          5    1    3    3  502    0 -0.17360454419E+02 -0.44924505324E+02 -0.14211385608E+02  0.50388812619E+02  0.41800000000E+01 0. -1.
         -5    1    3    3    0  502 -0.43965196250E+01  0.64938801802E+02  0.52508744050E+02  0.83731821704E+02  0.41800000000E+01 0. -1.
        -11    1    1    2    0    0 -0.10600379353E+02  0.28972873820E+02 -0.91624872255E+01  0.32183017758E+02  0.00000000000E+00 0.  1.
         11    1    1    2    0    0  0.32357353397E+02 -0.48987170298E+02 -0.76192927493E+02  0.96187854601E+02  0.00000000000E+00 0. -1.
</event>
<event>
 7    1  0.6671761E-006  0.1260336E+03  0.7561462E-02  0.1233463E+00
         -2   -1    0    0    0  501 -0.00000000000E+00  0.00000000000E+00  0.14461735376E+03  0.14461735376E+03  0.00000000000E+00 0.  1.
          2   -1    0    0  501    0  0.00000000000E+00 -0.00000000000E+00 -0.17222595852E+03  0.17222595852E+03  0.00000000000E+00 0. -1.
         23    2    1    2    0    0  0.66932061057E+02  0.46428000011E+02  0.65721666631E+02  0.16310208145E+03  0.12508993376E+03 0.  0.
          5    1    3    3  502    0 -0.24466954016E+02  0.34626806349E+02 -0.99890445186E+01  0.43759581433E+02  0.41800000000E+01 0.  1.
         -5    1    3    3    0  502  0.91399015073E+02  0.11801193662E+02  0.75710711149E+02  0.11934250002E+03  0.41800000000E+01 0.  1.
        -11    1    1    2    0    0 -0.52040467864E+02 -0.71269732618E+02 -0.87348693595E+02  0.12416674013E+03  0.00000000000E+00 0. -1.
         11    1    1    2    0    0 -0.14891593193E+02  0.24841732607E+02 -0.59815777958E+01  0.29574490692E+02  0.00000000000E+00 0.  1.
</event>
<event>
 7    1  0.6671761E-006  0.1036087E+03  0.7561462E-02  0.1272885E+00
          3   -1    0    0  501    0  0.00000000000E+00  0.00000000000E+00  0.15094649472E+03  0.15094649472E+03  0.00000000000E+00 0. -1.
         -3   -1    0    0    0  501 -0.00000000000E+00 -0.00000000000E+00 -0.81458216576E+02  0.81458216576E+02  0.00000000000E+00 0.  1.
         23    2    1    2    0    0  0.23872184194E+02  0.10029640041E+02  0.36658481304E+02  0.13289676925E+03  0.12508889706E+03 0.  0.
          5    1    3    3  502    0 -0.41947387039E+02  0.35399028643E+02  0.44112640806E+01  0.55223239302E+02  0.41800000000E+01 0. -1.
         -5    1    3    3    0  502  0.65819571233E+02 -0.25369388602E+02  0.32247217224E+02  0.77673529944E+02  0.41800000000E+01 0. -1.
        -11    1    1    2    0    0 -0.81585957056E+01 -0.43644772068E+02  0.42179480489E+02  0.61241631160E+02  0.00000000000E+00 0. -1.
         11    1    1    2    0    0 -0.15713588489E+02  0.33615132027E+02 -0.93496836531E+01  0.38266310886E+02  0.00000000000E+00 0.  1.
</event>
<event>
 7    1  0.6671761E-006  0.1268993E+03  0.7561462E-02  0.1232131E+00
          2   -1    0    0  501    0  0.00000000000E+00  0.00000000000E+00  0.25039735641E+03  0.25039735641E+03  0.00000000000E+00 0.  1.
         -2   -1    0    0    0  501 -0.00000000000E+00 -0.00000000000E+00 -0.77895651967E+02  0.77895651967E+02  0.00000000000E+00 0. -1.
         23    2    1    2    0    0  0.75540674503E+02  0.56442215285E+02  0.81556202985E+02  0.16919954114E+03  0.11438948075E+03 0.  0.
          5    1    3    3  502    0  0.10351936838E+03  0.44572401247E+02  0.80383005697E+02  0.13849858695E+03  0.41800000000E+01 0.  1.
         -5    1    3    3    0  502 -0.27978693875E+02  0.11869814038E+02  0.11731972880E+01  0.30700954189E+02  0.41800000000E+01 0. -1.
        -11    1    1    2    0    0  0.69312716322E+01 -0.18108201406E+02  0.59955485051E+02  0.63012773882E+02  0.00000000000E+00 0.  1.
         11    1    1    2    0    0 -0.82471946135E+02 -0.38334013879E+02  0.30990016412E+02  0.96080693360E+02  0.00000000000E+00 0. -1.
</event>
<event>
 7    1  0.6671761E-006  0.1325009E+03  0.7561462E-02  0.1223791E+00
          1   -1    0    0  501    0  0.00000000000E+00  0.00000000000E+00  0.18534324204E+03  0.18534324204E+03  0.00000000000E+00 0. -1.
         -1   -1    0    0    0  501 -0.00000000000E+00 -0.00000000000E+00 -0.10946806176E+03  0.10946806176E+03  0.00000000000E+00 0.  1.
         23    2    1    2    0    0  0.57047566857E+02  0.72428916901E+02  0.50144724049E+02  0.16328751481E+03  0.12509175135E+03 0.  0.
          5    1    3    3  502    0  0.35372892272E+02 -0.20300208346E+02 -0.19339132700E+02  0.45330060888E+02  0.41800000000E+01 0. -1.
         -5    1    3    3    0  502  0.21674674586E+02  0.92729125247E+02  0.69483856750E+02  0.11795745392E+03  0.41800000000E+01 0. -1.
        -11    1    1    2    0    0 -0.34721178274E+02 -0.92412721537E+02  0.15923936728E+02  0.99996215346E+02  0.00000000000E+00 0.  1.
         11    1    1    2    0    0 -0.22326388583E+02  0.19983804636E+02  0.98065195074E+01  0.31527573642E+02  0.00000000000E+00 0. -1.
</event>
<event>
 7    1  0.6671761E-006  0.1606669E+03  0.7561462E-02  0.1187946E+00
         -1   -1    0    0    0  501 -0.00000000000E+00  0.00000000000E+00  0.44497769529E+02  0.44497769529E+02  0.00000000000E+00 0. -1.
          1   -1    0    0  501    0  0.00000000000E+00 -0.00000000000E+00 -0.70918499312E+03  0.70918499312E+03  0.00000000000E+00 0.  1.
         23    2    1    2    0    0  0.12521215807E+03  0.47708200290E+02 -0.26002176526E+03  0.31814170706E+03  0.12509464599E+03 0.  0.
          5    1    3    3  502    0  0.11120255241E+03  0.76693520420E+02 -0.14325062018E+03  0.19694191103E+03  0.41800000000E+01 0. -1.
         -5    1    3    3    0  502  0.14009605657E+02 -0.28985320130E+02 -0.11677114509E+03  0.12119979603E+03  0.41800000000E+01 0. -1.
        -11    1    1    2    0    0 -0.96352884074E+02  0.18514543850E+01 -0.31218918007E+03  0.32672525201E+03  0.00000000000E+00 0.  1.
         11    1    1    2    0    0 -0.28859273996E+02 -0.49559654675E+02 -0.92476278256E+02  0.10881580357E+03  0.00000000000E+00 0. -1.
</event>
<event>
 7    1  0.6671761E-006  0.1153979E+03  0.7561462E-02  0.1250888E+00
          1   -1    0    0  501    0  0.00000000000E+00  0.00000000000E+00  0.39574828834E+03  0.39574828834E+03  0.00000000000E+00 0. -1.
         -1   -1    0    0    0  501 -0.00000000000E+00 -0.00000000000E+00 -0.47098465789E+02  0.47098465789E+02  0.00000000000E+00 0.  1.
         23    2    1    2    0    0 -0.64915642099E+02 -0.25257523669E+02  0.13912694070E+03  0.19963818791E+03  0.12508843813E+03 0.  0.
          5    1    3    3  502    0 -0.44071050102E+02  0.26584829943E+02  0.13372205952E+03  0.14334598788E+03  0.41800000000E+01 0. -1.
         -5    1    3    3    0  502 -0.20844591997E+02 -0.51842353612E+02  0.54048811815E+01  0.56292200029E+02  0.41800000000E+01 0. -1.
        -11    1    1    2    0    0 -0.12703832499E+02 -0.26804920546E+02  0.58826690811E+02  0.65882248576E+02  0.00000000000E+00 0.  1.
         11    1    1    2    0    0  0.77619474597E+02  0.52062444215E+02  0.15069619104E+03  0.17732631764E+03  0.00000000000E+00 0. -1.
</event>
<event>
 7    1  0.6671761E-006  0.1798210E+03  0.7561462E-02  0.1167976E+00
         -1   -1    0    0    0  501 -0.00000000000E+00  0.00000000000E+00  0.53709957214E+02  0.53709957214E+02  0.00000000000E+00 0.  1.
          1   -1    0    0  501    0  0.00000000000E+00 -0.00000000000E+00 -0.96768774332E+03  0.96768774332E+03  0.00000000000E+00 0. -1.
         23    2    1    2    0    0  0.14835821192E+03 -0.33413185468E+02 -0.18075023986E+03  0.26728932770E+03  0.12508531283E+03 0.  0.
          5    1    3    3  502    0  0.13776281724E+03  0.16337024913E+02 -0.16099630992E+03  0.21256240590E+03  0.41800000000E+01 0.  1.
         -5    1    3    3    0  502  0.10595394687E+02 -0.49750210382E+02 -0.19753929940E+02  0.54726921800E+02  0.41800000000E+01 0.  1.
        -11    1    1    2    0    0 -0.73011563376E+02 -0.22034096885E+02 -0.23163580448E+03  0.24386745525E+03  0.00000000000E+00 0.  1.
         11    1    1    2    0    0 -0.75346648547E+02  0.55447282353E+02 -0.50159174177E+03  0.51024091759E+03  0.00000000000E+00 0. -1.
</event>
<event>
 7    1  0.6671761E-006  0.2002668E+03  0.7561462E-02  0.1149514E+00
         -4   -1    0    0    0  501 -0.00000000000E+00  0.00000000000E+00  0.78531834553E+03  0.78531834553E+03  0.00000000000E+00 0. -1.
          4   -1    0    0  501    0  0.00000000000E+00 -0.00000000000E+00 -0.68483903753E+02  0.68483903753E+02  0.00000000000E+00 0.  1.
         23    2    1    2    0    0  0.89168489061E+01 -0.16203710640E+03  0.45917169854E+03  0.50281394810E+03  0.12509070155E+03 0.  0.
          5    1    3    3  502    0 -0.21747542246E+02 -0.14381546365E+03  0.43704326697E+03  0.46063014750E+03  0.41800000000E+01 0.  1.
         -5    1    3    3    0  502  0.30664391152E+02 -0.18221642755E+02  0.22128431570E+02  0.42183800602E+02  0.41800000000E+01 0.  1.
        -11    1    1    2    0    0  0.31682316048E+02 -0.16703349869E+02  0.12988885221E+01  0.35839338142E+02  0.00000000000E+00 0.  1.
         11    1    1    2    0    0 -0.40599164955E+02  0.17874045627E+03  0.25636385472E+03  0.31514896305E+03  0.00000000000E+00 0. -1.
</event>
<event>
 7    1  0.6688011E-006  0.1400680E+03  0.7561462E-02  0.1213237E+00
          1   -1    0    0  501    0  0.00000000000E+00  0.00000000000E+00  0.97379802700E+02  0.97379802700E+02  0.00000000000E+00 0. -1.
         -1   -1    0    0    0  501 -0.00000000000E+00 -0.00000000000E+00 -0.24440649302E+03  0.24440649302E+03  0.00000000000E+00 0.  1.
         23    2    1    2    0    0 -0.10583778335E+03 -0.44343206170E+01 -0.83107395867E+02  0.18378132817E+03  0.12508971881E+03 0.  0.
          5    1    3    3  502    0 -0.51999219241E+02 -0.61288197430E+02 -0.19494876319E+02  0.82811137830E+02  0.41800000000E+01 0.  1.
         -5    1    3    3    0  502 -0.53838564104E+02  0.56853876813E+02 -0.63612519548E+02  0.10097019034E+03  0.41800000000E+01 0.  1.
        -11    1    1    2    0    0  0.21796432791E+02 -0.24092979671E+02  0.18071971182E+02  0.37177308862E+02  0.00000000000E+00 0. -1.
         11    1    1    2    0    0  0.84041350554E+02  0.28527300288E+02 -0.81991265640E+02  0.12082765870E+03  0.00000000000E+00 0.  1.
</event>
<event>
 7    1  0.6671761E-006  0.1084351E+03  0.7561462E-02  0.1263496E+00
          2   -1    0    0  501    0  0.00000000000E+00  0.00000000000E+00  0.37306985634E+02  0.37306985634E+02  0.00000000000E+00 0. -1.
         -2   -1    0    0    0  501 -0.00000000000E+00 -0.00000000000E+00 -0.35351300327E+03  0.35351300327E+03  0.00000000000E+00 0.  1.
         23    2    1    2    0    0  0.71414853896E+01 -0.24146003590E+02 -0.22364274680E+03  0.25748066743E+03  0.12508471369E+03 0.  0.
          5    1    3    3  502    0  0.27507072854E+02 -0.70814493332E+02 -0.14388717876E+03  0.16276462802E+03  0.41800000000E+01 0. -1.
         -5    1    3    3    0  502 -0.20365587464E+02  0.46668489741E+02 -0.79755568044E+02  0.94716039410E+02  0.41800000000E+01 0. -1.
        -11    1    1    2    0    0 -0.40202140924E+02  0.36600408525E+02 -0.78110687496E+02  0.95168700422E+02  0.00000000000E+00 0. -1.
         11    1    1    2    0    0  0.33060655534E+02 -0.12454404935E+02 -0.14452583343E+02  0.38170621058E+02  0.00000000000E+00 0.  1.
</event>
<event>
 7    1  0.6671761E-006  0.1177784E+03  0.7561462E-02  0.1246808E+00
          1   -1    0    0  501    0  0.00000000000E+00  0.00000000000E+00  0.40467616863E+02  0.40467616863E+02  0.00000000000E+00 0. -1.
         -1   -1    0    0    0  501 -0.00000000000E+00 -0.00000000000E+00 -0.40200987050E+03  0.40200987050E+03  0.00000000000E+00 0.  1.
         23    2    1    2    0    0 -0.14032187518E+01 -0.65101273122E+02 -0.21576811283E+03  0.25777158594E+03  0.12510062838E+03 0.  0.
          5    1    3    3  502    0 -0.47053936447E+02 -0.79925772377E+02 -0.14047114785E+03  0.16837998041E+03  0.41800000000E+01 0. -1.
         -5    1    3    3    0  502  0.45650717695E+02  0.14824499255E+02 -0.75296964977E+02  0.89391605528E+02  0.41800000000E+01 0. -1.
        -11    1    1    2    0    0 -0.32177272485E+02  0.18566529280E+02 -0.11832085439E+02  0.38988345950E+02  0.00000000000E+00 0. -1.
         11    1    1    2    0    0  0.33580491237E+02  0.46534743842E+02 -0.13394205537E+03  0.14571755547E+03  0.00000000000E+00 0.  1.
</event>
<event>
 7    1  0.6671761E-006  0.1249898E+03  0.7561462E-02  0.1235085E+00
          2   -1    0    0  501    0  0.00000000000E+00  0.00000000000E+00  0.86130417941E+03  0.86130417941E+03  0.00000000000E+00 0. -1.
         -2   -1    0    0    0  501 -0.00000000000E+00 -0.00000000000E+00 -0.20625407257E+02  0.20625407257E+02  0.00000000000E+00 0.  1.
         23    2    1    2    0    0 -0.18563929625E+02 -0.64725320291E+02  0.32963316981E+03  0.35820039672E+03  0.12294515447E+03 0.  0.
          5    1    3    3  502    0  0.50159878751E+02 -0.28363987526E+02  0.18670234688E+03  0.19543737605E+03  0.41800000000E+01 0. -1.
         -5    1    3    3    0  502 -0.68723808376E+02 -0.36361332766E+02  0.14293082292E+03  0.16276302068E+03  0.41800000000E+01 0.  1.
        -11    1    1    2    0    0  0.40381425905E+02  0.78683806123E+02  0.40837547726E+03  0.41784247191E+03  0.00000000000E+00 0. -1.
         11    1    1    2    0    0 -0.21817496280E+02 -0.13958485832E+02  0.10267012509E+03  0.10588671804E+03  0.00000000000E+00 0.  1.
</event>
<event>
 7    1  0.6671761E-006  0.9830517E+02  0.7561462E-02  0.1283901E+00
         -1   -1    0    0    0  501 -0.00000000000E+00  0.00000000000E+00  0.79768607855E+03  0.79768607855E+03  0.00000000000E+00 0.  1.
          1   -1    0    0  501    0  0.00000000000E+00 -0.00000000000E+00 -0.12126656202E+02  0.12126656202E+02  0.00000000000E+00 0. -1.
         23    2    1    2    0    0  0.24955788949E+02  0.49869877699E+02  0.54588311402E+03  0.56280121966E+03  0.12508813922E+03 0.  0.
          5    1    3    3  502    0  0.75147524459E+02  0.18121606664E+02  0.31075394830E+03  0.32025151342E+03  0.41800000000E+01 0.  1.
         -5    1    3    3    0  502 -0.50191735510E+02  0.31748271035E+02  0.23512916572E+03  0.24254970625E+03  0.41800000000E+01 0.  1.
        -11    1    1    2    0    0  0.34678173084E+00 -0.22053093331E+02  0.82152705604E+02  0.85061896411E+02  0.00000000000E+00 0.  1.
         11    1    1    2    0    0 -0.25302570680E+02 -0.27816784368E+02  0.15752360272E+03  0.16194961867E+03  0.00000000000E+00 0. -1.
</event>
<event>
 7    1  0.6671761E-006  0.1308532E+03  0.7561462E-02  0.1226195E+00
          2   -1    0    0  501    0  0.00000000000E+00  0.00000000000E+00  0.33650649041E+03  0.33650649041E+03  0.00000000000E+00 0. -1.
         -2   -1    0    0    0  501 -0.00000000000E+00 -0.00000000000E+00 -0.70118668379E+02  0.70118668379E+02  0.00000000000E+00 0.  1.
         23    2    1    2    0    0 -0.10781936659E+03 -0.14867692784E+01  0.13683698430E+03  0.21448608435E+03  0.12511072620E+03 0.  0.
          5    1    3    3  502    0 -0.12746210659E+03  0.23559250315E+01  0.14441572335E+03  0.19267981874E+03  0.41800000000E+01 0. -1.
         -5    1    3    3    0  502  0.19642739999E+02 -0.38426943099E+01 -0.75787390431E+01  0.21806265607E+02  0.41800000000E+01 0. -1.
        -11    1    1    2    0    0  0.25249156414E+02  0.15970695509E+02  0.98189325754E+02  0.10263394520E+03  0.00000000000E+00 0. -1.
         11    1    1    2    0    0  0.82570210180E+02 -0.14483926230E+02  0.31361511977E+02  0.89505129248E+02  0.00000000000E+00 0.  1.
</event>
<event>
 7    1  0.6671761E-006  0.9662736E+02  0.7561462E-02  0.1287552E+00
         -2   -1    0    0    0  501 -0.00000000000E+00  0.00000000000E+00  0.86384935877E+02  0.86384935877E+02  0.00000000000E+00 0.  1.
          2   -1    0    0  501    0  0.00000000000E+00 -0.00000000000E+00 -0.41190499200E+03  0.41190499200E+03  0.00000000000E+00 0. -1.
         23    2    1    2    0    0 -0.32715100228E+02 -0.64860413018E+02  0.16574969938E+02  0.13714421041E+03  0.11513754323E+03 0.  0.
          5    1    3    3  502    0  0.58125561558E+01 -0.10463072788E+02 -0.44725282673E+02  0.46487471553E+02  0.41800000000E+01 0. -1.
         -5    1    3    3    0  502 -0.38527656383E+02 -0.54397340230E+02  0.61300252610E+02  0.90656738859E+02  0.41800000000E+01 0.  1.
        -11    1    1    2    0    0 -0.25948635271E+02 -0.50910898323E+00 -0.53188608840E+02  0.59182928068E+02  0.00000000000E+00 0.  1.
         11    1    1    2    0    0  0.58663735499E+02  0.65369522001E+02 -0.28890641722E+03  0.30196278940E+03  0.00000000000E+00 0. -1.
</event>
<event>
 7    1  0.6671761E-006  0.1202079E+03  0.7561462E-02  0.1242754E+00
         -2   -1    0    0    0  501 -0.00000000000E+00  0.00000000000E+00  0.31726653218E+02  0.31726653218E+02  0.00000000000E+00 0.  1.
          2   -1    0    0  501    0  0.00000000000E+00 -0.00000000000E+00 -0.50199040937E+03  0.50199040937E+03  0.00000000000E+00 0. -1.
         23    2    1    2    0    0 -0.49672818699E+02 -0.58529752110E+00 -0.18687008076E+03  0.23029251190E+03  0.12508590033E+03 0.  0.
          5    1    3    3  502    0  0.63785883185E+01 -0.54163923354E+02 -0.57157870638E+02  0.79113283068E+02  0.41800000000E+01 0.  1.
         -5    1    3    3    0  502 -0.56051407017E+02  0.53578625833E+02 -0.12971221012E+03  0.15117922883E+03  0.41800000000E+01 0.  1.
        -11    1    1    2    0    0  0.38207167618E+02  0.46819521773E+02 -0.17050979923E+03  0.18090176038E+03  0.00000000000E+00 0.  1.
         11    1    1    2    0    0  0.11465651081E+02 -0.46234224252E+02 -0.11288387617E+03  0.12252279031E+03  0.00000000000E+00 0. -1.
</event>
<event>
 7    1  0.6671761E-006  0.1214694E+03  0.7561462E-02  0.1240693E+00
          2   -1    0    0  501    0  0.00000000000E+00  0.00000000000E+00  0.15068036621E+03  0.15068036621E+03  0.00000000000E+00 0.  1.
         -2   -1    0    0    0  501 -0.00000000000E+00 -0.00000000000E+00 -0.11706909975E+03  0.11706909975E+03  0.00000000000E+00 0. -1.
         23    2    1    2    0    0 -0.50538612068E+02  0.58851002484E+02  0.91873259684E+01  0.14747683242E+03  0.12508963722E+03 0.  0.
          5    1    3    3  502    0 -0.45573182725E+02 -0.29642785756E+02 -0.12913677323E+02  0.56034321564E+02  0.41800000000E+01 0.  1.
         -5    1    3    3    0  502 -0.49654293424E+01  0.88493788240E+02  0.22101003291E+02  0.91442510858E+02  0.41800000000E+01 0.  1.
        -11    1    1    2    0    0  0.41286272466E+02 -0.12116348068E+01  0.42397636162E+02  0.59191079608E+02  0.00000000000E+00 0.  1.
         11    1    1    2    0    0  0.92523396019E+01 -0.57639367677E+02 -0.17973695676E+02  0.61081553931E+02  0.00000000000E+00 0. -1.
</event>
<event>
 6    1  0.6671761E-006  0.4858739E+02  0.7561462E-02  0.1453113E+00
         -2   -1    0    0    0  501 -0.00000000000E+00  0.00000000000E+00  0.18843271780E+03  0.18843271780E+03  0.00000000000E+00 0.  1.
          2   -1    0    0  501    0  0.00000000000E+00 -0.00000000000E+00 -0.61193619159E+02  0.61193619159E+02  0.00000000000E+00 0. -1.
          5    1    1    2  502    0 -0.16964090053E+02  0.11777243727E+02 -0.32105287929E+02  0.38401897533E+02  0.41800000000E+01 0. -1.
         -5    1    1    2    0  502  0.26244500167E+02 -0.26495611834E+02  0.16631157718E+03  0.17049282782E+03  0.41800000000E+01 0.  1.
        -11    1    1    2    0    0  0.52870658502E+01  0.21763177295E+02 -0.95463237642E+01  0.24345867178E+02  0.00000000000E+00 0.  1.
         11    1    1    2    0    0 -0.14567475964E+02 -0.70448091869E+01  0.25791331542E+01  0.16385744422E+02  0.00000000000E+00 0. -1.
</event>
<event>
 7    1  0.6671761E-006  0.9731670E+02  0.7561462E-02  0.1286042E+00
          1   -1    0    0  501    0  0.00000000000E+00  0.00000000000E+00  0.24577251643E+03  0.24577251643E+03  0.00000000000E+00 0. -1.
         -1   -1    0    0    0  501 -0.00000000000E+00 -0.00000000000E+00 -0.54240446617E+02  0.54240446617E+02  0.00000000000E+00 0.  1.
         23    2    1    2    0    0 -0.24384245041E+02 -0.12790781628E+02  0.77029476079E+02  0.14946555109E+03  0.12509282664E+03 0.  0.
          5    1    3    3  502    0  0.33342538891E+02  0.37341262388E+02  0.20354805326E+02  0.54202262649E+02  0.41800000000E+01 0. -1.
         -5    1    3    3    0  502 -0.57726783932E+02 -0.50132044016E+02  0.56674670753E+02  0.95263288445E+02  0.41800000000E+01 0. -1.
        -11    1    1    2    0    0  0.24916578207E+02 -0.21875734781E+02  0.11082921897E+03  0.11568275333E+03  0.00000000000E+00 0. -1.
         11    1    1    2    0    0 -0.53233316553E+00  0.34666516409E+02  0.36733747680E+01  0.34864658621E+02  0.00000000000E+00 0.  1.
</event>
<event>
 7    1  0.6671761E-006  0.1314438E+03  0.7561462E-02  0.1225329E+00
         -2   -1    0    0    0  501 -0.00000000000E+00  0.00000000000E+00  0.78085554459E+02  0.78085554459E+02  0.00000000000E+00 0.  1.
          2   -1    0    0  501    0  0.00000000000E+00 -0.00000000000E+00 -0.22836938490E+03  0.22836938490E+03  0.00000000000E+00 0. -1.
         23    2    1    2    0    0 -0.75700135801E+02  0.15132165126E+02 -0.80176245437E+02  0.16744299825E+03  0.12509769922E+03 0.  0.
          5    1    3    3  502    0 -0.86433974448E+02  0.55596368259E+02 -0.43675820247E+02  0.11174452012E+03  0.41800000000E+01 0.  1.
         -5    1    3    3    0  502  0.10733838647E+02 -0.40464203134E+02 -0.36500425190E+02  0.55698478133E+02  0.41800000000E+01 0.  1.
        -11    1    1    2    0    0  0.46213668867E+01  0.32222020169E+02 -0.83235860583E+01  0.33599072912E+02  0.00000000000E+00 0.  1.
         11    1    1    2    0    0  0.71078768915E+02 -0.47354185294E+02 -0.61783998949E+02  0.10541286820E+03  0.00000000000E+00 0. -1.
</event>
<event>
 7    1  0.6671761E-006  0.9315102E+02  0.7561462E-02  0.1295396E+00
          1   -1    0    0  501    0  0.00000000000E+00  0.00000000000E+00  0.23397817047E+03  0.23397817047E+03  0.00000000000E+00 0. -1.
         -1   -1    0    0    0  501 -0.00000000000E+00 -0.00000000000E+00 -0.59621408596E+02  0.59621408596E+02  0.00000000000E+00 0.  1.
         23    2    1    2    0    0  0.41744063979E+02  0.36496365885E+02  0.69373723496E+02  0.14406909741E+03  0.11344002697E+03 0.  0.
          5    1    3    3  502    0  0.70114316664E+01 -0.18391637479E+02  0.76023881019E+02  0.78641689888E+02  0.41800000000E+01 0. -1.
         -5    1    3    3    0  502  0.34732632312E+02  0.54888003364E+02 -0.66501575226E+01  0.65427407527E+02  0.41800000000E+01 0.  1.
        -11    1    1    2    0    0  0.23477368603E+02  0.47081463541E+01  0.72509222581E+01  0.25018580139E+02  0.00000000000E+00 0.  1.
         11    1    1    2    0    0 -0.65221432581E+02 -0.41204512239E+02  0.97732116118E+02  0.12451190151E+03  0.00000000000E+00 0. -1.
</event>
<event>
 7    1  0.6671761E-006  0.1069485E+03  0.7561462E-02  0.1266327E+00
         -2   -1    0    0    0  501 -0.00000000000E+00  0.00000000000E+00  0.22509456356E+02  0.22509456356E+02  0.00000000000E+00 0. -1.
          2   -1    0    0  501    0  0.00000000000E+00 -0.00000000000E+00 -0.62706578328E+03  0.62706578328E+03  0.00000000000E+00 0.  1.
         23    2    1    2    0    0 -0.39539387619E+02  0.83099838007E+01 -0.28115557972E+03  0.31036687828E+03  0.12508685032E+03 0.  0.
          5    1    3    3  502    0 -0.10492383710E+02  0.55178168253E+02 -0.59548347617E+02  0.81964617193E+02  0.41800000000E+01 0. -1.
         -5    1    3    3    0  502 -0.29047003910E+02 -0.46868184452E+02 -0.22160723211E+03  0.22840226109E+03  0.41800000000E+01 0. -1.
        -11    1    1    2    0    0 -0.14873372583E+02 -0.37633528680E+02 -0.13398492838E+03  0.13996235467E+03  0.00000000000E+00 0.  1.
         11    1    1    2    0    0  0.54412760202E+02  0.29323544880E+02 -0.18941581882E+03  0.19924600668E+03  0.00000000000E+00 0. -1.
</event>
<event>
 7    1  0.6671761E-006  0.1088150E+03  0.7561462E-02  0.1262780E+00
          1   -1    0    0  501    0  0.00000000000E+00  0.00000000000E+00  0.24428039067E+03  0.24428039067E+03  0.00000000000E+00 0. -1.
         -1   -1    0    0    0  501 -0.00000000000E+00 -0.00000000000E+00 -0.62146565880E+02  0.62146565880E+02  0.00000000000E+00 0.  1.
         23    2    1    2    0    0 -0.21422873791E+02  0.42963054118E+02  0.58239589551E+02  0.14609809257E+03  0.12509212333E+03 0.  0.
          5    1    3    3  502    0 -0.61115488366E+02  0.44714380303E+01  0.65942747135E+02  0.90116674240E+02  0.41800000000E+01 0. -1.
         -5    1    3    3    0  502  0.39692614576E+02  0.38491616088E+02 -0.77031575845E+01  0.55981418325E+02  0.41800000000E+01 0. -1.
        -11    1    1    2    0    0 -0.19318835905E+02  0.18677802813E+02  0.43562549720E+02  0.51183722771E+02  0.00000000000E+00 0. -1.
         11    1    1    2    0    0  0.40741709695E+02 -0.61640856932E+02  0.80331685517E+02  0.10914514121E+03  0.00000000000E+00 0.  1.
</event>
<event>
 7    1  0.6671761E-006  0.1216135E+03  0.7561462E-02  0.1240459E+00
         -2   -1    0    0    0  501 -0.00000000000E+00  0.00000000000E+00  0.37850150294E+02  0.37850150294E+02  0.00000000000E+00 0.  1.
          2   -1    0    0  501    0  0.00000000000E+00 -0.00000000000E+00 -0.67293475961E+03  0.67293475961E+03  0.00000000000E+00 0. -1.
         23    2    1    2    0    0 -0.34562067358E+02  0.67939552448E+02 -0.14395447074E+03  0.20538005369E+03  0.12509099696E+03 0.  0.
          5    1    3    3  502    0 -0.70324587507E+02  0.49416861334E+02 -0.14047872977E+03  0.16474015816E+03  0.41800000000E+01 0.  1.
         -5    1    3    3    0  502  0.35762520150E+02  0.18522691114E+02 -0.34757409687E+01  0.40639895532E+02  0.41800000000E+01 0.  1.
        -11    1    1    2    0    0  0.39619447849E+02  0.81307918950E+01 -0.22339515779E+03  0.22702688596E+03  0.00000000000E+00 0. -1.
         11    1    1    2    0    0 -0.50573804916E+01 -0.76070344343E+02 -0.26773498078E+03  0.27837797025E+03  0.00000000000E+00 0.  1.
</event>
<event>
 7    1  0.6671761E-006  0.1057608E+03  0.7561462E-02  0.1268628E+00
         -2   -1    0    0    0  501 -0.00000000000E+00  0.00000000000E+00  0.74388376049E+03  0.74388376049E+03  0.00000000000E+00 0.  1.
          2   -1    0    0  501    0  0.00000000000E+00 -0.00000000000E+00 -0.23795599272E+02  0.23795599272E+02  0.00000000000E+00 0. -1.
         23    2    1    2    0    0  0.20549611280E+02 -0.29939579518E+02  0.59736934999E+03  0.61140488876E+03  0.12508849968E+03 0.  0.
          5    1    3    3  502    0 -0.10439501624E+02  0.46141703222E+02  0.19338413699E+03  0.19913045173E+03  0.41800000000E+01 0.  1.
         -5    1    3    3    0  502  0.30989112905E+02 -0.76081282740E+02  0.40398521300E+03  0.41227443703E+03  0.41800000000E+01 0.  1.
        -11    1    1    2    0    0 -0.44472577332E+02  0.35858571194E+02  0.39425780423E+02  0.69412098546E+02  0.00000000000E+00 0. -1.
         11    1    1    2    0    0  0.23922966052E+02 -0.59189916764E+01  0.83293030809E+02  0.86862372456E+02  0.00000000000E+00 0.  1.
</event>
<event>
 7    1  0.6671761E-006  0.1552689E+03  0.7561462E-02  0.1194144E+00
          2   -1    0    0  501    0  0.00000000000E+00  0.00000000000E+00  0.69257007039E+03  0.69257007039E+03  0.00000000000E+00 0. -1.
         -2   -1    0    0    0  501 -0.00000000000E+00 -0.00000000000E+00 -0.36312602362E+02  0.36312602362E+02  0.00000000000E+00 0.  1.
         23    2    1    2    0    0 -0.59212383210E+02 -0.93878351098E+02  0.35253319774E+03  0.39019262928E+03  0.12510548070E+03 0.  0.
          5    1    3    3  502    0 -0.98619883297E+02 -0.64706297809E+02  0.25070485969E+03  0.27709779038E+03  0.41800000000E+01 0.  1.
         -5    1    3    3    0  502  0.39407500087E+02 -0.29172053289E+02  0.10182833805E+03  0.11309483890E+03  0.41800000000E+01 0.  1.
        -11    1    1    2    0    0  0.75670570436E+02  0.37270181401E+02  0.12759027485E+03  0.15295221440E+03  0.00000000000E+00 0.  1.
         11    1    1    2    0    0 -0.16458187226E+02  0.56608169697E+02  0.17613399543E+03  0.18573782908E+03  0.00000000000E+00 0. -1.
</event>
<event>
 7    1  0.6671761E-006  0.9593100E+02  0.7561462E-02  0.1289093E+00
         -4   -1    0    0    0  501 -0.00000000000E+00  0.00000000000E+00  0.16144572317E+03  0.16144572317E+03  0.00000000000E+00 0.  1.
          4   -1    0    0  501    0  0.00000000000E+00 -0.00000000000E+00 -0.88836867673E+02  0.88836867673E+02  0.00000000000E+00 0. -1.
         23    2    1    2    0    0  0.19365069420E+02 -0.26690537786E+02  0.30967386765E+02  0.13301624514E+03  0.12508777601E+03 0.  0.
          5    1    3    3  502    0 -0.29236521064E+02 -0.58383510196E+02 -0.32812835646E+01  0.65510668204E+02  0.41800000000E+01 0.  1.
         -5    1    3    3    0  502  0.48601590484E+02  0.31692972410E+02  0.34248670329E+02  0.67505576934E+02  0.41800000000E+01 0.  1.
        -11    1    1    2    0    0 -0.29353963200E+02  0.41235539492E+02  0.68474643744E+02  0.85151639494E+02  0.00000000000E+00 0.  1.
         11    1    1    2    0    0  0.99888937799E+01 -0.14545001706E+02 -0.26833175013E+02  0.32114706209E+02  0.00000000000E+00 0. -1.
</event>
<event>
 7    1  0.6671761E-006  0.8716938E+02  0.7561462E-02  0.1309855E+00
          1   -1    0    0  501    0  0.00000000000E+00  0.00000000000E+00  0.48355182143E+02  0.48355182143E+02  0.00000000000E+00 0. -1.
         -1   -1    0    0    0  501 -0.00000000000E+00 -0.00000000000E+00 -0.35379787877E+03  0.35379787877E+03  0.00000000000E+00 0.  1.
         23    2    1    2    0    0 -0.15167329785E+02 -0.41728375182E+02 -0.24601335348E+03  0.27774297103E+03  0.12102595870E+03 0.  0.
          5    1    3    3  502    0 -0.57593428330E+02  0.12496952424E+02 -0.12954175461E+03  0.14237877438E+03  0.41800000000E+01 0. -1.
         -5    1    3    3    0  502  0.42426098546E+02 -0.54225327606E+02 -0.11647159887E+03  0.13536419665E+03  0.41800000000E+01 0.  1.
        -11    1    1    2    0    0  0.13627141718E+02  0.18378736593E+02 -0.86007425536E+02  0.88998619077E+02  0.00000000000E+00 0.  1.
         11    1    1    2    0    0  0.15401880663E+01  0.23349638589E+02  0.26578082385E+02  0.35411470808E+02  0.00000000000E+00 0. -1.
</event>
<event>
 7    1  0.6671761E-006  0.5605203E+02  0.7561462E-02  0.1415188E+00
         -2   -1    0    0    0  501 -0.00000000000E+00  0.00000000000E+00  0.27020707893E+03  0.27020707893E+03  0.00000000000E+00 0.  1.
          2   -1    0    0  501    0  0.00000000000E+00 -0.00000000000E+00 -0.44920372333E+02  0.44920372333E+02  0.00000000000E+00 0. -1.
         23    2    1    2    0    0  0.26898215159E+01  0.19813400129E+02  0.16618681569E+03  0.20896214280E+03  0.12508922197E+03 0.  0.
          5    1    3    3  502    0  0.86529412449E+01  0.58300611666E+01  0.18447453249E+03  0.18481663492E+03  0.41800000000E+01 0.  1.
         -5    1    3    3    0  502 -0.59631197290E+01  0.13983338963E+02 -0.18287716800E+02  0.24145507888E+02  0.41800000000E+01 0.  1.
        -11    1    1    2    0    0 -0.42364715215E+02 -0.15822885229E+02  0.17362627839E+02  0.48441651888E+02  0.00000000000E+00 0. -1.
         11    1    1    2    0    0  0.39674893699E+02 -0.39905148998E+01  0.41737263070E+02  0.57723656569E+02  0.00000000000E+00 0.  1.
</event>
<event>
 7    1  0.6671761E-006  0.1783431E+03  0.7561462E-02  0.1169416E+00
         -2   -1    0    0    0  501 -0.00000000000E+00  0.00000000000E+00  0.16470966854E+03  0.16470966854E+03  0.00000000000E+00 0.  1.
          2   -1    0    0  501    0  0.00000000000E+00 -0.00000000000E+00 -0.24868089639E+03  0.24868089639E+03  0.00000000000E+00 0. -1.
         23    2    1    2    0    0 -0.14257046340E+03 -0.63119408474E+02  0.24493582697E+02  0.20138956252E+03  0.12508966199E+03 0.  0.
          5    1    3    3  502    0 -0.57275802009E+02  0.35489763632E+02  0.21704973151E+02  0.70912756807E+02  0.41800000000E+01 0.  1.
         -5    1    3    3    0  502 -0.85294661390E+02 -0.98609172107E+02  0.27886095464E+01  0.13047680571E+03  0.41800000000E+01 0.  1.
        -11    1    1    2    0    0  0.49327314226E+02  0.37698590292E+02 -0.96320131989E+02  0.11459465723E+03  0.00000000000E+00 0. -1.
         11    1    1    2    0    0  0.93243149172E+02  0.25420818182E+02 -0.12144678561E+02  0.97406345183E+02  0.00000000000E+00 0.  1.
</event>
<event>
 7    1  0.6671761E-006  0.1045272E+03  0.7561462E-02  0.1271054E+00
          4   -1    0    0  501    0  0.00000000000E+00  0.00000000000E+00  0.15978942470E+03  0.15978942470E+03  0.00000000000E+00 0. -1.
         -4   -1    0    0    0  501 -0.00000000000E+00 -0.00000000000E+00 -0.19555486017E+03  0.19555486017E+03  0.00000000000E+00 0.  1.
         23    2    1    2    0    0 -0.19844412290E+02 -0.31290997820E+02 -0.15750824599E+03  0.19760936983E+03  0.11343583317E+03 0.  0.
          5    1    3    3  502    0 -0.21843700594E+02  0.38321623584E+02 -0.34350530100E+02  0.56063583616E+02  0.41800000000E+01 0. -1.
         -5    1    3    3    0  502  0.19992883034E+01 -0.69612621404E+02 -0.12315771589E+03  0.14154578622E+03  0.41800000000E+01 0.  1.
        -11    1    1    2    0    0  0.54667748604E+02  0.22087603849E+02  0.49397616009E+02  0.76919109775E+02  0.00000000000E+00 0. -1.
         11    1    1    2    0    0 -0.34823336314E+02  0.92033939708E+01  0.72345194511E+02  0.80815805270E+02  0.00000000000E+00 0.  1.
</event>
<event>
 7    1  0.8553199E-006  0.1034386E+03  0.7561462E-02  0.1273227E+00
          1   -1    0    0  501    0  0.00000000000E+00  0.00000000000E+00  0.64940443594E+03  0.64940443594E+03  0.00000000000E+00 0. -1.
         -1   -1    0    0    0  501 -0.00000000000E+00 -0.00000000000E+00 -0.20183660727E+02  0.20183660727E+02  0.00000000000E+00 0.  1.
         23    2    1    2    0    0  0.27622390931E+02 -0.13774727597E+02  0.31392177231E+03  0.33933401579E+03  0.12509178845E+03 0.  0.
          5    1    3    3  502    0  0.42621895506E+02  0.36458736323E+02  0.69944507109E+02  0.89752837869E+02  0.41800000000E+01 0.  1.
         -5    1    3    3    0  502 -0.14999504575E+02 -0.50233463920E+02  0.24397726520E+03  0.24958117792E+03  0.41800000000E+01 0.  1.
        -11    1    1    2    0    0  0.53003862692E+01  0.49313393678E+02  0.14860367478E+03  0.15666191958E+03  0.00000000000E+00 0. -1.
         11    1    1    2    0    0 -0.32922777200E+02 -0.35538666081E+02  0.16669532812E+03  0.17359216129E+03  0.00000000000E+00 0.  1.
</event>
<event>
 7    1  0.6671761E-006  0.1419346E+03  0.7561462E-02  0.1210749E+00
          2   -1    0    0  501    0  0.00000000000E+00  0.00000000000E+00  0.17080505250E+03  0.17080505250E+03  0.00000000000E+00 0.  1.
         -2   -1    0    0    0  501 -0.00000000000E+00 -0.00000000000E+00 -0.14115725585E+03  0.14115725585E+03  0.00000000000E+00 0. -1.
         23    2    1    2    0    0  0.70064550805E+02 -0.57066217521E+02 -0.44864660161E+02  0.16070586717E+03  0.12509174054E+03 0.  0.
          5    1    3    3  502    0  0.47301057506E+02  0.34410933512E+02 -0.71047866209E+01  0.59071590289E+02  0.41800000000E+01 0. -1.
         -5    1    3    3    0  502  0.22763493299E+02 -0.91477151033E+02 -0.37759873540E+02  0.10163427689E+03  0.41800000000E+01 0. -1.
        -11    1    1    2    0    0 -0.74854091847E+01  0.67075917622E+02  0.30288359740E+02  0.73976988390E+02  0.00000000000E+00 0. -1.
         11    1    1    2    0    0 -0.62579141620E+02 -0.10009700101E+02  0.44224097063E+02  0.77279452787E+02  0.00000000000E+00 0.  1.
</event>
<event>
 7    1  0.6671761E-006  0.1765800E+03  0.7561462E-02  0.1171155E+00
          2   -1    0    0  501    0  0.00000000000E+00  0.00000000000E+00  0.16982545139E+03  0.16982545139E+03  0.00000000000E+00 0.  1.
         -2   -1    0    0    0  501 -0.00000000000E+00 -0.00000000000E+00 -0.21433799983E+03  0.21433799983E+03  0.00000000000E+00 0. -1.
         23    2    1    2    0    0  0.14493463237E+03 -0.54544598112E+02 -0.29161697559E+01  0.19909037198E+03  0.12508921346E+03 0.  0.
          5    1    3    3  502    0  0.81203964680E+02 -0.85859601975E+02 -0.31587710816E+02  0.12239775736E+03  0.41800000000E+01 0. -1.
         -5    1    3    3    0  502  0.63730667685E+02  0.31315003863E+02  0.28671541060E+02  0.76692614620E+02  0.41800000000E+01 0. -1.
        -11    1    1    2    0    0 -0.12642176495E+03  0.24936847347E+02  0.24291729270E+01  0.12888060323E+03  0.00000000000E+00 0.  1.
         11    1    1    2    0    0 -0.18512867417E+02  0.29607750765E+02 -0.44025551608E+02  0.56192476006E+02  0.00000000000E+00 0. -1.
</event>
<event>
 7    1  0.6671761E-006  0.1063506E+03  0.7561462E-02  0.1267481E+00
          1   -1    0    0  501    0  0.00000000000E+00  0.00000000000E+00  0.10744689684E+04  0.10744689684E+04  0.00000000000E+00 0. -1.
         -1   -1    0    0    0  501 -0.00000000000E+00 -0.00000000000E+00 -0.15359769944E+02  0.15359769944E+02  0.00000000000E+00 0.  1.
         23    2    1    2    0    0  0.73540327861E+02  0.19707965636E+02  0.55039952957E+03  0.56652785985E+03  0.11053320816E+03 0.  0.
          5    1    3    3  502    0  0.54575230924E+02 -0.89493310444E+01  0.51132602460E+03  0.51432511332E+03  0.41800000000E+01 0. -1.
         -5    1    3    3    0  502  0.18965096937E+02  0.28657296680E+02  0.39073504964E+02  0.52202746527E+02  0.41800000000E+01 0.  1.
        -11    1    1    2    0    0 -0.73507838559E+02 -0.52182716840E+02  0.36493122687E+03  0.37590057011E+03  0.00000000000E+00 0. -1.
         11    1    1    2    0    0 -0.32489302623E-01  0.32474751204E+02  0.14377844199E+03  0.14740030835E+03  0.00000000000E+00 0.  1.
</event>
<event>
 7    1  0.6671761E-006  0.1127140E+03  0.7561462E-02  0.1255625E+00
         -2   -1    0    0    0  501 -0.00000000000E+00  0.00000000000E+00  0.41755649652E+03  0.41755649652E+03  0.00000000000E+00 0.  1.
          2   -1    0    0  501    0  0.00000000000E+00 -0.00000000000E+00 -0.35143892047E+02  0.35143892047E+02  0.00000000000E+00 0. -1.
         23    2    1    2    0    0 -0.37028075958E+02 -0.37279859270E+02  0.21609447506E+03  0.25515835909E+03  0.12509236486E+03 0.  0.
          5    1    3    3  502    0  0.40661500976E+02 -0.23889026840E+00  0.32059541308E+02  0.51949026161E+02  0.41800000000E+01 0.  1.
         -5    1    3    3    0  502 -0.77689576934E+02 -0.37040969002E+02  0.18403493375E+03  0.20320933293E+03  0.41800000000E+01 0.  1.
        -11    1    1    2    0    0  0.21344943541E+02  0.63963406804E+02  0.73718472957E+02  0.99906642821E+02  0.00000000000E+00 0. -1.
         11    1    1    2    0    0  0.15683132416E+02 -0.26683547534E+02  0.92599656455E+02  0.97635386653E+02  0.00000000000E+00 0.  1.
</event>
<event>
 7    1  0.6671761E-006  0.2568953E+03  0.7561462E-02  0.1109023E+00
          2   -1    0    0  501    0  0.00000000000E+00  0.00000000000E+00  0.36780814448E+03  0.36780814448E+03  0.00000000000E+00 0. -1.
         -2   -1    0    0    0  501 -0.00000000000E+00 -0.00000000000E+00 -0.18317314335E+03  0.18317314335E+03  0.00000000000E+00 0.  1.
         23    2    1    2    0    0 -0.22532716823E+03  0.60347503133E+02  0.12785977528E+03  0.29395411917E+03  0.12508696240E+03 0.  0.
          5    1    3    3  502    0 -0.16045608377E+03 -0.17809253640E+02  0.93707147788E+02  0.18671321935E+03  0.41800000000E+01 0.  1.
         -5    1    3    3    0  502 -0.64871084458E+02  0.78156756773E+02  0.34152627494E+02  0.10724089981E+03  0.41800000000E+01 0.  1.
        -11    1    1    2    0    0  0.10795496773E+03 -0.76285730011E+02  0.27642293884E+02  0.13504771036E+03  0.00000000000E+00 0. -1.
         11    1    1    2    0    0  0.11737220050E+03  0.15938226878E+02  0.29132931962E+02  0.12197945831E+03  0.00000000000E+00 0.  1.
</event>
<event>
 7    1  0.6671761E-006  0.1340630E+03  0.7561462E-02  0.1221549E+00
         -2   -1    0    0    0  501 -0.00000000000E+00  0.00000000000E+00  0.49954762364E+02  0.49954762364E+02  0.00000000000E+00 0.  1.
          2   -1    0    0  501    0  0.00000000000E+00 -0.00000000000E+00 -0.40187264894E+03  0.40187264894E+03  0.00000000000E+00 0. -1.
         23    2    1    2    0    0  0.66546064653E+02 -0.63313705918E+02 -0.19822170264E+03  0.25174646670E+03  0.12508971189E+03 0.  0.
          5    1    3    3  502    0  0.50807454994E+01  0.35541752486E+02 -0.68152666892E+02  0.77144595074E+02  0.41800000000E+01 0.  1.
         -5    1    3    3    0  502  0.61465319154E+02 -0.98855458404E+02 -0.13006903575E+03  0.17460187163E+03  0.41800000000E+01 0.  1.
        -11    1    1    2    0    0 -0.48893302023E+02 -0.90172038483E+00 -0.24422270684E+02  0.54660912796E+02  0.00000000000E+00 0. -1.
         11    1    1    2    0    0 -0.17652762631E+02  0.64215426303E+02 -0.12927391325E+03  0.14542003180E+03  0.00000000000E+00 0.  1.
</event>
<event>
 7    1  0.6671761E-006  0.9837932E+02  0.7561462E-02  0.1283741E+00
          1   -1    0    0  501    0  0.00000000000E+00  0.00000000000E+00  0.57589316059E+03  0.57589316059E+03  0.00000000000E+00 0. -1.
         -1   -1    0    0    0  501 -0.00000000000E+00 -0.00000000000E+00 -0.27315292155E+02  0.27315292155E+02  0.00000000000E+00 0.  1.
         23    2    1    2    0    0 -0.59366255682E+02  0.15743468421E+02  0.27235307745E+03  0.30594042652E+03  0.12510450302E+03 0.  0.
          5    1    3    3  502    0  0.14643228002E+01  0.59534611256E+02  0.16038643790E+03  0.17113677583E+03  0.41800000000E+01 0.  1.
         -5    1    3    3    0  502 -0.60830578482E+02 -0.43791142835E+02  0.11196663954E+03  0.13480365069E+03  0.41800000000E+01 0.  1.
        -11    1    1    2    0    0  0.95356754295E+01 -0.58476100799E+01 -0.44454848836E+01  0.12036859449E+02  0.00000000000E+00 0.  1.
         11    1    1    2    0    0  0.49830580253E+02 -0.98958583406E+01  0.28067027587E+03  0.28523116677E+03  0.00000000000E+00 0. -1.
</event>
<event>
 7    1  0.6671761E-006  0.1067985E+03  0.7561462E-02  0.1266616E+00
         -3   -1    0    0    0  501 -0.00000000000E+00  0.00000000000E+00  0.50496361290E+02  0.50496361290E+02  0.00000000000E+00 0.  1.
          3   -1    0    0  501    0  0.00000000000E+00 -0.00000000000E+00 -0.24114685113E+03  0.24114685113E+03  0.00000000000E+00 0. -1.
         23    2    1    2    0    0  0.58524369780E+01 -0.98049806518E+01 -0.84213883640E+02  0.15109490716E+03  0.12492919638E+03 0.  0.
          5    1    3    3  502    0 -0.32651752650E+02 -0.53893871332E+02 -0.25572794151E+02  0.68133152863E+02  0.41800000000E+01 0. -1.
         -5    1    3    3    0  502  0.38504189628E+02  0.44088890681E+02 -0.58641089489E+02  0.82961754302E+02  0.41800000000E+01 0. -1.
        -11    1    1    2    0    0  0.38650615753E+02 -0.14223908551E+02 -0.49489499459E+02  0.64384782590E+02  0.00000000000E+00 0.  1.
         11    1    1    2    0    0 -0.44503052731E+02  0.24028889203E+02 -0.56947106742E+02  0.76163522666E+02  0.00000000000E+00 0. -1.
</event>
<event>
 7    1  0.6671761E-006  0.1140598E+03  0.7561462E-02  0.1253231E+00
          2   -1    0    0  501    0  0.00000000000E+00  0.00000000000E+00  0.38956286812E+03  0.38956286812E+03  0.00000000000E+00 0.  1.
         -2   -1    0    0    0  501 -0.00000000000E+00 -0.00000000000E+00 -0.52369413128E+02  0.52369413128E+02  0.00000000000E+00 0. -1.
         23    2    1    2    0    0  0.27335870459E+01  0.66877954930E+02  0.82738443555E+02  0.16423128027E+03  0.12508449154E+03 0.  0.
          5    1    3    3  502    0 -0.72991680547E+00 -0.33221372610E+02 -0.11566549579E+01  0.33511231361E+02  0.41800000000E+01 0. -1.
         -5    1    3    3    0  502  0.34635038514E+01  0.10009932754E+03  0.83895098513E+02  0.13072004891E+03  0.41800000000E+01 0. -1.
        -11    1    1    2    0    0 -0.30448190946E+02 -0.57605479104E+02  0.92586581604E+02  0.11321554066E+03  0.00000000000E+00 0. -1.
         11    1    1    2    0    0  0.27714603900E+02 -0.92724758254E+01  0.16186842984E+03  0.16448546031E+03  0.00000000000E+00 0.  1.
</event>
<event>
 7    1  0.6671761E-006  0.1032661E+03  0.7561462E-02  0.1273574E+00
          2   -1    0    0  501    0  0.00000000000E+00  0.00000000000E+00  0.21453058552E+03  0.21453058552E+03  0.00000000000E+00 0. -1.
         -2   -1    0    0    0  501 -0.00000000000E+00 -0.00000000000E+00 -0.79523261260E+02  0.79523261260E+02  0.00000000000E+00 0.  1.
         23    2    1    2    0    0 -0.65792852107E+02 -0.45400862558E+02  0.79294243643E+02  0.16830536951E+03  0.12509669309E+03 0.  0.
          5    1    3    3  502    0 -0.35839383151E+02 -0.75236615755E+02  0.91764833629E+02  0.12402929826E+03  0.41800000000E+01 0.  1.
         -5    1    3    3    0  502 -0.29953468957E+02  0.29835753196E+02 -0.12470589986E+02  0.44276071257E+02  0.41800000000E+01 0.  1.
        -11    1    1    2    0    0  0.22225355612E+02  0.21459977627E+02 -0.18806745242E+02  0.36168919508E+02  0.00000000000E+00 0.  1.
         11    1    1    2    0    0  0.43567496496E+02  0.23940884931E+02  0.74519825856E+02  0.89579557756E+02  0.00000000000E+00 0. -1.
</event>
<event>
 6    1  0.6671761E-006  0.1962185E+03  0.7561462E-02  0.1152969E+00
          2   -1    0    0  501    0  0.00000000000E+00  0.00000000000E+00  0.58583876638E+02  0.58583876638E+02  0.00000000000E+00 0. -1.
         -2   -1    0    0    0  501 -0.00000000000E+00 -0.00000000000E+00 -0.89896083621E+03  0.89896083621E+03  0.00000000000E+00 0.  1.
          5    1    1    2  502    0  0.50655080169E+02 -0.17355132126E+03 -0.19956250177E+03  0.26931146052E+03  0.41800000000E+01 0. -1.
         -5    1    1    2    0  502 -0.42321561956E+02  0.10320544598E+03 -0.45975095098E+03  0.47310769177E+03  0.41800000000E+01 0.  1.
        -11    1    1    2    0    0  0.29181218123E+02  0.14216765425E+02 -0.11925402847E+03  0.12359281216E+03  0.00000000000E+00 0.  1.
         11    1    1    2    0    0 -0.37514736336E+02  0.56129109848E+02 -0.61809478351E+02  0.91532748395E+02  0.00000000000E+00 0. -1.
</event>
<event>
 7    1  0.6671761E-006  0.1115546E+03  0.7561462E-02  0.1257718E+00
         -1   -1    0    0    0  501 -0.00000000000E+00  0.00000000000E+00  0.26393831347E+03  0.26393831347E+03  0.00000000000E+00 0.  1.
          1   -1    0    0  501    0  0.00000000000E+00 -0.00000000000E+00 -0.49240833322E+02  0.49240833322E+02  0.00000000000E+00 0. -1.
         23    2    1    2    0    0  0.69770061925E+01  0.26107910514E+02  0.14450533661E+03  0.19302809017E+03  0.12509096562E+03 0.  0.
          5    1    3    3  502    0 -0.58855540887E+02  0.15892688878E+02  0.64916732550E+02  0.89152716267E+02  0.41800000000E+01 0. -1.
         -5    1    3    3    0  502  0.65832547079E+02  0.10215221636E+02  0.79588604061E+02  0.10387537391E+03  0.41800000000E+01 0. -1.
        -11    1    1    2    0    0  0.88074696865E+00  0.34311517393E+02  0.13359328141E+02  0.36831068264E+02  0.00000000000E+00 0.  1.
         11    1    1    2    0    0 -0.78577531612E+01 -0.60419427907E+02  0.56832815395E+02  0.83319988353E+02  0.00000000000E+00 0. -1.
</event>
<event>
 7    1  0.6671761E-006  0.2323106E+03  0.7561462E-02  0.1125024E+00
         -2   -1    0    0    0  501 -0.00000000000E+00  0.00000000000E+00  0.47136477706E+02  0.47136477706E+02  0.00000000000E+00 0.  1.
          2   -1    0    0  501    0  0.00000000000E+00 -0.00000000000E+00 -0.14743207627E+04  0.14743207627E+04  0.00000000000E+00 0. -1.
         23    2    1    2    0    0  0.71757166453E+02 -0.21080024195E+03 -0.47562531885E+03  0.53986312557E+03  0.12508763915E+03 0.  0.
          5    1    3    3  502    0  0.65257699710E+02 -0.20261610173E+03 -0.48199945642E+03  0.52692769945E+03  0.41800000000E+01 0.  1.
         -5    1    3    3    0  502  0.64994667430E+01 -0.81841402167E+01  0.63741375722E+01  0.12935426117E+02  0.41800000000E+01 0.  1.
        -11    1    1    2    0    0 -0.66287393004E+02  0.59545722339E+02 -0.32249924103E+03  0.33458253389E+03  0.00000000000E+00 0. -1.
         11    1    1    2    0    0 -0.54697734491E+01  0.15125451961E+03 -0.62905972513E+03  0.64701158097E+03  0.00000000000E+00 0.  1.
</event>
<event>
 7    1  0.6671761E-006  0.8777263E+02  0.7561462E-02  0.1308337E+00
          4   -1    0    0  501    0  0.00000000000E+00  0.00000000000E+00  0.13762138722E+03  0.13762138722E+03  0.00000000000E+00 0. -1.
         -4   -1    0    0    0  501 -0.00000000000E+00 -0.00000000000E+00 -0.13302708785E+03  0.13302708785E+03  0.00000000000E+00 0.  1.
         23    2    1    2    0    0  0.26191489190E+02  0.12432337751E+02 -0.73714698942E+02  0.14806236674E+03  0.12509216793E+03 0.  0.
          5    1    3    3  502    0 -0.34989926751E+02  0.11254668431E+01  0.16070806325E+02  0.38746675543E+02  0.41800000000E+01 0.  1.
         -5    1    3    3    0  502  0.61181415942E+02  0.11306870908E+02 -0.89785505268E+02  0.10931569120E+03  0.41800000000E+01 0.  1.
        -11    1    1    2    0    0 -0.31448985632E+01  0.29721955367E+02 -0.95027887241E+00  0.29902977239E+02  0.00000000000E+00 0.  1.
         11    1    1    2    0    0 -0.23046590627E+02 -0.42154293118E+02  0.79259277190E+02  0.92683131089E+02  0.00000000000E+00 0. -1.
</event>
<event>
 7    1  0.6671761E-006  0.1075208E+03  0.7561462E-02  0.1265231E+00
          1   -1    0    0  501    0  0.00000000000E+00  0.00000000000E+00  0.39083636031E+03  0.39083636031E+03  0.00000000000E+00 0. -1.
         -1   -1    0    0    0  501 -0.00000000000E+00 -0.00000000000E+00 -0.36456207782E+02  0.36456207782E+02  0.00000000000E+00 0.  1.
         23    2    1    2    0    0  0.82569745641E+01  0.47723675609E+02  0.18426930992E+03  0.22792310734E+03  0.12509211582E+03 0.  0.
          5    1    3    3  502    0  0.97424751862E+01 -0.33184309684E+02  0.11864195822E+03  0.12365072131E+03  0.41800000000E+01 0. -1.
         -5    1    3    3    0  502 -0.14855006221E+01  0.80907985293E+02  0.65627351700E+02  0.10427238603E+03  0.41800000000E+01 0. -1.
        -11    1    1    2    0    0 -0.46990260855E+02 -0.17873670955E+02  0.56197959371E+02  0.75404000995E+02  0.00000000000E+00 0.  1.
         11    1    1    2    0    0  0.38733286291E+02 -0.29850004654E+02  0.11391288324E+03  0.12396545975E+03  0.00000000000E+00 0. -1.
</event>
<event>
 7    1  0.6671761E-006  0.1014764E+03  0.7561462E-02  0.1277222E+00
          1   -1    0    0  501    0  0.00000000000E+00  0.00000000000E+00  0.38550220825E+03  0.38550220825E+03  0.00000000000E+00 0. -1.
         -1   -1    0    0    0  501 -0.00000000000E+00 -0.00000000000E+00 -0.32049154386E+02  0.32049154386E+02  0.00000000000E+00 0.  1.
         23    2    1    2    0    0  0.20230793005E+01  0.14076430718E+02  0.16494733736E+03  0.20750435160E+03  0.12509273792E+03 0.  0.
          5    1    3    3  502    0  0.17433846904E+02 -0.48603224472E+02  0.11382496704E+03  0.12505921785E+03  0.41800000000E+01 0. -1.
         -5    1    3    3    0  502 -0.15410767604E+02  0.62679655190E+02  0.51122370322E+02  0.82445133757E+02  0.41800000000E+01 0. -1.
        -11    1    1    2    0    0  0.39871912706E+02 -0.19210533617E+02  0.58465049998E+02  0.73327867117E+02  0.00000000000E+00 0. -1.
         11    1    1    2    0    0 -0.41894992006E+02  0.51341028986E+01  0.13004066650E+03  0.13671914391E+03  0.00000000000E+00 0.  1.
</event>
<event>
 7    1  0.6671761E-006  0.1263852E+03  0.7561462E-02  0.1232920E+00
         -2   -1    0    0    0  501 -0.00000000000E+00  0.00000000000E+00  0.17475618208E+03  0.17475618208E+03  0.00000000000E+00 0.  1.
          2   -1    0    0  501    0  0.00000000000E+00 -0.00000000000E+00 -0.11609284956E+03  0.11609284956E+03  0.00000000000E+00 0. -1.
         23    2    1    2    0    0  0.69501868824E+02  0.63205675111E+02  0.50264679821E+02  0.16432149669E+03  0.12509815786E+03 0.  0.
          5    1    3    3  502    0  0.66562416327E+02 -0.16976595939E+02  0.48070788721E+02  0.83946609254E+02  0.41800000000E+01 0. -1.
         -5    1    3    3    0  502  0.29394524977E+01  0.80182271050E+02  0.21938910996E+01  0.80374887433E+02  0.41800000000E+01 0. -1.
        -11    1    1    2    0    0 -0.47917241466E+02 -0.14074157105E+02  0.40233338725E+02  0.64131626151E+02  0.00000000000E+00 0.  1.
         11    1    1    2    0    0 -0.21584627359E+02 -0.49131518006E+02 -0.31834686025E+02  0.62395908793E+02  0.00000000000E+00 0. -1.
</event>
<event>
 7    1  0.6671761E-006  0.1124611E+03  0.7561462E-02  0.1256079E+00
         -2   -1    0    0    0  501 -0.00000000000E+00  0.00000000000E+00  0.31883673110E+03  0.31883673110E+03  0.00000000000E+00 0.  1.
          2   -1    0    0  501    0  0.00000000000E+00 -0.00000000000E+00 -0.65718647549E+02  0.65718647549E+02  0.00000000000E+00 0. -1.
         23    2    1    2    0    0 -0.66795501159E+02  0.55889861626E+02  0.18349556361E+03  0.23854436883E+03  0.12508988141E+03 0.  0.
          5    1    3    3  502    0 -0.16821087913E+02 -0.27616644242E+02  0.11482442058E+03  0.11936393090E+03  0.41800000000E+01 0. -1.
         -5    1    3    3    0  502 -0.49974413245E+02  0.83506505867E+02  0.68671143024E+02  0.11918043793E+03  0.41800000000E+01 0. -1.
        -11    1    1    2    0    0  0.22315850263E+02  0.14232862202E+01 -0.20486340581E+02  0.30326771458E+02  0.00000000000E+00 0. -1.
         11    1    1    2    0    0  0.44479650895E+02 -0.57313147846E+02  0.90108860530E+02  0.11568423836E+03  0.00000000000E+00 0.  1.
</event>
<event>
 7    1  0.6671761E-006  0.8774427E+02  0.7561462E-02  0.1308408E+00
          1   -1    0    0  501    0  0.00000000000E+00  0.00000000000E+00  0.18234423041E+03  0.18234423041E+03  0.00000000000E+00 0. -1.
         -1   -1    0    0    0  501 -0.00000000000E+00 -0.00000000000E+00 -0.82835443694E+02  0.82835443694E+02  0.00000000000E+00 0.  1.
         23    2    1    2    0    0 -0.34292635481E+02 -0.53990060758E+00  0.74360251377E+01  0.12991923983E+03  0.12508972007E+03 0.  0.
          5    1    3    3  502    0 -0.74810386643E+02 -0.12786774850E+02 -0.20874894872E+02  0.78824673781E+02  0.41800000000E+01 0.  1.
         -5    1    3    3    0  502  0.40517751162E+02  0.12246874243E+02  0.28310920010E+02  0.51094566049E+02  0.41800000000E+01 0.  1.
        -11    1    1    2    0    0 -0.99408382870E+01  0.71149645997E+01 -0.14925561261E+02  0.19292883819E+02  0.00000000000E+00 0.  1.
         11    1    1    2    0    0  0.44233473768E+02 -0.65750639921E+01  0.10699832284E+03  0.11596755045E+03  0.00000000000E+00 0. -1.
</event>
<event>
 7    1  0.6671761E-006  0.9677262E+02  0.7561462E-02  0.1287233E+00
          2   -1    0    0  501    0  0.00000000000E+00  0.00000000000E+00  0.26829119348E+03  0.26829119348E+03  0.00000000000E+00 0.  1.
         -2   -1    0    0    0  501 -0.00000000000E+00 -0.00000000000E+00 -0.50214136344E+02  0.50214136344E+02  0.00000000000E+00 0. -1.
         23    2    1    2    0    0 -0.25087421126E+02  0.21662571171E+02  0.91729022988E+02  0.15862058565E+03  0.12509049063E+03 0.  0.
          5    1    3    3  502    0 -0.30763639544E+01  0.64588830735E+02  0.12840590334E+02  0.66057052849E+02  0.41800000000E+01 0.  1.
         -5    1    3    3    0  502 -0.22011057172E+02 -0.42926259564E+02  0.78888432654E+02  0.92563532801E+02  0.41800000000E+01 0.  1.
        -11    1    1    2    0    0 -0.25726977512E+02 -0.18732243403E+01  0.91741349934E+02  0.95298801824E+02  0.00000000000E+00 0.  1.
         11    1    1    2    0    0  0.50814398639E+02 -0.19789346830E+02  0.34606684212E+02  0.64585942349E+02  0.00000000000E+00 0. -1.
</event>
<event>
 7    1  0.6671761E-006  0.7902893E+02  0.7561462E-02  0.1331830E+00
          2   -1    0    0  501    0  0.00000000000E+00  0.00000000000E+00  0.32405256471E+03  0.32405256471E+03  0.00000000000E+00 0. -1.
         -2   -1    0    0    0  501 -0.00000000000E+00 -0.00000000000E+00 -0.47322018862E+02  0.47322018862E+02  0.00000000000E+00 0.  1.
         23    2    1    2    0    0  0.53082723020E+02  0.34382064693E+02  0.15371473207E+03  0.20802725989E+03  0.12508884901E+03 0.  0.
          5    1    3    3  502    0  0.24917581635E+02 -0.72716468142E+01  0.15533624156E+03  0.15754549522E+03  0.41800000000E+01 0. -1.
         -5    1    3    3    0  502  0.28165141385E+02  0.41653711507E+02 -0.16215094891E+01  0.50481764674E+02  0.41800000000E+01 0. -1.
        -11    1    1    2    0    0 -0.17227764169E+02  0.13220366969E+02 -0.48720654779E+01  0.22255583189E+02  0.00000000000E+00 0.  1.
         11    1    1    2    0    0 -0.35854958851E+02 -0.47602431662E+02  0.12788787926E+03  0.14109174050E+03  0.00000000000E+00 0. -1.
</event>
<event>
 7    1  0.6671761E-006  0.1978734E+03  0.7561462E-02  0.1151546E+00
          1   -1    0    0  501    0  0.00000000000E+00  0.00000000000E+00  0.19815602311E+03  0.19815602311E+03  0.00000000000E+00 0. -1.
         -1   -1    0    0    0  501 -0.00000000000E+00 -0.00000000000E+00 -0.22766420477E+03  0.22766420477E+03  0.00000000000E+00 0.  1.
         23    2    1    2    0    0 -0.49790350799E+02  0.17436571800E+03 -0.14581776615E+02  0.22077596356E+03  0.12508763019E+03 0.  0.
          5    1    3    3  502    0 -0.58579092790E+02  0.18286729628E+03  0.10720065087E+02  0.19236514849E+03  0.41800000000E+01 0. -1.
         -5    1    3    3    0  502  0.87887419911E+01 -0.85015782754E+01 -0.25301841701E+02  0.28410815061E+02  0.41800000000E+01 0. -1.
        -11    1    1    2    0    0 -0.13147406222E+02 -0.45220464061E+02 -0.36744448899E+02  0.59731894204E+02  0.00000000000E+00 0.  1.
         11    1    1    2    0    0  0.62937757020E+02 -0.12914525394E+03  0.21818043850E+02  0.14531237013E+03  0.00000000000E+00 0. -1.
</event>
<event>
 7    1  0.6671761E-006  0.8834890E+02  0.7561462E-02  0.1306900E+00
          2   -1    0    0  501    0  0.00000000000E+00  0.00000000000E+00  0.36427708675E+03  0.36427708675E+03  0.00000000000E+00 0. -1.
         -2   -1    0    0    0  501 -0.00000000000E+00 -0.00000000000E+00 -0.36367851729E+02  0.36367851729E+02  0.00000000000E+00 0.  1.
         23    2    1    2    0    0 -0.33654466096E+01  0.19066261058E+02  0.12822240956E+03  0.18017503952E+03  0.12508880850E+03 0.  0.
          5    1    3    3  502    0 -0.19475955941E+01  0.64378813929E+02  0.28508409040E+02  0.70559383483E+02  0.41800000000E+01 0.  1.
         -5    1    3    3    0  502 -0.14178510155E+01 -0.45312552871E+02  0.99714000520E+02  0.10961565604E+03  0.41800000000E+01 0.  1.
        -11    1    1    2    0    0  0.29473705526E+02  0.63944345354E+01  0.17921284840E+02  0.35082197205E+02  0.00000000000E+00 0.  1.
         11    1    1    2    0    0 -0.26108258916E+02 -0.25460695594E+02  0.18176554062E+03  0.18538770176E+03  0.00000000000E+00 0. -1.
</event>
<event>
 7    1  0.6671761E-006  0.1953917E+03  0.7561462E-02  0.1153686E+00
         -1   -1    0    0    0  501 -0.00000000000E+00  0.00000000000E+00  0.11598397907E+03  0.11598397907E+03  0.00000000000E+00 0.  1.
          1   -1    0    0  501    0  0.00000000000E+00 -0.00000000000E+00 -0.45963119778E+03  0.45963119778E+03  0.00000000000E+00 0. -1.
         23    2    1    2    0    0  0.10572966849E+03  0.14103185654E+03 -0.50336879923E+02  0.22192222562E+03  0.12508767078E+03 0.  0.
          5    1    3    3  502    0  0.12284544527E+03  0.12593838749E+03 -0.72038979218E+02  0.19015406331E+03  0.41800000000E+01 0. -1.
         -5    1    3    3    0  502 -0.17115776772E+02  0.15093469049E+02  0.21702099294E+02  0.31768162305E+02  0.41800000000E+01 0. -1.
        -11    1    1    2    0    0 -0.29708224627E+02 -0.10181909115E+03 -0.11822615124E+03  0.15883050327E+03  0.00000000000E+00 0.  1.
         11    1    1    2    0    0 -0.76021443867E+02 -0.39212765392E+02 -0.17508418755E+03  0.19486244796E+03  0.00000000000E+00 0. -1.
</event>
<event>
 7    1  0.6671761E-006  0.6039688E+02  0.7561462E-02  0.1396174E+00
          2   -1    0    0  501    0  0.00000000000E+00  0.00000000000E+00  0.83430480324E+03  0.83430480324E+03  0.00000000000E+00 0. -1.
         -2   -1    0    0    0  501 -0.00000000000E+00 -0.00000000000E+00 -0.16642019765E+02  0.16642019765E+02  0.00000000000E+00 0.  1.
         23    2    1    2    0    0  0.97789633372E+01 -0.13358394810E+02  0.31113651337E+03  0.33574852494E+03  0.12508823770E+03 0.  0.
          5    1    3    3  502    0 -0.51337541496E+00 -0.15143842271E+02 -0.71463925777E+01  0.17266813254E+02  0.41800000000E+01 0.  1.
         -5    1    3    3    0  502  0.10292338752E+02  0.17854474618E+01  0.31828290594E+03  0.31848171168E+03  0.41800000000E+01 0.  1.
        -11    1    1    2    0    0  0.13829277142E+02  0.49088213631E+02  0.29585802726E+03  0.30022137485E+03  0.00000000000E+00 0. -1.
         11    1    1    2    0    0 -0.23608240480E+02 -0.35729818821E+02  0.21066824285E+03  0.21497692322E+03  0.00000000000E+00 0.  1.
</event>
<event>
 7    1  0.6671761E-006  0.1045869E+03  0.7561462E-02  0.1270936E+00
          4   -1    0    0  501    0  0.00000000000E+00  0.00000000000E+00  0.30781032722E+03  0.30781032722E+03  0.00000000000E+00 0. -1.
         -4   -1    0    0    0  501 -0.00000000000E+00 -0.00000000000E+00 -0.52521863603E+02  0.52521863603E+02  0.00000000000E+00 0.  1.
         23    2    1    2    0    0  0.65254319710E+02 -0.59006979740E+01  0.15032415550E+03  0.20624196641E+03  0.12508178326E+03 0.  0.
          5    1    3    3  502    0  0.89601128505E+02  0.19953784691E+02  0.14262447050E+03  0.16966357222E+03  0.41800000000E+01 0.  1.
         -5    1    3    3    0  502 -0.24346808795E+02 -0.25854482665E+02  0.76996849981E+01  0.36578394189E+02  0.41800000000E+01 0.  1.
        -11    1    1    2    0    0 -0.38623066365E+02 -0.20753046914E+02  0.13812387334E+01  0.43867277464E+02  0.00000000000E+00 0.  1.
         11    1    1    2    0    0 -0.26631253346E+02  0.26653744888E+02  0.10358306938E+03  0.11022294695E+03  0.00000000000E+00 0. -1.
</event>
<event>
 7    1  0.6671761E-006  0.1280282E+03  0.7561462E-02  0.1230411E+00
          2   -1    0    0  501    0  0.00000000000E+00  0.00000000000E+00  0.22587643186E+03  0.22587643186E+03  0.00000000000E+00 0. -1.
         -2   -1    0    0    0  501 -0.00000000000E+00 -0.00000000000E+00 -0.10200323706E+03  0.10200323706E+03  0.00000000000E+00 0.  1.
         23    2    1    2    0    0  0.88417115637E+02  0.31977461438E+02  0.15894755266E+02  0.15729040986E+03  0.12508990931E+03 0.  0.
          5    1    3    3  502    0  0.73937021985E+02  0.58030134902E+02  0.54197368256E+02  0.10857719329E+03  0.41800000000E+01 0. -1.
         -5    1    3    3    0  502  0.14480093653E+02 -0.26052673464E+02 -0.38302612990E+02  0.48713216571E+02  0.41800000000E+01 0. -1.
        -11    1    1    2    0    0 -0.93250819016E+02  0.61396799271E+01  0.80617530629E+02  0.12342040820E+03  0.00000000000E+00 0.  1.
         11    1    1    2    0    0  0.48337033784E+01 -0.38117141366E+02  0.27360908906E+02  0.47168850849E+02  0.00000000000E+00 0. -1.
</event>
<event>
 7    1  0.6671761E-006  0.1183952E+03  0.7561462E-02  0.1245768E+00
         -2   -1    0    0    0  501 -0.00000000000E+00  0.00000000000E+00  0.38412181963E+03  0.38412181963E+03  0.00000000000E+00 0.  1.
          2   -1    0    0  501    0  0.00000000000E+00 -0.00000000000E+00 -0.88239128392E+02  0.88239128392E+02  0.00000000000E+00 0. -1.
         23    2    1    2    0    0  0.96815419789E+02  0.37875088341E+02  0.29162415394E+03  0.33391645297E+03  0.12509117705E+03 0.  0.
          5    1    3    3  502    0  0.32258763293E+02  0.14968091493E+02  0.25228449047E+03  0.25481288842E+03  0.41800000000E+01 0. -1.
         -5    1    3    3    0  502  0.64556656496E+02  0.22906996848E+02  0.39339663468E+02  0.79103564549E+02  0.41800000000E+01 0. -1.
        -11    1    1    2    0    0 -0.30108877016E+02  0.26161566126E+02 -0.17330068251E+02  0.43489116832E+02  0.00000000000E+00 0.  1.
         11    1    1    2    0    0 -0.66706542773E+02 -0.64036654467E+02  0.21588605553E+02  0.94955378225E+02  0.00000000000E+00 0. -1.
</event>
<event>
 7    1  0.6671761E-006  0.1000247E+03  0.7561462E-02  0.1280244E+00
          1   -1    0    0  501    0  0.00000000000E+00  0.00000000000E+00  0.44239984009E+03  0.44239984009E+03  0.00000000000E+00 0. -1.
         -1   -1    0    0    0  501 -0.00000000000E+00 -0.00000000000E+00 -0.17263496342E+03  0.17263496342E+03  0.00000000000E+00 0.  1.
         23    2    1    2    0    0 -0.35560183237E+02 -0.17004494714E+02 -0.13948701161E+03  0.19146622200E+03  0.12509599628E+03 0.  0.
          5    1    3    3  502    0  0.22978662079E+02  0.22678423043E+02 -0.11002360236E+03  0.11473881322E+03  0.41800000000E+01 0. -1.
         -5    1    3    3    0  502 -0.58538845316E+02 -0.39682917756E+02 -0.29463409250E+02  0.76727408774E+02  0.41800000000E+01 0. -1.
        -11    1    1    2    0    0  0.61431204699E+02 -0.63993137426E+01  0.34473023628E+03  0.35021947395E+03  0.00000000000E+00 0. -1.
         11    1    1    2    0    0 -0.25871021462E+02  0.23403808456E+02  0.64521652001E+02  0.73349107552E+02  0.00000000000E+00 0.  1.
</event>
<event>
 7    1  0.6671761E-006  0.1555823E+03  0.7561462E-02  0.1193777E+00
         -1   -1    0    0    0  501 -0.00000000000E+00  0.00000000000E+00  0.91476477706E+02  0.91476477706E+02  0.00000000000E+00 0.  1.
          1   -1    0    0  501    0  0.00000000000E+00 -0.00000000000E+00 -0.45892659255E+03  0.45892659255E+03  0.00000000000E+00 0. -1.
         23    2    1    2    0    0  0.53316043756E+01 -0.13140297603E+03 -0.40144014162E+02  0.18589413016E+03  0.12509963086E+03 0.  0.
          5    1    3    3  502    0  0.36165128827E+02 -0.12169083477E+03 -0.67047525018E+02  0.14362944970E+03  0.41800000000E+01 0. -1.
         -5    1    3    3    0  502 -0.30833524452E+02 -0.97121412522E+01  0.26903510856E+02  0.42264680458E+02  0.41800000000E+01 0. -1.
        -11    1    1    2    0    0 -0.40028060936E+02  0.59487605056E+02 -0.96083542140E+02  0.11988773035E+03  0.00000000000E+00 0.  1.
         11    1    1    2    0    0  0.34696456560E+02  0.71915370971E+02 -0.23122255855E+03  0.24462120975E+03  0.00000000000E+00 0. -1.
</event>
<event>
 7    1  0.1056679E-005  0.1419211E+03  0.7561462E-02  0.1210767E+00
          3   -1    0    0  501    0  0.00000000000E+00  0.00000000000E+00  0.44252405315E+02  0.44252405315E+02  0.00000000000E+00 0. -1.
         -3   -1    0    0    0  501 -0.00000000000E+00 -0.00000000000E+00 -0.54970923425E+03  0.54970923425E+03  0.00000000000E+00 0.  1.
         23    2    1    2    0    0 -0.84490345547E+02 -0.69170883716E+02 -0.31245095716E+03  0.35383067257E+03  0.12508922646E+03 0.  0.
          5    1    3    3  502    0 -0.10546236683E+03 -0.83592511086E+02 -0.28961530080E+03  0.31938145467E+03  0.41800000000E+01 0.  1.
         -5    1    3    3    0  502  0.20972021284E+02  0.14421627370E+02 -0.22835656360E+02  0.34449217903E+02  0.41800000000E+01 0.  1.
        -11    1    1    2    0    0  0.38525800354E+02 -0.21228678659E+01 -0.12675851109E+03  0.13250080753E+03  0.00000000000E+00 0.  1.
         11    1    1    2    0    0  0.45964545193E+02  0.71293751582E+02 -0.66247360678E+02  0.10763015946E+03  0.00000000000E+00 0. -1.
</event>
<event>
 7    1  0.6671761E-006  0.1210748E+03  0.7561462E-02  0.1241334E+00
         -2   -1    0    0    0  501 -0.00000000000E+00  0.00000000000E+00  0.20727635555E+03  0.20727635555E+03  0.00000000000E+00 0. -1.
          2   -1    0    0  501    0  0.00000000000E+00 -0.00000000000E+00 -0.98210631280E+02  0.98210631280E+02  0.00000000000E+00 0.  1.
         23    2    1    2    0    0 -0.42427622931E+02  0.58307996170E+02  0.12236305719E+03  0.18926281047E+03  0.12509103908E+03 0.  0.
          5    1    3    3  502    0 -0.74966791124E+02  0.74578170333E+02  0.10368371985E+03  0.14815434325E+03  0.41800000000E+01 0. -1.
         -5    1    3    3    0  502  0.32539168192E+02 -0.16270174163E+02  0.18679337341E+02  0.41108467223E+02  0.41800000000E+01 0. -1.
        -11    1    1    2    0    0  0.59530576172E+02 -0.57210541041E+02  0.14245484201E+02  0.83784660444E+02  0.00000000000E+00 0. -1.
         11    1    1    2    0    0 -0.17102953241E+02 -0.10974551290E+01 -0.27542817126E+02  0.32439515911E+02  0.00000000000E+00 0.  1.
</event>
<event>
 7    1  0.6671761E-006  0.8391012E+02  0.7561462E-02  0.1318308E+00
         -1   -1    0    0    0  501 -0.00000000000E+00  0.00000000000E+00  0.38479015199E+02  0.38479015199E+02  0.00000000000E+00 0.  1.
          1   -1    0    0  501    0  0.00000000000E+00 -0.00000000000E+00 -0.40088367306E+03  0.40088367306E+03  0.00000000000E+00 0. -1.
         23    2    1    2    0    0  0.39133437948E+02 -0.49966797727E+02 -0.18263937268E+03  0.23028870260E+03  0.12509052423E+03 0.  0.
          5    1    3    3  502    0  0.43075368501E+02 -0.97486824250E+01 -0.18436351410E+03  0.18962568896E+03  0.41800000000E+01 0.  1.
         -5    1    3    3    0  502 -0.39419305531E+01 -0.40218115302E+02  0.17241414229E+01  0.40663013644E+02  0.41800000000E+01 0.  1.
        -11    1    1    2    0    0 -0.52437715434E+02  0.36421751949E+02 -0.17902998244E+03  0.19007365053E+03  0.00000000000E+00 0. -1.
         11    1    1    2    0    0  0.13304277487E+02  0.13545045778E+02 -0.73530273844E+00  0.19000335120E+02  0.00000000000E+00 0.  1.
</event>
<event>
 7    1  0.6671761E-006  0.1212555E+03  0.7561462E-02  0.1241040E+00
         -2   -1    0    0    0  501 -0.00000000000E+00  0.00000000000E+00  0.23609764973E+02  0.23609764973E+02  0.00000000000E+00 0.  1.
          2   -1    0    0  501    0  0.00000000000E+00 -0.00000000000E+00 -0.73949397190E+03  0.73949397190E+03  0.00000000000E+00 0. -1.
         23    2    1    2    0    0 -0.68423039359E+02  0.11992787922E+02 -0.31325179356E+03  0.34438149786E+03  0.12508553321E+03 0.  0.
          5    1    3    3  502    0  0.13394096455E+02 -0.34287959842E+02 -0.36239373672E+02  0.51824999895E+02  0.41800000000E+01 0.  1.
         -5    1    3    3    0  502 -0.81817135814E+02  0.46280747764E+02 -0.27701241989E+03  0.29255649796E+03  0.41800000000E+01 0.  1.
        -11    1    1    2    0    0  0.57432633222E+02 -0.47293361750E+02 -0.31388265678E+03  0.32257943463E+03  0.00000000000E+00 0. -1.
         11    1    1    2    0    0  0.10990406137E+02  0.35300573828E+02 -0.88749756585E+02  0.96142804377E+02  0.00000000000E+00 0.  1.
</event>
<event>
 7    1  0.6671761E-006  0.1318052E+03  0.7561462E-02  0.1224802E+00
          2   -1    0    0  501    0  0.00000000000E+00  0.00000000000E+00  0.15837660379E+02  0.15837660379E+02  0.00000000000E+00 0.  1.
         -2   -1    0    0    0  501 -0.00000000000E+00 -0.00000000000E+00 -0.12833957397E+04  0.12833957397E+04  0.00000000000E+00 0. -1.
         23    2    1    2    0    0  0.89249351846E+02  0.14368803525E+02 -0.77779708176E+03  0.79296117742E+03  0.12508884514E+03 0.  0.
          5    1    3    3  502    0 -0.27799412645E+02 -0.55513103188E+01 -0.26682670093E+03  0.26836092323E+03  0.41800000000E+01 0. -1.
         -5    1    3    3    0  502  0.11704876449E+03  0.19920113844E+02 -0.51097038083E+03  0.52460025419E+03  0.41800000000E+01 0. -1.
        -11    1    1    2    0    0 -0.53744650225E+02  0.28220055101E+02 -0.36117910008E+03  0.36624472866E+03  0.00000000000E+00 0. -1.
         11    1    1    2    0    0 -0.35504701621E+02 -0.42588858626E+02 -0.12858189748E+03  0.14002749400E+03  0.00000000000E+00 0.  1.
</event>
<event>
 7    1  0.6671761E-006  0.1346146E+03  0.7561462E-02  0.1220765E+00
         -2   -1    0    0    0  501 -0.00000000000E+00  0.00000000000E+00  0.39644742377E+02  0.39644742377E+02  0.00000000000E+00 0.  1.
          2   -1    0    0  501    0  0.00000000000E+00 -0.00000000000E+00 -0.54522575272E+03  0.54522575272E+03  0.00000000000E+00 0. -1.
         23    2    1    2    0    0 -0.54806983841E+02 -0.76191523421E+02 -0.21324455462E+03  0.26444273718E+03  0.12509103666E+03 0.  0.
          5    1    3    3  502    0  0.24322611980E+02 -0.50009955370E+02 -0.30543513856E+02  0.63584304104E+02  0.41800000000E+01 0.  1.
         -5    1    3    3    0  502 -0.79129595821E+02 -0.26181568051E+02 -0.18270104076E+03  0.20085843307E+03  0.41800000000E+01 0.  1.
        -11    1    1    2    0    0  0.71171176420E+02  0.23682073111E+02 -0.14696471364E+03  0.16499940604E+03  0.00000000000E+00 0. -1.
         11    1    1    2    0    0 -0.16364192578E+02  0.52509450310E+02 -0.14537174209E+03  0.15542835189E+03  0.00000000000E+00 0.  1.
</event>
<event>
 7    1  0.6671761E-006  0.2521095E+03  0.7561462E-02  0.1111979E+00
         -2   -1    0    0    0  501 -0.00000000000E+00  0.00000000000E+00  0.28453708105E+03  0.28453708105E+03  0.00000000000E+00 0.  1.
          2   -1    0    0  501    0  0.00000000000E+00 -0.00000000000E+00 -0.25668185878E+03  0.25668185878E+03  0.00000000000E+00 0. -1.
         23    2    1    2    0    0  0.21496722781E+03  0.79456742782E+02  0.10696525398E+03  0.28215892932E+03  0.12509121805E+03 0.  0.
          5    1    3    3  502    0  0.12001078700E+03  0.10755714851E+03  0.76699699765E+02  0.17852575594E+03  0.41800000000E+01 0.  1.
         -5    1    3    3    0  502  0.94956440810E+02 -0.28100405726E+02  0.30265554215E+02  0.10363317338E+03  0.41800000000E+01 0.  1.
        -11    1    1    2    0    0 -0.65703447035E+02  0.14814528292E+02 -0.48212705082E+01  0.67525238616E+02  0.00000000000E+00 0.  1.
         11    1    1    2    0    0 -0.14926378077E+03 -0.94271271074E+02 -0.74288761208E+02  0.19153477189E+03  0.00000000000E+00 0. -1.
</event>
<event>
 7    1  0.6671761E-006  0.2014977E+03  0.7561462E-02  0.1148482E+00
         -1   -1    0    0    0  501 -0.00000000000E+00  0.00000000000E+00  0.34051028653E+02  0.34051028653E+02  0.00000000000E+00 0.  1.
          1   -1    0    0  501    0  0.00000000000E+00 -0.00000000000E+00 -0.12488157060E+04  0.12488157060E+04  0.00000000000E+00 0. -1.
         23    2    1    2    0    0  0.12097435357E+03 -0.12575907496E+03 -0.62616206829E+03  0.66194659542E+03  0.12507685746E+03 0.  0.
          5    1    3    3  502    0  0.14258607581E+03 -0.11182539853E+03 -0.47213239731E+03  0.50572935623E+03  0.41800000000E+01 0.  1.
         -5    1    3    3    0  502 -0.21611722239E+02 -0.13933676429E+02 -0.15402967098E+03  0.15621723919E+03  0.41800000000E+01 0.  1.
        -11    1    1    2    0    0 -0.13006930270E+03  0.13147899083E+03 -0.57189353312E+03  0.60105487417E+03  0.00000000000E+00 0. -1.
         11    1    1    2    0    0  0.90949491333E+01 -0.57199158709E+01 -0.16709075940E+02  0.19865265065E+02  0.00000000000E+00 0.  1.
</event>
<event>
 7    1  0.6671761E-006  0.1256436E+03  0.7561462E-02  0.1234067E+00
         -2   -1    0    0    0  501 -0.00000000000E+00  0.00000000000E+00  0.38110814386E+02  0.38110814386E+02  0.00000000000E+00 0.  1.
          2   -1    0    0  501    0  0.00000000000E+00 -0.00000000000E+00 -0.43448920438E+03  0.43448920438E+03  0.00000000000E+00 0. -1.
         23    2    1    2    0    0 -0.68445675492E+02  0.16800923309E+02 -0.22128042982E+03  0.26377896266E+03  0.12508889241E+03 0.  0.
          5    1    3    3  502    0 -0.78730535925E+02  0.57090492936E+02 -0.18214796681E+03  0.20652645323E+03  0.41800000000E+01 0. -1.
         -5    1    3    3    0  502  0.10284860433E+02 -0.40289569627E+02 -0.39132463008E+02  0.57252509429E+02  0.41800000000E+01 0. -1.
        -11    1    1    2    0    0 -0.91418542268E+01  0.23147164197E+02 -0.54965163582E+02  0.60336837145E+02  0.00000000000E+00 0.  1.
         11    1    1    2    0    0  0.77587529719E+02 -0.39948087506E+02 -0.12013279659E+03  0.14848421896E+03  0.00000000000E+00 0. -1.
</event>
<event>
 7    1  0.6671761E-006  0.8017557E+02  0.7561462E-02  0.1328554E+00
         -1   -1    0    0    0  501 -0.00000000000E+00  0.00000000000E+00  0.60157789005E+03  0.60157789005E+03  0.00000000000E+00 0.  1.
          1   -1    0    0  501    0  0.00000000000E+00 -0.00000000000E+00 -0.44746231345E+02  0.44746231345E+02  0.00000000000E+00 0. -1.
         23    2    1    2    0    0 -0.13674241302E+02  0.36253327048E+02  0.53216983944E+03  0.54804720591E+03  0.12509881414E+03 0.  0.
          5    1    3    3  502    0 -0.16344000407E+02 -0.19308688821E+02  0.19146916425E+02  0.32000447213E+02  0.41800000000E+01 0. -1.
         -5    1    3    3    0  502  0.26697591057E+01  0.55562015868E+02  0.51302292302E+03  0.51604675870E+03  0.41800000000E+01 0. -1.
        -11    1    1    2    0    0  0.30041945225E+02  0.85446440831E+01 -0.16457631048E+02  0.35304150395E+02  0.00000000000E+00 0. -1.
         11    1    1    2    0    0 -0.16367703923E+02 -0.44797971131E+02  0.41119450311E+02  0.62972765090E+02  0.00000000000E+00 0.  1.
</event>
<event>
 7    1  0.6671761E-006  0.1093444E+03  0.7561462E-02  0.1261789E+00
          2   -1    0    0  501    0  0.00000000000E+00  0.00000000000E+00  0.12836646719E+03  0.12836646719E+03  0.00000000000E+00 0. -1.
         -2   -1    0    0    0  501 -0.00000000000E+00 -0.00000000000E+00 -0.15757484447E+03  0.15757484447E+03  0.00000000000E+00 0.  1.
         23    2    1    2    0    0  0.73940913342E+02  0.34945515428E+02 -0.57351313673E+02  0.16008187337E+03  0.12509430557E+03 0.  0.
          5    1    3    3  502    0  0.69875995148E+02  0.32482439947E+01 -0.90093950087E+02  0.11413850371E+03  0.41800000000E+01 0. -1.
         -5    1    3    3    0  502  0.40649181938E+01  0.31697271433E+02  0.32742636414E+02  0.45943369659E+02  0.41800000000E+01 0. -1.
        -11    1    1    2    0    0 -0.70689487092E+01 -0.47772279975E+02  0.31546997319E+02  0.57683392841E+02  0.00000000000E+00 0. -1.
         11    1    1    2    0    0 -0.66871964633E+02  0.12826764547E+02 -0.34040609204E+01  0.68176045451E+02  0.00000000000E+00 0.  1.
</event>
<event>
 7    1  0.6671761E-006  0.9471454E+02  0.7561462E-02  0.1291820E+00
          2   -1    0    0  501    0  0.00000000000E+00  0.00000000000E+00  0.15082668964E+03  0.15082668964E+03  0.00000000000E+00 0. -1.
         -2   -1    0    0    0  501 -0.00000000000E+00 -0.00000000000E+00 -0.12969018944E+03  0.12969018944E+03  0.00000000000E+00 0.  1.
         23    2    1    2    0    0  0.49542159526E+02  0.21629315245E+02 -0.55449074097E+02  0.14711159624E+03  0.12507985082E+03 0.  0.
          5    1    3    3  502    0 -0.14116832396E+02  0.28393955454E+02 -0.73759905939E+02  0.80395881656E+02  0.41800000000E+01 0. -1.
         -5    1    3    3    0  502  0.63658991922E+02 -0.67646402085E+01  0.18310831841E+02  0.66715714584E+02  0.41800000000E+01 0. -1.
        -11    1    1    2    0    0  0.14737569110E+02  0.13545504384E+02  0.52640044006E+02  0.56317411741E+02  0.00000000000E+00 0. -1.
         11    1    1    2    0    0 -0.64279728636E+02 -0.35174819629E+02  0.23945530286E+02  0.77087871096E+02  0.00000000000E+00 0.  1.
</event>
<event>
 7    1  0.6671761E-006  0.1206821E+03  0.7561462E-02  0.1241976E+00
         -2   -1    0    0    0  501 -0.00000000000E+00  0.00000000000E+00  0.51448902775E+02  0.51448902775E+02  0.00000000000E+00 0.  1.
          2   -1    0    0  501    0  0.00000000000E+00 -0.00000000000E+00 -0.38697570401E+03  0.38697570401E+03  0.00000000000E+00 0. -1.
         23    2    1    2    0    0 -0.65706838395E+02  0.58887654773E+02 -0.19181903850E+03  0.24541112966E+03  0.12508770738E+03 0.  0.
          5    1    3    3  502    0  0.34732635149E+02  0.35503357853E+02 -0.64430542138E+02  0.81459262969E+02  0.41800000000E+01 0. -1.
         -5    1    3    3    0  502 -0.10043947354E+03  0.23384296920E+02 -0.12738849636E+03  0.16395186669E+03  0.41800000000E+01 0. -1.
        -11    1    1    2    0    0  0.31856968859E+02 -0.31032574967E+02 -0.14237110544E+03  0.14915568658E+03  0.00000000000E+00 0. -1.
         11    1    1    2    0    0  0.33849869536E+02 -0.27855079806E+02 -0.13366572985E+01  0.43857790543E+02  0.00000000000E+00 0.  1.
</event>
<event>
 7    1  0.6671761E-006  0.1596371E+03  0.7561462E-02  0.1189107E+00
         -2   -1    0    0    0  501 -0.00000000000E+00  0.00000000000E+00  0.61622793466E+02  0.61622793466E+02  0.00000000000E+00 0.  1.
          2   -1    0    0  501    0  0.00000000000E+00 -0.00000000000E+00 -0.65576265580E+03  0.65576265580E+03  0.00000000000E+00 0. -1.
         23    2    1    2    0    0 -0.10428784185E+03  0.80783331713E+02 -0.12310505373E+03  0.21955263618E+03  0.12508639078E+03 0.  0.
          5    1    3    3  502    0 -0.80093842664E+02 -0.98137211851E+01 -0.26946357188E+02  0.85175767223E+02  0.41800000000E+01 0.  1.
         -5    1    3    3    0  502 -0.24193999187E+02  0.90597052898E+02 -0.96158696537E+02  0.13437686896E+03  0.41800000000E+01 0.  1.
        -11    1    1    2    0    0  0.38580325557E+02 -0.67236093121E+02 -0.35876952682E+03  0.36704864407E+03  0.00000000000E+00 0. -1.
         11    1    1    2    0    0  0.65707516295E+02 -0.13547238592E+02 -0.11226528179E+03  0.13078416902E+03  0.00000000000E+00 0.  1.
</event>
<event>
 7    1  0.6671761E-006  0.1089936E+03  0.7561462E-02  0.1262445E+00
          1   -1    0    0  501    0  0.00000000000E+00  0.00000000000E+00  0.17697435436E+02  0.17697435436E+02  0.00000000000E+00 0. -1.
         -1   -1    0    0    0  501 -0.00000000000E+00 -0.00000000000E+00 -0.79699591440E+03  0.79699591440E+03  0.00000000000E+00 0.  1.
         23    2    1    2    0    0  0.16570251162E+02 -0.39199776560E+02 -0.54357989406E+03  0.55940924644E+03  0.12509359724E+03 0.  0.
          5    1    3    3  502    0 -0.50557222478E+02 -0.35916627896E+02 -0.31693763096E+03  0.32297518669E+03  0.41800000000E+01 0. -1.
         -5    1    3    3    0  502  0.67127473640E+02 -0.32831486639E+01 -0.22664226310E+03  0.23643405974E+03  0.41800000000E+01 0. -1.
        -11    1    1    2    0    0 -0.35367376851E+02  0.54011660286E+02 -0.21191047205E+03  0.22152688089E+03  0.00000000000E+00 0.  1.
         11    1    1    2    0    0  0.18797125689E+02 -0.14811883726E+02 -0.23808112854E+02  0.33757222506E+02  0.00000000000E+00 0. -1.
</event>
<event>
 7    1  0.6671761E-006  0.2300502E+03  0.7561462E-02  0.1126604E+00
         -2   -1    0    0    0  501 -0.00000000000E+00  0.00000000000E+00  0.41475270602E+02  0.41475270602E+02  0.00000000000E+00 0.  1.
          2   -1    0    0  501    0  0.00000000000E+00 -0.00000000000E+00 -0.14122908607E+04  0.14122908607E+04  0.00000000000E+00 0. -1.
         23    2    1    2    0    0  0.17220663327E+03 -0.12736885239E+03 -0.62346067614E+03  0.67099058567E+03  0.12508877750E+03 0.  0.
          5    1    3    3  502    0  0.72675882150E+02  0.11722369266E+02 -0.14138656515E+03  0.15945792860E+03  0.41800000000E+01 0.  1.
         -5    1    3    3    0  502  0.99530751124E+02 -0.13909122166E+03 -0.48207411099E+03  0.51153265707E+03  0.41800000000E+01 0.  1.
        -11    1    1    2    0    0 -0.83804839835E+02  0.75423339675E+02 -0.24000616998E+03  0.26516955515E+03  0.00000000000E+00 0.  1.
         11    1    1    2    0    0 -0.88401793439E+02  0.51945512717E+02 -0.50734874393E+03  0.51760599044E+03  0.00000000000E+00 0. -1.
</event>
<event>
 7    1  0.6671761E-006  0.2337751E+03  0.7561462E-02  0.1124011E+00
         -2   -1    0    0    0  501 -0.00000000000E+00  0.00000000000E+00  0.16492978737E+03  0.16492978737E+03  0.00000000000E+00 0.  1.
          2   -1    0    0  501    0  0.00000000000E+00 -0.00000000000E+00 -0.38632038501E+03  0.38632038501E+03  0.00000000000E+00 0. -1.
         23    2    1    2    0    0 -0.80962229535E+02 -0.20455184525E+03 -0.51277000214E+02  0.25821221895E+03  0.12509148355E+03 0.  0.
          5    1    3    3  502    0 -0.90445176408E+02 -0.13726934067E+03  0.12517991666E+02  0.16491626463E+03  0.41800000000E+01 0. -1.
         -5    1    3    3    0  502  0.94829468738E+01 -0.67282504580E+02 -0.63794991880E+02  0.93295954323E+02  0.41800000000E+01 0. -1.
        -11    1    1    2    0    0  0.26326464000E+02  0.16622140991E+03 -0.97860818166E+02  0.19467762982E+03  0.00000000000E+00 0.  1.
         11    1    1    2    0    0  0.54635765534E+02  0.38330435343E+02 -0.72252779265E+02  0.98360323610E+02  0.00000000000E+00 0. -1.
</event>
<event>
 7    1  0.6671761E-006  0.3621453E+03  0.7561462E-02  0.1057738E+00
         -2   -1    0    0    0  501 -0.00000000000E+00  0.00000000000E+00  0.15898675970E+03  0.15898675970E+03  0.00000000000E+00 0.  1.
          2   -1    0    0  501    0  0.00000000000E+00 -0.00000000000E+00 -0.84105667940E+03  0.84105667940E+03  0.00000000000E+00 0. -1.
         23    2    1    2    0    0  0.31419528039E+03 -0.14388418159E+03 -0.41209346037E+03  0.55216930019E+03  0.12509430068E+03 0.  0.
          5    1    3    3  502    0  0.16160082457E+03 -0.68515920382E+01 -0.19723025008E+03  0.25510588932E+03  0.41800000000E+01 0.  1.
         -5    1    3    3    0  502  0.15259445582E+03 -0.13703258955E+03 -0.21486321028E+03  0.29706341087E+03  0.41800000000E+01 0.  1.
        -11    1    1    2    0    0 -0.93963265617E+02  0.91123781675E+02 -0.99514627410E+02  0.16442566692E+03  0.00000000000E+00 0.  1.
         11    1    1    2    0    0 -0.22023201478E+03  0.52760399914E+02 -0.17046183193E+03  0.28344847199E+03  0.00000000000E+00 0. -1.
</event>
<event>
 7    1  0.6671761E-006  0.1212741E+03  0.7561462E-02  0.1241010E+00
         -2   -1    0    0    0  501 -0.00000000000E+00  0.00000000000E+00  0.22317619114E+02  0.22317619114E+02  0.00000000000E+00 0.  1.
          2   -1    0    0  501    0  0.00000000000E+00 -0.00000000000E+00 -0.67850592002E+03  0.67850592002E+03  0.00000000000E+00 0. -1.
         23    2    1    2    0    0  0.51657192256E+02  0.25142639855E+02 -0.33251244236E+03  0.35987762792E+03  0.12508702932E+03 0.  0.
          5    1    3    3  502    0  0.54243477670E+02 -0.41678724660E+02 -0.19948630193E+03  0.21093062371E+03  0.41800000000E+01 0. -1.
         -5    1    3    3    0  502 -0.25862854138E+01  0.66821364515E+02 -0.13302614042E+03  0.14894700421E+03  0.41800000000E+01 0. -1.
        -11    1    1    2    0    0 -0.47795896919E+02 -0.57303628906E+02 -0.23307890883E+03  0.24473236686E+03  0.00000000000E+00 0. -1.
         11    1    1    2    0    0 -0.38612953366E+01  0.32160989051E+02 -0.90596949721E+02  0.96213544354E+02  0.00000000000E+00 0.  1.
</event>
<event>
 7    1  0.6671761E-006  0.1775512E+03  0.7561462E-02  0.1170194E+00
         -1   -1    0    0    0  501 -0.00000000000E+00  0.00000000000E+00  0.24282305809E+03  0.24282305809E+03  0.00000000000E+00 0.  1.
          1   -1    0    0  501    0  0.00000000000E+00 -0.00000000000E+00 -0.15481776355E+03  0.15481776355E+03  0.00000000000E+00 0. -1.
         23    2    1    2    0    0  0.14555744411E+03  0.25775844141E+02  0.10896760626E+03  0.22220518744E+03  0.12509933027E+03 0.  0.
          5    1    3    3  502    0  0.11705150719E+03 -0.34802041265E+02  0.92174340666E+02  0.15305495382E+03  0.41800000000E+01 0. -1.
         -5    1    3    3    0  502  0.28505936924E+02  0.60577885407E+02  0.16793265591E+02  0.69150233619E+02  0.41800000000E+01 0. -1.
        -11    1    1    2    0    0  0.61438696524E+01  0.83265753634E+01  0.12663836981E+02  0.16353952387E+02  0.00000000000E+00 0.  1.
         11    1    1    2    0    0 -0.15170131376E+03 -0.34102419505E+02 -0.33626148701E+02  0.15908168182E+03  0.00000000000E+00 0. -1.
</event>
<event>
 7    1  0.6671761E-006  0.1797103E+03  0.7561462E-02  0.1168084E+00
          1   -1    0    0  501    0  0.00000000000E+00  0.00000000000E+00  0.26732971570E+03  0.26732971570E+03  0.00000000000E+00 0. -1.
         -1   -1    0    0    0  501 -0.00000000000E+00 -0.00000000000E+00 -0.13808889499E+03  0.13808889499E+03  0.00000000000E+00 0.  1.
         23    2    1    2    0    0 -0.12886728850E+03  0.66643981932E+02 -0.10513225957E+01  0.19156764025E+03  0.12509539216E+03 0.  0.
          5    1    3    3  502    0 -0.10770028134E+02 -0.33912390842E+02 -0.59954792239E+01  0.36324398546E+02  0.41800000000E+01 0. -1.
         -5    1    3    3    0  502 -0.11809726036E+03  0.10055637277E+03  0.49441566281E+01  0.15524324171E+03  0.41800000000E+01 0. -1.
        -11    1    1    2    0    0  0.46945683950E+02 -0.72419887077E+02  0.54331369362E+02  0.10198252293E+03  0.00000000000E+00 0.  1.
         11    1    1    2    0    0  0.81921604547E+02  0.57759051446E+01  0.75960773940E+02  0.11186844751E+03  0.00000000000E+00 0. -1.
</event>
<event>
 7    1  0.6671761E-006  0.1093781E+03  0.7561462E-02  0.1261726E+00
         -2   -1    0    0    0  501 -0.00000000000E+00  0.00000000000E+00  0.42978900514E+02  0.42978900514E+02  0.00000000000E+00 0. -1.
          2   -1    0    0  501    0  0.00000000000E+00 -0.00000000000E+00 -0.31740802716E+03  0.31740802716E+03  0.00000000000E+00 0.  1.
         23    2    1    2    0    0 -0.61210041437E+01 -0.20495408993E+02 -0.98491173457E+02  0.16064236776E+03  0.12509168873E+03 0.  0.
          5    1    3    3  502    0 -0.55827116002E+02 -0.43709540620E+02 -0.46139786722E+02  0.84696771727E+02  0.41800000000E+01 0.  1.
         -5    1    3    3    0  502  0.49706111858E+02  0.23214131627E+02 -0.52351386735E+02  0.75945596030E+02  0.41800000000E+01 0.  1.
        -11    1    1    2    0    0 -0.38734566112E+02  0.27237174154E+02 -0.10949044087E+03  0.11929118538E+03  0.00000000000E+00 0.  1.
         11    1    1    2    0    0  0.44855570256E+02 -0.67417651611E+01 -0.66447512314E+02  0.80453374529E+02  0.00000000000E+00 0. -1.
</event>
<event>
 7    1  0.6671761E-006  0.1102029E+03  0.7561462E-02  0.1260195E+00
          2   -1    0    0  501    0  0.00000000000E+00  0.00000000000E+00  0.24325318200E+03  0.24325318200E+03  0.00000000000E+00 0. -1.
         -2   -1    0    0    0  501 -0.00000000000E+00 -0.00000000000E+00 -0.59854382550E+02  0.59854382550E+02  0.00000000000E+00 0.  1.
         23    2    1    2    0    0  0.52231777824E+02 -0.12542991876E+02  0.85954499132E+02  0.16099807742E+03  0.12508684884E+03 0.  0.
          5    1    3    3  502    0 -0.62867678916E+01  0.47828867168E+02  0.14407590282E+02  0.50519056235E+02  0.41800000000E+01 0. -1.
         -5    1    3    3    0  502  0.58518545715E+02 -0.60371859044E+02  0.71546908850E+02  0.11047902119E+03  0.41800000000E+01 0. -1.
        -11    1    1    2    0    0 -0.51946102857E+02  0.36726179706E+02  0.99215578035E+02  0.11785983541E+03  0.00000000000E+00 0. -1.
         11    1    1    2    0    0 -0.28567496673E+00 -0.24183187830E+02 -0.17712777137E+01  0.24249651720E+02  0.00000000000E+00 0.  1.
</event>
<event>
 7    1  0.6671761E-006  0.1371089E+03  0.7561462E-02  0.1217273E+00
          2   -1    0    0  501    0  0.00000000000E+00  0.00000000000E+00  0.96798796304E+02  0.96798796304E+02  0.00000000000E+00 0.  1.
         -2   -1    0    0    0  501 -0.00000000000E+00 -0.00000000000E+00 -0.26797843264E+03  0.26797843264E+03  0.00000000000E+00 0. -1.
         23    2    1    2    0    0  0.76518160993E+02 -0.90023137087E+02 -0.85831027001E+02  0.19230927898E+03  0.12512673341E+03 0.  0.
          5    1    3    3  502    0  0.83818127541E+02 -0.77292498815E+02 -0.95213951234E+01  0.11448903110E+03  0.41800000000E+01 0.  1.
         -5    1    3    3    0  502 -0.72999665480E+01 -0.12730638272E+02 -0.76309631877E+02  0.77820247877E+02  0.41800000000E+01 0.  1.
        -11    1    1    2    0    0  0.33899176093E+01  0.59079148689E+02 -0.13630713871E+02  0.60725889963E+02  0.00000000000E+00 0.  1.
         11    1    1    2    0    0 -0.79908078602E+02  0.30943988398E+02 -0.71717895466E+02  0.11174206000E+03  0.00000000000E+00 0. -1.
</event>
<event>
 7    1  0.6671761E-006  0.1139636E+03  0.7561462E-02  0.1253401E+00
         -3   -1    0    0    0  501 -0.00000000000E+00  0.00000000000E+00  0.10901654818E+03  0.10901654818E+03  0.00000000000E+00 0.  1.
          3   -1    0    0  501    0  0.00000000000E+00 -0.00000000000E+00 -0.13009161758E+03  0.13009161758E+03  0.00000000000E+00 0. -1.
         23    2    1    2    0    0  0.67183346503E+01  0.51942595589E+02  0.10963759256E+02  0.13026289418E+03  0.11876467625E+03 0.  0.
          5    1    3    3  502    0  0.56587640497E+02  0.54239749521E+02  0.15320674407E+02  0.79976915103E+02  0.41800000000E+01 0. -1.
         -5    1    3    3    0  502 -0.49869305847E+02 -0.22971539323E+01 -0.43569151515E+01  0.50285979074E+02  0.41800000000E+01 0.  1.
        -11    1    1    2    0    0 -0.43204275829E+02 -0.11178787722E+02  0.15416434036E+01  0.44653683042E+02  0.00000000000E+00 0.  1.
         11    1    1    2    0    0  0.36485941179E+02 -0.40763807867E+02 -0.33580472063E+02  0.64191588542E+02  0.00000000000E+00 0. -1.
</event>
<event>
 7    1  0.6671761E-006  0.1145043E+03  0.7561462E-02  0.1252449E+00
         -4   -1    0    0    0  501 -0.00000000000E+00  0.00000000000E+00  0.11865433319E+02  0.11865433319E+02  0.00000000000E+00 0.  1.
          4   -1    0    0  501    0  0.00000000000E+00 -0.00000000000E+00 -0.11177575595E+04  0.11177575595E+04  0.00000000000E+00 0. -1.
         23    2    1    2    0    0 -0.30628759362E+02 -0.10701118126E+02 -0.59233934073E+03  0.60627172361E+03  0.12508746316E+03 0.  0.
          5    1    3    3  502    0 -0.78162853604E+02 -0.18078338884E+02 -0.39771109557E+03  0.40574357168E+03  0.41800000000E+01 0.  1.
         -5    1    3    3    0  502  0.47534094242E+02  0.73772207578E+01 -0.19462824516E+03  0.20052815193E+03  0.41800000000E+01 0.  1.
        -11    1    1    2    0    0 -0.83121603628E+01 -0.37507527188E+02 -0.17414151540E+03  0.17832883668E+03  0.00000000000E+00 0. -1.
         11    1    1    2    0    0  0.38940919725E+02  0.48208645314E+02 -0.33941127002E+03  0.34502243250E+03  0.00000000000E+00 0.  1.
</event>
<event>
 7    1  0.6671761E-006  0.8176788E+02  0.7561462E-02  0.1324108E+00
         -1   -1    0    0    0  501 -0.00000000000E+00  0.00000000000E+00  0.16781920666E+03  0.16781920666E+03  0.00000000000E+00 0.  1.
          1   -1    0    0  501    0  0.00000000000E+00 -0.00000000000E+00 -0.88379768978E+02  0.88379768978E+02  0.00000000000E+00 0. -1.
         23    2    1    2    0    0  0.41948147018E+02  0.14318054198E+02  0.67228349934E+02  0.14876500371E+03  0.12508685614E+03 0.  0.
          5    1    3    3  502    0 -0.23056484712E+02  0.31269748194E+02  0.71329976191E+02  0.81331645396E+02  0.41800000000E+01 0. -1.
         -5    1    3    3    0  502  0.65004631730E+02 -0.16951693997E+02 -0.41016262566E+01  0.67433358315E+02  0.41800000000E+01 0. -1.
        -11    1    1    2    0    0 -0.22286459755E+02 -0.26029328357E+02 -0.38655011734E+02  0.51656772599E+02  0.00000000000E+00 0. -1.
         11    1    1    2    0    0 -0.19661687263E+02  0.11711274159E+02  0.50866099477E+02  0.55777199325E+02  0.00000000000E+00 0.  1.
</event>
<event>
 7    1  0.7490081E-006  0.9858004E+02  0.7561462E-02  0.1283311E+00
         -1   -1    0    0    0  501 -0.00000000000E+00  0.00000000000E+00  0.11430495556E+03  0.11430495556E+03  0.00000000000E+00 0.  1.
          1   -1    0    0  501    0  0.00000000000E+00 -0.00000000000E+00 -0.17442838131E+03  0.17442838131E+03  0.00000000000E+00 0. -1.
         23    2    1    2    0    0  0.12899437898E+02 -0.87562096372E+02 -0.17279834039E+02  0.15420628219E+03  0.12508984205E+03 0.  0.
          5    1    3    3  502    0  0.26218545674E+02 -0.75895537429E+02  0.43041758035E+02  0.91200932417E+02  0.41800000000E+01 0. -1.
         -5    1    3    3    0  502 -0.13319107776E+02 -0.11666558943E+02 -0.60321592075E+02  0.63005349772E+02  0.41800000000E+01 0. -1.
        -11    1    1    2    0    0  0.10525069809E+02  0.65643103458E+02  0.15210053817E+02  0.68199265855E+02  0.00000000000E+00 0. -1.
         11    1    1    2    0    0 -0.23424507707E+02  0.21918992914E+02 -0.58053645526E+02  0.66327788826E+02  0.00000000000E+00 0.  1.
</event>
<event>
 7    1  0.6671761E-006  0.8990325E+02  0.7561462E-02  0.1303086E+00
         -2   -1    0    0    0  501 -0.00000000000E+00  0.00000000000E+00  0.11348500913E+03  0.11348500913E+03  0.00000000000E+00 0.  1.
          2   -1    0    0  501    0  0.00000000000E+00 -0.00000000000E+00 -0.11661768507E+03  0.11661768507E+03  0.00000000000E+00 0. -1.
         23    2    1    2    0    0 -0.21014987425E+02  0.13765672021E+02  0.23284333419E+02  0.12970065573E+03  0.12509586920E+03 0.  0.
          5    1    3    3  502    0  0.14407948875E+02 -0.51186975850E+02  0.66338461196E+01  0.53751053960E+02  0.41800000000E+01 0.  1.
         -5    1    3    3    0  502 -0.35422936300E+02  0.64952647871E+02  0.16650487299E+02  0.75949601769E+02  0.41800000000E+01 0.  1.
        -11    1    1    2    0    0 -0.19328402752E+00  0.15897914061E+02  0.29577910479E+02  0.33580259357E+02  0.00000000000E+00 0.  1.
         11    1    1    2    0    0  0.21208271452E+02 -0.29663586081E+02 -0.55994919832E+02  0.66821779116E+02  0.00000000000E+00 0. -1.
</event>
<event>
 7    1  0.6671761E-006  0.1638240E+03  0.7561462E-02  0.1184446E+00
         -2   -1    0    0    0  501 -0.00000000000E+00  0.00000000000E+00  0.18567576273E+02  0.18567576273E+02  0.00000000000E+00 0.  1.
          2   -1    0    0  501    0  0.00000000000E+00 -0.00000000000E+00 -0.20104103214E+04  0.20104103214E+04  0.00000000000E+00 0. -1.
         23    2    1    2    0    0 -0.13086782001E+03  0.60575381200E+02 -0.14043978016E+04  0.14173120265E+04  0.12507770430E+03 0.  0.
          5    1    3    3  502    0  0.10242979136E+02  0.13270167858E+01 -0.11453783365E+02  0.15979397627E+02  0.41800000000E+01 0.  1.
         -5    1    3    3    0  502 -0.14111079915E+03  0.59248364415E+02 -0.13929440182E+04  0.14013326288E+04  0.41800000000E+01 0.  1.
        -11    1    1    2    0    0  0.58088967830E+02 -0.68935268273E+02 -0.40806464879E+03  0.41790328664E+03  0.00000000000E+00 0. -1.
         11    1    1    2    0    0  0.72778852182E+02  0.83598870725E+01 -0.17938029478E+03  0.19376258460E+03  0.00000000000E+00 0.  1.
</event>
<event>
 7    1  0.6671761E-006  0.8438072E+02  0.7561462E-02  0.1317060E+00
          2   -1    0    0  501    0  0.00000000000E+00  0.00000000000E+00  0.36638308779E+03  0.36638308779E+03  0.00000000000E+00 0. -1.
         -2   -1    0    0    0  501 -0.00000000000E+00 -0.00000000000E+00 -0.36233414333E+02  0.36233414333E+02  0.00000000000E+00 0.  1.
         23    2    1    2    0    0 -0.68967034760E+01 -0.30133275887E+02  0.14282400434E+03  0.19235992190E+03  0.12509222399E+03 0.  0.
          5    1    3    3  502    0 -0.60767861907E+02 -0.16935530477E+02  0.38191261768E+02  0.73861966591E+02  0.41800000000E+01 0. -1.
         -5    1    3    3    0  502  0.53871158431E+02 -0.13197745410E+02  0.10463274257E+03  0.11849795531E+03  0.41800000000E+01 0. -1.
        -11    1    1    2    0    0  0.15627774837E+02 -0.27740071914E+01 -0.36364013066E+01  0.16283300548E+02  0.00000000000E+00 0.  1.
         11    1    1    2    0    0 -0.87310713615E+01  0.32907283078E+02  0.19096207043E+03  0.19397327968E+03  0.00000000000E+00 0. -1.
</event>
<event>
 7    1  0.6671761E-006  0.3329541E+03  0.7561462E-02  0.1069837E+00
          2   -1    0    0  501    0  0.00000000000E+00  0.00000000000E+00  0.10195358873E+04  0.10195358873E+04  0.00000000000E+00 0.  1.
         -2   -1    0    0    0  501 -0.00000000000E+00 -0.00000000000E+00 -0.12696862126E+03  0.12696862126E+03  0.00000000000E+00 0. -1.
         23    2    1    2    0    0  0.31467675133E+03 -0.53855363250E+02  0.25052693052E+03  0.42465550495E+03  0.12508675783E+03 0.  0.
          5    1    3    3  502    0  0.32511640062E+03 -0.44784862861E+02  0.23673445923E+03  0.40468139873E+03  0.41800000000E+01 0. -1.
         -5    1    3    3    0  502 -0.10439649291E+02 -0.90705003882E+01  0.13792471295E+02  0.19974106213E+02  0.41800000000E+01 0. -1.
        -11    1    1    2    0    0 -0.11584404685E+03 -0.48005946144E+01  0.16450473961E+03  0.20125779054E+03  0.00000000000E+00 0. -1.
         11    1    1    2    0    0 -0.19883270448E+03  0.58655957864E+02  0.47753559589E+03  0.52059121305E+03  0.00000000000E+00 0.  1.
</event>
<event>
 6    1  0.6671761E-006  0.1079275E+03  0.7561462E-02  0.1264457E+00
          2   -1    0    0  501    0  0.00000000000E+00  0.00000000000E+00  0.50262899804E+02  0.50262899804E+02  0.00000000000E+00 0. -1.
         -2   -1    0    0    0  501 -0.00000000000E+00 -0.00000000000E+00 -0.28574010576E+03  0.28574010576E+03  0.00000000000E+00 0.  1.
          5    1    1    2  502    0 -0.28053355255E+02  0.42745265283E+02 -0.51899888311E+02  0.72974099871E+02  0.41800000000E+01 0. -1.
         -5    1    1    2    0  502  0.66041821932E+02 -0.49866628847E+02 -0.12031763550E+03  0.14608904383E+03  0.41800000000E+01 0.  1.
        -11    1    1    2    0    0 -0.41607020440E+02  0.34518167539E+02 -0.73308893251E+01  0.54556300997E+02  0.00000000000E+00 0. -1.
         11    1    1    2    0    0  0.36185537628E+01 -0.27396803976E+02 -0.55928792820E+02  0.62383560861E+02  0.00000000000E+00 0.  1.
</event>
<event>
 7    1  0.6671761E-006  0.2019917E+03  0.7561462E-02  0.1148069E+00
          2   -1    0    0  501    0  0.00000000000E+00  0.00000000000E+00  0.47911584727E+02  0.47911584727E+02  0.00000000000E+00 0. -1.
         -2   -1    0    0    0  501 -0.00000000000E+00 -0.00000000000E+00 -0.10806762580E+04  0.10806762580E+04  0.00000000000E+00 0.  1.
         23    2    1    2    0    0 -0.89018698594E+02 -0.14560636958E+03 -0.78824677135E+03  0.81615732926E+03  0.12511702519E+03 0.  0.
          5    1    3    3  502    0 -0.86853452673E+00 -0.11716721121E+03 -0.48995023856E+03  0.50378330500E+03  0.41800000000E+01 0. -1.
         -5    1    3    3    0  502 -0.88150164068E+02 -0.28439158376E+02 -0.29829653279E+03  0.31237402425E+03  0.41800000000E+01 0. -1.
        -11    1    1    2    0    0  0.10422180744E+03  0.94448796642E+02 -0.16736528752E+03  0.21861815981E+03  0.00000000000E+00 0.  1.
         11    1    1    2    0    0 -0.15203108845E+02  0.51157572942E+02 -0.77152614362E+02  0.93812353615E+02  0.00000000000E+00 0. -1.
</event>
<event>
 7    1  0.8707962E-006  0.1650255E+03  0.7561462E-02  0.1183137E+00
         -1   -1    0    0    0  501 -0.00000000000E+00  0.00000000000E+00  0.60024340163E+02  0.60024340163E+02  0.00000000000E+00 0.  1.
          1   -1    0    0  501    0  0.00000000000E+00 -0.00000000000E+00 -0.51596779505E+03  0.51596779505E+03  0.00000000000E+00 0. -1.
         23    2    1    2    0    0 -0.84862891514E+02  0.10872057209E+03 -0.23447254056E+03  0.29941124776E+03  0.12509136603E+03 0.  0.
          5    1    3    3  502    0 -0.59760809079E+02 -0.11490103756E+02 -0.56521781113E+02  0.83159851649E+02  0.41800000000E+01 0.  1.
         -5    1    3    3    0  502 -0.25102082434E+02  0.12021067585E+03 -0.17795075945E+03  0.21625139611E+03  0.41800000000E+01 0.  1.
        -11    1    1    2    0    0  0.62343993189E+02 -0.40518597602E+02 -0.47150230207E+02  0.88043594014E+02  0.00000000000E+00 0.  1.
         11    1    1    2    0    0  0.22518898325E+02 -0.68201974492E+02 -0.17432068412E+03  0.18853729344E+03  0.00000000000E+00 0. -1.
</event>
<event>
 7    1  0.6671761E-006  0.1350864E+03  0.7561462E-02  0.1220098E+00
          3   -1    0    0  501    0  0.00000000000E+00  0.00000000000E+00  0.11799031990E+03  0.11799031990E+03  0.00000000000E+00 0. -1.
         -3   -1    0    0    0  501 -0.00000000000E+00 -0.00000000000E+00 -0.19656222082E+03  0.19656222082E+03  0.00000000000E+00 0.  1.
         23    2    1    2    0    0 -0.77611220536E+02 -0.63097407466E+02 -0.79906590573E+02  0.17898833522E+03  0.12508787530E+03 0.  0.
          5    1    3    3  502    0 -0.91150957987E+02  0.15422568064E+01 -0.29862261603E+02  0.96021366196E+02  0.41800000000E+01 0. -1.
         -5    1    3    3    0  502  0.13539737452E+02 -0.64639664272E+02 -0.50044328970E+02  0.82966969027E+02  0.41800000000E+01 0. -1.
        -11    1    1    2    0    0  0.38151160215E+02 -0.19622702429E+00 -0.35734818190E+02  0.52273576134E+02  0.00000000000E+00 0.  1.
         11    1    1    2    0    0  0.39460060320E+02  0.63293634490E+02  0.37069507840E+02  0.83290629359E+02  0.00000000000E+00 0. -1.
</event>
<event>
 6    1  0.6671761E-006  0.1017049E+03  0.7561462E-02  0.1276751E+00
         -2   -1    0    0    0  501 -0.00000000000E+00  0.00000000000E+00  0.52147388743E+02  0.52147388743E+02  0.00000000000E+00 0.  1.
          2   -1    0    0  501    0  0.00000000000E+00 -0.00000000000E+00 -0.34290244546E+03  0.34290244546E+03  0.00000000000E+00 0. -1.
          5    1    1    2  502    0 -0.30332068795E+02  0.35554184909E+02 -0.87210339738E+02  0.99031561732E+02  0.41800000000E+01 0. -1.
         -5    1    1    2    0  502  0.57359957319E+02 -0.18650613678E+02  0.99867846186E+01  0.61279836498E+02  0.41800000000E+01 0.  1.
        -11    1    1    2    0    0 -0.43814588996E+02  0.25309704360E+02 -0.13263808287E+03  0.14196182717E+03  0.00000000000E+00 0. -1.
         11    1    1    2    0    0  0.16786700473E+02 -0.42213275591E+02 -0.80893418725E+02  0.92776608808E+02  0.00000000000E+00 0.  1.
</event>
<event>
 7    1  0.6671761E-006  0.8648025E+02  0.7561462E-02  0.1311606E+00
          1   -1    0    0  501    0  0.00000000000E+00  0.00000000000E+00  0.39565669215E+03  0.39565669215E+03  0.00000000000E+00 0. -1.
         -1   -1    0    0    0  501 -0.00000000000E+00 -0.00000000000E+00 -0.52044669782E+02  0.52044669782E+02  0.00000000000E+00 0.  1.
         23    2    1    2    0    0 -0.50652511182E+02 -0.40815296880E+02  0.81046913158E+02  0.16262787670E+03  0.12509060237E+03 0.  0.
          5    1    3    3  502    0 -0.44647157742E+02 -0.10295509196E+02 -0.24771161806E+02  0.52253699020E+02  0.41800000000E+01 0. -1.
         -5    1    3    3    0  502 -0.60053534400E+01 -0.30519787684E+02  0.10581807496E+03  0.11037417768E+03  0.41800000000E+01 0. -1.
        -11    1    1    2    0    0 -0.40645231910E+01  0.40646759691E+02  0.18914931492E+03  0.19351005854E+03  0.00000000000E+00 0. -1.
         11    1    1    2    0    0  0.54717034373E+02  0.16853718956E+00  0.73415794288E+02  0.91563426685E+02  0.00000000000E+00 0.  1.
</event>
<event>
 7    1  0.6671761E-006  0.8490112E+02  0.7561462E-02  0.1315691E+00
          2   -1    0    0  501    0  0.00000000000E+00  0.00000000000E+00  0.76548594053E+02  0.76548594053E+02  0.00000000000E+00 0. -1.
         -2   -1    0    0    0  501 -0.00000000000E+00 -0.00000000000E+00 -0.15800493995E+03  0.15800493995E+03  0.00000000000E+00 0.  1.
         23    2    1    2    0    0  0.60625155938E+01  0.15359073204E+02 -0.49097740080E+02  0.13538944655E+03  0.12508820460E+03 0.  0.
          5    1    3    3  502    0 -0.53315061187E+02  0.34400532350E+02 -0.22205873427E+02  0.67353289378E+02  0.41800000000E+01 0. -1.
         -5    1    3    3    0  502  0.59377576781E+02 -0.19041459146E+02 -0.26891866653E+02  0.68036157173E+02  0.41800000000E+01 0. -1.
        -11    1    1    2    0    0  0.88865031192E+01 -0.24592012735E+02 -0.60544715090E+02  0.65949977661E+02  0.00000000000E+00 0.  1.
         11    1    1    2    0    0 -0.14949018713E+02  0.92329395310E+01  0.28186109277E+02  0.33214109788E+02  0.00000000000E+00 0. -1.
</event>
<event>
 7    1  0.6671761E-006  0.1807854E+03  0.7561462E-02  0.1167045E+00
         -2   -1    0    0    0  501 -0.00000000000E+00  0.00000000000E+00  0.96933975972E+02  0.96933975972E+02  0.00000000000E+00 0.  1.
          2   -1    0    0  501    0  0.00000000000E+00 -0.00000000000E+00 -0.60173299493E+03  0.60173299493E+03  0.00000000000E+00 0. -1.
         23    2    1    2    0    0  0.11026831493E+03 -0.10495774326E+03 -0.39817952496E+02  0.20101819588E+03  0.12509043362E+03 0.  0.
          5    1    3    3  502    0 -0.20272208054E+02 -0.11805966755E+02 -0.32668770871E+02  0.40435927844E+02  0.41800000000E+01 0. -1.
         -5    1    3    3    0  502  0.13054052299E+03 -0.93151776508E+02 -0.71491816251E+01  0.16058226803E+03  0.41800000000E+01 0. -1.
        -11    1    1    2    0    0 -0.89158354561E+02  0.22158091020E+02 -0.24402752414E+03  0.26074820368E+03  0.00000000000E+00 0. -1.
         11    1    1    2    0    0 -0.21109960372E+02  0.82799652243E+02 -0.22095354233E+03  0.23690057135E+03  0.00000000000E+00 0.  1.
</event>
<event>
 7    1  0.6671761E-006  0.9956719E+02  0.7561462E-02  0.1281209E+00
         -3   -1    0    0    0  501 -0.00000000000E+00  0.00000000000E+00  0.38509254440E+02  0.38509254440E+02  0.00000000000E+00 0.  1.
          3   -1    0    0  501    0  0.00000000000E+00 -0.00000000000E+00 -0.48995129554E+03  0.48995129554E+03  0.00000000000E+00 0. -1.
         23    2    1    2    0    0 -0.79778602818E+02  0.65503489002E+01 -0.17631777488E+03  0.23052712522E+03  0.12508902905E+03 0.  0.
          5    1    3    3  502    0 -0.22689132092E+01 -0.11458501164E+02  0.17222070636E+02  0.21225393591E+02  0.41800000000E+01 0. -1.
         -5    1    3    3    0  502 -0.77509689608E+02  0.18008850064E+02 -0.19353984551E+03  0.20930173163E+03  0.41800000000E+01 0. -1.
        -11    1    1    2    0    0  0.69383613251E+02 -0.34309038291E+02 -0.23890669394E+03  0.25113264285E+03  0.00000000000E+00 0. -1.
         11    1    1    2    0    0  0.10394989566E+02  0.27758689390E+02 -0.36217572285E+02  0.46800781906E+02  0.00000000000E+00 0.  1.
</event>
<event>
 7    1  0.6671761E-006  0.1301799E+03  0.7561462E-02  0.1227189E+00
          1   -1    0    0  501    0  0.00000000000E+00  0.00000000000E+00  0.48779730060E+02  0.48779730060E+02  0.00000000000E+00 0. -1.
         -1   -1    0    0    0  501 -0.00000000000E+00 -0.00000000000E+00 -0.48974016033E+03  0.48974016033E+03  0.00000000000E+00 0.  1.
         23    2    1    2    0    0 -0.85409236128E+02  0.63710823573E+02 -0.26450627630E+03  0.31138931691E+03  0.12508369130E+03 0.  0.
          5    1    3    3  502    0 -0.83769747686E+02  0.72667422550E+02 -0.10897070655E+03  0.15553138658E+03  0.41800000000E+01 0.  1.
         -5    1    3    3    0  502 -0.16394884416E+01 -0.89565989771E+01 -0.15553556975E+03  0.15585793032E+03  0.41800000000E+01 0.  1.
        -11    1    1    2    0    0 -0.78307297112E+01 -0.43190434847E+02 -0.33456077928E+02  0.55190969736E+02  0.00000000000E+00 0. -1.
         11    1    1    2    0    0  0.93239965839E+02 -0.20520388726E+02 -0.14299807605E+03  0.17193960375E+03  0.00000000000E+00 0.  1.
</event>
<event>
 7    1  0.6671761E-006  0.1204604E+03  0.7561462E-02  0.1242339E+00
         -2   -1    0    0    0  501 -0.00000000000E+00  0.00000000000E+00  0.41550452222E+02  0.41550452222E+02  0.00000000000E+00 0. -1.
          2   -1    0    0  501    0  0.00000000000E+00 -0.00000000000E+00 -0.39459512088E+03  0.39459512088E+03  0.00000000000E+00 0.  1.
         23    2    1    2    0    0  0.41974611378E+02 -0.41824727469E+02 -0.13706804003E+03  0.19479584630E+03  0.12508636341E+03 0.  0.
          5    1    3    3  502    0  0.11621696261E+02 -0.84115147455E+02 -0.72349180109E+02  0.11163466360E+03  0.41800000000E+01 0. -1.
         -5    1    3    3    0  502  0.30352915117E+02  0.42290419986E+02 -0.64718859922E+02  0.83161182701E+02  0.41800000000E+01 0. -1.
        -11    1    1    2    0    0  0.19271702275E+02 -0.11526727676E+02 -0.23845293516E+02  0.32754571930E+02  0.00000000000E+00 0. -1.
         11    1    1    2    0    0 -0.61246313653E+02  0.53351455145E+02 -0.19213133512E+03  0.20859515487E+03  0.00000000000E+00 0.  1.
</event>
<event>
 6    1  0.6671761E-006  0.1159678E+03  0.7561462E-02  0.1249901E+00
         -2   -1    0    0    0  501 -0.00000000000E+00  0.00000000000E+00  0.22376117134E+03  0.22376117134E+03  0.00000000000E+00 0.  1.
          2   -1    0    0  501    0  0.00000000000E+00 -0.00000000000E+00 -0.20072791300E+03  0.20072791300E+03  0.00000000000E+00 0. -1.
          5    1    1    2  502    0  0.38255251507E+02 -0.94863172945E+02 -0.13601740743E+03  0.17023716801E+03  0.41800000000E+01 0. -1.
         -5    1    1    2    0  502  0.20820784259E+02  0.56976102092E+01  0.99359973644E+02  0.10176367025E+03  0.41800000000E+01 0.  1.
        -11    1    1    2    0    0 -0.56129111413E+02  0.78440700219E+02  0.82621178919E+02  0.12700267637E+03  0.00000000000E+00 0.  1.
         11    1    1    2    0    0 -0.29469243522E+01  0.10724862517E+02 -0.22930486792E+02  0.25485569714E+02  0.00000000000E+00 0. -1.
</event>
<event>
 7    1  0.6671761E-006  0.1319649E+03  0.7561462E-02  0.1224569E+00
          1   -1    0    0  501    0  0.00000000000E+00  0.00000000000E+00  0.55505381515E+03  0.55505381515E+03  0.00000000000E+00 0. -1.
         -1   -1    0    0    0  501 -0.00000000000E+00 -0.00000000000E+00 -0.34013982931E+02  0.34013982931E+02  0.00000000000E+00 0.  1.
         23    2    1    2    0    0  0.83857696624E+02 -0.59509892867E+01  0.26950746508E+03  0.30878596175E+03  0.12508784466E+03 0.  0.
          5    1    3    3  502    0  0.10819976156E+03 -0.24004463213E+02  0.15720462370E+03  0.19239066705E+03  0.41800000000E+01 0.  1.
         -5    1    3    3    0  502 -0.24342064934E+02  0.18053473927E+02  0.11230284137E+03  0.11639529469E+03  0.41800000000E+01 0.  1.
        -11    1    1    2    0    0 -0.89681328165E+02 -0.23254292717E+02  0.20600578579E+03  0.22588024821E+03  0.00000000000E+00 0. -1.
         11    1    1    2    0    0  0.58236315404E+01  0.29205282004E+02  0.45526581357E+02  0.54401588133E+02  0.00000000000E+00 0.  1.
</event>
<event>
 7    1  0.6671761E-006  0.1839784E+03  0.7561462E-02  0.1164007E+00
          2   -1    0    0  501    0  0.00000000000E+00  0.00000000000E+00  0.64362501974E+02  0.64362501974E+02  0.00000000000E+00 0.  1.
         -2   -1    0    0    0  501 -0.00000000000E+00 -0.00000000000E+00 -0.54391535674E+03  0.54391535674E+03  0.00000000000E+00 0. -1.
         23    2    1    2    0    0  0.14517689035E+03 -0.44439414407E+02 -0.26978891775E+03  0.33389227115E+03  0.12508715982E+03 0.  0.
          5    1    3    3  502    0  0.15166784250E+03 -0.58686386931E+01 -0.17758492687E+03  0.23364814149E+03  0.41800000000E+01 0.  1.
         -5    1    3    3    0  502 -0.64909521468E+01 -0.38570775714E+02 -0.92203990874E+02  0.10024412966E+03  0.41800000000E+01 0.  1.
        -11    1    1    2    0    0 -0.56551281201E+02 -0.27266058909E+02 -0.78898717219E+02  0.10082902832E+03  0.00000000000E+00 0.  1.
         11    1    1    2    0    0 -0.88625609151E+02  0.71705473316E+02 -0.13086521980E+03  0.17355655924E+03  0.00000000000E+00 0. -1.
</event>
<event>
 7    1  0.6671761E-006  0.9381450E+02  0.7561462E-02  0.1293869E+00
         -3   -1    0    0    0  501 -0.00000000000E+00  0.00000000000E+00  0.54982348715E+03  0.54982348715E+03  0.00000000000E+00 0.  1.
          3   -1    0    0  501    0  0.00000000000E+00 -0.00000000000E+00 -0.35272211156E+02  0.35272211156E+02  0.00000000000E+00 0. -1.
         23    2    1    2    0    0 -0.85162378004E+02 -0.10982225904E+02  0.31014598615E+03  0.34526921048E+03  0.12508818917E+03 0.  0.
          5    1    3    3  502    0 -0.38117594897E+02 -0.67402633215E+01  0.84128486966E+01  0.39832532101E+02  0.41800000000E+01 0.  1.
         -5    1    3    3    0  502 -0.47044783107E+02 -0.42419625822E+01  0.30173313745E+03  0.30543667838E+03  0.41800000000E+01 0.  1.
        -11    1    1    2    0    0  0.50873341191E+02  0.32894964801E+02  0.18514717006E+03  0.19480669941E+03  0.00000000000E+00 0.  1.
         11    1    1    2    0    0  0.34289036813E+02 -0.21912738897E+02  0.19258119790E+02  0.45019788420E+02  0.00000000000E+00 0. -1.
</event>
<event>
 7    1  0.6671761E-006  0.1412568E+03  0.7561462E-02  0.1211648E+00
          3   -1    0    0  501    0  0.00000000000E+00  0.00000000000E+00  0.19040221414E+03  0.19040221414E+03  0.00000000000E+00 0. -1.
         -3   -1    0    0    0  501 -0.00000000000E+00 -0.00000000000E+00 -0.20325923800E+03  0.20325923800E+03  0.00000000000E+00 0.  1.
         23    2    1    2    0    0  0.17651548840E+02  0.12898565141E+03 -0.10498321587E+03  0.20884879209E+03  0.12508983531E+03 0.  0.
          5    1    3    3  502    0 -0.93561301937E+01  0.73449422486E+02  0.13305119440E+02  0.75344896569E+02  0.41800000000E+01 0. -1.
         -5    1    3    3    0  502  0.27007679034E+02  0.55536228926E+02 -0.11828833531E+03  0.13350389552E+03  0.41800000000E+01 0. -1.
        -11    1    1    2    0    0 -0.93466393745E+01  0.60706667085E+01  0.37104604256E+02  0.38742280765E+02  0.00000000000E+00 0. -1.
         11    1    1    2    0    0 -0.83049094654E+01 -0.13505631812E+03  0.55021587751E+02  0.14607037928E+03  0.00000000000E+00 0.  1.
</event>
<event>
 7    1  0.6671761E-006  0.9899324E+02  0.7561462E-02  0.1282427E+00
         -3   -1    0    0    0  501 -0.00000000000E+00  0.00000000000E+00  0.65036288428E+02  0.65036288428E+02  0.00000000000E+00 0.  1.
          3   -1    0    0  501    0  0.00000000000E+00 -0.00000000000E+00 -0.20867367616E+03  0.20867367616E+03  0.00000000000E+00 0. -1.
         23    2    1    2    0    0 -0.26499560561E+02 -0.60511629332E+01 -0.75884361210E+02  0.14880948072E+03  0.12508789707E+03 0.  0.
          5    1    3    3  502    0  0.10748753766E+02 -0.59383659758E+02 -0.22461655950E+02  0.64528700140E+02  0.41800000000E+01 0. -1.
         -5    1    3    3    0  502 -0.37248314327E+02  0.53332496825E+02 -0.53422705260E+02  0.84280780579E+02  0.41800000000E+01 0. -1.
        -11    1    1    2    0    0  0.61646906915E+01  0.35769785621E+02  0.11313977826E+02  0.38019561662E+02  0.00000000000E+00 0.  1.
         11    1    1    2    0    0  0.20334869869E+02 -0.29718622688E+02 -0.79067004345E+02  0.86880922205E+02  0.00000000000E+00 0. -1.
</event>
<event>
 7    1  0.6671761E-006  0.1592423E+03  0.7561462E-02  0.1189555E+00
          2   -1    0    0  501    0  0.00000000000E+00  0.00000000000E+00  0.94716949294E+03  0.94716949294E+03  0.00000000000E+00 0. -1.
         -2   -1    0    0    0  501 -0.00000000000E+00 -0.00000000000E+00 -0.33648873636E+02  0.33648873636E+02  0.00000000000E+00 0.  1.
         23    2    1    2    0    0 -0.13359994355E+03 -0.25291947227E+02  0.36289557755E+03  0.40722102018E+03  0.12508849492E+03 0.  0.
          5    1    3    3  502    0 -0.45903738384E+02 -0.58746198815E+02  0.81405728739E+02  0.11046553374E+03  0.41800000000E+01 0.  1.
         -5    1    3    3    0  502 -0.87696205165E+02  0.33454251588E+02  0.28148984881E+03  0.29675548644E+03  0.41800000000E+01 0.  1.
        -11    1    1    2    0    0  0.69887699618E+02 -0.18807952219E+02  0.37066346193E+03  0.37766311924E+03  0.00000000000E+00 0. -1.
         11    1    1    2    0    0  0.63712243931E+02  0.44099899447E+02  0.17996157982E+03  0.19593422716E+03  0.00000000000E+00 0.  1.
</event>
<event>
 7    1  0.6671761E-006  0.1451921E+03  0.7561462E-02  0.1206509E+00
         -2   -1    0    0    0  501 -0.00000000000E+00  0.00000000000E+00  0.34406163788E+02  0.34406163788E+02  0.00000000000E+00 0.  1.
          2   -1    0    0  501    0  0.00000000000E+00 -0.00000000000E+00 -0.65148818179E+03  0.65148818179E+03  0.00000000000E+00 0. -1.
         23    2    1    2    0    0  0.85716806007E+02 -0.57485606272E+02 -0.35302272357E+03  0.38849271996E+03  0.12509829871E+03 0.  0.
          5    1    3    3  502    0  0.57894322322E+02  0.32699860949E+02 -0.16848337111E+03  0.18117712936E+03  0.41800000000E+01 0.  1.
         -5    1    3    3    0  502  0.27822483685E+02 -0.90185467221E+02 -0.18453935247E+03  0.20731559060E+03  0.41800000000E+01 0.  1.
        -11    1    1    2    0    0 -0.14949779240E+02 -0.19597553598E+02 -0.19612564191E+02  0.31499407621E+02  0.00000000000E+00 0.  1.
         11    1    1    2    0    0 -0.70767026767E+02  0.77083159870E+02 -0.24444673024E+03  0.26590221800E+03  0.00000000000E+00 0. -1.
</event>
<event>
 7    1  0.6671761E-006  0.1192310E+03  0.7561462E-02  0.1244371E+00
         -1   -1    0    0    0  501 -0.00000000000E+00  0.00000000000E+00  0.16240749784E+03  0.16240749784E+03  0.00000000000E+00 0.  1.
          1   -1    0    0  501    0  0.00000000000E+00 -0.00000000000E+00 -0.14113005189E+03  0.14113005189E+03  0.00000000000E+00 0. -1.
         23    2    1    2    0    0  0.39445854684E+02 -0.77198713747E+02  0.14440483281E+02  0.15287888707E+03  0.12509120552E+03 0.  0.
          5    1    3    3  502    0  0.34321403462E+01  0.39743178892E+01 -0.45283754495E+02  0.45778440463E+02  0.41800000000E+01 0. -1.
         -5    1    3    3    0  502  0.36013714338E+02 -0.81173031637E+02  0.59724237776E+02  0.10710044661E+03  0.41800000000E+01 0. -1.
        -11    1    1    2    0    0  0.35352827482E+02  0.53984535465E+02  0.26739860715E+02  0.69851074662E+02  0.00000000000E+00 0.  1.
         11    1    1    2    0    0 -0.74798682166E+02  0.23214178282E+02 -0.19902898050E+02  0.80807587997E+02  0.00000000000E+00 0. -1.
</event>
<event>
 7    1  0.6671761E-006  0.1096988E+03  0.7561462E-02  0.1261129E+00
         -4   -1    0    0    0  501 -0.00000000000E+00  0.00000000000E+00  0.18373449712E+03  0.18373449712E+03  0.00000000000E+00 0.  1.
          4   -1    0    0  501    0  0.00000000000E+00 -0.00000000000E+00 -0.98780478903E+02  0.98780478903E+02  0.00000000000E+00 0. -1.
         23    2    1    2    0    0 -0.54114249808E+02 -0.36424601037E+02  0.94602309926E+02  0.16985746354E+03  0.12508739858E+03 0.  0.
          5    1    3    3  502    0 -0.26973538358E+02  0.34997548533E+02  0.80679483151E+02  0.92081765711E+02  0.41800000000E+01 0. -1.
         -5    1    3    3    0  502 -0.27140711450E+02 -0.71422149570E+02  0.13922826775E+02  0.77775697828E+02  0.41800000000E+01 0. -1.
        -11    1    1    2    0    0 -0.13592671408E+02  0.26876454356E+02 -0.28776388180E+02  0.41655552229E+02  0.00000000000E+00 0. -1.
         11    1    1    2    0    0  0.67706921216E+02  0.95481466803E+01  0.19128096471E+02  0.71001960256E+02  0.00000000000E+00 0.  1.
</event>
<event>
 7    1  0.6671761E-006  0.7924693E+02  0.7561462E-02  0.1331202E+00
         -2   -1    0    0    0  501 -0.00000000000E+00  0.00000000000E+00  0.77486645001E+02  0.77486645001E+02  0.00000000000E+00 0.  1.
          2   -1    0    0  501    0  0.00000000000E+00 -0.00000000000E+00 -0.15768713826E+03  0.15768713826E+03  0.00000000000E+00 0. -1.
         23    2    1    2    0    0  0.23856822192E+01  0.17465211955E+02 -0.40030789615E+02  0.13251735338E+03  0.12509060605E+03 0.  0.
          5    1    3    3  502    0 -0.34089943286E+02  0.28364850335E+02 -0.70625455830E+02  0.83499199870E+02  0.41800000000E+01 0.  1.
         -5    1    3    3    0  502  0.36475625505E+02 -0.10899638379E+02  0.30594666215E+02  0.49018153511E+02  0.41800000000E+01 0.  1.
        -11    1    1    2    0    0  0.24024840413E+02  0.18998004818E+02  0.12749276590E+02  0.33176214334E+02  0.00000000000E+00 0.  1.
         11    1    1    2    0    0 -0.26410522632E+02 -0.36463216774E+02 -0.52918980232E+02  0.69480215544E+02  0.00000000000E+00 0. -1.
</event>
<event>
 7    1  0.6671761E-006  0.7756235E+02  0.7561462E-02  0.1336115E+00
         -2   -1    0    0    0  501 -0.00000000000E+00  0.00000000000E+00  0.53502370809E+02  0.53502370809E+02  0.00000000000E+00 0.  1.
          2   -1    0    0  501    0  0.00000000000E+00 -0.00000000000E+00 -0.25942525125E+03  0.25942525125E+03  0.00000000000E+00 0. -1.
         23    2    1    2    0    0 -0.38699433930E+02  0.13791925957E+01 -0.11432558790E+03  0.17383004551E+03  0.12508795432E+03 0.  0.
          5    1    3    3  502    0 -0.38587389554E+02  0.16850153019E+02 -0.13850369972E+03  0.14482286258E+03  0.41800000000E+01 0.  1.
         -5    1    3    3    0  502 -0.11204437534E+00 -0.15470960423E+02  0.24178111822E+02  0.29007182931E+02  0.41800000000E+01 0.  1.
        -11    1    1    2    0    0  0.29098354209E+02  0.42700475491E+02 -0.74897358337E+02  0.90992632178E+02  0.00000000000E+00 0.  1.
         11    1    1    2    0    0  0.96010797205E+01 -0.44079668087E+02 -0.16699934206E+02  0.48104944371E+02  0.00000000000E+00 0. -1.
</event>
<event>
 7    1  0.6671761E-006  0.6472926E+02  0.7561462E-02  0.1378993E+00
         -2   -1    0    0    0  501 -0.00000000000E+00  0.00000000000E+00  0.89503050353E+02  0.89503050353E+02  0.00000000000E+00 0.  1.
          2   -1    0    0  501    0  0.00000000000E+00 -0.00000000000E+00 -0.16086051406E+03  0.16086051406E+03  0.00000000000E+00 0. -1.
         23    2    1    2    0    0  0.47615636169E+02 -0.36616943919E+01 -0.25521189407E+02  0.13631039850E+03  0.12509411184E+03 0.  0.
          5    1    3    3  502    0  0.17888189726E+02  0.53402796140E+00  0.50889926929E+02  0.54106650057E+02  0.41800000000E+01 0. -1.
         -5    1    3    3    0  502  0.29727446443E+02 -0.41957223533E+01 -0.76411116336E+02  0.82203748441E+02  0.41800000000E+01 0. -1.
        -11    1    1    2    0    0 -0.50364634949E+02 -0.22000383971E+02 -0.62580647918E+02  0.83288359585E+02  0.00000000000E+00 0. -1.
         11    1    1    2    0    0  0.27489987795E+01  0.25662078363E+02  0.16744373623E+02  0.30764806325E+02  0.00000000000E+00 0.  1.
</event>
<event>
 7    1  0.6671761E-006  0.1189083E+03  0.7561462E-02  0.1244909E+00
         -2   -1    0    0    0  501 -0.00000000000E+00  0.00000000000E+00  0.11995269909E+03  0.11995269909E+03  0.00000000000E+00 0.  1.
          2   -1    0    0  501    0  0.00000000000E+00 -0.00000000000E+00 -0.16592312374E+03  0.16592312374E+03  0.00000000000E+00 0. -1.
         23    2    1    2    0    0 -0.85767035984E+02  0.12179267376E+02 -0.51705708912E+02  0.16069942837E+03  0.12508599813E+03 0.  0.
          5    1    3    3  502    0 -0.11462482765E+03  0.23998642085E+02 -0.54250837570E+02  0.12913330985E+03  0.41800000000E+01 0. -1.
         -5    1    3    3    0  502  0.28857791666E+02 -0.11819374709E+02  0.25451286577E+01  0.31566118517E+02  0.41800000000E+01 0. -1.
        -11    1    1    2    0    0  0.59529164622E+02 -0.18199084763E+02  0.45536419492E+02  0.77126478119E+02  0.00000000000E+00 0.  1.
         11    1    1    2    0    0  0.26237871362E+02  0.60198173878E+01 -0.39801135232E+02  0.48049916345E+02  0.00000000000E+00 0. -1.
</event>
<event>
 7    1  0.6671761E-006  0.1114610E+03  0.7561462E-02  0.1257888E+00
          2   -1    0    0  501    0  0.00000000000E+00  0.00000000000E+00  0.39876076574E+03  0.39876076574E+03  0.00000000000E+00 0. -1.
         -2   -1    0    0    0  501 -0.00000000000E+00 -0.00000000000E+00 -0.41248374790E+02  0.41248374790E+02  0.00000000000E+00 0.  1.
         23    2    1    2    0    0 -0.40279496086E+02  0.34179387992E+02  0.12585719558E+03  0.18514923785E+03  0.12509811440E+03 0.  0.
          5    1    3    3  502    0 -0.42052741588E+02 -0.41257218529E+02  0.43347819769E+02  0.73260473890E+02  0.41800000000E+01 0. -1.
         -5    1    3    3    0  502  0.17732455020E+01  0.75436606521E+02  0.82509375812E+02  0.11188876396E+03  0.41800000000E+01 0. -1.
        -11    1    1    2    0    0  0.53076722423E+02 -0.13945598268E+01  0.62159421212E+02  0.81748864859E+02  0.00000000000E+00 0.  1.
         11    1    1    2    0    0 -0.12797226337E+02 -0.32784828165E+02  0.16949577416E+03  0.17311103782E+03  0.00000000000E+00 0. -1.
</event>
<event>
 7    1  0.6671761E-006  0.9819968E+02  0.7561462E-02  0.1284128E+00
         -2   -1    0    0    0  501 -0.00000000000E+00  0.00000000000E+00  0.23341433762E+03  0.23341433762E+03  0.00000000000E+00 0.  1.
          2   -1    0    0  501    0  0.00000000000E+00 -0.00000000000E+00 -0.65539737151E+02  0.65539737151E+02  0.00000000000E+00 0. -1.
         23    2    1    2    0    0  0.15016434985E+01 -0.36269586279E+02  0.15005886640E+03  0.19870382842E+03  0.12509120762E+03 0.  0.
          5    1    3    3  502    0  0.37722758260E+02 -0.48807396036E+02  0.14764922943E+03  0.16007165817E+03  0.41800000000E+01 0. -1.
         -5    1    3    3    0  502 -0.36221114762E+02  0.12537809757E+02  0.24096369693E+01  0.38632170252E+02  0.41800000000E+01 0. -1.
        -11    1    1    2    0    0  0.33014143297E+02  0.49120765117E+02  0.22090158751E+02  0.63172449192E+02  0.00000000000E+00 0.  1.
         11    1    1    2    0    0 -0.34515786795E+02 -0.12851178838E+02 -0.42744246808E+01  0.37077797156E+02  0.00000000000E+00 0. -1.
</event>
<event>
 7    1  0.6671761E-006  0.6902823E+02  0.7561462E-02  0.1363429E+00
          2   -1    0    0  501    0  0.00000000000E+00  0.00000000000E+00  0.24558877892E+02  0.24558877892E+02  0.00000000000E+00 0. -1.
         -2   -1    0    0    0  501 -0.00000000000E+00 -0.00000000000E+00 -0.66293294459E+03  0.66293294459E+03  0.00000000000E+00 0.  1.
         23    2    1    2    0    0 -0.32735942030E+02  0.11997700089E+02 -0.51531707209E+03  0.53142801056E+03  0.12509380046E+03 0.  0.
          5    1    3    3  502    0 -0.21486547561E+02 -0.46704207248E+01 -0.81112397733E+01  0.23806494208E+02  0.41800000000E+01 0. -1.
         -5    1    3    3    0  502 -0.11249394469E+02  0.16668120814E+02 -0.50720583232E+03  0.50762151635E+03  0.41800000000E+01 0. -1.
        -11    1    1    2    0    0 -0.66634613323E+01  0.33956227599E+02 -0.55021691601E+02  0.64998566571E+02  0.00000000000E+00 0.  1.
         11    1    1    2    0    0  0.39399403362E+02 -0.45953927689E+02 -0.68035303006E+02  0.91065245349E+02  0.00000000000E+00 0. -1.
</event>
<event>
 7    1  0.6671761E-006  0.9078699E+02  0.7561462E-02  0.1300957E+00
         -2   -1    0    0    0  501 -0.00000000000E+00  0.00000000000E+00  0.39793736430E+02  0.39793736430E+02  0.00000000000E+00 0.  1.
          2   -1    0    0  501    0  0.00000000000E+00 -0.00000000000E+00 -0.32948446820E+03  0.32948446820E+03  0.00000000000E+00 0. -1.
         23    2    1    2    0    0 -0.34915828819E+02 -0.18491910475E+02 -0.15031367042E+03  0.19950746705E+03  0.12509182243E+03 0.  0.
          5    1    3    3  502    0 -0.21241523801E+02 -0.71911564043E+02 -0.75671999288E+02  0.10661237852E+03  0.41800000000E+01 0. -1.
         -5    1    3    3    0  502 -0.13674305018E+02  0.53419653568E+02 -0.74641671130E+02  0.92895088536E+02  0.41800000000E+01 0. -1.
        -11    1    1    2    0    0 -0.26084350756E+01  0.12989245819E+02  0.93943932294E+01  0.16241276570E+02  0.00000000000E+00 0.  1.
         11    1    1    2    0    0  0.37524263894E+02  0.55026646559E+01 -0.14877145458E+03  0.15352946101E+03  0.00000000000E+00 0. -1.
</event>
<event>
 7    1  0.6671761E-006  0.1022358E+03  0.7561462E-02  0.1275663E+00
         -2   -1    0    0    0  501 -0.00000000000E+00  0.00000000000E+00  0.95312249040E+02  0.95312249040E+02  0.00000000000E+00 0.  1.
          2   -1    0    0  501    0  0.00000000000E+00 -0.00000000000E+00 -0.19697726541E+03  0.19697726541E+03  0.00000000000E+00 0. -1.
         23    2    1    2    0    0  0.32618756305E+02  0.26646227009E+02  0.21003225442E+02  0.13365059453E+03  0.12508933313E+03 0.  0.
          5    1    3    3  502    0  0.28049509281E+02 -0.34590034964E+02 -0.29880693104E+02  0.53791948376E+02  0.41800000000E+01 0. -1.
         -5    1    3    3    0  502  0.45692470238E+01  0.61236261973E+02  0.50883918546E+02  0.79858646153E+02  0.41800000000E+01 0. -1.
        -11    1    1    2    0    0 -0.57787977255E+02 -0.39435527286E+02 -0.70504234046E+02  0.99325012691E+02  0.00000000000E+00 0.  1.
         11    1    1    2    0    0  0.25169220950E+02  0.12789300277E+02 -0.52164007770E+02  0.59313907234E+02  0.00000000000E+00 0. -1.
</event>
<event>
 7    1  0.6671761E-006  0.1383201E+03  0.7561462E-02  0.1215607E+00
          3   -1    0    0  501    0  0.00000000000E+00  0.00000000000E+00  0.42174638728E+03  0.42174638728E+03  0.00000000000E+00 0. -1.
         -3   -1    0    0    0  501 -0.00000000000E+00 -0.00000000000E+00 -0.49796248608E+02  0.49796248608E+02  0.00000000000E+00 0.  1.
         23    2    1    2    0    0 -0.24869325652E+02  0.91330681968E+02  0.17404592168E+03  0.23430665140E+03  0.12509135545E+03 0.  0.
          5    1    3    3  502    0 -0.58663726703E+02  0.45229424024E+01  0.96161738215E+02  0.11281153370E+03  0.41800000000E+01 0. -1.
         -5    1    3    3    0  502  0.33794401052E+02  0.86807739566E+02  0.77884183462E+02  0.12149511770E+03  0.41800000000E+01 0. -1.
        -11    1    1    2    0    0 -0.29784130849E+02 -0.30507962487E+02  0.35789219808E+02  0.55665954406E+02  0.00000000000E+00 0.  1.
         11    1    1    2    0    0  0.54653456501E+02 -0.60822719481E+02  0.16211499719E+03  0.18157003009E+03  0.00000000000E+00 0. -1.
</event>
<event>
 7    1  0.6671761E-006  0.8443971E+02  0.7561462E-02  0.1316904E+00
          2   -1    0    0  501    0  0.00000000000E+00  0.00000000000E+00  0.18669405507E+03  0.18669405507E+03  0.00000000000E+00 0. -1.
         -2   -1    0    0    0  501 -0.00000000000E+00 -0.00000000000E+00 -0.11811530410E+03  0.11811530410E+03  0.00000000000E+00 0.  1.
         23    2    1    2    0    0 -0.25413087613E+02 -0.44452740022E+02 -0.52509946619E+02  0.14500412489E+03  0.12508809146E+03 0.  0.
          5    1    3    3  502    0 -0.46324381641E+02 -0.27374954536E+02 -0.86155027237E+02  0.10166364930E+03  0.41800000000E+01 0. -1.
         -5    1    3    3    0  502  0.20911294028E+02 -0.17077785487E+02  0.33645080618E+02  0.43340475596E+02  0.41800000000E+01 0. -1.
        -11    1    1    2    0    0 -0.99749566168E+01 -0.15228372573E+02 -0.21965368235E+01  0.18336517247E+02  0.00000000000E+00 0.  1.
         11    1    1    2    0    0  0.35388044230E+02  0.59681112596E+02  0.12328523441E+03  0.14146871703E+03  0.00000000000E+00 0. -1.
</event>
<event>
 7    1  0.6671761E-006  0.1881954E+03  0.7561462E-02  0.1160099E+00
         -1   -1    0    0    0  501 -0.00000000000E+00  0.00000000000E+00  0.54431270808E+02  0.54431270808E+02  0.00000000000E+00 0.  1.
          1   -1    0    0  501    0  0.00000000000E+00 -0.00000000000E+00 -0.78464661006E+03  0.78464661006E+03  0.00000000000E+00 0. -1.
         23    2    1    2    0    0 -0.15817881646E+03  0.68162909214E+02 -0.31527494212E+03  0.38041080347E+03  0.12508944838E+03 0.  0.
          5    1    3    3  502    0 -0.14698279063E+03  0.82361137917E+02 -0.19087064995E+03  0.25462987883E+03  0.41800000000E+01 0. -1.
         -5    1    3    3    0  502 -0.11196025832E+02 -0.14198228704E+02 -0.12440429216E+03  0.12578092463E+03  0.41800000000E+01 0. -1.
        -11    1    1    2    0    0  0.12765723580E+03 -0.86019215982E+02 -0.37475804338E+03  0.40514104513E+03  0.00000000000E+00 0.  1.
         11    1    1    2    0    0  0.30521580664E+02  0.17856306769E+02 -0.40182353749E+02  0.53526032269E+02  0.00000000000E+00 0. -1.
</event>
<event>
 7    1  0.6671761E-006  0.1509037E+03  0.7561462E-02  0.1199367E+00
          2   -1    0    0  501    0  0.00000000000E+00  0.00000000000E+00  0.94360496611E+02  0.94360496611E+02  0.00000000000E+00 0. -1.
         -2   -1    0    0    0  501 -0.00000000000E+00 -0.00000000000E+00 -0.26978410238E+03  0.26978410238E+03  0.00000000000E+00 0.  1.
         23    2    1    2    0    0 -0.10680734791E+03  0.10725942265E+02 -0.12174080200E+03  0.20491911488E+03  0.12509262715E+03 0.  0.
          5    1    3    3  502    0 -0.16572633534E+01  0.47873682031E+02 -0.61609404686E+02  0.78152588561E+02  0.41800000000E+01 0.  1.
         -5    1    3    3    0  502 -0.10515008456E+03 -0.37147739766E+02 -0.60131397311E+02  0.12676652632E+03  0.41800000000E+01 0.  1.
        -11    1    1    2    0    0 -0.11409548653E+02  0.17213979126E+02 -0.28455455570E+02  0.35159804173E+02  0.00000000000E+00 0.  1.
         11    1    1    2    0    0  0.11821689656E+03 -0.27939921391E+02 -0.25227348199E+02  0.12406567994E+03  0.00000000000E+00 0. -1.
</event>
<event>
 7    1  0.6671761E-006  0.1607009E+03  0.7561462E-02  0.1187908E+00
         -3   -1    0    0    0  501 -0.00000000000E+00  0.00000000000E+00  0.43255276006E+03  0.43255276006E+03  0.00000000000E+00 0. -1.
          3   -1    0    0  501    0  0.00000000000E+00 -0.00000000000E+00 -0.64605538252E+02  0.64605538252E+02  0.00000000000E+00 0.  1.
         23    2    1    2    0    0 -0.88303654945E+02  0.87515783832E+02  0.23131068689E+03  0.29087741000E+03  0.12509390825E+03 0.  0.
          5    1    3    3  502    0 -0.45849357734E+01  0.83252082627E+02  0.16112300480E+03  0.18146632187E+03  0.41800000000E+01 0.  1.
         -5    1    3    3    0  502 -0.83718719172E+02  0.42637012054E+01  0.70187682087E+02  0.10941108812E+03  0.41800000000E+01 0.  1.
        -11    1    1    2    0    0 -0.14996495341E+02 -0.35058232802E+02  0.41604095932E+02  0.56434699946E+02  0.00000000000E+00 0.  1.
         11    1    1    2    0    0  0.10330015029E+03 -0.52457551031E+02  0.95032438990E+02  0.14984618837E+03  0.00000000000E+00 0. -1.
</event>
<event>
 7    1  0.6671761E-006  0.1435975E+03  0.7561462E-02  0.1208569E+00
         -1   -1    0    0    0  501 -0.00000000000E+00  0.00000000000E+00  0.33399977500E+02  0.33399977500E+02  0.00000000000E+00 0.  1.
          1   -1    0    0  501    0  0.00000000000E+00 -0.00000000000E+00 -0.65910088248E+03  0.65910088248E+03  0.00000000000E+00 0. -1.
         23    2    1    2    0    0 -0.51575672127E+02  0.69134999796E+02 -0.26460626299E+03  0.30512862251E+03  0.12508918301E+03 0.  0.
          5    1    3    3  502    0 -0.37625899664E+02 -0.29527653955E+02 -0.55012326014E+02  0.73016567210E+02  0.41800000000E+01 0.  1.
         -5    1    3    3    0  502 -0.13949772463E+02  0.98662653752E+02 -0.20959393698E+03  0.23211205530E+03  0.41800000000E+01 0.  1.
        -11    1    1    2    0    0 -0.28235922590E+02  0.70646148622E+01 -0.93281439383E+02  0.97716953703E+02  0.00000000000E+00 0.  1.
         11    1    1    2    0    0  0.79811594716E+02 -0.76199614659E+02 -0.26781320260E+03  0.28965528377E+03  0.00000000000E+00 0. -1.
</event>
<event>
 7    1  0.6671761E-006  0.1629121E+03  0.7561462E-02  0.1185448E+00
          1   -1    0    0  501    0  0.00000000000E+00  0.00000000000E+00  0.51073038522E+03  0.51073038522E+03  0.00000000000E+00 0. -1.
         -1   -1    0    0    0  501 -0.00000000000E+00 -0.00000000000E+00 -0.70179464703E+02  0.70179464703E+02  0.00000000000E+00 0.  1.
         23    2    1    2    0    0 -0.27905685913E+02 -0.14011335472E+03  0.13991207508E+03  0.23586031647E+03  0.12507685899E+03 0.  0.
          5    1    3    3  502    0 -0.62340697873E+02 -0.11233614229E+03  0.14178775638E+03  0.19138184797E+03  0.41800000000E+01 0.  1.
         -5    1    3    3    0  502  0.34435011960E+02 -0.27777212435E+02 -0.18756812990E+01  0.44478468496E+02  0.41800000000E+01 0.  1.
        -11    1    1    2    0    0 -0.13422395354E+02  0.71459520727E+02  0.70169234312E+02  0.10104625299E+03  0.00000000000E+00 0.  1.
         11    1    1    2    0    0  0.41328081267E+02  0.68653833996E+02  0.23046961113E+03  0.24400328046E+03  0.00000000000E+00 0. -1.
</event>
<event>
 7    1  0.6671761E-006  0.9518875E+02  0.7561462E-02  0.1290752E+00
         -2   -1    0    0    0  501 -0.00000000000E+00  0.00000000000E+00  0.10481898202E+03  0.10481898202E+03  0.00000000000E+00 0.  1.
          2   -1    0    0  501    0  0.00000000000E+00 -0.00000000000E+00 -0.18958469939E+03  0.18958469939E+03  0.00000000000E+00 0. -1.
         23    2    1    2    0    0 -0.71756490839E+01 -0.67958296118E+02 -0.23310412674E+02  0.14443179651E+03  0.12508936227E+03 0.  0.
          5    1    3    3  502    0 -0.18917800795E+02 -0.46957170171E+02 -0.73076134360E+02  0.88996925960E+02  0.41800000000E+01 0.  1.
         -5    1    3    3    0  502  0.11742151711E+02 -0.21001125947E+02  0.49765721686E+02  0.55434870549E+02  0.41800000000E+01 0.  1.
        -11    1    1    2    0    0 -0.35339155696E+02  0.40556947436E+00 -0.60596438870E+02  0.70149474806E+02  0.00000000000E+00 0. -1.
         11    1    1    2    0    0  0.42514804780E+02  0.67552726644E+02 -0.85886583040E+00  0.79822410093E+02  0.00000000000E+00 0.  1.
</event>
<event>
 7    1  0.6671761E-006  0.2240488E+03  0.7561462E-02  0.1130900E+00
         -2   -1    0    0    0  501 -0.00000000000E+00  0.00000000000E+00  0.63467911339E+03  0.63467911339E+03  0.00000000000E+00 0.  1.
          2   -1    0    0  501    0  0.00000000000E+00 -0.00000000000E+00 -0.91944607321E+02  0.91944607321E+02  0.00000000000E+00 0. -1.
         23    2    1    2    0    0 -0.16680998990E+03 -0.13100792286E+03  0.33723185707E+03  0.41756594875E+03  0.12508935826E+03 0.  0.
          5    1    3    3  502    0 -0.13580030998E+03 -0.78164265968E+02  0.13716663625E+03  0.20828714595E+03  0.41800000000E+01 0. -1.
         -5    1    3    3    0  502 -0.31009679916E+02 -0.52843656893E+02  0.20006522081E+03  0.20927880280E+03  0.41800000000E+01 0. -1.
        -11    1    1    2    0    0  0.69311619890E+02  0.11029599882E+03  0.10283463167E+03  0.16596466334E+03  0.00000000000E+00 0.  1.
         11    1    1    2    0    0  0.97498370011E+02  0.20711924042E+02  0.10266801733E+03  0.14309310862E+03  0.00000000000E+00 0. -1.
</event>
<event>
 7    1  0.6671761E-006  0.1017203E+03  0.7561462E-02  0.1276719E+00
          1   -1    0    0  501    0  0.00000000000E+00  0.00000000000E+00  0.45236663351E+02  0.45236663351E+02  0.00000000000E+00 0. -1.
         -1   -1    0    0    0  501 -0.00000000000E+00 -0.00000000000E+00 -0.37776826426E+03  0.37776826426E+03  0.00000000000E+00 0.  1.
         23    2    1    2    0    0  0.19177570573E+02  0.66205343531E+02 -0.23177527866E+03  0.27224701353E+03  0.12509088638E+03 0.  0.
          5    1    3    3  502    0 -0.13326842208E+02  0.89306302704E+02 -0.10137639191E+03  0.13582292024E+03  0.41800000000E+01 0. -1.
         -5    1    3    3    0  502  0.32504412781E+02 -0.23100959173E+02 -0.13039888675E+03  0.13642409329E+03  0.41800000000E+01 0. -1.
        -11    1    1    2    0    0 -0.97409989022E+01 -0.61757086070E+02 -0.11629883162E+03  0.13203879345E+03  0.00000000000E+00 0.  1.
         11    1    1    2    0    0 -0.94365716710E+01 -0.44482574605E+01  0.15542509374E+02  0.18719120625E+02  0.00000000000E+00 0. -1.
</event>
<event>
 6    1  0.6671761E-006  0.1750062E+03  0.7561462E-02  0.1172725E+00
          2   -1    0    0  501    0  0.00000000000E+00  0.00000000000E+00  0.16449392080E+04  0.16449392080E+04  0.00000000000E+00 0. -1.
         -2   -1    0    0    0  501 -0.00000000000E+00 -0.00000000000E+00 -0.62520991385E+02  0.62520991385E+02  0.00000000000E+00 0.  1.
          5    1    1    2  502    0 -0.27521673855E+02 -0.82200020931E+02  0.83551524876E+03  0.84001041023E+03  0.41800000000E+01 0. -1.
         -5    1    1    2    0  502 -0.12623609699E+02 -0.76105806470E+02 -0.18776740791E+02  0.79507783865E+02  0.41800000000E+01 0.  1.
        -11    1    1    2    0    0  0.58728232399E+02  0.53230921748E+02  0.32265385725E+03  0.33224696825E+03  0.00000000000E+00 0.  1.
         11    1    1    2    0    0 -0.18582948844E+02  0.10507490565E+03  0.44302585134E+03  0.45569503700E+03  0.00000000000E+00 0. -1.
</event>
<event>
 6    1  0.6671761E-006  0.1292297E+03  0.7561462E-02  0.1228603E+00
         -2   -1    0    0    0  501 -0.00000000000E+00  0.00000000000E+00  0.54790474572E+02  0.54790474572E+02  0.00000000000E+00 0.  1.
          2   -1    0    0  501    0  0.00000000000E+00 -0.00000000000E+00 -0.94109649006E+03  0.94109649006E+03  0.00000000000E+00 0. -1.
          5    1    1    2  502    0  0.81050528548E+02  0.34723978538E+02 -0.47727376804E+03  0.48536858667E+03  0.41800000000E+01 0. -1.
         -5    1    1    2    0  502 -0.68924112005E+02  0.70449804938E+01  0.17988544388E+02  0.71702336747E+02  0.41800000000E+01 0.  1.
        -11    1    1    2    0    0  0.31236948525E+01 -0.69263987910E+02 -0.30854929651E+03  0.31624345980E+03  0.00000000000E+00 0. -1.
         11    1    1    2    0    0 -0.15250111396E+02  0.27495028877E+02 -0.11847149533E+03  0.12257258143E+03  0.00000000000E+00 0.  1.
</event>
<event>
 7    1  0.6671761E-006  0.1113128E+03  0.7561462E-02  0.1258158E+00
         -1   -1    0    0    0  501 -0.00000000000E+00  0.00000000000E+00  0.10021841858E+04  0.10021841858E+04  0.00000000000E+00 0.  1.
          1   -1    0    0  501    0  0.00000000000E+00 -0.00000000000E+00 -0.17281678118E+02  0.17281678118E+02  0.00000000000E+00 0. -1.
         23    2    1    2    0    0 -0.43485673158E+01 -0.54838454047E+02  0.67271430182E+03  0.68645269708E+03  0.12508639963E+03 0.  0.
          5    1    3    3  502    0  0.53620221927E+02 -0.54455521969E+02  0.43886276488E+03  0.44548684703E+03  0.41800000000E+01 0.  1.
         -5    1    3    3    0  502 -0.57968789243E+02 -0.38293207829E+00  0.23385153694E+03  0.24096585006E+03  0.41800000000E+01 0.  1.
        -11    1    1    2    0    0 -0.31115241678E+02  0.36762427657E+02  0.27278419322E+03  0.27700334009E+03  0.00000000000E+00 0.  1.
         11    1    1    2    0    0  0.35463808994E+02  0.18076026391E+02  0.39404012593E+02  0.56009826699E+02  0.00000000000E+00 0. -1.
</event>
<event>
 7    1  0.6671761E-006  0.1190606E+03  0.7561462E-02  0.1244655E+00
          3   -1    0    0  501    0  0.00000000000E+00  0.00000000000E+00  0.34368564127E+02  0.34368564127E+02  0.00000000000E+00 0. -1.
         -3   -1    0    0    0  501 -0.00000000000E+00 -0.00000000000E+00 -0.51826008910E+03  0.51826008910E+03  0.00000000000E+00 0.  1.
         23    2    1    2    0    0  0.32260256188E+02 -0.37395528404E+02 -0.38823783901E+03  0.41086999043E+03  0.12508548965E+03 0.  0.
          5    1    3    3  502    0 -0.42544213619E+02  0.11577931082E+02 -0.10966671943E+03  0.11827222984E+03  0.41800000000E+01 0.  1.
         -5    1    3    3    0  502  0.74804469808E+02 -0.48973459486E+02 -0.27857111958E+03  0.29259776059E+03  0.41800000000E+01 0.  1.
        -11    1    1    2    0    0  0.11995160285E+01 -0.29501739051E+02 -0.22369929888E+02  0.37043288311E+02  0.00000000000E+00 0. -1.
         11    1    1    2    0    0 -0.33459772217E+02  0.66897267454E+02 -0.73283756074E+02  0.10471537449E+03  0.00000000000E+00 0.  1.
</event>
<event>
 6    1  0.6671761E-006  0.1526386E+03  0.7561462E-02  0.1197268E+00
         -2   -1    0    0    0  501 -0.00000000000E+00  0.00000000000E+00  0.17425607108E+03  0.17425607108E+03  0.00000000000E+00 0.  1.
          2   -1    0    0  501    0  0.00000000000E+00 -0.00000000000E+00 -0.28301310263E+03  0.28301310263E+03  0.00000000000E+00 0. -1.
          5    1    1    2  502    0  0.10427979205E+01  0.57515752693E+02  0.17382310731E+02  0.60239242705E+02  0.41800000000E+01 0. -1.
         -5    1    1    2    0  502 -0.10724487074E+03 -0.76000405484E+02  0.75562340348E+02  0.15167288358E+03  0.41800000000E+01 0.  1.
        -11    1    1    2    0    0  0.39582234413E+01 -0.93259658017E+01  0.62941558456E+01  0.11927177736E+02  0.00000000000E+00 0.  1.
         11    1    1    2    0    0  0.10224384938E+03  0.27810618592E+02 -0.20799583848E+03  0.23342986970E+03  0.00000000000E+00 0. -1.
</event>
<event>
 7    1  0.6671761E-006  0.8852974E+02  0.7561462E-02  0.1306452E+00
          2   -1    0    0  501    0  0.00000000000E+00  0.00000000000E+00  0.24195529734E+03  0.24195529734E+03  0.00000000000E+00 0. -1.
         -2   -1    0    0    0  501 -0.00000000000E+00 -0.00000000000E+00 -0.60078554325E+02  0.60078554325E+02  0.00000000000E+00 0.  1.
         23    2    1    2    0    0 -0.43549477020E+02 -0.25282487447E+02  0.86405131332E+02  0.16014161092E+03  0.12507488840E+03 0.  0.
          5    1    3    3  502    0  0.13988812846E+02  0.99680903811E+01 -0.24525415561E+02  0.30232732578E+02  0.41800000000E+01 0. -1.
         -5    1    3    3    0  502 -0.57538289866E+02 -0.35250577828E+02  0.11093054689E+03  0.12990887834E+03  0.41800000000E+01 0. -1.
        -11    1    1    2    0    0  0.99388272328E+01 -0.27476349739E+02  0.67135750852E+02  0.73218434319E+02  0.00000000000E+00 0. -1.
         11    1    1    2    0    0  0.33610649787E+02  0.52758837186E+02  0.28335860834E+02  0.68673806429E+02  0.00000000000E+00 0.  1.
</event>
<event>
 7    1  0.6671761E-006  0.8145455E+02  0.7561462E-02  0.1324974E+00
         -1   -1    0    0    0  501 -0.00000000000E+00  0.00000000000E+00  0.33213272847E+03  0.33213272847E+03  0.00000000000E+00 0.  1.
          1   -1    0    0  501    0  0.00000000000E+00 -0.00000000000E+00 -0.35914893406E+02  0.35914893406E+02  0.00000000000E+00 0. -1.
         23    2    1    2    0    0  0.51740370638E+01 -0.19776470687E+02  0.18571770175E+03  0.22484815511E+03  0.12509096154E+03 0.  0.
          5    1    3    3  502    0  0.34708117494E+02 -0.28878253772E+02  0.10063926430E+02  0.46447410865E+02  0.41800000000E+01 0.  1.
         -5    1    3    3    0  502 -0.29534080430E+02  0.91017830849E+01  0.17565377532E+03  0.17840074424E+03  0.41800000000E+01 0.  1.
        -11    1    1    2    0    0  0.32396851685E+02 -0.14525893134E+02  0.24024775650E+02  0.42868956314E+02  0.00000000000E+00 0. -1.
         11    1    1    2    0    0 -0.37570888749E+02  0.34302363821E+02  0.86475357669E+02  0.10033051046E+03  0.00000000000E+00 0.  1.
</event>
<event>
 7    1  0.9990829E-006  0.8996135E+02  0.7561462E-02  0.1302945E+00
          1   -1    0    0  501    0  0.00000000000E+00  0.00000000000E+00  0.17156942637E+03  0.17156942637E+03  0.00000000000E+00 0. -1.
         -1   -1    0    0    0  501 -0.00000000000E+00 -0.00000000000E+00 -0.83516356580E+02  0.83516356580E+02  0.00000000000E+00 0.  1.
         23    2    1    2    0    0 -0.37872574614E+02  0.32556065843E+02  0.49445279007E+02  0.14347992643E+03  0.12508966521E+03 0.  0.
          5    1    3    3  502    0  0.32995354856E+02 -0.21159126447E+02 -0.40397474513E+01  0.39625673919E+02  0.41800000000E+01 0.  1.
         -5    1    3    3    0  502 -0.70867929470E+02  0.53715192290E+02  0.53485026458E+02  0.10385425251E+03  0.41800000000E+01 0.  1.
        -11    1    1    2    0    0  0.17248416511E+02 -0.23003064555E+02 -0.28663458902E+02  0.40598555729E+02  0.00000000000E+00 0.  1.
         11    1    1    2    0    0  0.20624158103E+02 -0.95530012876E+01  0.67271249688E+02  0.71007300791E+02  0.00000000000E+00 0. -1.
</event>
<event>
 7    1  0.6821297E-006  0.2213306E+03  0.7561462E-02  0.1132895E+00
          1   -1    0    0  501    0  0.00000000000E+00  0.00000000000E+00  0.24219963799E+03  0.24219963799E+03  0.00000000000E+00 0. -1.
         -1   -1    0    0    0  501 -0.00000000000E+00 -0.00000000000E+00 -0.28163058919E+03  0.28163058919E+03  0.00000000000E+00 0.  1.
         23    2    1    2    0    0 -0.18121229461E+03 -0.11754355046E+03 -0.12038917067E+03  0.27711998717E+03  0.12509017908E+03 0.  0.
          5    1    3    3  502    0  0.75564878468E-01 -0.15805718124E+01  0.19767060959E+02  0.20266055765E+02  0.41800000000E+01 0.  1.
         -5    1    3    3    0  502 -0.18128785949E+03 -0.11596297864E+03 -0.14015623163E+03  0.25685393140E+03  0.41800000000E+01 0.  1.
        -11    1    1    2    0    0  0.44432557602E+02  0.59747084966E+02 -0.58854101443E+01  0.74690055493E+02  0.00000000000E+00 0.  1.
         11    1    1    2    0    0  0.13677973701E+03  0.57796465490E+02  0.86843629604E+02  0.17202018452E+03  0.00000000000E+00 0. -1.
</event>
<event>
 7    1  0.6671761E-006  0.1902898E+03  0.7561462E-02  0.1158200E+00
          2   -1    0    0  501    0  0.00000000000E+00  0.00000000000E+00  0.38322378816E+02  0.38322378816E+02  0.00000000000E+00 0. -1.
         -2   -1    0    0    0  501 -0.00000000000E+00 -0.00000000000E+00 -0.11305990336E+04  0.11305990336E+04  0.00000000000E+00 0.  1.
         23    2    1    2    0    0  0.20280133819E+02  0.16731636976E+03 -0.72385223808E+03  0.75366927062E+03  0.12509698435E+03 0.  0.
          5    1    3    3  502    0  0.51340165908E+02  0.49676524866E+02 -0.13966081980E+03  0.15692732950E+03  0.41800000000E+01 0. -1.
         -5    1    3    3    0  502 -0.31060032088E+02  0.11763984489E+03 -0.58419141828E+03  0.59674194112E+03  0.41800000000E+01 0. -1.
        -11    1    1    2    0    0 -0.51071349319E+02 -0.82341571662E+02 -0.14665895600E+03  0.17577618303E+03  0.00000000000E+00 0. -1.
         11    1    1    2    0    0  0.30791215500E+02 -0.84974798095E+02 -0.22176546066E+03  0.23947595872E+03  0.00000000000E+00 0.  1.
</event>
<event>
 7    1  0.6671761E-006  0.1641293E+03  0.7561462E-02  0.1184112E+00
         -3   -1    0    0    0  501 -0.00000000000E+00  0.00000000000E+00  0.46470840678E+03  0.46470840678E+03  0.00000000000E+00 0.  1.
          3   -1    0    0  501    0  0.00000000000E+00 -0.00000000000E+00 -0.10201519439E+03  0.10201519439E+03  0.00000000000E+00 0. -1.
         23    2    1    2    0    0  0.11298549642E+03 -0.64478105604E+02  0.36327716796E+03  0.40563520776E+03  0.12508586056E+03 0.  0.
          5    1    3    3  502    0  0.34501384598E+02  0.36092529653E+02  0.73064369351E+02  0.88593965396E+02  0.41800000000E+01 0.  1.
         -5    1    3    3    0  502  0.78484111821E+02 -0.10057063526E+03  0.29021279861E+03  0.31704124236E+03  0.41800000000E+01 0.  1.
        -11    1    1    2    0    0 -0.26779680529E+02  0.58218248720E+02  0.28166887154E+02  0.69999209319E+02  0.00000000000E+00 0.  1.
         11    1    1    2    0    0 -0.86205815889E+02  0.62598568846E+01 -0.28750842715E+02  0.91089184090E+02  0.00000000000E+00 0. -1.
</event>
<event>
 7    1  0.6671761E-006  0.1620578E+03  0.7561462E-02  0.1186393E+00
         -1   -1    0    0    0  501 -0.00000000000E+00  0.00000000000E+00  0.30927838303E+03  0.30927838303E+03  0.00000000000E+00 0.  1.
          1   -1    0    0  501    0  0.00000000000E+00 -0.00000000000E+00 -0.13847714221E+03  0.13847714221E+03  0.00000000000E+00 0. -1.
         23    2    1    2    0    0 -0.96120664986E+02 -0.99942260177E+02  0.20996154767E+03  0.28099714885E+03  0.12509160065E+03 0.  0.
          5    1    3    3  502    0 -0.27607179940E+02 -0.11206264368E+03  0.14806451050E+03  0.18777849761E+03  0.41800000000E+01 0. -1.
         -5    1    3    3    0  502 -0.68513485045E+02  0.12120383502E+02  0.61897037164E+02  0.93218651240E+02  0.41800000000E+01 0. -1.
        -11    1    1    2    0    0  0.89178128971E+01  0.13165131358E+02  0.23751390358E+02  0.28582802775E+02  0.00000000000E+00 0.  1.
         11    1    1    2    0    0  0.87202852088E+02  0.86777128819E+02 -0.62911697212E+02  0.13817557362E+03  0.00000000000E+00 0. -1.
</event>
<event>
 7    1  0.6671761E-006  0.1000514E+03  0.7561462E-02  0.1280188E+00
         -2   -1    0    0    0  501 -0.00000000000E+00  0.00000000000E+00  0.47338973424E+02  0.47338973424E+02  0.00000000000E+00 0.  1.
          2   -1    0    0  501    0  0.00000000000E+00 -0.00000000000E+00 -0.26750319465E+03  0.26750319465E+03  0.00000000000E+00 0. -1.
         23    2    1    2    0    0  0.21271527064E+02 -0.24077343167E+02 -0.10877555531E+03  0.16884903555E+03  0.12508268886E+03 0.  0.
          5    1    3    3  502    0  0.46162514074E+02 -0.50942887997E+02 -0.18466510078E+02  0.71306661243E+02  0.41800000000E+01 0.  1.
         -5    1    3    3    0  502 -0.24890987010E+02  0.26865544830E+02 -0.90309045235E+02  0.97542374303E+02  0.41800000000E+01 0.  1.
        -11    1    1    2    0    0 -0.21040071460E+02 -0.31995527979E+02 -0.46114863953E+02  0.59941463905E+02  0.00000000000E+00 0.  1.
         11    1    1    2    0    0 -0.23145560328E+00  0.56072871147E+02 -0.65273801957E+02  0.86051668620E+02  0.00000000000E+00 0. -1.
</event>
<event>
 7    1  0.6671761E-006  0.1304943E+03  0.7561462E-02  0.1226724E+00
         -1   -1    0    0    0  501 -0.00000000000E+00  0.00000000000E+00  0.22902648930E+02  0.22902648930E+02  0.00000000000E+00 0.  1.
          1   -1    0    0  501    0  0.00000000000E+00 -0.00000000000E+00 -0.87358248802E+03  0.87358248802E+03  0.00000000000E+00 0. -1.
         23    2    1    2    0    0  0.57339306118E+02 -0.68724605493E+02 -0.41034703632E+03  0.43823148731E+03  0.12510507115E+03 0.  0.
          5    1    3    3  502    0 -0.29291777317E+02 -0.30328684937E+02 -0.49651471785E+02  0.65273106245E+02  0.41800000000E+01 0. -1.
         -5    1    3    3    0  502  0.86631083435E+02 -0.38395920556E+02 -0.36069556453E+03  0.37295838106E+03  0.41800000000E+01 0. -1.
        -11    1    1    2    0    0  0.55241805894E+01  0.60054589939E+02 -0.26541607529E+03  0.27218148976E+03  0.00000000000E+00 0. -1.
         11    1    1    2    0    0 -0.62863486707E+02  0.86700155545E+01 -0.17491672748E+03  0.18607215988E+03  0.00000000000E+00 0.  1.
</event>
<event>
 7    1  0.6671761E-006  0.7335765E+02  0.7561462E-02  0.1349034E+00
         -3   -1    0    0    0  501 -0.00000000000E+00  0.00000000000E+00  0.67844606299E+02  0.67844606299E+02  0.00000000000E+00 0.  1.
          3   -1    0    0  501    0  0.00000000000E+00 -0.00000000000E+00 -0.23562643914E+03  0.23562643914E+03  0.00000000000E+00 0. -1.
         23    2    1    2    0    0  0.35309043459E+02  0.23812132667E+02 -0.34083196210E+02  0.13645907177E+03  0.12508264385E+03 0.  0.
          5    1    3    3  502    0  0.16454440546E+02  0.28267351701E+02  0.44516856520E+02  0.55398688615E+02  0.41800000000E+01 0.  1.
         -5    1    3    3    0  502  0.18854602913E+02 -0.44552190343E+01 -0.78600052730E+02  0.81060383152E+02  0.41800000000E+01 0.  1.
        -11    1    1    2    0    0 -0.59721658890E+02  0.13939143995E+00 -0.54941448250E+02  0.81149606939E+02  0.00000000000E+00 0.  1.
         11    1    1    2    0    0  0.24412615431E+02 -0.23951524107E+02 -0.78757188378E+02  0.85862366730E+02  0.00000000000E+00 0. -1.
</event>
<event>
 7    1  0.6671761E-006  0.1180506E+03  0.7561462E-02  0.1246348E+00
          2   -1    0    0  501    0  0.00000000000E+00  0.00000000000E+00  0.62199376108E+03  0.62199376108E+03  0.00000000000E+00 0. -1.
         -2   -1    0    0    0  501 -0.00000000000E+00 -0.00000000000E+00 -0.25425767937E+02  0.25425767937E+02  0.00000000000E+00 0.  1.
         23    2    1    2    0    0 -0.52101784711E+02  0.16592194378E+02  0.27568840102E+03  0.30763816056E+03  0.12508895430E+03 0.  0.
          5    1    3    3  502    0 -0.40022235578E+02 -0.46959201165E+02  0.19240998239E+03  0.20210398224E+03  0.41800000000E+01 0. -1.
         -5    1    3    3    0  502 -0.12079549133E+02  0.63551395543E+02  0.83278418630E+02  0.10553417831E+03  0.41800000000E+01 0. -1.
        -11    1    1    2    0    0 -0.99694802467E+01 -0.41404928946E+02  0.15989901208E+03  0.16547342004E+03  0.00000000000E+00 0. -1.
         11    1    1    2    0    0  0.62071264958E+02  0.24812734568E+02  0.16098058005E+03  0.17430794842E+03  0.00000000000E+00 0.  1.
</event>
<event>
 7    1  0.6671761E-006  0.1625591E+03  0.7561462E-02  0.1185837E+00
         -4   -1    0    0    0  501 -0.00000000000E+00  0.00000000000E+00  0.15687176203E+03  0.15687176203E+03  0.00000000000E+00 0.  1.
          4   -1    0    0  501    0  0.00000000000E+00 -0.00000000000E+00 -0.23138947863E+03  0.23138947863E+03  0.00000000000E+00 0. -1.
         23    2    1    2    0    0  0.13225581605E+03 -0.64221342128E+02  0.15282896909E+02  0.19364447892E+03  0.12509450673E+03 0.  0.
          5    1    3    3  502    0  0.10513420650E+03 -0.28612725700E+02 -0.45409274660E+02  0.11811589256E+03  0.41800000000E+01 0.  1.
         -5    1    3    3    0  502  0.27121609550E+02 -0.35608616428E+02  0.60692171570E+02  0.75528586365E+02  0.41800000000E+01 0.  1.
        -11    1    1    2    0    0 -0.11812341804E+03  0.85330799714E+02 -0.66621313226E+02  0.16022760888E+03  0.00000000000E+00 0.  1.
         11    1    1    2    0    0 -0.14132398011E+02 -0.21109457587E+02 -0.23179300282E+02  0.34389152864E+02  0.00000000000E+00 0. -1.
</event>
<event>
 7    1  0.6671761E-006  0.1631173E+03  0.7561462E-02  0.1185222E+00
         -2   -1    0    0    0  501 -0.00000000000E+00  0.00000000000E+00  0.44923672927E+02  0.44923672927E+02  0.00000000000E+00 0.  1.
          2   -1    0    0  501    0  0.00000000000E+00 -0.00000000000E+00 -0.65207669838E+03  0.65207669838E+03  0.00000000000E+00 0. -1.
         23    2    1    2    0    0  0.60497225107E+02  0.10945160862E+03 -0.23984358632E+03  0.29802034204E+03  0.12510639270E+03 0.  0.
          5    1    3    3  502    0  0.87333606469E+02  0.11752731509E+03 -0.18214281505E+03  0.23373768649E+03  0.41800000000E+01 0. -1.
         -5    1    3    3    0  502 -0.26836381361E+02 -0.80757064635E+01 -0.57700771266E+02  0.64282655547E+02  0.41800000000E+01 0. -1.
        -11    1    1    2    0    0  0.21882814394E+02 -0.18030162101E+02 -0.11237893643E+03  0.11590068880E+03  0.00000000000E+00 0.  1.
         11    1    1    2    0    0 -0.82380039501E+02 -0.91421446522E+02 -0.25493050270E+03  0.28307934047E+03  0.00000000000E+00 0. -1.
</event>
<event>
 7    1  0.7430728E-006  0.1341818E+03  0.7561462E-02  0.1221379E+00
         -1   -1    0    0    0  501 -0.00000000000E+00  0.00000000000E+00  0.64603258698E+02  0.64603258698E+02  0.00000000000E+00 0.  1.
          1   -1    0    0  501    0  0.00000000000E+00 -0.00000000000E+00 -0.45906429193E+03  0.45906429193E+03  0.00000000000E+00 0. -1.
         23    2    1    2    0    0  0.11966089385E+03 -0.58029067767E+02 -0.17561126918E+03  0.25332293025E+03  0.12508831642E+03 0.  0.
          5    1    3    3  502    0  0.21745163483E+02 -0.11465580856E+02 -0.13529066972E+03  0.13756943481E+03  0.41800000000E+01 0.  1.
         -5    1    3    3    0  502  0.97915730363E+02 -0.46563486912E+02 -0.40320599457E+02  0.11575349544E+03  0.41800000000E+01 0.  1.
        -11    1    1    2    0    0 -0.46322371306E+02  0.10396992683E+02 -0.15488792841E+03  0.16200040095E+03  0.00000000000E+00 0. -1.
         11    1    1    2    0    0 -0.73338522539E+02  0.47632075084E+02 -0.63961835636E+02  0.10834421943E+03  0.00000000000E+00 0.  1.
</event>
<event>
 7    1  0.6671761E-006  0.5697799E+02  0.7561462E-02  0.1410970E+00
          1   -1    0    0  501    0  0.00000000000E+00  0.00000000000E+00  0.58712647295E+03  0.58712647295E+03  0.00000000000E+00 0. -1.
         -1   -1    0    0    0  501 -0.00000000000E+00 -0.00000000000E+00 -0.31405186216E+02  0.31405186216E+02  0.00000000000E+00 0.  1.
         23    2    1    2    0    0 -0.18538826791E+02 -0.77816320366E+01  0.12495956189E+03  0.17793356067E+03  0.12506485521E+03 0.  0.
          5    1    3    3  502    0 -0.16872652547E+02 -0.37104411256E+01  0.15056926727E+03  0.15161474342E+03  0.41800000000E+01 0.  1.
         -5    1    3    3    0  502 -0.16661742442E+01 -0.40711909110E+01 -0.25609705374E+02  0.26318817249E+02  0.41800000000E+01 0.  1.
        -11    1    1    2    0    0  0.87036252518E+00  0.47047505200E+02  0.17396964728E+03  0.18022115151E+03  0.00000000000E+00 0.  1.
         11    1    1    2    0    0  0.17668464266E+02 -0.39265873164E+02  0.25679207757E+03  0.26037694699E+03  0.00000000000E+00 0. -1.
</event>
<event>
 7    1  0.6671761E-006  0.9645869E+02  0.7561462E-02  0.1287924E+00
          1   -1    0    0  501    0  0.00000000000E+00  0.00000000000E+00  0.31911921153E+03  0.31911921153E+03  0.00000000000E+00 0. -1.
         -1   -1    0    0    0  501 -0.00000000000E+00 -0.00000000000E+00 -0.49930537019E+02  0.49930537019E+02  0.00000000000E+00 0.  1.
         23    2    1    2    0    0  0.10258302527E+02  0.33252469820E+01  0.56805692001E+02  0.13780649633E+03  0.12508978275E+03 0.  0.
          5    1    3    3  502    0 -0.34846816553E+02 -0.37887493771E+02  0.56524094672E+02  0.76565060482E+02  0.41800000000E+01 0.  1.
         -5    1    3    3    0  502  0.45105119079E+02  0.41212740753E+02  0.28159732930E+00  0.61241435847E+02  0.41800000000E+01 0.  1.
        -11    1    1    2    0    0 -0.35782133008E+02  0.23652460949E+02  0.56159473181E+02  0.70666019978E+02  0.00000000000E+00 0.  1.
         11    1    1    2    0    0  0.25523830481E+02 -0.26977707931E+02  0.15622350932E+03  0.16057723224E+03  0.00000000000E+00 0. -1.
</event>
<event>
 7    1  0.6671761E-006  0.1089565E+03  0.7561462E-02  0.1262515E+00
         -2   -1    0    0    0  501 -0.00000000000E+00  0.00000000000E+00  0.47599250468E+02  0.47599250468E+02  0.00000000000E+00 0. -1.
          2   -1    0    0  501    0  0.00000000000E+00 -0.00000000000E+00 -0.35169373454E+03  0.35169373454E+03  0.00000000000E+00 0.  1.
         23    2    1    2    0    0  0.52058559704E+02  0.38406519381E+02 -0.12900902911E+03  0.19098708892E+03  0.12509030407E+03 0.  0.
          5    1    3    3  502    0  0.15905237829E+02 -0.39020919324E+02 -0.84572041916E+02  0.94580713727E+02  0.41800000000E+01 0.  1.
         -5    1    3    3    0  502  0.36153321874E+02  0.77427438705E+02 -0.44436987191E+02  0.96406375192E+02  0.41800000000E+01 0.  1.
        -11    1    1    2    0    0 -0.60081849418E+02 -0.10519729565E+02 -0.16757628946E+03  0.17833201095E+03  0.00000000000E+00 0.  1.
         11    1    1    2    0    0  0.80232897141E+01 -0.27886789817E+02 -0.75091655093E+01  0.29973885146E+02  0.00000000000E+00 0. -1.
</event>
<event>
 7    1  0.6671761E-006  0.1246607E+03  0.7561462E-02  0.1235601E+00
         -1   -1    0    0    0  501 -0.00000000000E+00  0.00000000000E+00  0.73372680269E+03  0.73372680269E+03  0.00000000000E+00 0.  1.
          1   -1    0    0  501    0  0.00000000000E+00 -0.00000000000E+00 -0.28532835251E+02  0.28532835251E+02  0.00000000000E+00 0. -1.
         23    2    1    2    0    0  0.57886938532E+02 -0.33483986853E+02  0.55562795971E+03  0.57344751726E+03  0.12509016913E+03 0.  0.
          5    1    3    3  502    0 -0.38463459056E+02 -0.11109042634E+02  0.11522349034E+03  0.12205233975E+03  0.41800000000E+01 0. -1.
         -5    1    3    3    0  502  0.96350397588E+02 -0.22374944220E+02  0.44040446936E+03  0.45139517751E+03  0.41800000000E+01 0. -1.
        -11    1    1    2    0    0  0.15839547472E+01 -0.25943433170E+02  0.14626813737E+02  0.29824726610E+02  0.00000000000E+00 0. -1.
         11    1    1    2    0    0 -0.59470893279E+02  0.59427420023E+02  0.13493919399E+03  0.15898739407E+03  0.00000000000E+00 0.  1.
</event>
<event>
 7    1  0.6671761E-006  0.9449309E+02  0.7561462E-02  0.1292322E+00
         -1   -1    0    0    0  501 -0.00000000000E+00  0.00000000000E+00  0.13392039929E+02  0.13392039929E+02  0.00000000000E+00 0.  1.
          1   -1    0    0  501    0  0.00000000000E+00 -0.00000000000E+00 -0.12274569021E+04  0.12274569021E+04  0.00000000000E+00 0. -1.
         23    2    1    2    0    0 -0.74189615510E+02 -0.20409184237E+02 -0.76109108509E+03  0.77513049333E+03  0.12508800113E+03 0.  0.
          5    1    3    3  502    0 -0.50956963639E+02 -0.34917814623E+02 -0.13604983854E+03  0.14947540563E+03  0.41800000000E+01 0. -1.
         -5    1    3    3    0  502 -0.23232651871E+02  0.14508630386E+02 -0.62504124655E+03  0.62565508770E+03  0.41800000000E+01 0. -1.
        -11    1    1    2    0    0 -0.63881600173E+01 -0.11130797900E+02 -0.17332612654E+02  0.21566703775E+02  0.00000000000E+00 0.  1.
         11    1    1    2    0    0  0.80577775528E+02  0.31539982137E+02 -0.43564116444E+03  0.44415174494E+03  0.00000000000E+00 0. -1.
</event>
<event>
 7    1  0.6671761E-006  0.1041886E+03  0.7561462E-02  0.1271727E+00
         -1   -1    0    0    0  501 -0.00000000000E+00  0.00000000000E+00  0.46723481929E+02  0.46723481929E+02  0.00000000000E+00 0.  1.
          1   -1    0    0  501    0  0.00000000000E+00 -0.00000000000E+00 -0.41852831031E+03  0.41852831031E+03  0.00000000000E+00 0. -1.
         23    2    1    2    0    0 -0.23147261155E+02  0.14467238289E+01 -0.66269324866E+02  0.14344977416E+03  0.12509326753E+03 0.  0.
          5    1    3    3  502    0  0.39050817496E+02 -0.20701144575E+02  0.67640833156E+01  0.44908005489E+02  0.41800000000E+01 0. -1.
         -5    1    3    3    0  502 -0.62198078652E+02  0.22147868404E+02 -0.73033408182E+02  0.98541768674E+02  0.41800000000E+01 0. -1.
        -11    1    1    2    0    0  0.55463547723E+02 -0.21844481761E+02 -0.14488178137E+03  0.15666562189E+03  0.00000000000E+00 0.  1.
         11    1    1    2    0    0 -0.32316286567E+02  0.20397757932E+02 -0.16065372214E+03  0.16513639618E+03  0.00000000000E+00 0. -1.
</event>
<event>
 7    1  0.6671761E-006  0.1656773E+03  0.7561462E-02  0.1182432E+00
         -1   -1    0    0    0  501 -0.00000000000E+00  0.00000000000E+00  0.83296303627E+02  0.83296303627E+02  0.00000000000E+00 0.  1.
          1   -1    0    0  501    0  0.00000000000E+00 -0.00000000000E+00 -0.40012704944E+03  0.40012704944E+03  0.00000000000E+00 0. -1.
         23    2    1    2    0    0  0.10170055734E+03  0.10902825264E+03 -0.18299501036E+03  0.26714168687E+03  0.12508934330E+03 0.  0.
          5    1    3    3  502    0 -0.17122404002E+02 -0.27854229412E+01 -0.60492249207E+02  0.63069167696E+02  0.41800000000E+01 0.  1.
         -5    1    3    3    0  502  0.11882296134E+03  0.11181367559E+03 -0.12250276115E+03  0.20407251917E+03  0.41800000000E+01 0.  1.
        -11    1    1    2    0    0 -0.14078489005E+02 -0.67349261014E+01  0.10540699387E+02  0.18832669111E+02  0.00000000000E+00 0.  1.
         11    1    1    2    0    0 -0.87622068337E+02 -0.10229332654E+03 -0.14437643485E+03  0.19744899709E+03  0.00000000000E+00 0. -1.
</event>
<event>
 7    1  0.6671761E-006  0.8333546E+02  0.7561462E-02  0.1319844E+00
         -2   -1    0    0    0  501 -0.00000000000E+00  0.00000000000E+00  0.80908590881E+02  0.80908590881E+02  0.00000000000E+00 0.  1.
          2   -1    0    0  501    0  0.00000000000E+00 -0.00000000000E+00 -0.17166232467E+03  0.17166232467E+03  0.00000000000E+00 0. -1.
         23    2    1    2    0    0  0.26887816161E+02 -0.30820386724E+02 -0.36622525568E+02  0.13660738013E+03  0.12509003171E+03 0.  0.
          5    1    3    3  502    0  0.46032769994E+02 -0.17752229538E+02 -0.76009935525E+02  0.90714608886E+02  0.41800000000E+01 0.  1.
         -5    1    3    3    0  502 -0.19144953834E+02 -0.13068157187E+02  0.39387409957E+02  0.45892771246E+02  0.41800000000E+01 0.  1.
        -11    1    1    2    0    0 -0.57629995434E+02  0.20816431526E+02 -0.11310695221E+02  0.62309485808E+02  0.00000000000E+00 0.  1.
         11    1    1    2    0    0  0.30742179273E+02  0.10003955198E+02 -0.42820513004E+02  0.53654049614E+02  0.00000000000E+00 0. -1.
</event>
<event>
 7    1  0.6671761E-006  0.2227793E+03  0.7561462E-02  0.1131828E+00
         -1   -1    0    0    0  501 -0.00000000000E+00  0.00000000000E+00  0.96985263124E+03  0.96985263124E+03  0.00000000000E+00 0.  1.
          1   -1    0    0  501    0  0.00000000000E+00 -0.00000000000E+00 -0.68400604737E+02  0.68400604737E+02  0.00000000000E+00 0. -1.
         23    2    1    2    0    0  0.16920022469E+02 -0.20480517230E+03  0.67656041542E+03  0.71806107623E+03  0.12508504199E+03 0.  0.
          5    1    3    3  502    0  0.11816874251E+02  0.14493109415E+02  0.84816857653E+02  0.86954358601E+02  0.41800000000E+01 0.  1.
         -5    1    3    3    0  502  0.51031482184E+01 -0.21929828171E+03  0.59174355776E+03  0.63110671763E+03  0.41800000000E+01 0.  1.
        -11    1    1    2    0    0 -0.11999650846E+02  0.32833258131E+02  0.10454698226E+03  0.11023650012E+03  0.00000000000E+00 0.  1.
         11    1    1    2    0    0 -0.49203716231E+01  0.17197191417E+03  0.12034462883E+03  0.20995565962E+03  0.00000000000E+00 0. -1.
</event>
<event>
 7    1  0.6671761E-006  0.9700338E+02  0.7561462E-02  0.1286727E+00
         -3   -1    0    0    0  501 -0.00000000000E+00  0.00000000000E+00  0.15051684443E+03  0.15051684443E+03  0.00000000000E+00 0.  1.
          3   -1    0    0  501    0  0.00000000000E+00 -0.00000000000E+00 -0.97786201353E+02  0.97786201353E+02  0.00000000000E+00 0. -1.
         23    2    1    2    0    0  0.16368254290E+02  0.45124947147E+02  0.54277522932E+02  0.14457035174E+03  0.12510138490E+03 0.  0.
          5    1    3    3  502    0  0.18585917375E+02 -0.18976909590E+02  0.72858688508E+02  0.77662219344E+02  0.41800000000E+01 0.  1.
         -5    1    3    3    0  502 -0.22176630845E+01  0.64101856737E+02 -0.18581165576E+02  0.66908132397E+02  0.41800000000E+01 0.  1.
        -11    1    1    2    0    0  0.11504717356E+02 -0.66642909501E+02 -0.74170672761E+01  0.68034173730E+02  0.00000000000E+00 0.  1.
         11    1    1    2    0    0 -0.27872971646E+02  0.21517962354E+02  0.58701874239E+01  0.35698520315E+02  0.00000000000E+00 0. -1.
</event>
<event>
 7    1  0.6671761E-006  0.9876551E+02  0.7561462E-02  0.1282914E+00
         -1   -1    0    0    0  501 -0.00000000000E+00  0.00000000000E+00  0.32780683228E+02  0.32780683228E+02  0.00000000000E+00 0.  1.
          1   -1    0    0  501    0  0.00000000000E+00 -0.00000000000E+00 -0.40481089980E+03  0.40481089980E+03  0.00000000000E+00 0. -1.
         23    2    1    2    0    0 -0.21630810195E+02  0.65274218344E+01 -0.15694384269E+03  0.20196268641E+03  0.12508819992E+03 0.  0.
          5    1    3    3  502    0 -0.54041101863E+02  0.40212850406E+02 -0.46494154607E+02  0.81955432041E+02  0.41800000000E+01 0. -1.
         -5    1    3    3    0  502  0.32410291668E+02 -0.33685428572E+02 -0.11044968809E+03  0.12000725437E+03  0.41800000000E+01 0. -1.
        -11    1    1    2    0    0  0.17259697594E+02  0.36228415867E+02 -0.45441484712E+02  0.60624448946E+02  0.00000000000E+00 0.  1.
         11    1    1    2    0    0  0.43711126013E+01 -0.42755837701E+02 -0.16964488917E+03  0.17500444767E+03  0.00000000000E+00 0. -1.
</event>
<event>
 7    1  0.6671761E-006  0.9916226E+02  0.7561462E-02  0.1282068E+00
          2   -1    0    0  501    0  0.00000000000E+00  0.00000000000E+00  0.12938564853E+03  0.12938564853E+03  0.00000000000E+00 0. -1.
         -2   -1    0    0    0  501 -0.00000000000E+00 -0.00000000000E+00 -0.18174269474E+03  0.18174269474E+03  0.00000000000E+00 0.  1.
         23    2    1    2    0    0 -0.32495878672E+02 -0.66472102611E+02 -0.10816172207E+03  0.18116568835E+03  0.12509007138E+03 0.  0.
          5    1    3    3  502    0  0.19992383464E+02 -0.28109636756E+01 -0.95361765796E+02  0.97565033127E+02  0.41800000000E+01 0. -1.
         -5    1    3    3    0  502 -0.52488262137E+02 -0.63661138935E+02 -0.12799956273E+02  0.83600655220E+02  0.41800000000E+01 0. -1.
        -11    1    1    2    0    0  0.29971706208E+01  0.65509416311E+02  0.71096363260E+02  0.96722073623E+02  0.00000000000E+00 0. -1.
         11    1    1    2    0    0  0.29498708052E+02  0.96268630003E+00 -0.15291687394E+02  0.33240581298E+02  0.00000000000E+00 0.  1.
</event>
<event>
 7    1  0.6671761E-006  0.1195481E+03  0.7561462E-02  0.1243844E+00
          2   -1    0    0  501    0  0.00000000000E+00  0.00000000000E+00  0.83258725260E+02  0.83258725260E+02  0.00000000000E+00 0. -1.
         -2   -1    0    0    0  501 -0.00000000000E+00 -0.00000000000E+00 -0.20594998254E+03  0.20594998254E+03  0.00000000000E+00 0.  1.
         23    2    1    2    0    0  0.48385445754E+02  0.37316469889E+02 -0.11139211820E+03  0.17829724565E+03  0.12509210017E+03 0.  0.
          5    1    3    3  502    0  0.49257673014E+01  0.78690615805E+02 -0.66767031252E+02  0.10340108830E+03  0.41800000000E+01 0. -1.
         -5    1    3    3    0  502  0.43459678453E+02 -0.41374145916E+02 -0.44625086945E+02  0.74896157354E+02  0.41800000000E+01 0. -1.
        -11    1    1    2    0    0  0.20783199970E+02 -0.19649563506E+02  0.17944631843E+02  0.33764723588E+02  0.00000000000E+00 0. -1.
         11    1    1    2    0    0 -0.69168645724E+02 -0.17666906382E+02 -0.29243770926E+02  0.77146738560E+02  0.00000000000E+00 0.  1.
</event>
<event>
 7    1  0.6671761E-006  0.1338116E+03  0.7561462E-02  0.1221907E+00
          2   -1    0    0  501    0  0.00000000000E+00  0.00000000000E+00  0.47515200016E+02  0.47515200016E+02  0.00000000000E+00 0. -1.
         -2   -1    0    0    0  501 -0.00000000000E+00 -0.00000000000E+00 -0.38914609170E+03  0.38914609170E+03  0.00000000000E+00 0.  1.
         23    2    1    2    0    0 -0.68448213118E+02 -0.43181555883E+02 -0.21696724740E+03  0.26319477267E+03  0.12508755840E+03 0.  0.
          5    1    3    3  502    0  0.34408650291E+02 -0.26314344411E+02 -0.79472193136E+02  0.90607404877E+02  0.41800000000E+01 0.  1.
         -5    1    3    3    0  502 -0.10285686341E+03 -0.16867211472E+02 -0.13749505426E+03  0.17258736779E+03  0.41800000000E+01 0.  1.
        -11    1    1    2    0    0  0.50742273410E+01  0.55076275713E+02 -0.67763194676E+02  0.87469963315E+02  0.00000000000E+00 0. -1.
         11    1    1    2    0    0  0.63373985777E+02 -0.11894719830E+02 -0.56900449608E+02  0.85996555737E+02  0.00000000000E+00 0.  1.
</event>
<event>
 7    1  0.6671761E-006  0.1401779E+03  0.7561462E-02  0.1213090E+00
          1   -1    0    0  501    0  0.00000000000E+00  0.00000000000E+00  0.17231073713E+03  0.17231073713E+03  0.00000000000E+00 0. -1.
         -1   -1    0    0    0  501 -0.00000000000E+00 -0.00000000000E+00 -0.13121039641E+03  0.13121039641E+03  0.00000000000E+00 0.  1.
         23    2    1    2    0    0  0.90822637178E+02  0.25593517541E+02  0.34757566810E+02  0.16049565839E+03  0.12508792247E+03 0.  0.
          5    1    3    3  502    0  0.64651425300E+02  0.63895271210E+02 -0.15131671914E+02  0.92243440803E+02  0.41800000000E+01 0. -1.
         -5    1    3    3    0  502  0.26171211878E+02 -0.38301753669E+02  0.49889238723E+02  0.68252217588E+02  0.41800000000E+01 0. -1.
        -11    1    1    2    0    0 -0.28581941555E+02  0.42062292497E+02 -0.30110472169E+00  0.50855230775E+02  0.00000000000E+00 0.  1.
         11    1    1    2    0    0 -0.62240695623E+02 -0.67655810038E+02  0.66438786299E+01  0.92170244368E+02  0.00000000000E+00 0. -1.
</event>
<event>
 7    1  0.6671761E-006  0.1825287E+03  0.7561462E-02  0.1165378E+00
          3   -1    0    0  501    0  0.00000000000E+00  0.00000000000E+00  0.14132185600E+03  0.14132185600E+03  0.00000000000E+00 0. -1.
         -3   -1    0    0    0  501 -0.00000000000E+00 -0.00000000000E+00 -0.34986435064E+03  0.34986435064E+03  0.00000000000E+00 0.  1.
         23    2    1    2    0    0  0.10998645868E+03 -0.11680633303E+03 -0.22753551118E+03  0.30522365485E+03  0.12509328560E+03 0.  0.
          5    1    3    3  502    0  0.20305555869E+02  0.24840417020E+02 -0.18637873327E+02  0.37339049788E+02  0.41800000000E+01 0. -1.
         -5    1    3    3    0  502  0.89680902809E+02 -0.14164675005E+03 -0.20889763785E+03  0.26788460506E+03  0.41800000000E+01 0. -1.
        -11    1    1    2    0    0 -0.19309638237E+02  0.46211955987E+02  0.45902689517E+02  0.67937205638E+02  0.00000000000E+00 0.  1.
         11    1    1    2    0    0 -0.90676820441E+02  0.70594377043E+02 -0.26909672969E+02  0.11802534615E+03  0.00000000000E+00 0. -1.
</event>
<event>
 7    1  0.6671761E-006  0.9746902E+02  0.7561462E-02  0.1285710E+00
         -2   -1    0    0    0  501 -0.00000000000E+00  0.00000000000E+00  0.53412039257E+02  0.53412039257E+02  0.00000000000E+00 0.  1.
          2   -1    0    0  501    0  0.00000000000E+00 -0.00000000000E+00 -0.28493438151E+03  0.28493438151E+03  0.00000000000E+00 0. -1.
         23    2    1    2    0    0  0.55177047765E+02  0.18072646918E+01 -0.98557145739E+02  0.16855144079E+03  0.12509318291E+03 0.  0.
          5    1    3    3  502    0 -0.29516943665E+02  0.96099369964E+00  0.93977910189E+01  0.31272421528E+02  0.41800000000E+01 0.  1.
         -5    1    3    3    0  502  0.84693991430E+02  0.84627099217E+00 -0.10795493676E+03  0.13727901926E+03  0.41800000000E+01 0.  1.
        -11    1    1    2    0    0 -0.63370333297E+02 -0.14682194729E+02 -0.41710680161E+02  0.77273196024E+02  0.00000000000E+00 0.  1.
         11    1    1    2    0    0  0.81932855323E+01  0.12874930038E+02 -0.91254516355E+02  0.92521783957E+02  0.00000000000E+00 0. -1.
</event>
<event>
 7    1  0.6671761E-006  0.1266783E+03  0.7561462E-02  0.1232469E+00
         -1   -1    0    0    0  501 -0.00000000000E+00  0.00000000000E+00  0.34077276420E+03  0.34077276420E+03  0.00000000000E+00 0.  1.
          1   -1    0    0  501    0  0.00000000000E+00 -0.00000000000E+00 -0.58984190967E+02  0.58984190967E+02  0.00000000000E+00 0. -1.
         23    2    1    2    0    0  0.81918762051E+02  0.29869712706E+02  0.19648861967E+03  0.24871323811E+03  0.12509042264E+03 0.  0.
          5    1    3    3  502    0  0.74423176066E+02  0.72642301100E+02  0.10763618645E+03  0.14972886856E+03  0.41800000000E+01 0.  1.
         -5    1    3    3    0  502  0.74955859843E+01 -0.42772588394E+02  0.88852433217E+02  0.98984369552E+02  0.41800000000E+01 0.  1.
        -11    1    1    2    0    0  0.47687123351E+01 -0.17433557396E+02  0.55767531256E+02  0.58623264010E+02  0.00000000000E+00 0.  1.
         11    1    1    2    0    0 -0.86687474386E+02 -0.12436155311E+02  0.29532422307E+02  0.92420453048E+02  0.00000000000E+00 0. -1.
</event>
<event>
 7    1  0.6671761E-006  0.1760708E+03  0.7561462E-02  0.1171661E+00
          2   -1    0    0  501    0  0.00000000000E+00  0.00000000000E+00  0.35632269661E+02  0.35632269661E+02  0.00000000000E+00 0.  1.
         -2   -1    0    0    0  501 -0.00000000000E+00 -0.00000000000E+00 -0.10587649315E+04  0.10587649315E+04  0.00000000000E+00 0. -1.
         23    2    1    2    0    0 -0.90528447276E+02  0.13259464814E+03 -0.55205279205E+03  0.58837618562E+03  0.12509000806E+03 0.  0.
          5    1    3    3  502    0 -0.59634388652E+02  0.31797854849E+02 -0.80626650347E+02  0.10528766798E+03  0.41800000000E+01 0.  1.
         -5    1    3    3    0  502 -0.30894058624E+02  0.10079679330E+03 -0.47142614170E+03  0.48308851764E+03  0.41800000000E+01 0.  1.
        -11    1    1    2    0    0  0.78449172628E+02 -0.44879673881E+02 -0.17464640848E+03  0.19664644876E+03  0.00000000000E+00 0. -1.
         11    1    1    2    0    0  0.12079274648E+02 -0.87714974264E+02 -0.29643346127E+03  0.30937456674E+03  0.00000000000E+00 0.  1.
</event>
<event>
 7    1  0.6671761E-006  0.1057579E+03  0.7561462E-02  0.1268634E+00
         -2   -1    0    0    0  501 -0.00000000000E+00  0.00000000000E+00  0.44089675100E+03  0.44089675100E+03  0.00000000000E+00 0.  1.
          2   -1    0    0  501    0  0.00000000000E+00 -0.00000000000E+00 -0.38635596349E+02  0.38635596349E+02  0.00000000000E+00 0. -1.
         23    2    1    2    0    0  0.51113048537E+02 -0.48397916164E+02  0.23932487086E+03  0.27906663325E+03  0.12508752919E+03 0.  0.
          5    1    3    3  502    0  0.78151407069E+02 -0.55237494567E+02  0.10633863468E+03  0.14312302700E+03  0.41800000000E+01 0.  1.
         -5    1    3    3    0  502 -0.27038358532E+02  0.68395784029E+01  0.13298623619E+03  0.13594360625E+03  0.41800000000E+01 0.  1.
        -11    1    1    2    0    0 -0.40834068219E+02  0.59645548111E+02  0.16919834322E+03  0.18399209735E+03  0.00000000000E+00 0.  1.
         11    1    1    2    0    0 -0.10278980318E+02 -0.11247631947E+02 -0.62620594298E+01  0.16473616758E+02  0.00000000000E+00 0. -1.
</event>
<event>
 6    1  0.6671761E-006  0.1151864E+03  0.7561462E-02  0.1251256E+00
         -3   -1    0    0    0  501 -0.00000000000E+00  0.00000000000E+00  0.26517477311E+03  0.26517477311E+03  0.00000000000E+00 0.  1.
          3   -1    0    0  501    0  0.00000000000E+00 -0.00000000000E+00 -0.55695618912E+02  0.55695618912E+02  0.00000000000E+00 0. -1.
          5    1    1    2  502    0 -0.37435478256E+02  0.41973165282E+02  0.33779090109E+02  0.65739341072E+02  0.41800000000E+01 0. -1.
         -5    1    1    2    0  502  0.75560083405E+02 -0.39630577463E+02  0.91652453754E+02  0.12528987810E+03  0.41800000000E+01 0.  1.
        -11    1    1    2    0    0  0.21439070068E+02  0.15404652567E+02  0.55475657053E+02  0.61436842135E+02  0.00000000000E+00 0.  1.
         11    1    1    2    0    0 -0.59563675217E+02 -0.17747240386E+02  0.28571953282E+02  0.68404330718E+02  0.00000000000E+00 0. -1.
</event>
<event>
 7    1  0.6671761E-006  0.8406248E+02  0.7561462E-02  0.1317903E+00
          2   -1    0    0  501    0  0.00000000000E+00  0.00000000000E+00  0.34612623493E+03  0.34612623493E+03  0.00000000000E+00 0. -1.
         -2   -1    0    0    0  501 -0.00000000000E+00 -0.00000000000E+00 -0.42313589386E+02  0.42313589386E+02  0.00000000000E+00 0.  1.
         23    2    1    2    0    0  0.47543750209E+02 -0.15401329565E+02  0.12921643732E+03  0.18665984824E+03  0.12508957644E+03 0.  0.
          5    1    3    3  502    0  0.31011082691E+02  0.34941244112E+02 -0.36505900439E-01  0.46904706826E+02  0.41800000000E+01 0.  1.
         -5    1    3    3    0  502  0.16532667518E+02 -0.50342573677E+02  0.12925294322E+03  0.13975514141E+03  0.41800000000E+01 0.  1.
        -11    1    1    2    0    0 -0.11562320870E+02 -0.16387228182E+02 -0.65965795578E+00  0.20066481007E+02  0.00000000000E+00 0.  1.
         11    1    1    2    0    0 -0.35981429339E+02  0.31788557747E+02  0.17525586618E+03  0.18171349507E+03  0.00000000000E+00 0. -1.
</event>
<event>
 7    1  0.6671761E-006  0.1181362E+03  0.7561462E-02  0.1246204E+00
          1   -1    0    0  501    0  0.00000000000E+00  0.00000000000E+00  0.67291918192E+02  0.67291918192E+02  0.00000000000E+00 0. -1.
         -1   -1    0    0    0  501 -0.00000000000E+00 -0.00000000000E+00 -0.32171668753E+03  0.32171668753E+03  0.00000000000E+00 0.  1.
         23    2    1    2    0    0 -0.85554610635E+02  0.37327847602E+00 -0.20541995953E+03  0.25527266903E+03  0.12508814910E+03 0.  0.
          5    1    3    3  502    0 -0.12615349875E+02 -0.56530957431E+02 -0.92743411606E+02  0.10942444424E+03  0.41800000000E+01 0.  1.
         -5    1    3    3    0  502 -0.72939260759E+02  0.56904235907E+02 -0.11267654792E+03  0.14584822479E+03  0.41800000000E+01 0.  1.
        -11    1    1    2    0    0  0.45791724297E+02 -0.15016373772E+01  0.23157295263E+02  0.51336120352E+02  0.00000000000E+00 0. -1.
         11    1    1    2    0    0  0.39762886338E+02  0.11283589012E+01 -0.72162105075E+02  0.82399816339E+02  0.00000000000E+00 0.  1.
</event>
<event>
 7    1  0.6671761E-006  0.9249460E+02  0.7561462E-02  0.1296921E+00
         -4   -1    0    0    0  501 -0.00000000000E+00  0.00000000000E+00  0.68178005271E+02  0.68178005271E+02  0.00000000000E+00 0.  1.
          4   -1    0    0  501    0  0.00000000000E+00 -0.00000000000E+00 -0.21234832903E+03  0.21234832903E+03  0.00000000000E+00 0. -1.
         23    2    1    2    0    0 -0.69846838019E+01 -0.15116349257E+02 -0.27778488868E+02  0.12922114249E+03  0.12509664024E+03 0.  0.
          5    1    3    3  502    0 -0.65856859966E+02 -0.99876011236E+01 -0.10938061292E+02  0.67631292799E+02  0.41800000000E+01 0.  1.
         -5    1    3    3    0  502  0.58872176164E+02 -0.51287481338E+01 -0.16840427576E+02  0.61589849689E+02  0.41800000000E+01 0.  1.
        -11    1    1    2    0    0  0.31604528849E+02  0.13393635905E+02 -0.21115577468E+01  0.34390324259E+02  0.00000000000E+00 0.  1.
         11    1    1    2    0    0 -0.24619845047E+02  0.17227133523E+01 -0.11428027714E+03  0.11691486755E+03  0.00000000000E+00 0. -1.
</event>
<event>
 6    1  0.6671761E-006  0.1299975E+03  0.7561462E-02  0.1227459E+00
         -2   -1    0    0    0  501 -0.00000000000E+00  0.00000000000E+00  0.10632956663E+04  0.10632956663E+04  0.00000000000E+00 0.  1.
          2   -1    0    0  501    0  0.00000000000E+00 -0.00000000000E+00 -0.16860259696E+02  0.16860259696E+02  0.00000000000E+00 0. -1.
          5    1    1    2  502    0 -0.46722616990E+02  0.33456811753E+02  0.25074826716E+03  0.25728297082E+03  0.41800000000E+01 0. -1.
         -5    1    1    2    0  502  0.24595693789E+02 -0.89645719572E+02  0.45957632833E+03  0.46890209762E+03  0.41800000000E+01 0.  1.
        -11    1    1    2    0    0 -0.25332156702E+02  0.56440508958E+02  0.15899804731E+03  0.17060957846E+03  0.00000000000E+00 0. -1.
         11    1    1    2    0    0  0.47459079904E+02 -0.25160113909E+00  0.17711276383E+03  0.18336127912E+03  0.00000000000E+00 0.  1.
</event>
<event>
 7    1  0.6671761E-006  0.9855425E+02  0.7561462E-02  0.1283366E+00
         -1   -1    0    0    0  501 -0.00000000000E+00  0.00000000000E+00  0.79033936807E+02  0.79033936807E+02  0.00000000000E+00 0.  1.
          1   -1    0    0  501    0  0.00000000000E+00 -0.00000000000E+00 -0.21860677029E+03  0.21860677029E+03  0.00000000000E+00 0. -1.
         23    2    1    2    0    0 -0.21281149722E+02  0.66688194977E+02 -0.83091914615E+02  0.16568798208E+03  0.12509211985E+03 0.  0.
          5    1    3    3  502    0  0.20981974250E+02 -0.93250777809E+01 -0.74642807499E+02  0.78206274879E+02  0.41800000000E+01 0. -1.
         -5    1    3    3    0  502 -0.42263123972E+02  0.76013272758E+02 -0.84491071160E+01  0.87481707198E+02  0.41800000000E+01 0. -1.
        -11    1    1    2    0    0  0.30330589596E+02 -0.14298376314E+02  0.19823272417E+02  0.38953181639E+02  0.00000000000E+00 0.  1.
         11    1    1    2    0    0 -0.90494398746E+01 -0.52389818663E+02 -0.76304191281E+02  0.92999543379E+02  0.00000000000E+00 0. -1.
</event>
<event>
 7    1  0.6671761E-006  0.1735187E+03  0.7561462E-02  0.1174227E+00
         -2   -1    0    0    0  501 -0.00000000000E+00  0.00000000000E+00  0.10285749728E+03  0.10285749728E+03  0.00000000000E+00 0.  1.
          2   -1    0    0  501    0  0.00000000000E+00 -0.00000000000E+00 -0.43815054326E+03  0.43815054326E+03  0.00000000000E+00 0. -1.
         23    2    1    2    0    0 -0.14328213983E+02  0.15959902360E+03 -0.64172337967E+02  0.21317306793E+03  0.12509005508E+03 0.  0.
          5    1    3    3  502    0  0.45853770203E+00  0.16539139601E+03 -0.85519226519E+02  0.18624052898E+03  0.41800000000E+01 0.  1.
         -5    1    3    3    0  502 -0.14786751685E+02 -0.57923724064E+01  0.21346888552E+02  0.26932538951E+02  0.41800000000E+01 0.  1.
        -11    1    1    2    0    0 -0.13276732302E+02 -0.75460139005E+02 -0.20027501141E+03  0.21443083826E+03  0.00000000000E+00 0. -1.
         11    1    1    2    0    0  0.27604946285E+02 -0.84138884597E+02 -0.70845696596E+02  0.11340413435E+03  0.00000000000E+00 0.  1.
</event>
<event>
 7    1  0.6671761E-006  0.2367332E+03  0.7561462E-02  0.1121988E+00
         -1   -1    0    0    0  501 -0.00000000000E+00  0.00000000000E+00  0.52319229656E+03  0.52319229656E+03  0.00000000000E+00 0.  1.
          1   -1    0    0  501    0  0.00000000000E+00 -0.00000000000E+00 -0.29590161514E+03  0.29590161514E+03  0.00000000000E+00 0. -1.
         23    2    1    2    0    0 -0.15920256329E+03  0.14200022154E+03  0.43974418798E+03  0.50450775352E+03  0.12507439156E+03 0.  0.
          5    1    3    3  502    0 -0.13195468832E+03  0.16186971563E+03  0.40619514015E+03  0.45675574313E+03  0.41800000000E+01 0.  1.
         -5    1    3    3    0  502 -0.27247874963E+02 -0.19869494086E+02  0.33549047829E+02  0.47752010382E+02  0.41800000000E+01 0.  1.
        -11    1    1    2    0    0  0.57726113996E+02 -0.20847086240E+01 -0.68861807804E+02  0.89881025924E+02  0.00000000000E+00 0. -1.
         11    1    1    2    0    0  0.10147644929E+03 -0.13991551292E+03 -0.14359169874E+03  0.22470513226E+03  0.00000000000E+00 0.  1.
</event>
<event>
 7    1  0.6671761E-006  0.6108086E+02  0.7561462E-02  0.1393351E+00
         -2   -1    0    0    0  501 -0.00000000000E+00  0.00000000000E+00  0.71612940117E+02  0.71612940117E+02  0.00000000000E+00 0.  1.
          2   -1    0    0  501    0  0.00000000000E+00 -0.00000000000E+00 -0.20111799190E+03  0.20111799190E+03  0.00000000000E+00 0. -1.
         23    2    1    2    0    0 -0.12037447888E+02 -0.40612398460E+02 -0.40900792396E+02  0.13825669619E+03  0.12509105549E+03 0.  0.
          5    1    3    3  502    0 -0.13912347284E+02 -0.26988400996E+02 -0.85801496588E+02  0.91111450499E+02  0.41800000000E+01 0. -1.
         -5    1    3    3    0  502  0.18748993962E+01 -0.13623997464E+02  0.44900704192E+02  0.47145245695E+02  0.41800000000E+01 0. -1.
        -11    1    1    2    0    0  0.70513099243E+01 -0.17471605145E+02 -0.71175691406E+02  0.73627148560E+02  0.00000000000E+00 0. -1.
         11    1    1    2    0    0  0.49861379636E+01  0.58084003605E+02 -0.17428567980E+02  0.60847087263E+02  0.00000000000E+00 0.  1.
</event>
<event>
 7    1  0.6671761E-006  0.1557346E+03  0.7561462E-02  0.1193598E+00
          1   -1    0    0  501    0  0.00000000000E+00  0.00000000000E+00  0.11825962940E+03  0.11825962940E+03  0.00000000000E+00 0. -1.
         -1   -1    0    0    0  501 -0.00000000000E+00 -0.00000000000E+00 -0.28756356643E+03  0.28756356643E+03  0.00000000000E+00 0.  1.
         23    2    1    2    0    0  0.98955929559E+01 -0.12168765615E+03 -0.18200077774E+03  0.25234483639E+03  0.12509126643E+03 0.  0.
          5    1    3    3  502    0 -0.34006355277E+02 -0.59507861279E+01 -0.94511716394E+02  0.10070640988E+03  0.41800000000E+01 0. -1.
         -5    1    3    3    0  502  0.43901948233E+02 -0.11573687002E+03 -0.87489061348E+02  0.15163842651E+03  0.41800000000E+01 0. -1.
        -11    1    1    2    0    0  0.26827628877E+02  0.11156736820E+03  0.12074558211E+02  0.11538108282E+03  0.00000000000E+00 0. -1.
         11    1    1    2    0    0 -0.36723221833E+02  0.10120287948E+02  0.62228250873E+00  0.38097276614E+02  0.00000000000E+00 0.  1.
</event>
<event>
 7    1  0.6671761E-006  0.1060265E+03  0.7561462E-02  0.1268110E+00
          2   -1    0    0  501    0  0.00000000000E+00  0.00000000000E+00  0.36126531094E+03  0.36126531094E+03  0.00000000000E+00 0. -1.
         -2   -1    0    0    0  501 -0.00000000000E+00 -0.00000000000E+00 -0.37694668896E+02  0.37694668896E+02  0.00000000000E+00 0.  1.
         23    2    1    2    0    0 -0.36914416602E+02  0.24306351947E+02  0.17843888218E+03  0.22235480737E+03  0.12509097805E+03 0.  0.
          5    1    3    3  502    0  0.11732245922E+02  0.66058496929E+02  0.10614431518E+03  0.12564019522E+03  0.41800000000E+01 0.  1.
         -5    1    3    3    0  502 -0.48646662523E+02 -0.41752144981E+02  0.72294567006E+02  0.96714612152E+02  0.41800000000E+01 0.  1.
        -11    1    1    2    0    0 -0.58379153527E+00 -0.39951829972E+02  0.19294364071E+02  0.44370733773E+02  0.00000000000E+00 0.  1.
         11    1    1    2    0    0  0.37498208137E+02  0.15645478025E+02  0.12583739579E+03  0.13223443869E+03  0.00000000000E+00 0. -1.
</event>
<event>
 7    1  0.6671761E-006  0.8071944E+02  0.7561462E-02  0.1327022E+00
         -1   -1    0    0    0  501 -0.00000000000E+00  0.00000000000E+00  0.14798438972E+03  0.14798438972E+03  0.00000000000E+00 0.  1.
          1   -1    0    0  501    0  0.00000000000E+00 -0.00000000000E+00 -0.79159731004E+02  0.79159731004E+02  0.00000000000E+00 0. -1.
         23    2    1    2    0    0 -0.17944634460E+02 -0.17851430303E+01  0.48116940179E+02  0.13522598540E+03  0.12508249500E+03 0.  0.
          5    1    3    3  502    0 -0.30077080056E+02 -0.58568595053E+02  0.13006875102E+02  0.67242562942E+02  0.41800000000E+01 0.  1.
         -5    1    3    3    0  502  0.12132445596E+02  0.56783452022E+02  0.35110065077E+02  0.67983422461E+02  0.41800000000E+01 0.  1.
        -11    1    1    2    0    0  0.62102283403E+01  0.16964081663E+02 -0.31491265240E+02  0.36304914119E+02  0.00000000000E+00 0. -1.
         11    1    1    2    0    0  0.11734406119E+02 -0.15178938633E+02  0.52198983773E+02  0.55613221197E+02  0.00000000000E+00 0.  1.
</event>
<event>
 7    1  0.6671761E-006  0.9967761E+02  0.7561462E-02  0.1280975E+00
         -1   -1    0    0    0  501 -0.00000000000E+00  0.00000000000E+00  0.11779032749E+03  0.11779032749E+03  0.00000000000E+00 0. -1.
          1   -1    0    0  501    0  0.00000000000E+00 -0.00000000000E+00 -0.16558156567E+03  0.16558156567E+03  0.00000000000E+00 0.  1.
         23    2    1    2    0    0  0.58217272160E+02 -0.39872449180E+02  0.27231963769E+02  0.14617619520E+03  0.12508731835E+03 0.  0.
          5    1    3    3  502    0  0.46119180364E+02  0.26399732112E+02  0.51818423198E+02  0.74340742771E+02  0.41800000000E+01 0. -1.
         -5    1    3    3    0  502  0.12098091796E+02 -0.66272181292E+02 -0.24586459429E+02  0.71835452428E+02  0.41800000000E+01 0. -1.
        -11    1    1    2    0    0 -0.17258643182E+02 -0.48323775233E+01  0.18487588267E+02  0.25748855449E+02  0.00000000000E+00 0. -1.
         11    1    1    2    0    0 -0.40958628977E+02  0.44704826704E+02 -0.93510790214E+02  0.11144684251E+03  0.00000000000E+00 0.  1.
</event>
<event>
 7    1  0.6671761E-006  0.1114097E+03  0.7561462E-02  0.1257981E+00
          1   -1    0    0  501    0  0.00000000000E+00  0.00000000000E+00  0.97129126223E+03  0.97129126223E+03  0.00000000000E+00 0. -1.
         -1   -1    0    0    0  501 -0.00000000000E+00 -0.00000000000E+00 -0.16898861145E+02  0.16898861145E+02  0.00000000000E+00 0.  1.
         23    2    1    2    0    0  0.31842668645E+02 -0.64433151438E+02  0.48642375340E+03  0.50736723509E+03  0.12509139387E+03 0.  0.
          5    1    3    3  502    0  0.29668486499E+02  0.17310152928E+02  0.32027490163E+03  0.32213870537E+03  0.41800000000E+01 0.  1.
         -5    1    3    3    0  502  0.21741821455E+01 -0.81743304366E+02  0.16614885177E+03  0.18522852971E+03  0.41800000000E+01 0.  1.
        -11    1    1    2    0    0 -0.47588521726E+02  0.86412532877E+01  0.14975587302E+03  0.15737267921E+03  0.00000000000E+00 0. -1.
         11    1    1    2    0    0  0.15745853081E+02  0.55791898150E+02  0.31821277467E+03  0.32345020907E+03  0.00000000000E+00 0.  1.
</event>
<event>
 7    1  0.6671761E-006  0.1529176E+03  0.7561462E-02  0.1196933E+00
         -1   -1    0    0    0  501 -0.00000000000E+00  0.00000000000E+00  0.15127141226E+03  0.15127141226E+03  0.00000000000E+00 0.  1.
          1   -1    0    0  501    0  0.00000000000E+00 -0.00000000000E+00 -0.30533760202E+03  0.30533760202E+03  0.00000000000E+00 0. -1.
         23    2    1    2    0    0  0.62345473307E+02  0.10078670994E+03  0.71093304233E+02  0.18640566172E+03  0.12509154197E+03 0.  0.
          5    1    3    3  502    0  0.74386197216E+02  0.11580079346E+03  0.30132214677E+02  0.14095585431E+03  0.41800000000E+01 0.  1.
         -5    1    3    3    0  502 -0.12040723910E+02 -0.15014083521E+02  0.40961089556E+02  0.45449807413E+02  0.41800000000E+01 0.  1.
        -11    1    1    2    0    0 -0.49789880777E+02 -0.11745656584E+03 -0.20304505487E+03  0.23979652081E+03  0.00000000000E+00 0. -1.
         11    1    1    2    0    0 -0.12555592530E+02  0.16669855898E+02 -0.22114439126E+02  0.30406831754E+02  0.00000000000E+00 0.  1.
</event>
<event>
 7    1  0.6671761E-006  0.7875831E+02  0.7561462E-02  0.1332613E+00
         -2   -1    0    0    0  501 -0.00000000000E+00  0.00000000000E+00  0.52471349263E+03  0.52471349263E+03  0.00000000000E+00 0.  1.
          2   -1    0    0  501    0  0.00000000000E+00 -0.00000000000E+00 -0.31387703763E+02  0.31387703763E+02  0.00000000000E+00 0. -1.
         23    2    1    2    0    0 -0.93958914421E+01  0.58378758619E+02  0.33714260537E+03  0.36445673963E+03  0.12516875196E+03 0.  0.
          5    1    3    3  502    0 -0.10119060440E+02  0.49206198299E+02  0.34682010588E+03  0.35046441129E+03  0.41800000000E+01 0.  1.
         -5    1    3    3    0  502  0.72316899754E+00  0.91725603202E+01 -0.96775005090E+01  0.13992328338E+02  0.41800000000E+01 0.  1.
        -11    1    1    2    0    0 -0.27613659347E+02  0.31253987283E+00  0.95677113490E+02  0.99582739013E+02  0.00000000000E+00 0.  1.
         11    1    1    2    0    0  0.37009550789E+02 -0.58691298492E+02  0.60506070005E+02  0.92061717753E+02  0.00000000000E+00 0. -1.
</event>
<event>
 7    1  0.6671761E-006  0.1183229E+03  0.7561462E-02  0.1245890E+00
         -1   -1    0    0    0  501 -0.00000000000E+00  0.00000000000E+00  0.38753248199E+03  0.38753248199E+03  0.00000000000E+00 0.  1.
          1   -1    0    0  501    0  0.00000000000E+00 -0.00000000000E+00 -0.80608175074E+02  0.80608175074E+02  0.00000000000E+00 0. -1.
         23    2    1    2    0    0  0.91310596975E+02 -0.50765820083E+02  0.28760186770E+03  0.33057091126E+03  0.12508996547E+03 0.  0.
          5    1    3    3  502    0  0.76791999548E+02 -0.17378729403E+02  0.57538843060E+02  0.97607490957E+02  0.41800000000E+01 0.  1.
         -5    1    3    3    0  502  0.14518597426E+02 -0.33387090680E+02  0.23006302463E+03  0.23296342030E+03  0.41800000000E+01 0.  1.
        -11    1    1    2    0    0 -0.77514635919E+02  0.10048038119E+02  0.42245146897E+02  0.88848940838E+02  0.00000000000E+00 0.  1.
         11    1    1    2    0    0 -0.13795961056E+02  0.40717781964E+02 -0.22922707675E+02  0.48720804967E+02  0.00000000000E+00 0. -1.
</event>
<event>
 7    1  0.6671761E-006  0.1134383E+03  0.7561462E-02  0.1254332E+00
         -3   -1    0    0    0  501 -0.00000000000E+00  0.00000000000E+00  0.61244514094E+02  0.61244514094E+02  0.00000000000E+00 0.  1.
          3   -1    0    0  501    0  0.00000000000E+00 -0.00000000000E+00 -0.33221848740E+03  0.33221848740E+03  0.00000000000E+00 0. -1.
         23    2    1    2    0    0 -0.14526805580E+02  0.83824547890E+02 -0.82114283172E+02  0.17213769610E+03  0.12510414865E+03 0.  0.
          5    1    3    3  502    0  0.14336471990E+02  0.87249862791E+02 -0.10321799889E+03  0.13597610334E+03  0.41800000000E+01 0. -1.
         -5    1    3    3    0  502 -0.28863277570E+02 -0.34253149015E+01  0.21103715713E+02  0.36161592763E+02  0.41800000000E+01 0. -1.
        -11    1    1    2    0    0 -0.24911247211E+02 -0.13422308037E+02 -0.21539453622E+02  0.35562292573E+02  0.00000000000E+00 0.  1.
         11    1    1    2    0    0  0.39438052792E+02 -0.70402239852E+02 -0.16732023651E+03  0.18576301281E+03  0.00000000000E+00 0. -1.
</event>
<event>
 7    1  0.6671761E-006  0.8506844E+02  0.7561462E-02  0.1315254E+00
          1   -1    0    0  501    0  0.00000000000E+00  0.00000000000E+00  0.32376070966E+03  0.32376070966E+03  0.00000000000E+00 0.  1.
         -1   -1    0    0    0  501 -0.00000000000E+00 -0.00000000000E+00 -0.41858868948E+02  0.41858868948E+02  0.00000000000E+00 0. -1.
         23    2    1    2    0    0  0.37438172642E+02 -0.18453904760E+01  0.15586999968E+03  0.20334243951E+03  0.12509064181E+03 0.  0.
          5    1    3    3  502    0  0.72295625896E+02 -0.16853275954E+02  0.46974433894E+02  0.87947485886E+02  0.41800000000E+01 0. -1.
         -5    1    3    3    0  502 -0.34857453254E+02  0.15007885478E+02  0.10889556578E+03  0.11539495362E+03  0.41800000000E+01 0. -1.
        -11    1    1    2    0    0 -0.10208302003E+02  0.21648980529E+02 -0.70902188744E+01  0.24963152674E+02  0.00000000000E+00 0. -1.
         11    1    1    2    0    0 -0.27229870639E+02 -0.19803590053E+02  0.13312205991E+03  0.13731398643E+03  0.00000000000E+00 0.  1.
</event>
<event>
 6    1  0.6671761E-006  0.1012996E+03  0.7561462E-02  0.1277587E+00
         -2   -1    0    0    0  501 -0.00000000000E+00  0.00000000000E+00  0.14918087408E+02  0.14918087408E+02  0.00000000000E+00 0.  1.
          2   -1    0    0  501    0  0.00000000000E+00 -0.00000000000E+00 -0.82201276774E+03  0.82201276774E+03  0.00000000000E+00 0. -1.
          5    1    1    2  502    0 -0.26656972200E+02  0.15352762421E+02 -0.40208001000E+02  0.50798201004E+02  0.41800000000E+01 0. -1.
         -5    1    1    2    0  502  0.85774891287E+02 -0.51877953987E+02 -0.43636225508E+03  0.44774785778E+03  0.41800000000E+01 0.  1.
        -11    1    1    2    0    0 -0.32916042723E+02  0.11160692115E+02 -0.19315585274E+03  0.19625801987E+03  0.00000000000E+00 0. -1.
         11    1    1    2    0    0 -0.26201876365E+02  0.25364499451E+02 -0.13736857152E+03  0.14212677650E+03  0.00000000000E+00 0.  1.
</event>
<event>
 7    1  0.6671761E-006  0.1137363E+03  0.7561462E-02  0.1253803E+00
          3   -1    0    0  501    0  0.00000000000E+00  0.00000000000E+00  0.10677681778E+04  0.10677681778E+04  0.00000000000E+00 0. -1.
         -3   -1    0    0    0  501 -0.00000000000E+00 -0.00000000000E+00 -0.16390750752E+02  0.16390750752E+02  0.00000000000E+00 0.  1.
         23    2    1    2    0    0  0.68491332065E+02 -0.49589558185E+01  0.44456977307E+03  0.46691047922E+03  0.12508980242E+03 0.  0.
          5    1    3    3  502    0  0.91217638050E+02 -0.21014128604E+01  0.18520671804E+03  0.20650441698E+03  0.41800000000E+01 0.  1.
         -5    1    3    3    0  502 -0.22726305984E+02 -0.28575429581E+01  0.25936305503E+03  0.26040606224E+03  0.41800000000E+01 0.  1.
        -11    1    1    2    0    0  0.94181170508E+01  0.29660630955E+02  0.18411802139E+03  0.18672948283E+03  0.00000000000E+00 0. -1.
         11    1    1    2    0    0 -0.77909449116E+02 -0.24701675136E+02  0.42268963255E+03  0.43051896646E+03  0.00000000000E+00 0.  1.
</event>
<event>
 7    1  0.6671761E-006  0.1061526E+03  0.7561462E-02  0.1267865E+00
         -3   -1    0    0    0  501 -0.00000000000E+00  0.00000000000E+00  0.62796432112E+02  0.62796432112E+02  0.00000000000E+00 0.  1.
          3   -1    0    0  501    0  0.00000000000E+00 -0.00000000000E+00 -0.19347547839E+03  0.19347547839E+03  0.00000000000E+00 0. -1.
         23    2    1    2    0    0  0.20869536672E+02  0.13717290334E+02 -0.48550627904E+02  0.13090074678E+03  0.11897117476E+03 0.  0.
          5    1    3    3  502    0  0.53627579236E+02 -0.31393994229E+02 -0.10216909925E+02  0.63113847742E+02  0.41800000000E+01 0. -1.
         -5    1    3    3    0  502 -0.32758042564E+02  0.45111284563E+02 -0.38333717979E+02  0.67786899041E+02  0.41800000000E+01 0.  1.
        -11    1    1    2    0    0 -0.89491272977E+01  0.39028190629E+02 -0.28004328301E+02  0.48862346923E+02  0.00000000000E+00 0.  1.
         11    1    1    2    0    0 -0.11920409375E+02 -0.52745480963E+02 -0.54124090077E+02  0.76508816801E+02  0.00000000000E+00 0. -1.
</event>
<event>
 7    1  0.6671761E-006  0.8655925E+02  0.7561462E-02  0.1311405E+00
         -2   -1    0    0    0  501 -0.00000000000E+00  0.00000000000E+00  0.63395544514E+03  0.63395544514E+03  0.00000000000E+00 0.  1.
          2   -1    0    0  501    0  0.00000000000E+00 -0.00000000000E+00 -0.20888103630E+02  0.20888103630E+02  0.00000000000E+00 0. -1.
         23    2    1    2    0    0  0.50815970038E+01  0.91325147111E+01  0.44314106162E+03  0.46057461940E+03  0.12508298879E+03 0.  0.
          5    1    3    3  502    0 -0.28918354741E+02  0.31875084572E+02  0.39458713055E+03  0.39694932706E+03  0.41800000000E+01 0. -1.
         -5    1    3    3    0  502  0.33999951745E+02 -0.22742569861E+02  0.48553931068E+02  0.63625292335E+02  0.41800000000E+01 0. -1.
        -11    1    1    2    0    0 -0.46223887932E+02  0.15615512169E+01  0.12053298416E+03  0.12910184557E+03  0.00000000000E+00 0.  1.
         11    1    1    2    0    0  0.41142290928E+02 -0.10694065928E+02  0.49393295727E+02  0.65167083805E+02  0.00000000000E+00 0. -1.
</event>
<event>
 7    1  0.6671761E-006  0.9623181E+02  0.7561462E-02  0.1288426E+00
          2   -1    0    0  501    0  0.00000000000E+00  0.00000000000E+00  0.15032843848E+03  0.15032843848E+03  0.00000000000E+00 0. -1.
         -2   -1    0    0    0  501 -0.00000000000E+00 -0.00000000000E+00 -0.11563617180E+03  0.11563617180E+03  0.00000000000E+00 0.  1.
         23    2    1    2    0    0 -0.56478131709E+02 -0.34899829498E+02 -0.14957094149E+02  0.14240363937E+03  0.12508918571E+03 0.  0.
          5    1    3    3  502    0 -0.65032042459E+02 -0.31301954684E+02 -0.61405660849E+02  0.94853078484E+02  0.41800000000E+01 0.  1.
         -5    1    3    3    0  502  0.85539107506E+01 -0.35978748142E+01  0.46448566701E+02  0.47550560889E+02  0.41800000000E+01 0.  1.
        -11    1    1    2    0    0  0.11418235031E+02  0.58168449133E+02  0.12204699073E+02  0.60521890628E+02  0.00000000000E+00 0.  1.
         11    1    1    2    0    0  0.45059896678E+02 -0.23268619635E+02  0.37444661757E+02  0.63039080279E+02  0.00000000000E+00 0. -1.
</event>
<event>
 7    1  0.6671761E-006  0.9085867E+02  0.7561462E-02  0.1300786E+00
         -2   -1    0    0    0  501 -0.00000000000E+00  0.00000000000E+00  0.40046605689E+03  0.40046605689E+03  0.00000000000E+00 0.  1.
          2   -1    0    0  501    0  0.00000000000E+00 -0.00000000000E+00 -0.40912650649E+02  0.40912650649E+02  0.00000000000E+00 0. -1.
         23    2    1    2    0    0  0.39663624218E+02 -0.30189475712E+02  0.27694759397E+03  0.30795233704E+03  0.12510021805E+03 0.  0.
          5    1    3    3  502    0 -0.16721897284E+02 -0.11894440893E+02  0.23325258144E+03  0.23419081690E+03  0.41800000000E+01 0.  1.
         -5    1    3    3    0  502  0.56385521501E+02 -0.18295034819E+02  0.43695012531E+02  0.73761520145E+02  0.41800000000E+01 0.  1.
        -11    1    1    2    0    0 -0.31323338575E+02  0.61461790663E+02  0.71129945509E+02  0.99086691332E+02  0.00000000000E+00 0.  1.
         11    1    1    2    0    0 -0.83402856423E+01 -0.31272314951E+02  0.11475866764E+02  0.34339679162E+02  0.00000000000E+00 0. -1.
</event>
<event>
 7    1  0.6671761E-006  0.7462959E+02  0.7561462E-02  0.1345022E+00
          2   -1    0    0  501    0  0.00000000000E+00  0.00000000000E+00  0.60493277841E+03  0.60493277841E+03  0.00000000000E+00 0. -1.
         -2   -1    0    0    0  501 -0.00000000000E+00 -0.00000000000E+00 -0.24286649787E+02  0.24286649787E+02  0.00000000000E+00 0.  1.
         23    2    1    2    0    0 -0.45044165451E+02 -0.83557399830E+01  0.25016066424E+03  0.28341804300E+03  0.12508650580E+03 0.  0.
          5    1    3    3  502    0 -0.17542433591E+02 -0.15329180436E+02 -0.69854292433E+01  0.24677710000E+02  0.41800000000E+01 0. -1.
         -5    1    3    3    0  502 -0.27501731861E+02  0.69734404534E+01  0.25714609349E+03  0.25874033300E+03  0.41800000000E+01 0. -1.
        -11    1    1    2    0    0  0.70390331494E+02  0.11667844594E+02  0.28318994423E+03  0.29204020592E+03  0.00000000000E+00 0.  1.
         11    1    1    2    0    0 -0.25346166043E+02 -0.33121046111E+01  0.47295520158E+02  0.53761179275E+02  0.00000000000E+00 0. -1.
</event>
<event>
 7    1  0.6671761E-006  0.1362608E+03  0.7561462E-02  0.1218451E+00
         -4   -1    0    0    0  501 -0.00000000000E+00  0.00000000000E+00  0.67475380745E+02  0.67475380745E+02  0.00000000000E+00 0.  1.
          4   -1    0    0  501    0  0.00000000000E+00 -0.00000000000E+00 -0.35261605008E+03  0.35261605008E+03  0.00000000000E+00 0. -1.
         23    2    1    2    0    0 -0.10285074123E+03  0.29362209773E+02 -0.12469411221E+03  0.20648563849E+03  0.12508910004E+03 0.  0.
          5    1    3    3  502    0 -0.13032712641E+03  0.13484505648E+02 -0.11059363512E+03  0.17150923094E+03  0.41800000000E+01 0. -1.
         -5    1    3    3    0  502  0.27476385176E+02  0.15877704125E+02 -0.14100477090E+02  0.34976407545E+02  0.41800000000E+01 0. -1.
        -11    1    1    2    0    0  0.56032363438E+02 -0.27871868267E+02 -0.20227378517E+02  0.65769397404E+02  0.00000000000E+00 0.  1.
         11    1    1    2    0    0  0.46818377792E+02 -0.14903415061E+01 -0.14021917861E+03  0.14783639494E+03  0.00000000000E+00 0. -1.
</event>
<event>
 7    1  0.6671761E-006  0.1590262E+03  0.7561462E-02  0.1189801E+00
         -2   -1    0    0    0  501 -0.00000000000E+00  0.00000000000E+00  0.10706224839E+03  0.10706224839E+03  0.00000000000E+00 0.  1.
          2   -1    0    0  501    0  0.00000000000E+00 -0.00000000000E+00 -0.31240548271E+03  0.31240548271E+03  0.00000000000E+00 0. -1.
         23    2    1    2    0    0 -0.13171558838E+03  0.34564563086E+02 -0.45903487621E+02  0.19052117681E+03  0.12508990125E+03 0.  0.
          5    1    3    3  502    0 -0.86338150291E+02  0.75441171675E+02 -0.57314535267E+02  0.12825004847E+03  0.41800000000E+01 0.  1.
         -5    1    3    3    0  502 -0.45377438084E+02 -0.40876608589E+02  0.11411047646E+02  0.62271128344E+02  0.41800000000E+01 0.  1.
        -11    1    1    2    0    0  0.11687546570E+02 -0.17247276022E+02  0.79023334866E+01  0.22282597459E+02  0.00000000000E+00 0.  1.
         11    1    1    2    0    0  0.12002804181E+03 -0.17317287064E+02 -0.16734208019E+03  0.20666395683E+03  0.00000000000E+00 0. -1.
</event>
<event>
 7    1  0.6671761E-006  0.1210866E+03  0.7561462E-02  0.1241315E+00
         -2   -1    0    0    0  501 -0.00000000000E+00  0.00000000000E+00  0.41639413535E+03  0.41639413535E+03  0.00000000000E+00 0.  1.
          2   -1    0    0  501    0  0.00000000000E+00 -0.00000000000E+00 -0.38034831015E+02  0.38034831015E+02  0.00000000000E+00 0. -1.
         23    2    1    2    0    0  0.22694293602E+02  0.49763787162E+02  0.26288200847E+03  0.29621982146E+03  0.12509103393E+03 0.  0.
          5    1    3    3  502    0 -0.50881778389E+02  0.28391411811E+02  0.13478454621E+03  0.14689919650E+03  0.41800000000E+01 0. -1.
         -5    1    3    3    0  502  0.73576071991E+02  0.21372375351E+02  0.12809746227E+03  0.14932062495E+03  0.41800000000E+01 0. -1.
        -11    1    1    2    0    0  0.33732719125E+02 -0.35189858583E+02  0.41396989835E+02  0.63952585984E+02  0.00000000000E+00 0.  1.
         11    1    1    2    0    0 -0.56427012727E+02 -0.14573928579E+02  0.74080306031E+02  0.94256558929E+02  0.00000000000E+00 0. -1.
</event>
<event>
 7    1  0.6671761E-006  0.1607141E+03  0.7561462E-02  0.1187893E+00
         -1   -1    0    0    0  501 -0.00000000000E+00  0.00000000000E+00  0.12013848643E+03  0.12013848643E+03  0.00000000000E+00 0.  1.
          1   -1    0    0  501    0  0.00000000000E+00 -0.00000000000E+00 -0.21894884421E+03  0.21894884421E+03  0.00000000000E+00 0. -1.
         23    2    1    2    0    0 -0.12090789865E+03 -0.10618738425E+02 -0.53710371940E+02  0.18227073754E+03  0.12492533829E+03 0.  0.
          5    1    3    3  502    0 -0.12015752774E+03 -0.52619743847E+02 -0.47647441649E+02  0.13962241944E+03  0.41800000000E+01 0. -1.
         -5    1    3    3    0  502 -0.75037091461E+00  0.42001005422E+02 -0.60629302909E+01  0.42648318099E+02  0.41800000000E+01 0. -1.
        -11    1    1    2    0    0  0.12985173384E+03  0.23828072274E+02 -0.31196643681E+02  0.13565574218E+03  0.00000000000E+00 0.  1.
         11    1    1    2    0    0 -0.89438351867E+01 -0.13209333849E+02 -0.13903342162E+02  0.21160850925E+02  0.00000000000E+00 0. -1.
</event>
<event>
 7    1  0.6671761E-006  0.1362926E+03  0.7561462E-02  0.1218406E+00
         -1   -1    0    0    0  501 -0.00000000000E+00  0.00000000000E+00  0.21333200552E+02  0.21333200552E+02  0.00000000000E+00 0.  1.
          1   -1    0    0  501    0  0.00000000000E+00 -0.00000000000E+00 -0.89729143097E+03  0.89729143097E+03  0.00000000000E+00 0. -1.
         23    2    1    2    0    0  0.57702436534E+02 -0.62922325957E+02 -0.49103980204E+03  0.51386467949E+03  0.12509209150E+03 0.  0.
          5    1    3    3  502    0  0.94920145274E+02 -0.58064945330E+02 -0.40224271745E+03  0.41737039664E+03  0.41800000000E+01 0.  1.
         -5    1    3    3    0  502 -0.37217708740E+02 -0.48573806268E+01 -0.88797084595E+02  0.96494282851E+02  0.41800000000E+01 0.  1.
        -11    1    1    2    0    0 -0.55777788247E+01 -0.22619996269E+02 -0.10213301696E+03  0.10475652247E+03  0.00000000000E+00 0.  1.
         11    1    1    2    0    0 -0.52124657709E+02  0.85542322226E+02 -0.28278541142E+03  0.30000342955E+03  0.00000000000E+00 0. -1.
</event>
<event>
 7    1  0.6671761E-006  0.8362523E+02  0.7561462E-02  0.1319067E+00
          1   -1    0    0  501    0  0.00000000000E+00  0.00000000000E+00  0.53140925136E+02  0.53140925136E+02  0.00000000000E+00 0. -1.
         -1   -1    0    0    0  501 -0.00000000000E+00 -0.00000000000E+00 -0.24777561703E+03  0.24777561703E+03  0.00000000000E+00 0.  1.
         23    2    1    2    0    0 -0.37830676246E+01  0.35655607107E+01 -0.16025993944E+03  0.20333669951E+03  0.12504215431E+03 0.  0.
          5    1    3    3  502    0 -0.35810549477E+02 -0.47271631586E+02 -0.49928212317E+02  0.77635696634E+02  0.41800000000E+01 0.  1.
         -5    1    3    3    0  502  0.32027481853E+02  0.50837192297E+02 -0.11033172712E+03  0.12570100288E+03  0.41800000000E+01 0.  1.
        -11    1    1    2    0    0  0.17376517366E+02 -0.19833866878E+02 -0.59275927113E+02  0.64876507044E+02  0.00000000000E+00 0.  1.
         11    1    1    2    0    0 -0.13593449742E+02  0.16268306167E+02  0.24901174652E+02  0.32703335617E+02  0.00000000000E+00 0. -1.
</event>
<event>
 7    1  0.6671761E-006  0.1795795E+03  0.7561462E-02  0.1168211E+00
          2   -1    0    0  501    0  0.00000000000E+00  0.00000000000E+00  0.23518713741E+03  0.23518713741E+03  0.00000000000E+00 0. -1.
         -2   -1    0    0    0  501 -0.00000000000E+00 -0.00000000000E+00 -0.18243589005E+03  0.18243589005E+03  0.00000000000E+00 0.  1.
         23    2    1    2    0    0 -0.21725332665E+02 -0.14070670410E+03 -0.76111591124E+02  0.20423208719E+03  0.12508958580E+03 0.  0.
          5    1    3    3  502    0  0.34993689493E+02  0.22431218385E+01 -0.94026168374E+01  0.36544103537E+02  0.41800000000E+01 0.  1.
         -5    1    3    3    0  502 -0.56719022158E+02 -0.14294982594E+03 -0.66708974286E+02  0.16768798365E+03  0.41800000000E+01 0.  1.
        -11    1    1    2    0    0  0.58529233475E+02  0.83323999996E+02  0.73750043787E+02  0.12572839419E+03  0.00000000000E+00 0.  1.
         11    1    1    2    0    0 -0.36803900810E+02  0.57382704107E+02  0.55112794704E+02  0.87662546082E+02  0.00000000000E+00 0. -1.
</event>
<event>
 7    1  0.6671761E-006  0.1333753E+03  0.7561462E-02  0.1222532E+00
         -1   -1    0    0    0  501 -0.00000000000E+00  0.00000000000E+00  0.94924657645E+02  0.94924657645E+02  0.00000000000E+00 0.  1.
          1   -1    0    0  501    0  0.00000000000E+00 -0.00000000000E+00 -0.35495194880E+03  0.35495194880E+03  0.00000000000E+00 0. -1.
         23    2    1    2    0    0 -0.83597972864E+02 -0.44326940186E+02  0.22854907777E+01  0.15685139853E+03  0.12507453401E+03 0.  0.
          5    1    3    3  502    0 -0.10664110262E+03 -0.22888457619E+02 -0.28307318859E+02  0.11276073324E+03  0.41800000000E+01 0.  1.
         -5    1    3    3    0  502  0.23043129757E+02 -0.21438482567E+02  0.30592809637E+02  0.44090665284E+02  0.41800000000E+01 0.  1.
        -11    1    1    2    0    0  0.42425193934E+02  0.66656572670E+02 -0.12435792231E+03  0.14733597186E+03  0.00000000000E+00 0.  1.
         11    1    1    2    0    0  0.41172778930E+02 -0.22329632485E+02 -0.13795485962E+03  0.14568923606E+03  0.00000000000E+00 0. -1.
</event>
<event>
 7    1  0.6671761E-006  0.1279295E+03  0.7561462E-02  0.1230561E+00
         -1   -1    0    0    0  501 -0.00000000000E+00  0.00000000000E+00  0.60458674087E+02  0.60458674087E+02  0.00000000000E+00 0.  1.
          1   -1    0    0  501    0  0.00000000000E+00 -0.00000000000E+00 -0.29374769382E+03  0.29374769382E+03  0.00000000000E+00 0. -1.
         23    2    1    2    0    0  0.21533125838E+02  0.66258373438E+02 -0.95714532080E+02  0.17222771090E+03  0.12508902906E+03 0.  0.
          5    1    3    3  502    0  0.50577245256E+02 -0.13434514586E+02 -0.13902530723E+02  0.54307427488E+02  0.41800000000E+01 0. -1.
         -5    1    3    3    0  502 -0.29044119418E+02  0.79692888024E+02 -0.81812001358E+02  0.11792028341E+03  0.41800000000E+01 0. -1.
        -11    1    1    2    0    0 -0.57678551813E+02 -0.57074780286E+02 -0.84925356502E+02  0.11745919317E+03  0.00000000000E+00 0. -1.
         11    1    1    2    0    0  0.36145425974E+02 -0.91835931514E+01 -0.52649131148E+02  0.64519463829E+02  0.00000000000E+00 0.  1.
</event>
<event>
 7    1  0.6671761E-006  0.8876289E+02  0.7561462E-02  0.1305875E+00
         -2   -1    0    0    0  501 -0.00000000000E+00  0.00000000000E+00  0.20175320843E+02  0.20175320843E+02  0.00000000000E+00 0.  1.
          2   -1    0    0  501    0  0.00000000000E+00 -0.00000000000E+00 -0.77764123941E+03  0.77764123941E+03  0.00000000000E+00 0. -1.
         23    2    1    2    0    0 -0.56725623646E+02 -0.60759531623E+01 -0.34861828635E+03  0.37475013417E+03  0.12509292505E+03 0.  0.
          5    1    3    3  502    0 -0.49541888999E+02  0.11768478823E+02 -0.38413930573E+02  0.63921814128E+02  0.41800000000E+01 0.  1.
         -5    1    3    3    0  502 -0.71837346472E+01 -0.17844431985E+02 -0.31020435577E+03  0.31082832004E+03  0.41800000000E+01 0.  1.
        -11    1    1    2    0    0 -0.10863924663E+02 -0.28736109429E+02 -0.84028031396E+02  0.89467865206E+02  0.00000000000E+00 0.  1.
         11    1    1    2    0    0  0.67589548309E+02  0.34812062591E+02 -0.32481960082E+03  0.33359856088E+03  0.00000000000E+00 0. -1.
</event>
<event>
 7    1  0.6671761E-006  0.1422984E+03  0.7561462E-02  0.1210269E+00
          1   -1    0    0  501    0  0.00000000000E+00  0.00000000000E+00  0.37850914135E+03  0.37850914135E+03  0.00000000000E+00 0. -1.
         -1   -1    0    0    0  501 -0.00000000000E+00 -0.00000000000E+00 -0.73633608514E+02  0.73633608514E+02  0.00000000000E+00 0.  1.
         23    2    1    2    0    0  0.70380603787E+02 -0.88847089532E+02  0.86449767878E+02  0.18965432855E+03  0.12509183532E+03 0.  0.
          5    1    3    3  502    0  0.23629930058E+02 -0.10726919748E+03  0.85440282442E+02  0.13922129358E+03  0.41800000000E+01 0.  1.
         -5    1    3    3    0  502  0.46750673728E+02  0.18422107949E+02  0.10094854359E+01  0.50433034969E+02  0.41800000000E+01 0.  1.
        -11    1    1    2    0    0 -0.31240147718E+02  0.77410087221E+02  0.71189016519E+02  0.10970936380E+03  0.00000000000E+00 0.  1.
         11    1    1    2    0    0 -0.39140456069E+02  0.11437002311E+02  0.14723674844E+03  0.15277905752E+03  0.00000000000E+00 0. -1.
</event>
<event>
 7    1  0.6671761E-006  0.1082645E+03  0.7561462E-02  0.1263818E+00
         -1   -1    0    0    0  501 -0.00000000000E+00  0.00000000000E+00  0.62216938017E+02  0.62216938017E+02  0.00000000000E+00 0.  1.
          1   -1    0    0  501    0  0.00000000000E+00 -0.00000000000E+00 -0.21099116363E+03  0.21099116363E+03  0.00000000000E+00 0. -1.
         23    2    1    2    0    0 -0.14113099879E+02 -0.10087237191E+02 -0.50700465529E+02  0.13608444032E+03  0.12508999061E+03 0.  0.
          5    1    3    3  502    0  0.42363733734E+01 -0.66526813136E+02 -0.26896267210E+02  0.72004481216E+02  0.41800000000E+01 0.  1.
         -5    1    3    3    0  502 -0.18349473252E+02  0.56439575945E+02 -0.23804198320E+02  0.64079959107E+02  0.41800000000E+01 0.  1.
        -11    1    1    2    0    0 -0.37744739117E+02  0.24426273200E+01 -0.64816279059E+02  0.75045198316E+02  0.00000000000E+00 0. -1.
         11    1    1    2    0    0  0.51857838996E+02  0.76446098705E+01 -0.33257481026E+02  0.62078463009E+02  0.00000000000E+00 0.  1.
</event>
<event>
 7    1  0.6671761E-006  0.1112249E+03  0.7561462E-02  0.1258318E+00
         -2   -1    0    0    0  501 -0.00000000000E+00  0.00000000000E+00  0.25448269289E+02  0.25448269289E+02  0.00000000000E+00 0.  1.
          2   -1    0    0  501    0  0.00000000000E+00 -0.00000000000E+00 -0.54156629440E+03  0.54156629440E+03  0.00000000000E+00 0. -1.
         23    2    1    2    0    0 -0.13113376252E+02  0.25494568448E+02 -0.22040116271E+03  0.25504125373E+03  0.12508970751E+03 0.  0.
          5    1    3    3  502    0  0.42729101720E+02  0.46464406952E+02 -0.76886843999E+02  0.99567948795E+02  0.41800000000E+01 0. -1.
         -5    1    3    3    0  502 -0.55842477971E+02 -0.20969838504E+02 -0.14351431871E+03  0.15547330493E+03  0.41800000000E+01 0. -1.
        -11    1    1    2    0    0 -0.18166644403E+02 -0.54059604501E+02 -0.16875542131E+03  0.17813158066E+03  0.00000000000E+00 0. -1.
         11    1    1    2    0    0  0.31280020655E+02  0.28565036053E+02 -0.12696144110E+03  0.13384172930E+03  0.00000000000E+00 0.  1.
</event>
<event>
 7    1  0.6671761E-006  0.1150195E+03  0.7561462E-02  0.1251547E+00
         -3   -1    0    0    0  501 -0.00000000000E+00  0.00000000000E+00  0.66287269238E+02  0.66287269238E+02  0.00000000000E+00 0.  1.
          3   -1    0    0  501    0  0.00000000000E+00 -0.00000000000E+00 -0.24440788244E+03  0.24440788244E+03  0.00000000000E+00 0. -1.
         23    2    1    2    0    0  0.23541812513E+02 -0.58759769975E+02 -0.72526868281E+02  0.15782963881E+03  0.12507246204E+03 0.  0.
          5    1    3    3  502    0 -0.18214375418E+02 -0.80266047087E+02 -0.15543827071E+02  0.83865873553E+02  0.41800000000E+01 0.  1.
         -5    1    3    3    0  502  0.41756187931E+02  0.21506277112E+02 -0.56983041210E+02  0.73963765259E+02  0.41800000000E+01 0.  1.
        -11    1    1    2    0    0 -0.41860811788E+02  0.32153859689E+01 -0.77137856781E+02  0.87823204333E+02  0.00000000000E+00 0.  1.
         11    1    1    2    0    0  0.18318999276E+02  0.55544384006E+02 -0.28455888135E+02  0.65042308528E+02  0.00000000000E+00 0. -1.
</event>
<event>
 7    1  0.6671761E-006  0.7385478E+02  0.7561462E-02  0.1347455E+00
         -2   -1    0    0    0  501 -0.00000000000E+00  0.00000000000E+00  0.31981745253E+02  0.31981745253E+02  0.00000000000E+00 0.  1.
          2   -1    0    0  501    0  0.00000000000E+00 -0.00000000000E+00 -0.40739403368E+03  0.40739403368E+03  0.00000000000E+00 0. -1.
         23    2    1    2    0    0  0.31209217593E+02  0.18451667177E+02 -0.22726583231E+03  0.26193635087E+03  0.12508562701E+03 0.  0.
          5    1    3    3  502    0  0.44075072834E+02  0.69409194228E+01 -0.12619789279E+02  0.46556630990E+02  0.41800000000E+01 0.  1.
         -5    1    3    3    0  502 -0.12865855241E+02  0.11510747755E+02 -0.21464604303E+03  0.21537971988E+03  0.41800000000E+01 0.  1.
        -11    1    1    2    0    0  0.44487211987E+01  0.26999907386E+02 -0.95278372857E+02  0.99129987660E+02  0.00000000000E+00 0. -1.
         11    1    1    2    0    0 -0.35657938792E+02 -0.45451574564E+02 -0.52868083258E+02  0.78309440405E+02  0.00000000000E+00 0.  1.
</event>
<event>
 7    1  0.6671761E-006  0.2656379E+03  0.7561462E-02  0.1103802E+00
         -2   -1    0    0    0  501 -0.00000000000E+00  0.00000000000E+00  0.15713486816E+03  0.15713486816E+03  0.00000000000E+00 0.  1.
          2   -1    0    0  501    0  0.00000000000E+00 -0.00000000000E+00 -0.52904236585E+03  0.52904236585E+03  0.00000000000E+00 0. -1.
         23    2    1    2    0    0  0.11205243996E+03  0.22438281118E+03 -0.77598994938E+02  0.29080777094E+03  0.12507661801E+03 0.  0.
          5    1    3    3  502    0  0.13464483789E+03  0.19496927795E+03 -0.86783248757E+02  0.25237087071E+03  0.41800000000E+01 0.  1.
         -5    1    3    3    0  502 -0.22592397937E+02  0.29413533228E+02  0.91842538195E+01  0.38436900235E+02  0.41800000000E+01 0.  1.
        -11    1    1    2    0    0 -0.26461444897E+02 -0.14201897372E+02 -0.70520052931E+02  0.76648416947E+02  0.00000000000E+00 0.  1.
         11    1    1    2    0    0 -0.85590995061E+02 -0.21018091381E+03 -0.22378844982E+03  0.31872104612E+03  0.00000000000E+00 0. -1.
</event>
<event>
 7    1  0.6671761E-006  0.1410843E+03  0.7561462E-02  0.1211877E+00
          1   -1    0    0  501    0  0.00000000000E+00  0.00000000000E+00  0.35498559176E+03  0.35498559176E+03  0.00000000000E+00 0. -1.
         -1   -1    0    0    0  501 -0.00000000000E+00 -0.00000000000E+00 -0.12208597660E+03  0.12208597660E+03  0.00000000000E+00 0.  1.
         23    2    1    2    0    0  0.95274794016E+02 -0.93607017739E+02 -0.10493695829E+02  0.18329515996E+03  0.12508971927E+03 0.  0.
          5    1    3    3  502    0  0.23979513158E+01 -0.20966553565E+02 -0.53542540281E+02  0.57702881719E+02  0.41800000000E+01 0. -1.
         -5    1    3    3    0  502  0.92876842700E+02 -0.72640464174E+02  0.43048844452E+02  0.12559227824E+03  0.41800000000E+01 0. -1.
        -11    1    1    2    0    0 -0.22851200136E+02 -0.17628882517E+01  0.45159793815E+00  0.22923548227E+02  0.00000000000E+00 0.  1.
         11    1    1    2    0    0 -0.72423593880E+02  0.95369905990E+02  0.24294171305E+03  0.27085286016E+03  0.00000000000E+00 0. -1.
</event>
<event>
 6    1  0.6671761E-006  0.1429229E+03  0.7561462E-02  0.1209449E+00
         -2   -1    0    0    0  501 -0.00000000000E+00  0.00000000000E+00  0.82023228456E+02  0.82023228456E+02  0.00000000000E+00 0.  1.
          2   -1    0    0  501    0  0.00000000000E+00 -0.00000000000E+00 -0.36737124117E+03  0.36737124117E+03  0.00000000000E+00 0. -1.
          5    1    1    2  502    0  0.74609037444E+02  0.28214330963E+02  0.14463556174E+02  0.81174034009E+02  0.41800000000E+01 0. -1.
         -5    1    1    2    0  502 -0.57560012606E+02  0.67450797265E+01 -0.53044877244E+02  0.78675806659E+02  0.41800000000E+01 0.  1.
        -11    1    1    2    0    0 -0.80100151479E+02 -0.13288155430E+02 -0.10369809210E+03  0.13170384826E+03  0.00000000000E+00 0.  1.
         11    1    1    2    0    0  0.63051126640E+02 -0.21671255259E+02 -0.14306859954E+03  0.15784078069E+03  0.00000000000E+00 0. -1.
</event>
<event>
 7    1  0.6671761E-006  0.1143996E+03  0.7561462E-02  0.1252633E+00
          2   -1    0    0  501    0  0.00000000000E+00  0.00000000000E+00  0.10029236302E+04  0.10029236302E+04  0.00000000000E+00 0. -1.
         -2   -1    0    0    0  501 -0.00000000000E+00 -0.00000000000E+00 -0.19713220183E+02  0.19713220183E+02  0.00000000000E+00 0.  1.
         23    2    1    2    0    0  0.67890445811E+02  0.70838041442E+02  0.54915618045E+03  0.56949811805E+03  0.11457947107E+03 0.  0.
          5    1    3    3  502    0  0.30693903932E+02  0.37273034896E+02  0.48767682062E+03  0.49007912487E+03  0.41800000000E+01 0. -1.
         -5    1    3    3    0  502  0.37196541880E+02  0.33565006546E+02  0.61479359830E+02  0.79418993178E+02  0.41800000000E+01 0.  1.
        -11    1    1    2    0    0 -0.76922248284E+02 -0.21458144089E+02  0.27335750066E+03  0.28478379061E+03  0.00000000000E+00 0.  1.
         11    1    1    2    0    0  0.90318024725E+01 -0.49379897354E+02  0.16069672887E+03  0.16835494168E+03  0.00000000000E+00 0. -1.
</event>
<event>
 7    1  0.6671761E-006  0.1197115E+03  0.7561462E-02  0.1243574E+00
          2   -1    0    0  501    0  0.00000000000E+00  0.00000000000E+00  0.44086012897E+03  0.44086012897E+03  0.00000000000E+00 0.  1.
         -2   -1    0    0    0  501 -0.00000000000E+00 -0.00000000000E+00 -0.44046008887E+02  0.44046008887E+02  0.00000000000E+00 0. -1.
         23    2    1    2    0    0 -0.47532611026E+02  0.64960630035E+02  0.15045180102E+03  0.21157097811E+03  0.12508917532E+03 0.  0.
          5    1    3    3  502    0 -0.26778109418E+02 -0.21802628622E+02 -0.20487096766E+01  0.34843813944E+02  0.41800000000E+01 0. -1.
         -5    1    3    3    0  502 -0.20754501608E+02  0.86763258658E+02  0.15250051070E+03  0.17672716417E+03  0.41800000000E+01 0. -1.
        -11    1    1    2    0    0  0.69875111166E+02 -0.60757903737E+02  0.21893150777E+03  0.23770792819E+03  0.00000000000E+00 0.  1.
         11    1    1    2    0    0 -0.22342500139E+02 -0.42027262985E+01  0.27430811280E+02  0.35627231555E+02  0.00000000000E+00 0. -1.
</event>
<event>
 7    1  0.6671761E-006  0.2441485E+03  0.7561462E-02  0.1117060E+00
          1   -1    0    0  501    0  0.00000000000E+00  0.00000000000E+00  0.61631574844E+02  0.61631574844E+02  0.00000000000E+00 0. -1.
         -1   -1    0    0    0  501 -0.00000000000E+00 -0.00000000000E+00 -0.10025752052E+04  0.10025752052E+04  0.00000000000E+00 0.  1.
         23    2    1    2    0    0  0.64639883760E+02 -0.21347118677E+03 -0.52091462937E+03  0.58030048859E+03  0.12509334040E+03 0.  0.
          5    1    3    3  502    0  0.71258190686E+02 -0.41469042549E+02 -0.19347690408E+03  0.21035255179E+03  0.41800000000E+01 0.  1.
         -5    1    3    3    0  502 -0.66183069254E+01 -0.17200214422E+03 -0.32743772529E+03  0.36994793681E+03  0.41800000000E+01 0.  1.
        -11    1    1    2    0    0 -0.69807245457E+02  0.11207955561E+03 -0.29233733048E+03  0.32077405302E+03  0.00000000000E+00 0.  1.
         11    1    1    2    0    0  0.51673616972E+01  0.10139163117E+03 -0.12769167050E+03  0.16313223842E+03  0.00000000000E+00 0. -1.
</event>
<event>
 7    1  0.6671761E-006  0.1279171E+03  0.7561462E-02  0.1230580E+00
          2   -1    0    0  501    0  0.00000000000E+00  0.00000000000E+00  0.32435799796E+03  0.32435799796E+03  0.00000000000E+00 0. -1.
         -2   -1    0    0    0  501 -0.00000000000E+00 -0.00000000000E+00 -0.90731648567E+02  0.90731648567E+02  0.00000000000E+00 0.  1.
         23    2    1    2    0    0 -0.24952570971E+02  0.10565862656E+03  0.34059986071E+02  0.16909822555E+03  0.12509097117E+03 0.  0.
          5    1    3    3  502    0  0.16300575185E+02  0.50398404432E+02 -0.40978009118E+02  0.67099758210E+02  0.41800000000E+01 0.  1.
         -5    1    3    3    0  502 -0.41253146156E+02  0.55260222130E+02  0.75037995188E+02  0.10199846734E+03  0.41800000000E+01 0.  1.
        -11    1    1    2    0    0  0.28936975141E+02 -0.11755693065E+03  0.13985879604E+03  0.18497962943E+03  0.00000000000E+00 0.  1.
         11    1    1    2    0    0 -0.39844041700E+01  0.11898304092E+02  0.59707567278E+02  0.61011791542E+02  0.00000000000E+00 0. -1.
</event>
<event>
 7    1  0.6671761E-006  0.2384502E+03  0.7561462E-02  0.1120830E+00
         -3   -1    0    0    0  501 -0.00000000000E+00  0.00000000000E+00  0.54216347362E+02  0.54216347362E+02  0.00000000000E+00 0.  1.
          3   -1    0    0  501    0  0.00000000000E+00 -0.00000000000E+00 -0.10961933814E+04  0.10961933814E+04  0.00000000000E+00 0. -1.
         23    2    1    2    0    0  0.13290037488E+03  0.17025217893E+03 -0.46776456036E+03  0.53018728214E+03  0.12508619485E+03 0.  0.
          5    1    3    3  502    0  0.48863135295E+02  0.15262400713E+03 -0.34370961333E+03  0.37925646236E+03  0.41800000000E+01 0.  1.
         -5    1    3    3    0  502  0.84037239587E+02  0.17628171796E+02 -0.12405494703E+03  0.15093081978E+03  0.41800000000E+01 0.  1.
        -11    1    1    2    0    0 -0.11968353125E+02  0.85897636996E+01 -0.16170647088E+02  0.21874993582E+02  0.00000000000E+00 0. -1.
         11    1    1    2    0    0 -0.12093202176E+03 -0.17884194263E+03 -0.55804182655E+03  0.59834745300E+03  0.00000000000E+00 0.  1.
</event>
<event>
 7    1  0.6671761E-006  0.8482514E+02  0.7561462E-02  0.1315890E+00
          2   -1    0    0  501    0  0.00000000000E+00  0.00000000000E+00  0.40567183729E+02  0.40567183729E+02  0.00000000000E+00 0. -1.
         -2   -1    0    0    0  501 -0.00000000000E+00 -0.00000000000E+00 -0.37795212131E+03  0.37795212131E+03  0.00000000000E+00 0.  1.
         23    2    1    2    0    0  0.20380158571E+02  0.36469809742E+02 -0.22461178506E+03  0.26046797088E+03  0.12509081494E+03 0.  0.
          5    1    3    3  502    0  0.33364622904E+02  0.57218175363E+02 -0.47475316467E+02  0.81599606170E+02  0.41800000000E+01 0. -1.
         -5    1    3    3    0  502 -0.12984464333E+02 -0.20748365621E+02 -0.17713646859E+03  0.17886836471E+03  0.41800000000E+01 0. -1.
        -11    1    1    2    0    0 -0.31684493543E+02  0.79089095272E+01  0.37314328820E+01  0.32869158376E+02  0.00000000000E+00 0. -1.
         11    1    1    2    0    0  0.11304334972E+02 -0.44378719269E+02 -0.11650458541E+03  0.12518217578E+03  0.00000000000E+00 0.  1.
</event>
<event>
 7    1  0.6671761E-006  0.1269327E+03  0.7561462E-02  0.1232079E+00
         -2   -1    0    0    0  501 -0.00000000000E+00  0.00000000000E+00  0.64302137687E+02  0.64302137687E+02  0.00000000000E+00 0.  1.
          2   -1    0    0  501    0  0.00000000000E+00 -0.00000000000E+00 -0.30967729957E+03  0.30967729957E+03  0.00000000000E+00 0. -1.
         23    2    1    2    0    0  0.40523656674E+02 -0.70617026519E+02 -0.80249694195E+02  0.16944322230E+03  0.12506822531E+03 0.  0.
          5    1    3    3  502    0  0.37807939562E+02  0.23297673273E+02  0.17902451487E+01  0.44641900178E+02  0.41800000000E+01 0.  1.
         -5    1    3    3    0  502  0.27157171119E+01 -0.93914699792E+02 -0.82039939344E+02  0.12480132212E+03  0.41800000000E+01 0.  1.
        -11    1    1    2    0    0  0.22543889432E+02  0.29901103634E+01 -0.12149163932E+02  0.25783131985E+02  0.00000000000E+00 0.  1.
         11    1    1    2    0    0 -0.63067546106E+02  0.67626916155E+02 -0.15297630376E+03  0.17875308297E+03  0.00000000000E+00 0. -1.
</event>
<event>
 7    1  0.6671761E-006  0.1054295E+03  0.7561462E-02  0.1269276E+00
         -1   -1    0    0    0  501 -0.00000000000E+00  0.00000000000E+00  0.33470684485E+03  0.33470684485E+03  0.00000000000E+00 0.  1.
          1   -1    0    0  501    0  0.00000000000E+00 -0.00000000000E+00 -0.57622921764E+02  0.57622921764E+02  0.00000000000E+00 0. -1.
         23    2    1    2    0    0 -0.61513395321E+02  0.39979560153E+02  0.21769228092E+03  0.26156148885E+03  0.12506886200E+03 0.  0.
          5    1    3    3  502    0 -0.79223165279E+02  0.56785877882E+02  0.21566782233E+03  0.23670874050E+03  0.41800000000E+01 0. -1.
         -5    1    3    3    0  502  0.17709769959E+02 -0.16806317729E+02  0.20244585938E+01  0.24852748343E+02  0.41800000000E+01 0. -1.
        -11    1    1    2    0    0  0.57757720078E+02 -0.10372006150E+02  0.76463525425E+02  0.96385701536E+02  0.00000000000E+00 0.  1.
         11    1    1    2    0    0  0.37556752424E+01 -0.29607554003E+02 -0.17071883257E+02  0.34382576234E+02  0.00000000000E+00 0. -1.
</event>
<event>
 7    1  0.6671761E-006  0.3625052E+03  0.7561462E-02  0.1057596E+00
         -1   -1    0    0    0  501 -0.00000000000E+00  0.00000000000E+00  0.13330982286E+03  0.13330982286E+03  0.00000000000E+00 0.  1.
          1   -1    0    0  501    0  0.00000000000E+00 -0.00000000000E+00 -0.11260560369E+04  0.11260560369E+04  0.00000000000E+00 0. -1.
         23    2    1    2    0    0  0.31215870138E+03 -0.16512935679E+03 -0.31100189181E+03  0.48690553525E+03  0.12507623366E+03 0.  0.
          5    1    3    3  502    0 -0.48716187761E+01  0.43016173242E+01 -0.28981985728E+02  0.29994407442E+02  0.41800000000E+01 0. -1.
         -5    1    3    3    0  502  0.31703032016E+03 -0.16943097412E+03 -0.28201990608E+03  0.45691112781E+03  0.41800000000E+01 0. -1.
        -11    1    1    2    0    0 -0.72804404852E+02  0.12372152122E+02 -0.20082510612E+03  0.21397260283E+03  0.00000000000E+00 0.  1.
         11    1    1    2    0    0 -0.23935429653E+03  0.15275720467E+03 -0.48091921611E+03  0.55848772168E+03  0.00000000000E+00 0. -1.
</event>
<event>
 7    1  0.6671761E-006  0.1014990E+03  0.7561462E-02  0.1277175E+00
         -1   -1    0    0    0  501 -0.00000000000E+00  0.00000000000E+00  0.59643070782E+02  0.59643070782E+02  0.00000000000E+00 0.  1.
          1   -1    0    0  501    0  0.00000000000E+00 -0.00000000000E+00 -0.27461697653E+03  0.27461697653E+03  0.00000000000E+00 0. -1.
         23    2    1    2    0    0  0.28145313071E+01  0.28569709914E+02 -0.39632622437E+02  0.13432495436E+03  0.12509316005E+03 0.  0.
          5    1    3    3  502    0  0.72362148528E+01 -0.41959626222E+02 -0.46516258908E+02  0.63199745102E+02  0.41800000000E+01 0. -1.
         -5    1    3    3    0  502 -0.44216835457E+01  0.70529336136E+02  0.68836364712E+01  0.71125209259E+02  0.41800000000E+01 0. -1.
        -11    1    1    2    0    0  0.15743514125E+02  0.26768974250E+02 -0.29439786063E+02  0.42791789199E+02  0.00000000000E+00 0.  1.
         11    1    1    2    0    0 -0.18558045432E+02 -0.55338684164E+02 -0.14590149725E+03  0.15714330375E+03  0.00000000000E+00 0. -1.
</event>
<event>
 7    1  0.6671761E-006  0.2139756E+03  0.7561462E-02  0.1138456E+00
         -2   -1    0    0    0  501 -0.00000000000E+00  0.00000000000E+00  0.39346508499E+02  0.39346508499E+02  0.00000000000E+00 0. -1.
          2   -1    0    0  501    0  0.00000000000E+00 -0.00000000000E+00 -0.13100509036E+04  0.13100509036E+04  0.00000000000E+00 0.  1.
         23    2    1    2    0    0  0.16391696711E+03  0.11106553363E+03 -0.70960532070E+03  0.74725615141E+03  0.12509084615E+03 0.  0.
          5    1    3    3  502    0  0.12585453695E+03  0.17813216648E+02 -0.47867998729E+03  0.49528646033E+03  0.41800000000E+01 0.  1.
         -5    1    3    3    0  502  0.38062430165E+02  0.93252316980E+02 -0.23092533341E+03  0.25196969108E+03  0.41800000000E+01 0.  1.
        -11    1    1    2    0    0 -0.10845162116E+03 -0.57038336156E+02 -0.45228549634E+03  0.46859075548E+03  0.00000000000E+00 0. -1.
         11    1    1    2    0    0 -0.55465345950E+02 -0.54027197471E+02 -0.10881357802E+03  0.13355050516E+03  0.00000000000E+00 0.  1.
</event>
<event>
 7    1  0.6671761E-006  0.9719326E+02  0.7561462E-02  0.1286311E+00
         -1   -1    0    0    0  501 -0.00000000000E+00  0.00000000000E+00  0.30193377730E+02  0.30193377730E+02  0.00000000000E+00 0.  1.
          1   -1    0    0  501    0  0.00000000000E+00 -0.00000000000E+00 -0.49498592632E+03  0.49498592632E+03  0.00000000000E+00 0. -1.
         23    2    1    2    0    0  0.17782244342E+02 -0.50126954075E+02 -0.19012814066E+03  0.23073409262E+03  0.11941772017E+03 0.  0.
          5    1    3    3  502    0 -0.39114245903E+02  0.13574484060E+02 -0.89345891891E+02  0.98561410542E+02  0.41800000000E+01 0. -1.
         -5    1    3    3    0  502  0.56896490246E+02 -0.63701438135E+02 -0.10078224877E+03  0.13217268208E+03  0.41800000000E+01 0.  1.
        -11    1    1    2    0    0 -0.30725751742E+02  0.41766854068E+02 -0.27416860790E+03  0.27902861408E+03  0.00000000000E+00 0. -1.
         11    1    1    2    0    0  0.12943507399E+02  0.83601000075E+01 -0.49580003261E+00  0.15416597342E+02  0.00000000000E+00 0.  1.
</event>
<event>
 7    1  0.6671761E-006  0.1417594E+03  0.7561462E-02  0.1210981E+00
         -1   -1    0    0    0  501 -0.00000000000E+00  0.00000000000E+00  0.32075077174E+02  0.32075077174E+02  0.00000000000E+00 0. -1.
          1   -1    0    0  501    0  0.00000000000E+00 -0.00000000000E+00 -0.93330630603E+03  0.93330630603E+03  0.00000000000E+00 0.  1.
         23    2    1    2    0    0 -0.12302469835E+03  0.23073078548E+02 -0.33703091068E+03  0.38066402690E+03  0.12509125973E+03 0.  0.
          5    1    3    3  502    0 -0.13811269248E+01 -0.10854790103E+02 -0.17403024057E+03  0.17442399781E+03  0.41800000000E+01 0. -1.
         -5    1    3    3    0  502 -0.12164357143E+03  0.33927868651E+02 -0.16300067012E+03  0.20624002909E+03  0.41800000000E+01 0. -1.
        -11    1    1    2    0    0  0.69514668922E+02 -0.49920434523E+02 -0.41915060387E+03  0.42779851297E+03  0.00000000000E+00 0. -1.
         11    1    1    2    0    0  0.53510029432E+02  0.26847355975E+02 -0.14504971431E+03  0.15691884333E+03  0.00000000000E+00 0.  1.
</event>
<event>
 7    1  0.6671761E-006  0.1036479E+03  0.7561462E-02  0.1272807E+00
          2   -1    0    0  501    0  0.00000000000E+00  0.00000000000E+00  0.21588984719E+03  0.21588984719E+03  0.00000000000E+00 0. -1.
         -2   -1    0    0    0  501 -0.00000000000E+00 -0.00000000000E+00 -0.55485022607E+02  0.55485022607E+02  0.00000000000E+00 0.  1.
         23    2    1    2    0    0  0.62756737535E+01 -0.13781750872E+02  0.83504549564E+02  0.15115993537E+03  0.12508795115E+03 0.  0.
          5    1    3    3  502    0 -0.57096744338E+02 -0.65057645806E+01  0.59636855905E+02  0.82924002370E+02  0.41800000000E+01 0. -1.
         -5    1    3    3    0  502  0.63372418092E+02 -0.72759862918E+01  0.23867693658E+02  0.68235932996E+02  0.41800000000E+01 0. -1.
        -11    1    1    2    0    0  0.28790123653E+02  0.34569242835E+02  0.62446381183E+02  0.76963980491E+02  0.00000000000E+00 0. -1.
         11    1    1    2    0    0 -0.35065797406E+02 -0.20787491963E+02  0.14453893840E+02  0.43250953943E+02  0.00000000000E+00 0.  1.
</event>
<event>
 7    1  0.6671761E-006  0.1317264E+03  0.7561462E-02  0.1224916E+00
          2   -1    0    0  501    0  0.00000000000E+00  0.00000000000E+00  0.53842741760E+03  0.53842741760E+03  0.00000000000E+00 0. -1.
         -2   -1    0    0    0  501 -0.00000000000E+00 -0.00000000000E+00 -0.34148961275E+02  0.34148961275E+02  0.00000000000E+00 0.  1.
         23    2    1    2    0    0 -0.43996009204E+02  0.51823165650E+02  0.20408251352E+03  0.24883287271E+03  0.12508731706E+03 0.  0.
          5    1    3    3  502    0  0.62413957997E+01 -0.38271687806E+02  0.60690372224E+02  0.72142018199E+02  0.41800000000E+01 0.  1.
         -5    1    3    3    0  502 -0.50237405004E+02  0.90094853457E+02  0.14339214130E+03  0.17669085451E+03  0.41800000000E+01 0.  1.
        -11    1    1    2    0    0 -0.21727426211E+02 -0.51052466961E+02  0.13737639299E+03  0.14815771591E+03  0.00000000000E+00 0.  1.
         11    1    1    2    0    0  0.65723435415E+02 -0.77069868961E+00  0.16281954981E+03  0.17558579026E+03  0.00000000000E+00 0. -1.
</event>
<event>
 7    1  0.6671761E-006  0.1499769E+03  0.7561462E-02  0.1200501E+00
         -2   -1    0    0    0  501 -0.00000000000E+00  0.00000000000E+00  0.42277185902E+02  0.42277185902E+02  0.00000000000E+00 0. -1.
          2   -1    0    0  501    0  0.00000000000E+00 -0.00000000000E+00 -0.98818175487E+03  0.98818175487E+03  0.00000000000E+00 0.  1.
         23    2    1    2    0    0  0.25649734377E+02  0.13573540741E+03 -0.23260363394E+03  0.29805042066E+03  0.12509033948E+03 0.  0.
          5    1    3    3  502    0  0.10521859843E+02  0.10207104849E+03 -0.54789481649E+02  0.11639831688E+03  0.41800000000E+01 0.  1.
         -5    1    3    3    0  502  0.15127874534E+02  0.33664358926E+02 -0.17781415229E+03  0.18165210377E+03  0.41800000000E+01 0.  1.
        -11    1    1    2    0    0 -0.53542661020E+02 -0.65871574366E+02 -0.47468777829E+03  0.48221817439E+03  0.00000000000E+00 0.  1.
         11    1    1    2    0    0  0.27892926644E+02 -0.69863833045E+02 -0.23861315673E+03  0.25019034572E+03  0.00000000000E+00 0. -1.
</event>
<event>
 7    1  0.6671761E-006  0.1292108E+03  0.7561462E-02  0.1228632E+00
         -1   -1    0    0    0  501 -0.00000000000E+00  0.00000000000E+00  0.59059577454E+03  0.59059577454E+03  0.00000000000E+00 0.  1.
          1   -1    0    0  501    0  0.00000000000E+00 -0.00000000000E+00 -0.30812810192E+02  0.30812810192E+02  0.00000000000E+00 0. -1.
         23    2    1    2    0    0  0.27231709227E+02  0.74172353692E+02  0.28233662149E+03  0.31875492745E+03  0.12509049484E+03 0.  0.
          5    1    3    3  502    0  0.72886567521E+02  0.66936037340E+02  0.16330450407E+03  0.19099402679E+03  0.41800000000E+01 0.  1.
         -5    1    3    3    0  502 -0.45654858294E+02  0.72363163516E+01  0.11903211742E+03  0.12776090066E+03  0.41800000000E+01 0.  1.
        -11    1    1    2    0    0 -0.25387533700E+02 -0.91795519953E+02  0.26324882080E+03  0.27994800589E+03  0.00000000000E+00 0.  1.
         11    1    1    2    0    0 -0.18441755268E+01  0.17623166262E+02  0.14197522064E+02  0.22705651394E+02  0.00000000000E+00 0. -1.
</event>
<event>
 7    1  0.6671761E-006  0.8659349E+02  0.7561462E-02  0.1311317E+00
         -2   -1    0    0    0  501 -0.00000000000E+00  0.00000000000E+00  0.13732248976E+03  0.13732248976E+03  0.00000000000E+00 0.  1.
          2   -1    0    0  501    0  0.00000000000E+00 -0.00000000000E+00 -0.11305209356E+03  0.11305209356E+03  0.00000000000E+00 0. -1.
         23    2    1    2    0    0 -0.35221175772E+02  0.51017310961E+01  0.63893518292E+02  0.14490186911E+03  0.12509041174E+03 0.  0.
          5    1    3    3  502    0  0.50311485991E+01  0.51803830886E+02  0.64647621228E+02  0.83100762218E+02  0.41800000000E+01 0.  1.
         -5    1    3    3    0  502 -0.40252324371E+02 -0.46702099790E+02 -0.75410293590E+00  0.61801106894E+02  0.41800000000E+01 0.  1.
        -11    1    1    2    0    0  0.22802344644E+02 -0.26175450473E+02  0.20673005151E+02  0.40403889302E+02  0.00000000000E+00 0.  1.
         11    1    1    2    0    0  0.12418831128E+02  0.21073719377E+02 -0.60296127239E+02  0.65068824908E+02  0.00000000000E+00 0. -1.
</event>
<event>
 7    1  0.6671761E-006  0.1087770E+03  0.7561462E-02  0.1262852E+00
         -2   -1    0    0    0  501 -0.00000000000E+00  0.00000000000E+00  0.45679340546E+02  0.45679340546E+02  0.00000000000E+00 0.  1.
          2   -1    0    0  501    0  0.00000000000E+00 -0.00000000000E+00 -0.28876624505E+03  0.28876624505E+03  0.00000000000E+00 0. -1.
         23    2    1    2    0    0 -0.36713769668E+02 -0.40053185483E+00 -0.15443931461E+03  0.20210627798E+03  0.12508950553E+03 0.  0.
          5    1    3    3  502    0 -0.66636865716E+02  0.34365276424E+02 -0.12957951887E+03  0.14976571105E+03  0.41800000000E+01 0. -1.
         -5    1    3    3    0  502  0.29923096047E+02 -0.34765808279E+02 -0.24859795740E+02  0.52340566930E+02  0.41800000000E+01 0. -1.
        -11    1    1    2    0    0  0.28023659830E+01 -0.42008101506E+02 -0.51640171364E+02  0.66627630498E+02  0.00000000000E+00 0.  1.
         11    1    1    2    0    0  0.33911403685E+02  0.42408633360E+02 -0.37007418532E+02  0.65711677119E+02  0.00000000000E+00 0. -1.
</event>
<event>
 7    1  0.6671761E-006  0.8632818E+02  0.7561462E-02  0.1311995E+00
         -2   -1    0    0    0  501 -0.00000000000E+00  0.00000000000E+00  0.50859161659E+02  0.50859161659E+02  0.00000000000E+00 0.  1.
          2   -1    0    0  501    0  0.00000000000E+00 -0.00000000000E+00 -0.25806414084E+03  0.25806414084E+03  0.00000000000E+00 0. -1.
         23    2    1    2    0    0  0.24025520883E+02 -0.25581496037E+02 -0.10038985521E+03  0.16418710048E+03  0.12509053659E+03 0.  0.
          5    1    3    3  502    0  0.69925222649E+02  0.81440739293E+01 -0.70539901847E+02  0.99745741038E+02  0.41800000000E+01 0. -1.
         -5    1    3    3    0  502 -0.45899701766E+02 -0.33725569967E+02 -0.29849953359E+02  0.64441359446E+02  0.41800000000E+01 0. -1.
        -11    1    1    2    0    0 -0.18922400153E+02 -0.15835811780E-01  0.12448400129E+02  0.22649947993E+02  0.00000000000E+00 0.  1.
         11    1    1    2    0    0 -0.51031207298E+01  0.25597331849E+02 -0.11926352411E+03  0.12208625402E+03  0.00000000000E+00 0. -1.
</event>
<event>
 7    1  0.6671761E-006  0.1994185E+03  0.7561462E-02  0.1150231E+00
         -1   -1    0    0    0  501 -0.00000000000E+00  0.00000000000E+00  0.33464858093E+02  0.33464858093E+02  0.00000000000E+00 0.  1.
          1   -1    0    0  501    0  0.00000000000E+00 -0.00000000000E+00 -0.15095404688E+04  0.15095404688E+04  0.00000000000E+00 0. -1.
         23    2    1    2    0    0  0.13050139155E+03 -0.14534345937E+03 -0.70772399452E+03  0.74476579824E+03  0.12508999733E+03 0.  0.
          5    1    3    3  502    0 -0.47997651537E+01 -0.30643078901E+01 -0.20386790994E+03  0.20399025671E+03  0.41800000000E+01 0. -1.
         -5    1    3    3    0  502  0.13530115671E+03 -0.14227915148E+03 -0.50385608458E+03  0.54077554153E+03  0.41800000000E+01 0. -1.
        -11    1    1    2    0    0 -0.73613483508E+02  0.78578800048E+02 -0.24539803085E+03  0.26798090662E+03  0.00000000000E+00 0.  1.
         11    1    1    2    0    0 -0.56887908046E+02  0.66764659321E+02 -0.52295358530E+03  0.53025862199E+03  0.00000000000E+00 0. -1.
</event>
<event>
 7    1  0.6671761E-006  0.1313056E+03  0.7561462E-02  0.1225531E+00
          2   -1    0    0  501    0  0.00000000000E+00  0.00000000000E+00  0.13600831579E+03  0.13600831579E+03  0.00000000000E+00 0. -1.
         -2   -1    0    0    0  501 -0.00000000000E+00 -0.00000000000E+00 -0.16982819719E+03  0.16982819719E+03  0.00000000000E+00 0.  1.
         23    2    1    2    0    0 -0.30722002090E+02  0.10070252555E+03 -0.33391477006E+02  0.16687214169E+03  0.12508589397E+03 0.  0.
          5    1    3    3  502    0 -0.74275871504E+02  0.46785849761E+02 -0.41083266799E+02  0.97010968640E+02  0.41800000000E+01 0.  1.
         -5    1    3    3    0  502  0.43553869415E+02  0.53916675791E+02  0.76917897934E+01  0.69861173047E+02  0.41800000000E+01 0.  1.
        -11    1    1    2    0    0  0.10174441779E+02 -0.31291066502E+02 -0.43643538045E+02  0.54657190940E+02  0.00000000000E+00 0.  1.
         11    1    1    2    0    0  0.20547560311E+02 -0.69411459050E+02  0.43215133654E+02  0.84307180352E+02  0.00000000000E+00 0. -1.
</event>
<event>
 7    1  0.6671761E-006  0.1083724E+03  0.7561462E-02  0.1263614E+00
          2   -1    0    0  501    0  0.00000000000E+00  0.00000000000E+00  0.90950096787E+03  0.90950096787E+03  0.00000000000E+00 0. -1.
         -2   -1    0    0    0  501 -0.00000000000E+00 -0.00000000000E+00 -0.17483333103E+02  0.17483333103E+02  0.00000000000E+00 0.  1.
         23    2    1    2    0    0  0.54396139419E+02 -0.31375406919E+02  0.47330246182E+03  0.49361317819E+03  0.12528125628E+03 0.  0.
          5    1    3    3  502    0 -0.18836940327E+02 -0.25506110954E+02  0.28729541172E+02  0.42991289267E+02  0.41800000000E+01 0.  1.
         -5    1    3    3    0  502  0.73233079746E+02 -0.58692959653E+01  0.44457292065E+03  0.45062188893E+03  0.41800000000E+01 0.  1.
        -11    1    1    2    0    0 -0.14987949685E+02 -0.32688964167E+02  0.15674079358E+03  0.16081319407E+03  0.00000000000E+00 0.  1.
         11    1    1    2    0    0 -0.39408189733E+02  0.64064371086E+02  0.26197437937E+03  0.27255792871E+03  0.00000000000E+00 0. -1.
</event>
<event>
 7    1  0.6671761E-006  0.6031879E+02  0.7561462E-02  0.1396499E+00
          1   -1    0    0  501    0  0.00000000000E+00  0.00000000000E+00  0.14080271097E+03  0.14080271097E+03  0.00000000000E+00 0. -1.
         -1   -1    0    0    0  501 -0.00000000000E+00 -0.00000000000E+00 -0.11522823502E+03  0.11522823502E+03  0.00000000000E+00 0.  1.
         23    2    1    2    0    0 -0.32454761133E+02 -0.18410813355E+02 -0.41935588880E+02  0.13710807606E+03  0.12509101222E+03 0.  0.
          5    1    3    3  502    0 -0.47617398509E+02 -0.41027488041E+01  0.33642232010E+02  0.58596257245E+02  0.41800000000E+01 0.  1.
         -5    1    3    3    0  502  0.15162637376E+02 -0.14308064551E+02 -0.75577820890E+02  0.78511818817E+02  0.41800000000E+01 0.  1.
        -11    1    1    2    0    0  0.23887390584E+02 -0.67471320153E+01 -0.17162396793E+02  0.30177459850E+02  0.00000000000E+00 0.  1.
         11    1    1    2    0    0  0.85673705491E+01  0.25157945370E+02  0.84672461617E+02  0.88745410077E+02  0.00000000000E+00 0. -1.
</event>
<event>
 7    1  0.6671761E-006  0.9593988E+02  0.7561462E-02  0.1289073E+00
         -2   -1    0    0    0  501 -0.00000000000E+00  0.00000000000E+00  0.39733944321E+03  0.39733944321E+03  0.00000000000E+00 0.  1.
          2   -1    0    0  501    0  0.00000000000E+00 -0.00000000000E+00 -0.33133940720E+02  0.33133940720E+02  0.00000000000E+00 0. -1.
         23    2    1    2    0    0 -0.14259332156E+02 -0.24622158501E+02  0.25338335520E+03  0.28400721844E+03  0.12508955269E+03 0.  0.
          5    1    3    3  502    0 -0.13133419637E+02 -0.66325891693E+02  0.22065032146E+03  0.23081518014E+03  0.41800000000E+01 0. -1.
         -5    1    3    3    0  502 -0.11259125195E+01  0.41703733192E+02  0.32733033736E+02  0.53192038302E+02  0.41800000000E+01 0. -1.
        -11    1    1    2    0    0  0.40723212356E+02 -0.66280270657E+01  0.93124929022E+02  0.10185559961E+03  0.00000000000E+00 0.  1.
         11    1    1    2    0    0 -0.26463880200E+02  0.31250185567E+02  0.17697218266E+02  0.44610565873E+02  0.00000000000E+00 0. -1.
</event>
<event>
 7    1  0.6671761E-006  0.1664152E+03  0.7561462E-02  0.1181639E+00
         -3   -1    0    0    0  501 -0.00000000000E+00  0.00000000000E+00  0.29571222116E+03  0.29571222116E+03  0.00000000000E+00 0.  1.
          3   -1    0    0  501    0  0.00000000000E+00 -0.00000000000E+00 -0.13356766677E+03  0.13356766677E+03  0.00000000000E+00 0. -1.
         23    2    1    2    0    0  0.37492828448E+02  0.15653020171E+03  0.12970064710E+03  0.24161505672E+03  0.12509261187E+03 0.  0.
          5    1    3    3  502    0  0.17919615365E+02  0.14903543080E+03  0.48736636301E+02  0.15787781468E+03  0.41800000000E+01 0. -1.
         -5    1    3    3    0  502  0.19573213083E+02  0.74947709093E+01  0.80964010794E+02  0.83737242045E+02  0.41800000000E+01 0. -1.
        -11    1    1    2    0    0 -0.11634900323E+02 -0.70692903730E+02  0.60455567474E+02  0.93742910035E+02  0.00000000000E+00 0.  1.
         11    1    1    2    0    0 -0.25857928125E+02 -0.85837297983E+02 -0.28011660177E+02  0.93921921178E+02  0.00000000000E+00 0. -1.
</event>
<event>
 7    1  0.6671761E-006  0.8881546E+02  0.7561462E-02  0.1305746E+00
          1   -1    0    0  501    0  0.00000000000E+00  0.00000000000E+00  0.27860509643E+02  0.27860509643E+02  0.00000000000E+00 0. -1.
         -1   -1    0    0    0  501 -0.00000000000E+00 -0.00000000000E+00 -0.43808975363E+03  0.43808975363E+03  0.00000000000E+00 0.  1.
         23    2    1    2    0    0  0.34076085354E+01 -0.10412558108E+02 -0.28017560677E+03  0.30702821838E+03  0.12509165875E+03 0.  0.
          5    1    3    3  502    0  0.48290044736E+02 -0.18603691519E+02 -0.49113108046E+02  0.71467443922E+02  0.41800000000E+01 0.  1.
         -5    1    3    3    0  502 -0.44882436201E+02  0.81911334114E+01 -0.23106249872E+03  0.23556077445E+03  0.41800000000E+01 0.  1.
        -11    1    1    2    0    0 -0.41286629563E+02  0.40005327537E+01 -0.10541433720E+03  0.11328182789E+03  0.00000000000E+00 0.  1.
         11    1    1    2    0    0  0.37879021028E+02  0.64120253538E+01 -0.24639300023E+02  0.45640217011E+02  0.00000000000E+00 0. -1.
</event>
<event>
 7    1  0.6671761E-006  0.1160998E+03  0.7561462E-02  0.1249673E+00
          1   -1    0    0  501    0  0.00000000000E+00  0.00000000000E+00  0.66623451474E+02  0.66623451474E+02  0.00000000000E+00 0. -1.
         -1   -1    0    0    0  501 -0.00000000000E+00 -0.00000000000E+00 -0.21715339560E+03  0.21715339560E+03  0.00000000000E+00 0.  1.
         23    2    1    2    0    0 -0.85392939766E+01 -0.51093091326E+02 -0.68229620441E+02  0.15164079527E+03  0.12512484230E+03 0.  0.
          5    1    3    3  502    0 -0.64379013021E+02 -0.39232885743E+02 -0.53493947834E+02  0.92536217213E+02  0.41800000000E+01 0. -1.
         -5    1    3    3    0  502  0.55839719045E+02 -0.11860205584E+02 -0.14735672607E+02  0.59104578052E+02  0.41800000000E+01 0. -1.
        -11    1    1    2    0    0  0.44025735035E+02  0.45880638376E+02 -0.69130925276E+02  0.93927542034E+02  0.00000000000E+00 0.  1.
         11    1    1    2    0    0 -0.35486441058E+02  0.52124529507E+01 -0.13169398408E+02  0.38208509774E+02  0.00000000000E+00 0. -1.
</event>
<event>
 7    1  0.6671761E-006  0.8436335E+02  0.7561462E-02  0.1317106E+00
         -1   -1    0    0    0  501 -0.00000000000E+00  0.00000000000E+00  0.71638479802E+02  0.71638479802E+02  0.00000000000E+00 0.  1.
          1   -1    0    0  501    0  0.00000000000E+00 -0.00000000000E+00 -0.18090461079E+03  0.18090461079E+03  0.00000000000E+00 0. -1.
         23    2    1    2    0    0 -0.28342295077E+02  0.18353798288E+01 -0.40580713204E+02  0.13453876207E+03  0.12508888801E+03 0.  0.
          5    1    3    3  502    0 -0.75399378370E+01 -0.40664883327E+02 -0.67993814922E+02  0.79693880984E+02  0.41800000000E+01 0.  1.
         -5    1    3    3    0  502 -0.20802357240E+02  0.42500263156E+02  0.27413101718E+02  0.54844881082E+02  0.41800000000E+01 0.  1.
        -11    1    1    2    0    0  0.51660763654E+02  0.11313905895E+02 -0.73757201389E+02  0.90757719918E+02  0.00000000000E+00 0. -1.
         11    1    1    2    0    0 -0.23318468577E+02 -0.13149285723E+02  0.50717836038E+01  0.27246608610E+02  0.00000000000E+00 0.  1.
</event>
<event>
 7    1  0.6671761E-006  0.1163030E+03  0.7561462E-02  0.1249324E+00
          1   -1    0    0  501    0  0.00000000000E+00  0.00000000000E+00  0.48277234112E+03  0.48277234112E+03  0.00000000000E+00 0. -1.
         -1   -1    0    0    0  501 -0.00000000000E+00 -0.00000000000E+00 -0.36833441929E+02  0.36833441929E+02  0.00000000000E+00 0.  1.
         23    2    1    2    0    0 -0.65384714399E+02  0.39748830635E+02  0.23674257431E+03  0.27848568078E+03  0.12510834302E+03 0.  0.
          5    1    3    3  502    0 -0.80794630920E+02  0.69587413371E+02  0.20922710859E+03  0.23486940170E+03  0.41800000000E+01 0. -1.
         -5    1    3    3    0  502  0.15409916520E+02 -0.29838582736E+02  0.27515465722E+02  0.43616279079E+02  0.41800000000E+01 0. -1.
        -11    1    1    2    0    0  0.32816841046E+02  0.84438584453E+01  0.12686471107E+02  0.36182735536E+02  0.00000000000E+00 0.  1.
         11    1    1    2    0    0  0.32567873353E+02 -0.48192689080E+02  0.19650985378E+03  0.20493736674E+03  0.00000000000E+00 0. -1.
</event>
<event>
 7    1  0.6671761E-006  0.8406085E+02  0.7561462E-02  0.1317907E+00
         -2   -1    0    0    0  501 -0.00000000000E+00  0.00000000000E+00  0.17947130023E+03  0.17947130023E+03  0.00000000000E+00 0. -1.
          2   -1    0    0  501    0  0.00000000000E+00 -0.00000000000E+00 -0.79928553299E+02  0.79928553299E+02  0.00000000000E+00 0.  1.
         23    2    1    2    0    0 -0.40773755188E+01  0.11666775461E+02  0.11049394435E+03  0.16734918479E+03  0.12507637375E+03 0.  0.
          5    1    3    3  502    0  0.92834763041E+01  0.67417727730E+02  0.58405604320E+02  0.89777613916E+02  0.41800000000E+01 0. -1.
         -5    1    3    3    0  502 -0.13360851823E+02 -0.55750952269E+02  0.52088340027E+02  0.77571570869E+02  0.41800000000E+01 0. -1.
        -11    1    1    2    0    0  0.70366533160E+01 -0.26455787396E+02  0.34569659091E+02  0.44096309441E+02  0.00000000000E+00 0. -1.
         11    1    1    2    0    0 -0.29592777973E+01  0.14789011935E+02 -0.45520856506E+02  0.47954359303E+02  0.00000000000E+00 0.  1.
</event>
<event>
 6    1  0.6671761E-006  0.1130463E+03  0.7561462E-02  0.1255030E+00
         -2   -1    0    0    0  501 -0.00000000000E+00  0.00000000000E+00  0.26538774204E+02  0.26538774204E+02  0.00000000000E+00 0.  1.
          2   -1    0    0  501    0  0.00000000000E+00 -0.00000000000E+00 -0.62314284729E+03  0.62314284729E+03  0.00000000000E+00 0. -1.
          5    1    1    2  502    0 -0.60765339439E+02 -0.54248702409E+02 -0.18193943839E+03  0.19938600711E+03  0.41800000000E+01 0. -1.
         -5    1    1    2    0  502  0.35706406169E+02  0.40973582184E+02 -0.49591255744E+02  0.73692244672E+02  0.41800000000E+01 0.  1.
        -11    1    1    2    0    0  0.56780381041E+02  0.37775102687E+01 -0.18659889630E+03  0.19508313447E+03  0.00000000000E+00 0.  1.
         11    1    1    2    0    0 -0.31721447771E+02  0.94976099561E+01 -0.17847448264E+03  0.18152023523E+03  0.00000000000E+00 0. -1.
</event>
<event>
 7    1  0.6671761E-006  0.2290377E+03  0.7561462E-02  0.1127319E+00
          2   -1    0    0  501    0  0.00000000000E+00  0.00000000000E+00  0.73023748135E+03  0.73023748135E+03  0.00000000000E+00 0. -1.
         -2   -1    0    0    0  501 -0.00000000000E+00 -0.00000000000E+00 -0.98381627962E+02  0.98381627962E+02  0.00000000000E+00 0.  1.
         23    2    1    2    0    0 -0.11807303374E+03 -0.17532916733E+03  0.13367323344E+03  0.27963796226E+03  0.12508916175E+03 0.  0.
          5    1    3    3  502    0  0.87143197353E+01 -0.91064143840E+02  0.66580261398E+02  0.11322111671E+03  0.41800000000E+01 0. -1.
         -5    1    3    3    0  502 -0.12678735348E+03 -0.84265023486E+02  0.67092972037E+02  0.16641684555E+03  0.41800000000E+01 0. -1.
        -11    1    1    2    0    0  0.91573705405E+02  0.10651998467E+03  0.21863162544E+03  0.25986927155E+03  0.00000000000E+00 0.  1.
         11    1    1    2    0    0  0.26499328339E+02  0.68809182659E+02  0.27955099451E+03  0.28911187550E+03  0.00000000000E+00 0. -1.
</event>
<event>
 7    1  0.6671761E-006  0.1858373E+03  0.7561462E-02  0.1162270E+00
          2   -1    0    0  501    0  0.00000000000E+00  0.00000000000E+00  0.10620928560E+04  0.10620928560E+04  0.00000000000E+00 0. -1.
         -2   -1    0    0    0  501 -0.00000000000E+00 -0.00000000000E+00 -0.44678114839E+02  0.44678114839E+02  0.00000000000E+00 0.  1.
         23    2    1    2    0    0  0.62414582374E+02 -0.15913872082E+03  0.32962312584E+03  0.39181610037E+03  0.12509092237E+03 0.  0.
          5    1    3    3  502    0  0.50371408826E+02 -0.19960813835E+02  0.17568576787E+03  0.18389854362E+03  0.41800000000E+01 0. -1.
         -5    1    3    3    0  502  0.12043173548E+02 -0.13917790698E+03  0.15393735798E+03  0.20791755674E+03  0.41800000000E+01 0. -1.
        -11    1    1    2    0    0  0.77844633330E+00  0.59996069776E+02  0.10977703604E+03  0.12510448437E+03  0.00000000000E+00 0.  1.
         11    1    1    2    0    0 -0.63193028707E+02  0.99142651041E+02  0.57801457929E+03  0.58985038612E+03  0.00000000000E+00 0. -1.
</event>
<event>
 7    1  0.6671761E-006  0.8105714E+02  0.7561462E-02  0.1326078E+00
         -1   -1    0    0    0  501 -0.00000000000E+00  0.00000000000E+00  0.16148336475E+03  0.16148336475E+03  0.00000000000E+00 0.  1.
          1   -1    0    0  501    0  0.00000000000E+00 -0.00000000000E+00 -0.11365737372E+03  0.11365737372E+03  0.00000000000E+00 0. -1.
         23    2    1    2    0    0  0.18392165232E+02 -0.72486910684E+02  0.58196641484E+02  0.15692788446E+03  0.12508752087E+03 0.  0.
          5    1    3    3  502    0  0.27185038402E+02 -0.61284949151E+02  0.95512485274E+02  0.11676891088E+03  0.41800000000E+01 0.  1.
         -5    1    3    3    0  502 -0.87928731704E+01 -0.11201961533E+02 -0.37315843789E+02  0.40158973574E+02  0.41800000000E+01 0.  1.
        -11    1    1    2    0    0 -0.26191575406E+02  0.58189896812E+02  0.33032021350E+02  0.71855251358E+02  0.00000000000E+00 0.  1.
         11    1    1    2    0    0  0.77994101740E+01  0.14297013872E+02 -0.43402671802E+02  0.46357602659E+02  0.00000000000E+00 0. -1.
</event>
<event>
 7    1  0.6671761E-006  0.1493661E+03  0.7561462E-02  0.1201254E+00
          3   -1    0    0  501    0  0.00000000000E+00  0.00000000000E+00  0.34710334015E+02  0.34710334015E+02  0.00000000000E+00 0. -1.
         -3   -1    0    0    0  501 -0.00000000000E+00 -0.00000000000E+00 -0.70247104553E+03  0.70247104553E+03  0.00000000000E+00 0.  1.
         23    2    1    2    0    0 -0.54257596002E+00  0.11163972426E+03 -0.34082215703E+03  0.37982986838E+03  0.12508902338E+03 0.  0.
          5    1    3    3  502    0  0.26995373198E+02 -0.17313431548E+02 -0.10183254682E+03  0.10684495813E+03  0.41800000000E+01 0. -1.
         -5    1    3    3    0  502 -0.27537949158E+02  0.12895315581E+03 -0.23898961022E+03  0.27298491026E+03  0.41800000000E+01 0. -1.
        -11    1    1    2    0    0  0.37573433360E+02 -0.62644277442E+02 -0.24026864444E+03  0.25112763666E+03  0.00000000000E+00 0.  1.
         11    1    1    2    0    0 -0.37030857400E+02 -0.48995446816E+02 -0.86669910040E+02  0.10622387450E+03  0.00000000000E+00 0. -1.
</event>
<event>
 7    1  0.6671761E-006  0.1164738E+03  0.7561462E-02  0.1249030E+00
         -1   -1    0    0    0  501 -0.00000000000E+00  0.00000000000E+00  0.13218722234E+03  0.13218722234E+03  0.00000000000E+00 0.  1.
          1   -1    0    0  501    0  0.00000000000E+00 -0.00000000000E+00 -0.13474656922E+03  0.13474656922E+03  0.00000000000E+00 0. -1.
         23    2    1    2    0    0  0.29487005576E+02 -0.58932375062E+02  0.45656479279E+02  0.14532440088E+03  0.12121121674E+03 0.  0.
          5    1    3    3  502    0 -0.71174766058E+01  0.26773139278E+02  0.43828192058E+02  0.52017711206E+02  0.41800000000E+01 0. -1.
         -5    1    3    3    0  502  0.36604482182E+02 -0.85705514340E+02  0.18282872203E+01  0.93306689676E+02  0.41800000000E+01 0.  1.
        -11    1    1    2    0    0 -0.14416050054E+02  0.82454997349E+02 -0.36294444319E+02  0.91235605853E+02  0.00000000000E+00 0.  1.
         11    1    1    2    0    0 -0.15070955522E+02 -0.23522622287E+02 -0.11921381846E+02  0.30373784827E+02  0.00000000000E+00 0. -1.
</event>
<event>
 6    1  0.6671761E-006  0.1118640E+03  0.7561462E-02  0.1257157E+00
          2   -1    0    0  501    0  0.00000000000E+00  0.00000000000E+00  0.41149897107E+02  0.41149897107E+02  0.00000000000E+00 0.  1.
         -2   -1    0    0    0  501 -0.00000000000E+00 -0.00000000000E+00 -0.43684075012E+03  0.43684075012E+03  0.00000000000E+00 0. -1.
          5    1    1    2  502    0 -0.25491901264E+02  0.40752274111E+02 -0.23308168365E+03  0.23802337811E+03  0.41800000000E+01 0. -1.
         -5    1    1    2    0  502 -0.19205597467E+02 -0.68254620642E+02 -0.70028133890E+02  0.99744474279E+02  0.41800000000E+01 0.  1.
        -11    1    1    2    0    0 -0.20059847625E+02 -0.16652659247E+02 -0.15704572446E+02  0.30435869339E+02  0.00000000000E+00 0. -1.
         11    1    1    2    0    0  0.64757346356E+02  0.44155005778E+02 -0.76876463027E+02  0.10978692550E+03  0.00000000000E+00 0.  1.
</event>
<event>
 7    1  0.6671761E-006  0.1051759E+03  0.7561462E-02  0.1269774E+00
          2   -1    0    0  501    0  0.00000000000E+00  0.00000000000E+00  0.34967897735E+02  0.34967897735E+02  0.00000000000E+00 0. -1.
         -2   -1    0    0    0  501 -0.00000000000E+00 -0.00000000000E+00 -0.51759062841E+03  0.51759062841E+03  0.00000000000E+00 0.  1.
         23    2    1    2    0    0 -0.19686557644E+02  0.76931817419E+02 -0.27428660511E+03  0.31174652606E+03  0.12508672863E+03 0.  0.
          5    1    3    3  502    0  0.21115997528E+02  0.84470841405E+02 -0.10055114474E+03  0.13307596894E+03  0.41800000000E+01 0. -1.
         -5    1    3    3    0  502 -0.40802555171E+02 -0.75390239856E+01 -0.17373546037E+03  0.17867055712E+03  0.41800000000E+01 0. -1.
        -11    1    1    2    0    0  0.91612698499E+01 -0.93812757382E+01  0.70140043825E+01  0.14870556722E+02  0.00000000000E+00 0. -1.
         11    1    1    2    0    0  0.10525287794E+02 -0.67550541681E+02 -0.21535012994E+03  0.22594144337E+03  0.00000000000E+00 0.  1.
</event>
<event>
 7    1  0.6671761E-006  0.8412529E+02  0.7561462E-02  0.1317736E+00
          2   -1    0    0  501    0  0.00000000000E+00  0.00000000000E+00  0.56454695850E+02  0.56454695850E+02  0.00000000000E+00 0. -1.
         -2   -1    0    0    0  501 -0.00000000000E+00 -0.00000000000E+00 -0.30755784780E+03  0.30755784780E+03  0.00000000000E+00 0.  1.
         23    2    1    2    0    0  0.62517182691E+02 -0.14294568944E+02 -0.19991965836E+03  0.24439301427E+03  0.12508933925E+03 0.  0.
          5    1    3    3  502    0 -0.13033715110E+02 -0.57542040105E+01 -0.15556077365E+03  0.15626776792E+03  0.41800000000E+01 0.  1.
         -5    1    3    3    0  502  0.75550897801E+02 -0.85403649335E+01 -0.44358884715E+02  0.88125246354E+02  0.41800000000E+01 0.  1.
        -11    1    1    2    0    0 -0.40646536799E+01  0.18223540439E+02  0.20044819537E+02  0.27393678577E+02  0.00000000000E+00 0. -1.
         11    1    1    2    0    0 -0.58452529011E+02 -0.39289714953E+01 -0.71228313123E+02  0.92225850797E+02  0.00000000000E+00 0.  1.
</event>
<event>
 7    1  0.6671761E-006  0.2076567E+03  0.7561462E-02  0.1143435E+00
         -3   -1    0    0    0  501 -0.00000000000E+00  0.00000000000E+00  0.20424926881E+03  0.20424926881E+03  0.00000000000E+00 0.  1.
          3   -1    0    0  501    0  0.00000000000E+00 -0.00000000000E+00 -0.24927910017E+03  0.24927910017E+03  0.00000000000E+00 0. -1.
         23    2    1    2    0    0 -0.19010682505E+03 -0.51569859458E+02 -0.36761244518E+02  0.23621861679E+03  0.12509112872E+03 0.  0.
          5    1    3    3  502    0 -0.42200873860E+02 -0.42364939223E+02 -0.61542412583E+02  0.85910667420E+02  0.41800000000E+01 0.  1.
         -5    1    3    3    0  502 -0.14790595119E+03 -0.92049202346E+01  0.24781168065E+02  0.15030794937E+03  0.41800000000E+01 0.  1.
        -11    1    1    2    0    0  0.14842684002E+03  0.10806921205E+02  0.23895924318E+02  0.15072601495E+03  0.00000000000E+00 0.  1.
         11    1    1    2    0    0  0.41679985030E+02  0.40762938253E+02 -0.32164511168E+02  0.66583737247E+02  0.00000000000E+00 0. -1.
</event>
<event>
 7    1  0.6671761E-006  0.1098018E+03  0.7561462E-02  0.1260937E+00
          2   -1    0    0  501    0  0.00000000000E+00  0.00000000000E+00  0.13948853512E+03  0.13948853512E+03  0.00000000000E+00 0. -1.
         -2   -1    0    0    0  501 -0.00000000000E+00 -0.00000000000E+00 -0.19467888423E+03  0.19467888423E+03  0.00000000000E+00 0.  1.
         23    2    1    2    0    0  0.64298541873E+02  0.83296666211E+02 -0.96435533759E+02  0.18979344258E+03  0.12509636920E+03 0.  0.
          5    1    3    3  502    0  0.43400393062E+02  0.36722297111E+02 -0.12042431650E+03  0.13323516663E+03  0.41800000000E+01 0. -1.
         -5    1    3    3    0  502  0.20898148811E+02  0.46574369100E+02  0.23988782744E+02  0.56558275949E+02  0.41800000000E+01 0. -1.
        -11    1    1    2    0    0 -0.45805031663E+02 -0.29474887142E+02  0.63148327827E+02  0.83394131718E+02  0.00000000000E+00 0. -1.
         11    1    1    2    0    0 -0.18493510210E+02 -0.53821779069E+02 -0.21903143176E+02  0.60979845055E+02  0.00000000000E+00 0.  1.
</event>
<event>
 7    1  0.6671761E-006  0.1910505E+03  0.7561462E-02  0.1157517E+00
         -2   -1    0    0    0  501 -0.00000000000E+00  0.00000000000E+00  0.29798366022E+02  0.29798366022E+02  0.00000000000E+00 0.  1.
          2   -1    0    0  501    0  0.00000000000E+00 -0.00000000000E+00 -0.13609640894E+04  0.13609640894E+04  0.00000000000E+00 0. -1.
         23    2    1    2    0    0  0.83565998550E+02  0.14703393496E+03 -0.68178217518E+03  0.71350190834E+03  0.12512307813E+03 0.  0.
          5    1    3    3  502    0  0.23434118519E+02  0.14458012964E+03 -0.53753144902E+03  0.55714459782E+03  0.41800000000E+01 0.  1.
         -5    1    3    3    0  502  0.60131880031E+02  0.24538053154E+01 -0.14425072616E+03  0.15635731052E+03  0.41800000000E+01 0.  1.
        -11    1    1    2    0    0 -0.72290920485E+02 -0.14717576538E+03 -0.64439607356E+03  0.66493081048E+03  0.00000000000E+00 0. -1.
         11    1    1    2    0    0 -0.11275078065E+02  0.14183041814E+00 -0.49874746323E+01  0.12329736593E+02  0.00000000000E+00 0.  1.
</event>
<event>
 7    1  0.6671761E-006  0.1247937E+03  0.7561462E-02  0.1235392E+00
          2   -1    0    0  501    0  0.00000000000E+00  0.00000000000E+00  0.29151922238E+03  0.29151922238E+03  0.00000000000E+00 0.  1.
         -2   -1    0    0    0  501 -0.00000000000E+00 -0.00000000000E+00 -0.54714383789E+02  0.54714383789E+02  0.00000000000E+00 0. -1.
         23    2    1    2    0    0  0.59076932200E+01 -0.63325587391E+02  0.14818840534E+03  0.20409000067E+03  0.12509154263E+03 0.  0.
          5    1    3    3  502    0  0.41616010823E+02  0.20983242573E+02  0.66513329500E+02  0.81324561031E+02  0.41800000000E+01 0.  1.
         -5    1    3    3    0  502 -0.35708317603E+02 -0.84308829964E+02  0.81675075838E+02  0.12276543964E+03  0.41800000000E+01 0.  1.
        -11    1    1    2    0    0 -0.30619676913E+02 -0.11215140522E+02  0.26047014239E+02  0.41734768982E+02  0.00000000000E+00 0. -1.
         11    1    1    2    0    0  0.24711983693E+02  0.74540727913E+02  0.62569419020E+02  0.10040883653E+03  0.00000000000E+00 0.  1.
</event>
<event>
 7    1  0.6671761E-006  0.1545790E+03  0.7561462E-02  0.1194957E+00
          2   -1    0    0  501    0  0.00000000000E+00  0.00000000000E+00  0.11248368835E+03  0.11248368835E+03  0.00000000000E+00 0. -1.
         -2   -1    0    0    0  501 -0.00000000000E+00 -0.00000000000E+00 -0.24778743676E+03  0.24778743676E+03  0.00000000000E+00 0.  1.
         23    2    1    2    0    0 -0.81870894968E+02  0.89218003484E+02 -0.11277893117E+03  0.20743224882E+03  0.12508539062E+03 0.  0.
          5    1    3    3  502    0  0.10215263169E+02  0.80558264213E+02 -0.47816178550E+02  0.94328388440E+02  0.41800000000E+01 0. -1.
         -5    1    3    3    0  502 -0.92086158137E+02  0.86597392710E+01 -0.64962752616E+02  0.11310386038E+03  0.41800000000E+01 0. -1.
        -11    1    1    2    0    0  0.57617270730E+02 -0.94272458765E+02 -0.45086160952E+02  0.11933066780E+03  0.00000000000E+00 0.  1.
         11    1    1    2    0    0  0.24253624238E+02  0.50544552812E+01  0.22561343706E+02  0.33508208497E+02  0.00000000000E+00 0. -1.
</event>
<event>
 7    1  0.6671761E-006  0.1602906E+03  0.7561462E-02  0.1188369E+00
          1   -1    0    0  501    0  0.00000000000E+00  0.00000000000E+00  0.10884033724E+03  0.10884033724E+03  0.00000000000E+00 0. -1.
         -1   -1    0    0    0  501 -0.00000000000E+00 -0.00000000000E+00 -0.29443683858E+03  0.29443683858E+03  0.00000000000E+00 0.  1.
         23    2    1    2    0    0  0.10431092284E+03 -0.79416704064E+02 -0.16008669875E+03  0.24179510740E+03  0.12509732746E+03 0.  0.
          5    1    3    3  502    0 -0.92398217537E+01  0.11771960316E+02  0.95055121177E+01  0.18214843297E+02  0.41800000000E+01 0.  1.
         -5    1    3    3    0  502  0.11355074459E+03 -0.91188664380E+02 -0.16959221087E+03  0.22358026410E+03  0.41800000000E+01 0.  1.
        -11    1    1    2    0    0 -0.57700846434E+02  0.94186285733E+02 -0.20373616197E+02  0.11231886901E+03  0.00000000000E+00 0.  1.
         11    1    1    2    0    0 -0.46610076404E+02 -0.14769581669E+02 -0.51361863895E+01  0.49163199405E+02  0.00000000000E+00 0. -1.
</event>
<event>
 7    1  0.6671761E-006  0.2108144E+03  0.7561462E-02  0.1140923E+00
         -2   -1    0    0    0  501 -0.00000000000E+00  0.00000000000E+00  0.73012567165E+02  0.73012567165E+02  0.00000000000E+00 0. -1.
          2   -1    0    0  501    0  0.00000000000E+00 -0.00000000000E+00 -0.75416086121E+03  0.75416086121E+03  0.00000000000E+00 0.  1.
         23    2    1    2    0    0  0.11522222390E+03 -0.14057465590E+03 -0.17482897850E+03  0.28151624362E+03  0.12509527942E+03 0.  0.
          5    1    3    3  502    0  0.95850737109E+02 -0.22128540508E+02 -0.59662441902E+02  0.11512651946E+03  0.41800000000E+01 0. -1.
         -5    1    3    3    0  502  0.19371486792E+02 -0.11844611539E+03 -0.11516653660E+03  0.16638972416E+03  0.41800000000E+01 0. -1.
        -11    1    1    2    0    0 -0.86876294759E+02  0.34830761536E+02 -0.21745642685E+03  0.23674452500E+03  0.00000000000E+00 0. -1.
         11    1    1    2    0    0 -0.28345929142E+02  0.10574389436E+03 -0.28886288869E+03  0.30891265975E+03  0.00000000000E+00 0.  1.
</event>
<event>
 7    1  0.6671761E-006  0.8245172E+02  0.7561462E-02  0.1322234E+00
         -2   -1    0    0    0  501 -0.00000000000E+00  0.00000000000E+00  0.13282753461E+03  0.13282753461E+03  0.00000000000E+00 0.  1.
          2   -1    0    0  501    0  0.00000000000E+00 -0.00000000000E+00 -0.13585512342E+03  0.13585512342E+03  0.00000000000E+00 0. -1.
         23    2    1    2    0    0 -0.16199481974E+02  0.76012274145E+02  0.24791051711E+02  0.14933553780E+03  0.12508484148E+03 0.  0.
          5    1    3    3  502    0  0.11942958821E+02  0.32702230978E+02 -0.48332569236E+02  0.59712476295E+02  0.41800000000E+01 0. -1.
         -5    1    3    3    0  502 -0.28142440795E+02  0.43310043167E+02  0.73123620947E+02  0.89623061504E+02  0.41800000000E+01 0. -1.
        -11    1    1    2    0    0  0.42832215624E+01 -0.36469206081E+02  0.30603825713E+02  0.47801078726E+02  0.00000000000E+00 0.  1.
         11    1    1    2    0    0  0.11916260412E+02 -0.39543068064E+02 -0.58422466239E+02  0.71546041509E+02  0.00000000000E+00 0. -1.
</event>
<event>
 7    1  0.6671761E-006  0.8258822E+02  0.7561462E-02  0.1321863E+00
         -2   -1    0    0    0  501 -0.00000000000E+00  0.00000000000E+00  0.41828878508E+03  0.41828878508E+03  0.00000000000E+00 0.  1.
          2   -1    0    0  501    0  0.00000000000E+00 -0.00000000000E+00 -0.33997893880E+02  0.33997893880E+02  0.00000000000E+00 0. -1.
         23    2    1    2    0    0 -0.23617202029E+02 -0.33283701299E+02  0.26757521824E+03  0.29817933495E+03  0.12509532914E+03 0.  0.
          5    1    3    3  502    0  0.12058300223E+02  0.15222043268E+02  0.22113004112E+03  0.22202045107E+03  0.41800000000E+01 0. -1.
         -5    1    3    3    0  502 -0.35675502252E+02 -0.48505744567E+02  0.46445177116E+02  0.76158883883E+02  0.41800000000E+01 0. -1.
        -11    1    1    2    0    0 -0.24569771036E+02  0.26759329595E+02  0.11346278648E+02  0.38058815119E+02  0.00000000000E+00 0.  1.
         11    1    1    2    0    0  0.48186973065E+02  0.65243717039E+01  0.10536939431E+03  0.11604852889E+03  0.00000000000E+00 0. -1.
</event>
<event>
 6    1  0.6671761E-006  0.1946008E+03  0.7561462E-02  0.1154376E+00
          1   -1    0    0  501    0  0.00000000000E+00  0.00000000000E+00  0.53693805436E+03  0.53693805436E+03  0.00000000000E+00 0. -1.
         -1   -1    0    0    0  501 -0.00000000000E+00 -0.00000000000E+00 -0.11324146977E+03  0.11324146977E+03  0.00000000000E+00 0.  1.
          5    1    1    2  502    0 -0.76190939544E+02 -0.76768949797E+01  0.32091934320E+02  0.83134581454E+02  0.41800000000E+01 0. -1.
         -5    1    1    2    0  502  0.52215395680E+02 -0.14491519110E+03  0.21342723015E+02  0.15556299169E+03  0.41800000000E+01 0.  1.
        -11    1    1    2    0    0  0.17470837280E+02  0.24122365700E+02  0.14396480789E+02  0.33081374538E+02  0.00000000000E+00 0.  1.
         11    1    1    2    0    0  0.65047065844E+01  0.12846972038E+03  0.35586544647E+03  0.37840057644E+03  0.00000000000E+00 0. -1.
</event>
<event>
 7    1  0.6671761E-006  0.7856680E+02  0.7561462E-02  0.1333169E+00
         -2   -1    0    0    0  501 -0.00000000000E+00  0.00000000000E+00  0.27034768981E+02  0.27034768981E+02  0.00000000000E+00 0.  1.
          2   -1    0    0  501    0  0.00000000000E+00 -0.00000000000E+00 -0.53666736715E+03  0.53666736715E+03  0.00000000000E+00 0. -1.
         23    2    1    2    0    0  0.43587649894E+02 -0.57758407027E+01 -0.21575932672E+03  0.25324382538E+03  0.12508838663E+03 0.  0.
          5    1    3    3  502    0  0.22110208614E+02 -0.34289964093E+02 -0.72379896220E+01  0.41647615252E+02  0.41800000000E+01 0.  1.
         -5    1    3    3    0  502  0.21477441280E+02  0.28514123390E+02 -0.20852133710E+03  0.21159621013E+03  0.41800000000E+01 0.  1.
        -11    1    1    2    0    0  0.76740084937E+01 -0.20990295158E+02 -0.18308087131E+02  0.28890637785E+02  0.00000000000E+00 0.  1.
         11    1    1    2    0    0 -0.51261658388E+02  0.26766135861E+02 -0.27556518432E+03  0.28156767296E+03  0.00000000000E+00 0. -1.
</event>
<event>
 7    1  0.6671761E-006  0.1461896E+03  0.7561462E-02  0.1205235E+00
         -4   -1    0    0    0  501 -0.00000000000E+00  0.00000000000E+00  0.62150963979E+02  0.62150963979E+02  0.00000000000E+00 0.  1.
          4   -1    0    0  501    0  0.00000000000E+00 -0.00000000000E+00 -0.42270177911E+03  0.42270177911E+03  0.00000000000E+00 0. -1.
         23    2    1    2    0    0  0.11271351936E+03  0.20885742094E+02 -0.14158175500E+03  0.22098613958E+03  0.12509567887E+03 0.  0.
          5    1    3    3  502    0 -0.14843661067E+02  0.35179230443E+02 -0.16798684701E+02  0.41923510541E+02  0.41800000000E+01 0.  1.
         -5    1    3    3    0  502  0.12755718042E+03 -0.14293488349E+02 -0.12478307030E+03  0.17906262904E+03  0.41800000000E+01 0.  1.
        -11    1    1    2    0    0 -0.10835035057E+03 -0.43440025166E+01 -0.22145583800E+03  0.24657931180E+03  0.00000000000E+00 0. -1.
         11    1    1    2    0    0 -0.43631687829E+01 -0.16541739578E+02  0.24867778669E+01  0.17287291698E+02  0.00000000000E+00 0.  1.
</event>
<event>
 7    1  0.6671761E-006  0.1161519E+03  0.7561462E-02  0.1249584E+00
          2   -1    0    0  501    0  0.00000000000E+00  0.00000000000E+00  0.37943721354E+03  0.37943721354E+03  0.00000000000E+00 0. -1.
         -2   -1    0    0    0  501 -0.00000000000E+00 -0.00000000000E+00 -0.50156902987E+02  0.50156902987E+02  0.00000000000E+00 0.  1.
         23    2    1    2    0    0 -0.80368138678E+02 -0.94004595374E+01  0.13655123302E+03  0.20209156850E+03  0.12508939390E+03 0.  0.
          5    1    3    3  502    0  0.14310468961E+02  0.13646681245E+02  0.93185797291E+02  0.95352433885E+02  0.41800000000E+01 0. -1.
         -5    1    3    3    0  502 -0.94678607638E+02 -0.23047140783E+02  0.43365435733E+02  0.10673913462E+03  0.41800000000E+01 0. -1.
        -11    1    1    2    0    0  0.41413814826E+02  0.45447087021E+02  0.66497172541E+02  0.90567189054E+02  0.00000000000E+00 0.  1.
         11    1    1    2    0    0  0.38954323851E+02 -0.36046627484E+02  0.12623190498E+03  0.13693535897E+03  0.00000000000E+00 0. -1.
</event>
<event>
 7    1  0.6671761E-006  0.1085884E+03  0.7561462E-02  0.1263206E+00
         -1   -1    0    0    0  501 -0.00000000000E+00  0.00000000000E+00  0.13325557006E+03  0.13325557006E+03  0.00000000000E+00 0.  1.
          1   -1    0    0  501    0  0.00000000000E+00 -0.00000000000E+00 -0.14317665203E+03  0.14317665203E+03  0.00000000000E+00 0. -1.
         23    2    1    2    0    0  0.16685083620E+02 -0.28970233339E+02  0.59351075075E+02  0.14243641337E+03  0.12509162764E+03 0.  0.
          5    1    3    3  502    0 -0.43644136419E+02  0.17675231383E+02  0.43906128594E+02  0.64517013076E+02  0.41800000000E+01 0. -1.
         -5    1    3    3    0  502  0.60329220039E+02 -0.46645464722E+02  0.15444946482E+02  0.77919400290E+02  0.41800000000E+01 0. -1.
        -11    1    1    2    0    0 -0.81983934210E+01 -0.31458450805E+02  0.99490882054E+01  0.33997531350E+02  0.00000000000E+00 0.  1.
         11    1    1    2    0    0 -0.84866901987E+01  0.60428684145E+02 -0.79221245249E+02  0.99998277369E+02  0.00000000000E+00 0. -1.
</event>
<event>
 7    1  0.6671761E-006  0.1142245E+03  0.7561462E-02  0.1252941E+00
         -1   -1    0    0    0  501 -0.00000000000E+00  0.00000000000E+00  0.37808023158E+02  0.37808023158E+02  0.00000000000E+00 0. -1.
          1   -1    0    0  501    0  0.00000000000E+00 -0.00000000000E+00 -0.64105810307E+03  0.64105810307E+03  0.00000000000E+00 0.  1.
         23    2    1    2    0    0 -0.67100716488E+02  0.43079058158E+00 -0.12413694561E+03  0.18857612840E+03  0.12509309814E+03 0.  0.
          5    1    3    3  502    0  0.12453335608E+02  0.35684472480E+02 -0.84910752246E+02  0.93036419702E+02  0.41800000000E+01 0.  1.
         -5    1    3    3    0  502 -0.79554052096E+02 -0.35253681899E+02 -0.39226193366E+02  0.95539708699E+02  0.41800000000E+01 0.  1.
        -11    1    1    2    0    0 -0.80531485285E+01  0.23174544600E+02 -0.90050915412E+02  0.93333167123E+02  0.00000000000E+00 0. -1.
         11    1    1    2    0    0  0.75153865016E+02 -0.23605335181E+02 -0.38906221889E+03  0.39695683070E+03  0.00000000000E+00 0.  1.
</event>
<event>
 7    1  0.6671761E-006  0.6286873E+02  0.7561462E-02  0.1386173E+00
          1   -1    0    0  501    0  0.00000000000E+00  0.00000000000E+00  0.18219347806E+03  0.18219347806E+03  0.00000000000E+00 0. -1.
         -1   -1    0    0    0  501 -0.00000000000E+00 -0.00000000000E+00 -0.76060311098E+02  0.76060311098E+02  0.00000000000E+00 0.  1.
         23    2    1    2    0    0 -0.30039254189E+02 -0.50583648723E+01  0.33629087606E+02  0.13306338668E+03  0.12508799100E+03 0.  0.
          5    1    3    3  502    0 -0.14305445344E+02  0.25857593406E+01 -0.47559304480E+02  0.49906830800E+02  0.41800000000E+01 0.  1.
         -5    1    3    3    0  502 -0.15733808845E+02 -0.76441242129E+01  0.81188392086E+02  0.83156555877E+02  0.41800000000E+01 0.  1.
        -11    1    1    2    0    0  0.50666842986E+02 -0.24740368360E+02  0.16981132869E+02  0.58886107685E+02  0.00000000000E+00 0.  1.
         11    1    1    2    0    0 -0.20627588796E+02  0.29798733233E+02  0.55522946482E+02  0.66304294792E+02  0.00000000000E+00 0. -1.
</event>
<event>
 7    1  0.6671761E-006  0.2026208E+03  0.7561462E-02  0.1147547E+00
         -2   -1    0    0    0  501 -0.00000000000E+00  0.00000000000E+00  0.11263468932E+03  0.11263468932E+03  0.00000000000E+00 0.  1.
          2   -1    0    0  501    0  0.00000000000E+00 -0.00000000000E+00 -0.44134971851E+03  0.44134971851E+03  0.00000000000E+00 0. -1.
         23    2    1    2    0    0 -0.16980687437E+03 -0.83387001989E+02 -0.11265171652E+03  0.25322911816E+03  0.12508721105E+03 0.  0.
          5    1    3    3  502    0 -0.12398632367E+03 -0.33738387499E+02 -0.82802727388E+01  0.12882904395E+03  0.41800000000E+01 0.  1.
         -5    1    3    3    0  502 -0.45820550696E+02 -0.49648614490E+02 -0.10437144378E+03  0.12440007421E+03  0.41800000000E+01 0.  1.
        -11    1    1    2    0    0  0.11023174264E+03  0.47517903809E+01 -0.12102099796E+03  0.16376720839E+03  0.00000000000E+00 0.  1.
         11    1    1    2    0    0  0.59575131728E+02  0.78635211608E+02 -0.95042314717E+02  0.13698808128E+03  0.00000000000E+00 0. -1.
</event>
<event>
 7    1  0.6671761E-006  0.1217026E+03  0.7561462E-02  0.1240314E+00
          1   -1    0    0  501    0  0.00000000000E+00  0.00000000000E+00  0.16163635959E+02  0.16163635959E+02  0.00000000000E+00 0. -1.
         -1   -1    0    0    0  501 -0.00000000000E+00 -0.00000000000E+00 -0.11976197386E+04  0.11976197386E+04  0.00000000000E+00 0.  1.
         23    2    1    2    0    0  0.57353873909E+02  0.54709738513E+02 -0.79486985172E+03  0.80855174797E+03  0.12512084409E+03 0.  0.
          5    1    3    3  502    0  0.18207171028E+02 -0.26636703613E+02 -0.60958852966E+02  0.69097534045E+02  0.41800000000E+01 0. -1.
         -5    1    3    3    0  502  0.39146702881E+02  0.81346442126E+02 -0.73391099875E+03  0.73945421392E+03  0.41800000000E+01 0. -1.
        -11    1    1    2    0    0 -0.68798663667E+02 -0.44394148807E+01 -0.24649335485E+03  0.25595300059E+03  0.00000000000E+00 0. -1.
         11    1    1    2    0    0  0.11444789758E+02 -0.50270323632E+02 -0.14009289605E+03  0.14927862598E+03  0.00000000000E+00 0.  1.
</event>
<event>
 7    1  0.6671761E-006  0.9950269E+02  0.7561462E-02  0.1281345E+00
         -2   -1    0    0    0  501 -0.00000000000E+00  0.00000000000E+00  0.23354431430E+02  0.23354431430E+02  0.00000000000E+00 0.  1.
          2   -1    0    0  501    0  0.00000000000E+00 -0.00000000000E+00 -0.72346378300E+03  0.72346378300E+03  0.00000000000E+00 0. -1.
         23    2    1    2    0    0  0.21581676459E+01  0.49034770263E+02 -0.24169068911E+03  0.27653415146E+03  0.12509069246E+03 0.  0.
          5    1    3    3  502    0 -0.31515156354E+02  0.51237771116E+02 -0.23403705329E+03  0.24168022050E+03  0.41800000000E+01 0.  1.
         -5    1    3    3    0  502  0.33673323999E+02 -0.22030008532E+01 -0.76536358187E+01  0.34853930957E+02  0.41800000000E+01 0.  1.
        -11    1    1    2    0    0 -0.43741551232E+02 -0.45269395573E+02 -0.25885094224E+03  0.26639529234E+03  0.00000000000E+00 0.  1.
         11    1    1    2    0    0  0.41583383586E+02 -0.37653746904E+01 -0.19956772022E+03  0.20388877063E+03  0.00000000000E+00 0. -1.
</event>
<event>
 7    1  0.6671761E-006  0.1661493E+03  0.7561462E-02  0.1181924E+00
          1   -1    0    0  501    0  0.00000000000E+00  0.00000000000E+00  0.62818876526E+02  0.62818876526E+02  0.00000000000E+00 0. -1.
         -1   -1    0    0    0  501 -0.00000000000E+00 -0.00000000000E+00 -0.50557851562E+03  0.50557851562E+03  0.00000000000E+00 0.  1.
         23    2    1    2    0    0  0.11470271623E+03  0.64957238470E+02 -0.15435342710E+03  0.23842944597E+03  0.12508982495E+03 0.  0.
          5    1    3    3  502    0 -0.21682408650E+02  0.35485703697E+02 -0.29635804735E+02  0.51235879363E+02  0.41800000000E+01 0.  1.
         -5    1    3    3    0  502  0.13638512488E+03  0.29471534773E+02 -0.12471762237E+03  0.18719356661E+03  0.41800000000E+01 0.  1.
        -11    1    1    2    0    0 -0.91878557254E+02 -0.11266098070E+02 -0.11878367920E+03  0.15059268473E+03  0.00000000000E+00 0.  1.
         11    1    1    2    0    0 -0.22824158973E+02 -0.53691140400E+02 -0.16962253279E+03  0.17937526145E+03  0.00000000000E+00 0. -1.
</event>
<event>
 7    1  0.6671761E-006  0.1072854E+03  0.7561462E-02  0.1265681E+00
          1   -1    0    0  501    0  0.00000000000E+00  0.00000000000E+00  0.42735520121E+03  0.42735520121E+03  0.00000000000E+00 0. -1.
         -1   -1    0    0    0  501 -0.00000000000E+00 -0.00000000000E+00 -0.78057067352E+02  0.78057067352E+02  0.00000000000E+00 0.  1.
         23    2    1    2    0    0 -0.82220659135E+02 -0.67822383652E+02  0.45811260284E+02  0.17060563489E+03  0.12508996192E+03 0.  0.
          5    1    3    3  502    0 -0.61057626065E+02 -0.43891826045E+02 -0.35414328304E+02  0.83223633323E+02  0.41800000000E+01 0. -1.
         -5    1    3    3    0  502 -0.21163033071E+02 -0.23930557607E+02  0.81225588588E+02  0.87382001566E+02  0.41800000000E+01 0. -1.
        -11    1    1    2    0    0  0.26734170161E+02  0.28203666769E+02  0.20926373897E+02  0.44137011655E+02  0.00000000000E+00 0.  1.
         11    1    1    2    0    0  0.55486488975E+02  0.39618716883E+02  0.28256049968E+03  0.29066962202E+03  0.00000000000E+00 0. -1.
</event>
<event>
 7    1  0.6671761E-006  0.9675307E+02  0.7561462E-02  0.1287276E+00
         -4   -1    0    0    0  501 -0.00000000000E+00  0.00000000000E+00  0.15515291285E+03  0.15515291285E+03  0.00000000000E+00 0.  1.
          4   -1    0    0  501    0  0.00000000000E+00 -0.00000000000E+00 -0.80214847481E+02  0.80214847481E+02  0.00000000000E+00 0. -1.
         23    2    1    2    0    0  0.25595501528E+02  0.93996794284E-01  0.58829192247E+02  0.14047146305E+03  0.12496487321E+03 0.  0.
          5    1    3    3  502    0 -0.11874642487E+01  0.55286338734E+02  0.56155768474E+02  0.78923583642E+02  0.41800000000E+01 0.  1.
         -5    1    3    3    0  502  0.26782965777E+02 -0.55192341939E+02  0.26734237722E+01  0.61547879405E+02  0.41800000000E+01 0.  1.
        -11    1    1    2    0    0 -0.48067110847E+02 -0.14085123937E+02 -0.16646187997E+02  0.52781942331E+02  0.00000000000E+00 0. -1.
         11    1    1    2    0    0  0.22471609319E+02  0.13991127142E+02  0.32755061117E+02  0.42114354950E+02  0.00000000000E+00 0.  1.
</event>
<event>
 7    1  0.6671761E-006  0.1638014E+03  0.7561462E-02  0.1184471E+00
          1   -1    0    0  501    0  0.00000000000E+00  0.00000000000E+00  0.34534459940E+02  0.34534459940E+02  0.00000000000E+00 0. -1.
         -1   -1    0    0    0  501 -0.00000000000E+00 -0.00000000000E+00 -0.92188625246E+03  0.92188625246E+03  0.00000000000E+00 0.  1.
         23    2    1    2    0    0  0.30548312277E+02  0.13457826529E+03 -0.54751791682E+03  0.57833110937E+03  0.12508594626E+03 0.  0.
          5    1    3    3  502    0  0.20520355839E+02  0.15843677153E+03 -0.47978203437E+03  0.50569908887E+03  0.41800000000E+01 0. -1.
         -5    1    3    3    0  502  0.10027956438E+02 -0.23858506245E+02 -0.67735882450E+02  0.72632020499E+02  0.41800000000E+01 0. -1.
        -11    1    1    2    0    0 -0.42794837733E+01 -0.87947947946E+02 -0.10404585538E+03  0.13630368869E+03  0.00000000000E+00 0. -1.
         11    1    1    2    0    0 -0.26268828504E+02 -0.46630317342E+02 -0.23578802033E+03  0.24178591435E+03  0.00000000000E+00 0.  1.
</event>
<event>
 7    1  0.6671761E-006  0.6137298E+02  0.7561462E-02  0.1392159E+00
          3   -1    0    0  501    0  0.00000000000E+00  0.00000000000E+00  0.18807795111E+03  0.18807795111E+03  0.00000000000E+00 0. -1.
         -3   -1    0    0    0  501 -0.00000000000E+00 -0.00000000000E+00 -0.83447957758E+02  0.83447957758E+02  0.00000000000E+00 0.  1.
         23    2    1    2    0    0 -0.76043528212E+00  0.35438874762E+02  0.15195997874E+01  0.13002384543E+03  0.12508956428E+03 0.  0.
          5    1    3    3  502    0  0.20249430367E+02  0.31792658998E+02  0.58118074038E+02  0.69397374059E+02  0.41800000000E+01 0.  1.
         -5    1    3    3    0  502 -0.21009865649E+02  0.36462157645E+01 -0.56598474251E+02  0.60626471376E+02  0.41800000000E+01 0.  1.
        -11    1    1    2    0    0  0.20688878295E+02 -0.37731780848E+02  0.73396698332E+01  0.43653037974E+02  0.00000000000E+00 0.  1.
         11    1    1    2    0    0 -0.19928443013E+02  0.22929060863E+01  0.95770723733E+02  0.97849025460E+02  0.00000000000E+00 0. -1.
</event>
<event>
 7    1  0.6671761E-006  0.1120180E+03  0.7561462E-02  0.1256878E+00
         -3   -1    0    0    0  501 -0.00000000000E+00  0.00000000000E+00  0.12837963494E+03  0.12837963494E+03  0.00000000000E+00 0.  1.
          3   -1    0    0  501    0  0.00000000000E+00 -0.00000000000E+00 -0.18158104455E+03  0.18158104455E+03  0.00000000000E+00 0. -1.
         23    2    1    2    0    0 -0.94779383039E+02  0.26437339260E+02  0.14909580416E+02  0.15981555079E+03  0.12504659263E+03 0.  0.
          5    1    3    3  502    0 -0.24304087765E+02  0.76033979077E+01  0.65861312494E+02  0.70736731797E+02  0.41800000000E+01 0.  1.
         -5    1    3    3    0  502 -0.70475295274E+02  0.18833941353E+02 -0.50951732078E+02  0.89078818990E+02  0.41800000000E+01 0.  1.
        -11    1    1    2    0    0  0.36913072322E+02  0.27519398568E+02 -0.45679297860E+00  0.46044553050E+02  0.00000000000E+00 0. -1.
         11    1    1    2    0    0  0.57866310717E+02 -0.53956737828E+02 -0.67654197053E+02  0.10410057566E+03  0.00000000000E+00 0.  1.
</event>
<event>
 6    1  0.6671761E-006  0.1615120E+03  0.7561462E-02  0.1187000E+00
         -1   -1    0    0    0  501 -0.00000000000E+00  0.00000000000E+00  0.30351763132E+03  0.30351763132E+03  0.00000000000E+00 0.  1.
          1   -1    0    0  501    0  0.00000000000E+00 -0.00000000000E+00 -0.26065085575E+03  0.26065085575E+03  0.00000000000E+00 0. -1.
          5    1    1    2  502    0  0.81616539817E+00  0.18102820443E+02 -0.46432199582E+01  0.19167945261E+02  0.41800000000E+01 0. -1.
         -5    1    1    2    0  502 -0.10325103718E+03 -0.10319951514E+03  0.24673089952E+03  0.28671331637E+03  0.41800000000E+01 0.  1.
        -11    1    1    2    0    0  0.68438728143E+02  0.10007186918E+03 -0.17841742218E+03  0.21571048896E+03  0.00000000000E+00 0. -1.
         11    1    1    2    0    0  0.33996143643E+02 -0.14975174484E+02 -0.20803481817E+02  0.42576736478E+02  0.00000000000E+00 0.  1.
</event>
<event>
 7    1  0.6671761E-006  0.9249507E+02  0.7561462E-02  0.1296920E+00
         -2   -1    0    0    0  501 -0.00000000000E+00  0.00000000000E+00  0.16015555155E+02  0.16015555155E+02  0.00000000000E+00 0.  1.
          2   -1    0    0  501    0  0.00000000000E+00 -0.00000000000E+00 -0.92430721080E+03  0.92430721080E+03  0.00000000000E+00 0. -1.
         23    2    1    2    0    0  0.67157364385E+02 -0.35253107019E+01 -0.46567852126E+03  0.48322579715E+03  0.11012786415E+03 0.  0.
          5    1    3    3  502    0  0.18329133331E+02  0.81596116493E+01 -0.39963351688E+03  0.40015866429E+03  0.41800000000E+01 0. -1.
         -5    1    3    3    0  502  0.48828231053E+02 -0.11684922351E+02 -0.66045004375E+02  0.83067132857E+02  0.41800000000E+01 0.  1.
        -11    1    1    2    0    0 -0.34021045836E+02  0.47888481839E+02 -0.23381665709E+03  0.24108290562E+03  0.00000000000E+00 0.  1.
         11    1    1    2    0    0 -0.33136318549E+02 -0.44363171137E+02 -0.20879647730E+03  0.21601406318E+03  0.00000000000E+00 0. -1.
</event>
<event>
 7    1  0.6671761E-006  0.1255815E+03  0.7561462E-02  0.1234163E+00
         -1   -1    0    0    0  501 -0.00000000000E+00  0.00000000000E+00  0.11669937638E+02  0.11669937638E+02  0.00000000000E+00 0.  1.
          1   -1    0    0  501    0  0.00000000000E+00 -0.00000000000E+00 -0.15019641986E+04  0.15019641986E+04  0.00000000000E+00 0. -1.
         23    2    1    2    0    0 -0.15322485220E+02 -0.66080770790E+02 -0.10449009908E+04  0.10545457685E+04  0.12508897062E+03 0.  0.
          5    1    3    3  502    0 -0.28880515368E+01  0.37286136696E+02 -0.24096867999E+03  0.24388926579E+03  0.41800000000E+01 0. -1.
         -5    1    3    3    0  502 -0.12434433683E+02 -0.10336690749E+03 -0.80393231078E+03  0.81065650273E+03  0.41800000000E+01 0. -1.
        -11    1    1    2    0    0  0.50474783221E+02  0.48633465747E+02 -0.24212012113E+03  0.25206164085E+03  0.00000000000E+00 0.  1.
         11    1    1    2    0    0 -0.35152298001E+02  0.17447305043E+02 -0.20327314910E+03  0.20702672690E+03  0.00000000000E+00 0. -1.
</event>
<event>
 7    1  0.6671761E-006  0.1367301E+03  0.7561462E-02  0.1217798E+00
          1   -1    0    0  501    0  0.00000000000E+00  0.00000000000E+00  0.11909780669E+02  0.11909780669E+02  0.00000000000E+00 0. -1.
         -1   -1    0    0    0  501 -0.00000000000E+00 -0.00000000000E+00 -0.16964055215E+04  0.16964055215E+04  0.00000000000E+00 0.  1.
         23    2    1    2    0    0 -0.65593884627E+02 -0.61979592140E+02 -0.11040006264E+04  0.11147237291E+04  0.12509029393E+03 0.  0.
          5    1    3    3  502    0  0.85026814263E+01  0.32598804796E+02 -0.25805988156E+03  0.26028321601E+03  0.41800000000E+01 0. -1.
         -5    1    3    3    0  502 -0.74096566053E+02 -0.94578396937E+02 -0.84594074480E+03  0.85444051307E+03  0.41800000000E+01 0. -1.
        -11    1    1    2    0    0 -0.15399346680E+02  0.26969496246E+02 -0.89603079392E+02  0.94832512581E+02  0.00000000000E+00 0. -1.
         11    1    1    2    0    0  0.80993231307E+02  0.35010095895E+02 -0.49089203507E+03  0.49875906050E+03  0.00000000000E+00 0.  1.
</event>
<event>
 7    1  0.6671761E-006  0.1403568E+03  0.7561462E-02  0.1212850E+00
         -1   -1    0    0    0  501 -0.00000000000E+00  0.00000000000E+00  0.28910321983E+02  0.28910321983E+02  0.00000000000E+00 0.  1.
          1   -1    0    0  501    0  0.00000000000E+00 -0.00000000000E+00 -0.72307563413E+03  0.72307563413E+03  0.00000000000E+00 0. -1.
         23    2    1    2    0    0 -0.22349174218E+02  0.85926322014E+02 -0.30509017623E+03  0.34148905353E+03  0.12510771218E+03 0.  0.
          5    1    3    3  502    0 -0.61648660351E+02  0.94419754406E+02 -0.21792518258E+03  0.24540681520E+03  0.41800000000E+01 0.  1.
         -5    1    3    3    0  502  0.39299486133E+02 -0.84934323919E+01 -0.87164993648E+02  0.96082238327E+02  0.41800000000E+01 0.  1.
        -11    1    1    2    0    0 -0.30501539790E+02 -0.51710103294E+01 -0.59239709394E+02  0.66831328331E+02  0.00000000000E+00 0.  1.
         11    1    1    2    0    0  0.52850714008E+02 -0.80755311685E+02 -0.32983542652E+03  0.34366557425E+03  0.00000000000E+00 0. -1.
</event>
<event>
 7    1  0.6671761E-006  0.7765288E+02  0.7561462E-02  0.1335847E+00
          1   -1    0    0  501    0  0.00000000000E+00  0.00000000000E+00  0.19002482552E+03  0.19002482552E+03  0.00000000000E+00 0. -1.
         -1   -1    0    0    0  501 -0.00000000000E+00 -0.00000000000E+00 -0.78907654230E+02  0.78907654230E+02  0.00000000000E+00 0.  1.
         23    2    1    2    0    0 -0.50682552844E+02  0.20148780012E+01  0.26268009371E+02  0.13751048268E+03  0.12508534540E+03 0.  0.
          5    1    3    3  502    0 -0.11661243021E+02 -0.34932236142E+02 -0.38370322589E+02  0.53347912482E+02  0.41800000000E+01 0.  1.
         -5    1    3    3    0  502 -0.39021309824E+02  0.36947114143E+02  0.64638331960E+02  0.84162570199E+02  0.41800000000E+01 0.  1.
        -11    1    1    2    0    0  0.35202947257E+02 -0.20099651741E+02  0.96683448188E+02  0.10483764901E+03  0.00000000000E+00 0. -1.
         11    1    1    2    0    0  0.15479605588E+02  0.18084773740E+02 -0.11834286269E+02  0.26584348062E+02  0.00000000000E+00 0.  1.
</event>
<event>
 7    1  0.6671761E-006  0.1985752E+03  0.7561462E-02  0.1150947E+00
         -1   -1    0    0    0  501 -0.00000000000E+00  0.00000000000E+00  0.13762098102E+03  0.13762098102E+03  0.00000000000E+00 0.  1.
          1   -1    0    0  501    0  0.00000000000E+00 -0.00000000000E+00 -0.33318840701E+03  0.33318840701E+03  0.00000000000E+00 0. -1.
         23    2    1    2    0    0  0.23844693564E+02  0.18096411485E+03 -0.69108843570E+02  0.23182096022E+03  0.12509334540E+03 0.  0.
          5    1    3    3  502    0  0.91294597764E+01 -0.10628900334E+02 -0.33221094221E+02  0.36296474475E+02  0.41800000000E+01 0.  1.
         -5    1    3    3    0  502  0.14715233788E+02  0.19159301519E+03 -0.35887749349E+02  0.19552448575E+03  0.41800000000E+01 0.  1.
        -11    1    1    2    0    0 -0.27724788325E+02 -0.36628339098E+02 -0.70479282493E+02  0.84128641814E+02  0.00000000000E+00 0. -1.
         11    1    1    2    0    0  0.38800947614E+01 -0.14433577576E+03 -0.55979299926E+02  0.15485978599E+03  0.00000000000E+00 0.  1.
</event>
<event>
 7    1  0.6671761E-006  0.1578526E+03  0.7561462E-02  0.1191143E+00
         -2   -1    0    0    0  501 -0.00000000000E+00  0.00000000000E+00  0.67488571726E+02  0.67488571726E+02  0.00000000000E+00 0.  1.
          2   -1    0    0  501    0  0.00000000000E+00 -0.00000000000E+00 -0.65039456017E+03  0.65039456017E+03  0.00000000000E+00 0. -1.
         23    2    1    2    0    0  0.72385453453E+02  0.12927042698E+03 -0.13263935157E+03  0.23493282781E+03  0.12509891620E+03 0.  0.
          5    1    3    3  502    0  0.53657133291E+01  0.38016381462E+02  0.21059257155E+02  0.43988644568E+02  0.41800000000E+01 0.  1.
         -5    1    3    3    0  502  0.67019740124E+02  0.91254045522E+02 -0.15369860872E+03  0.19094418324E+03  0.41800000000E+01 0.  1.
        -11    1    1    2    0    0 -0.18242959491E+01 -0.74348374513E+02 -0.29044808853E+03  0.29981844669E+03  0.00000000000E+00 0.  1.
         11    1    1    2    0    0 -0.70561157504E+02 -0.54922052471E+02 -0.15981854835E+03  0.18313185740E+03  0.00000000000E+00 0. -1.
</event>
<event>
 7    1  0.6671761E-006  0.1797669E+03  0.7561462E-02  0.1168029E+00
         -1   -1    0    0    0  501 -0.00000000000E+00  0.00000000000E+00  0.94541523845E+02  0.94541523845E+02  0.00000000000E+00 0.  1.
          1   -1    0    0  501    0  0.00000000000E+00 -0.00000000000E+00 -0.38563949355E+03  0.38563949355E+03  0.00000000000E+00 0. -1.
         23    2    1    2    0    0  0.60436268955E+02  0.13382881873E+03 -0.15210518194E+03  0.24564400009E+03  0.12506915318E+03 0.  0.
          5    1    3    3  502    0  0.27802538055E+02  0.15249029601E+03 -0.12260898085E+03  0.19767828936E+03  0.41800000000E+01 0.  1.
         -5    1    3    3    0  502  0.32633730900E+02 -0.18661477278E+02 -0.29496201095E+02  0.47965710728E+02  0.41800000000E+01 0.  1.
        -11    1    1    2    0    0 -0.62417119471E+02 -0.42992224800E+02 -0.11966277583E+03  0.14164536037E+03  0.00000000000E+00 0.  1.
         11    1    1    2    0    0  0.19808505160E+01 -0.90836593933E+02 -0.19330011932E+02  0.92891656931E+02  0.00000000000E+00 0. -1.
</event>
<event>
 7    1  0.6671761E-006  0.1089285E+03  0.7561462E-02  0.1262567E+00
         -3   -1    0    0    0  501 -0.00000000000E+00  0.00000000000E+00  0.98204110805E+02  0.98204110805E+02  0.00000000000E+00 0.  1.
          3   -1    0    0  501    0  0.00000000000E+00 -0.00000000000E+00 -0.14432850626E+03  0.14432850626E+03  0.00000000000E+00 0. -1.
         23    2    1    2    0    0 -0.33266278896E+02 -0.37170761661E+02 -0.32051912280E+02  0.13842875677E+03  0.12508750852E+03 0.  0.
          5    1    3    3  502    0 -0.32909336253E+02  0.34617380807E+02  0.17564185408E+02  0.51062319528E+02  0.41800000000E+01 0. -1.
         -5    1    3    3    0  502 -0.35694264354E+00 -0.71788142469E+02 -0.49616097689E+02  0.87366437246E+02  0.41800000000E+01 0. -1.
        -11    1    1    2    0    0 -0.19812520968E+02  0.40218472212E+02  0.96900751268E+01  0.45868933388E+02  0.00000000000E+00 0. -1.
         11    1    1    2    0    0  0.53078799865E+02 -0.30477105502E+01 -0.23762558306E+02  0.58234926907E+02  0.00000000000E+00 0.  1.
</event>
<event>
 7    1  0.6671761E-006  0.1248086E+03  0.7561462E-02  0.1235369E+00
         -2   -1    0    0    0  501 -0.00000000000E+00  0.00000000000E+00  0.50050294760E+02  0.50050294760E+02  0.00000000000E+00 0.  1.
          2   -1    0    0  501    0  0.00000000000E+00 -0.00000000000E+00 -0.38723763762E+03  0.38723763762E+03  0.00000000000E+00 0. -1.
         23    2    1    2    0    0  0.68991356164E+02 -0.53925944934E+02 -0.15937531754E+03  0.22070274532E+03  0.12506556356E+03 0.  0.
          5    1    3    3  502    0  0.91767839441E+02 -0.14515874428E+02 -0.14594773704E+03  0.17306143797E+03  0.41800000000E+01 0.  1.
         -5    1    3    3    0  502 -0.22776483278E+02 -0.39410070506E+02 -0.13427580502E+02  0.47641307349E+02  0.41800000000E+01 0.  1.
        -11    1    1    2    0    0 -0.65275490217E+02  0.90789905942E+01 -0.14959781501E+03  0.16347117161E+03  0.00000000000E+00 0. -1.
         11    1    1    2    0    0 -0.37158659464E+01  0.44846954340E+02 -0.28214210312E+02  0.53114015446E+02  0.00000000000E+00 0.  1.
</event>
<event>
 7    1  0.6671761E-006  0.1776539E+03  0.7561462E-02  0.1170093E+00
         -1   -1    0    0    0  501 -0.00000000000E+00  0.00000000000E+00  0.36742127407E+03  0.36742127407E+03  0.00000000000E+00 0.  1.
          1   -1    0    0  501    0  0.00000000000E+00 -0.00000000000E+00 -0.10158406816E+03  0.10158406816E+03  0.00000000000E+00 0. -1.
         23    2    1    2    0    0  0.84193603815E+02 -0.10693621054E+03  0.21146872763E+03  0.28087600850E+03  0.12509353836E+03 0.  0.
          5    1    3    3  502    0 -0.17334206287E+02  0.11634699162E+02  0.58611542565E+02  0.62358850647E+02  0.41800000000E+01 0. -1.
         -5    1    3    3    0  502  0.10152781010E+03 -0.11857090970E+03  0.15285718506E+03  0.21851715786E+03  0.41800000000E+01 0. -1.
        -11    1    1    2    0    0 -0.82659434466E+02  0.13037621775E+03  0.36533075701E+02  0.15863544963E+03  0.00000000000E+00 0. -1.
         11    1    1    2    0    0 -0.15341693492E+01 -0.23440007204E+02  0.17835402585E+02  0.29493884089E+02  0.00000000000E+00 0.  1.
</event>
<event>
 7    1  0.6671761E-006  0.6560766E+02  0.7561462E-02  0.1375700E+00
         -2   -1    0    0    0  501 -0.00000000000E+00  0.00000000000E+00  0.10187868261E+03  0.10187868261E+03  0.00000000000E+00 0.  1.
          2   -1    0    0  501    0  0.00000000000E+00 -0.00000000000E+00 -0.12432799474E+03  0.12432799474E+03  0.00000000000E+00 0. -1.
         23    2    1    2    0    0 -0.12949814182E+02  0.26947277279E+02 -0.46903089598E+01  0.12817845899E+03  0.12455466635E+03 0.  0.
          5    1    3    3  502    0 -0.25600893336E+02  0.52228046690E+01 -0.60933524800E+02  0.66430793106E+02  0.41800000000E+01 0.  1.
         -5    1    3    3    0  502  0.12651079154E+02  0.21724472610E+02  0.56243215840E+02  0.61747665883E+02  0.41800000000E+01 0.  1.
        -11    1    1    2    0    0  0.39858688327E+02  0.17928449854E+01 -0.36814217626E+02  0.54288267127E+02  0.00000000000E+00 0. -1.
         11    1    1    2    0    0 -0.26908874145E+02 -0.28740122264E+02  0.19055214458E+02  0.43739951229E+02  0.00000000000E+00 0.  1.
</event>
<event>
 7    1  0.6671761E-006  0.8400952E+02  0.7561462E-02  0.1318043E+00
         -1   -1    0    0    0  501 -0.00000000000E+00  0.00000000000E+00  0.22857561150E+03  0.22857561150E+03  0.00000000000E+00 0.  1.
          1   -1    0    0  501    0  0.00000000000E+00 -0.00000000000E+00 -0.67189045507E+02  0.67189045507E+02  0.00000000000E+00 0. -1.
         23    2    1    2    0    0  0.13312598030E+02  0.19566275066E+02  0.16553353357E+03  0.20617851110E+03  0.12061576728E+03 0.  0.
          5    1    3    3  502    0  0.43039518673E+02  0.23809948583E+02  0.13534880891E+02  0.51185732581E+02  0.41800000000E+01 0. -1.
         -5    1    3    3    0  502 -0.29726920644E+02 -0.42436735168E+01  0.15199865268E+03  0.15499277852E+03  0.41800000000E+01 0.  1.
        -11    1    1    2    0    0  0.15659002576E+02  0.28324751781E+02  0.53789396833E+01  0.32808976169E+02  0.00000000000E+00 0.  1.
         11    1    1    2    0    0 -0.28971600606E+02 -0.47891026847E+02 -0.95259072646E+01  0.56777169737E+02  0.00000000000E+00 0. -1.
</event>
<event>
 7    1  0.6671761E-006  0.9102139E+02  0.7561462E-02  0.1300397E+00
         -3   -1    0    0    0  501 -0.00000000000E+00  0.00000000000E+00  0.19933559955E+03  0.19933559955E+03  0.00000000000E+00 0.  1.
          3   -1    0    0  501    0  0.00000000000E+00 -0.00000000000E+00 -0.10258354867E+03  0.10258354867E+03  0.00000000000E+00 0. -1.
         23    2    1    2    0    0  0.37063663398E+02 -0.22420129357E+01  0.14316149598E+03  0.19370492235E+03  0.12509053220E+03 0.  0.
          5    1    3    3  502    0 -0.26033728549E+02 -0.49443844446E+01 -0.94869340045E+01  0.28454811131E+02  0.41800000000E+01 0.  1.
         -5    1    3    3    0  502  0.63097391946E+02  0.27023715089E+01  0.15264842999E+03  0.16525011122E+03  0.41800000000E+01 0.  1.
        -11    1    1    2    0    0  0.25040618482E+02 -0.12654829557E+02 -0.32345103995E+02  0.42818022345E+02  0.00000000000E+00 0.  1.
         11    1    1    2    0    0 -0.62104281879E+02  0.14896842493E+02 -0.14064341115E+02  0.65396203521E+02  0.00000000000E+00 0. -1.
</event>
<event>
 7    1  0.6671761E-006  0.1010323E+03  0.7561462E-02  0.1278140E+00
          1   -1    0    0  501    0  0.00000000000E+00  0.00000000000E+00  0.59606833035E+02  0.59606833035E+02  0.00000000000E+00 0. -1.
         -1   -1    0    0    0  501 -0.00000000000E+00 -0.00000000000E+00 -0.24292625409E+03  0.24292625409E+03  0.00000000000E+00 0.  1.
         23    2    1    2    0    0 -0.49387400548E+02  0.13900537579E+02 -0.14214232006E+03  0.19617368815E+03  0.12508931407E+03 0.  0.
          5    1    3    3  502    0  0.40972555122E+02  0.16661607833E+02 -0.52790014268E+02  0.68997227881E+02  0.41800000000E+01 0. -1.
         -5    1    3    3    0  502 -0.90359955670E+02 -0.27610702537E+01 -0.89352305790E+02  0.12717646027E+03  0.41800000000E+01 0. -1.
        -11    1    1    2    0    0  0.32282751825E+02  0.13374336631E+02  0.17763426224E+02  0.39199340007E+02  0.00000000000E+00 0. -1.
         11    1    1    2    0    0  0.17104648722E+02 -0.27274874210E+02 -0.58940527225E+02  0.67160058968E+02  0.00000000000E+00 0.  1.
</event>
<event>
 7    1  0.6671761E-006  0.2130549E+03  0.7561462E-02  0.1139169E+00
         -1   -1    0    0    0  501 -0.00000000000E+00  0.00000000000E+00  0.74201780681E+03  0.74201780681E+03  0.00000000000E+00 0.  1.
          1   -1    0    0  501    0  0.00000000000E+00 -0.00000000000E+00 -0.67420223070E+02  0.67420223070E+02  0.00000000000E+00 0. -1.
         23    2    1    2    0    0  0.17164662645E+03  0.91456246566E+02  0.36145459891E+03  0.42909740905E+03  0.12509336503E+03 0.  0.
          5    1    3    3  502    0  0.85663858720E+02 -0.13393077000E+02  0.86755649344E+02  0.12272606201E+03  0.41800000000E+01 0.  1.
         -5    1    3    3    0  502  0.85982767733E+02  0.10484932357E+03  0.27469894956E+03  0.30637134705E+03  0.41800000000E+01 0.  1.
        -11    1    1    2    0    0 -0.98947918598E+01 -0.28333464930E+02  0.11199212048E+02  0.32033021890E+02  0.00000000000E+00 0. -1.
         11    1    1    2    0    0 -0.16175183459E+03 -0.63122781636E+02  0.30194377279E+03  0.34830759894E+03  0.00000000000E+00 0.  1.
</event>
<event>
 7    1  0.6671761E-006  0.1506174E+03  0.7561462E-02  0.1199716E+00
         -1   -1    0    0    0  501 -0.00000000000E+00  0.00000000000E+00  0.43834044581E+02  0.43834044581E+02  0.00000000000E+00 0.  1.
          1   -1    0    0  501    0  0.00000000000E+00 -0.00000000000E+00 -0.61137913758E+03  0.61137913758E+03  0.00000000000E+00 0. -1.
         23    2    1    2    0    0  0.26444901216E+02 -0.10362252441E+03 -0.19447693797E+03  0.25476301091E+03  0.12508377977E+03 0.  0.
          5    1    3    3  502    0  0.37702377571E+02  0.17662605214E+02 -0.61469005797E+02  0.74359585603E+02  0.41800000000E+01 0. -1.
         -5    1    3    3    0  502 -0.11257476354E+02 -0.12128512962E+03 -0.13300793217E+03  0.18040342530E+03  0.41800000000E+01 0. -1.
        -11    1    1    2    0    0 -0.53709189103E+02  0.94619759537E+02 -0.33826525826E+03  0.35533218379E+03  0.00000000000E+00 0. -1.
         11    1    1    2    0    0  0.27264287887E+02  0.90027648702E+01 -0.34802896769E+02  0.45117987464E+02  0.00000000000E+00 0.  1.
</event>
<event>
 7    1  0.6671761E-006  0.1805811E+03  0.7561462E-02  0.1167242E+00
          1   -1    0    0  501    0  0.00000000000E+00  0.00000000000E+00  0.10437028737E+04  0.10437028737E+04  0.00000000000E+00 0. -1.
         -1   -1    0    0    0  501 -0.00000000000E+00 -0.00000000000E+00 -0.41746634265E+02  0.41746634265E+02  0.00000000000E+00 0.  1.
         23    2    1    2    0    0 -0.15553464110E+03 -0.44539111736E+02  0.32795698380E+03  0.38649422795E+03  0.12508896017E+03 0.  0.
          5    1    3    3  502    0 -0.56598288171E+02 -0.74977692512E+02  0.10694574678E+03  0.14240746382E+03  0.41800000000E+01 0.  1.
         -5    1    3    3    0  502 -0.98936352930E+02  0.30438580776E+02  0.22101123702E+03  0.24408676412E+03  0.41800000000E+01 0.  1.
        -11    1    1    2    0    0  0.89616208395E+02  0.37822281381E+02  0.54830168074E+03  0.55686293007E+03  0.00000000000E+00 0. -1.
         11    1    1    2    0    0  0.65918432705E+02  0.67168303555E+01  0.12569757486E+03  0.14209234992E+03  0.00000000000E+00 0.  1.
</event>
<event>
 7    1  0.6671761E-006  0.8320390E+02  0.7561462E-02  0.1320197E+00
         -2   -1    0    0    0  501 -0.00000000000E+00  0.00000000000E+00  0.20220821831E+03  0.20220821831E+03  0.00000000000E+00 0.  1.
          2   -1    0    0  501    0  0.00000000000E+00 -0.00000000000E+00 -0.10514256554E+03  0.10514256554E+03  0.00000000000E+00 0. -1.
         23    2    1    2    0    0  0.60844457004E+02 -0.41110658694E+02  0.12052276864E+03  0.18859386234E+03  0.12509905253E+03 0.  0.
          5    1    3    3  502    0  0.48196043479E+02 -0.21053006324E+02  0.14497490726E+03  0.15427664703E+03  0.41800000000E+01 0. -1.
         -5    1    3    3    0  502  0.12648413525E+02 -0.20057652370E+02 -0.24452138625E+02  0.34317215310E+02  0.41800000000E+01 0. -1.
        -11    1    1    2    0    0 -0.15155341861E+02  0.41180672079E+02  0.26336883221E+02  0.51177764289E+02  0.00000000000E+00 0.  1.
         11    1    1    2    0    0 -0.45689115143E+02 -0.70013384968E-01 -0.49793999100E+02  0.67579157222E+02  0.00000000000E+00 0. -1.
</event>
<event>
 7    1  0.6671761E-006  0.8963819E+02  0.7561462E-02  0.1303730E+00
          1   -1    0    0  501    0  0.00000000000E+00  0.00000000000E+00  0.48293087569E+02  0.48293087569E+02  0.00000000000E+00 0. -1.
         -1   -1    0    0    0  501 -0.00000000000E+00 -0.00000000000E+00 -0.27672917986E+03  0.27672917986E+03  0.00000000000E+00 0.  1.
         23    2    1    2    0    0  0.87981344017E-01 -0.14626772041E+02 -0.18332495259E+03  0.22242177249E+03  0.12509778750E+03 0.  0.
          5    1    3    3  502    0  0.44264603253E+02 -0.18166529989E+02 -0.18135478691E+02  0.51339515973E+02  0.41800000000E+01 0.  1.
         -5    1    3    3    0  502 -0.44176621909E+02  0.35397579478E+01 -0.16518947390E+03  0.17108225652E+03  0.41800000000E+01 0.  1.
        -11    1    1    2    0    0 -0.67457985625E+01 -0.35514981356E+02 -0.36350207613E+02  0.51265556590E+02  0.00000000000E+00 0.  1.
         11    1    1    2    0    0  0.66578172185E+01  0.50141753398E+02 -0.87609320903E+01  0.51334938346E+02  0.00000000000E+00 0. -1.
</event>
<event>
 7    1  0.6671761E-006  0.1335841E+03  0.7561462E-02  0.1222233E+00
         -2   -1    0    0    0  501 -0.00000000000E+00  0.00000000000E+00  0.20170274030E+03  0.20170274030E+03  0.00000000000E+00 0.  1.
          2   -1    0    0  501    0  0.00000000000E+00 -0.00000000000E+00 -0.18325164930E+03  0.18325164930E+03  0.00000000000E+00 0. -1.
         23    2    1    2    0    0  0.98105854869E+02  0.51415110272E+00  0.89525565499E+02  0.18244802947E+03  0.12508970169E+03 0.  0.
          5    1    3    3  502    0  0.66289793977E+02 -0.58545287823E+02  0.68744985316E+02  0.11209474973E+03  0.41800000000E+01 0. -1.
         -5    1    3    3    0  502  0.31816060892E+02  0.59059438926E+02  0.20780580183E+02  0.70353279736E+02  0.41800000000E+01 0. -1.
        -11    1    1    2    0    0 -0.47055440198E+02  0.26135076565E+02  0.46793596166E+02  0.71322488189E+02  0.00000000000E+00 0.  1.
         11    1    1    2    0    0 -0.51050414670E+02 -0.26649227668E+02 -0.11786807067E+03  0.13118387194E+03  0.00000000000E+00 0. -1.
</event>
<event>
 7    1  0.6671761E-006  0.1833171E+03  0.7561462E-02  0.1164631E+00
         -1   -1    0    0    0  501 -0.00000000000E+00  0.00000000000E+00  0.45700405325E+02  0.45700405325E+02  0.00000000000E+00 0. -1.
          1   -1    0    0  501    0  0.00000000000E+00 -0.00000000000E+00 -0.81797408245E+03  0.81797408245E+03  0.00000000000E+00 0.  1.
         23    2    1    2    0    0  0.11553846662E+03  0.11016974140E+03 -0.41725224800E+03  0.46393225577E+03  0.12508872967E+03 0.  0.
          5    1    3    3  502    0  0.15525369789E+02 -0.15461867648E+02 -0.70416447881E+01  0.23391528799E+02  0.41800000000E+01 0. -1.
         -5    1    3    3    0  502  0.10001309683E+03  0.12563160905E+03 -0.41021060321E+03  0.44054072697E+03  0.41800000000E+01 0. -1.
        -11    1    1    2    0    0 -0.88421825919E+02 -0.12474766759E+03 -0.29810491081E+03  0.33503274126E+03  0.00000000000E+00 0.  1.
         11    1    1    2    0    0 -0.27116640705E+02  0.14577926191E+02 -0.56916518318E+02  0.64709490746E+02  0.00000000000E+00 0. -1.
</event>
<event>
 7    1  0.6671761E-006  0.1157259E+03  0.7561462E-02  0.1250319E+00
          1   -1    0    0  501    0  0.00000000000E+00  0.00000000000E+00  0.24501412371E+03  0.24501412371E+03  0.00000000000E+00 0. -1.
         -1   -1    0    0    0  501 -0.00000000000E+00 -0.00000000000E+00 -0.14213236771E+03  0.14213236771E+03  0.00000000000E+00 0.  1.
         23    2    1    2    0    0  0.77079583566E+02 -0.54264183297E+02 -0.68074210865E+02  0.17078493553E+03  0.12509009644E+03 0.  0.
          5    1    3    3  502    0  0.72979052201E+02 -0.80728180003E+02 -0.13355844376E+02  0.10972161175E+03  0.41800000000E+01 0. -1.
         -5    1    3    3    0  502  0.41005313651E+01  0.26463996706E+02 -0.54718366489E+02  0.61063323774E+02  0.41800000000E+01 0. -1.
        -11    1    1    2    0    0 -0.45550748684E+02  0.22952056761E+02  0.13510206913E+02  0.52765455613E+02  0.00000000000E+00 0.  1.
         11    1    1    2    0    0 -0.31528834881E+02  0.31312126535E+02  0.15744575996E+03  0.16359610028E+03  0.00000000000E+00 0. -1.
</event>
<event>
 7    1  0.6671761E-006  0.1033752E+03  0.7561462E-02  0.1273354E+00
         -2   -1    0    0    0  501 -0.00000000000E+00  0.00000000000E+00  0.34132143203E+02  0.34132143203E+02  0.00000000000E+00 0. -1.
          2   -1    0    0  501    0  0.00000000000E+00 -0.00000000000E+00 -0.36496989677E+03  0.36496989677E+03  0.00000000000E+00 0.  1.
         23    2    1    2    0    0 -0.35198634714E+02 -0.13910748144E+02 -0.17854270072E+03  0.22126278385E+03  0.12508905123E+03 0.  0.
          5    1    3    3  502    0 -0.65094320470E+02 -0.38713591838E+02 -0.60813588723E+02  0.97220253671E+02  0.41800000000E+01 0. -1.
         -5    1    3    3    0  502  0.29895685756E+02  0.24802843694E+02 -0.11772911200E+03  0.12404253018E+03  0.41800000000E+01 0. -1.
        -11    1    1    2    0    0  0.62933494603E+02  0.76499345100E+01 -0.10568148524E+03  0.12323847842E+03  0.00000000000E+00 0.  1.
         11    1    1    2    0    0 -0.27734859890E+02  0.62608136338E+01 -0.46613567612E+02  0.54600777705E+02  0.00000000000E+00 0. -1.
</event>
<event>
 7    1  0.6671761E-006  0.1178371E+03  0.7561462E-02  0.1246708E+00
          3   -1    0    0  501    0  0.00000000000E+00  0.00000000000E+00  0.24750251766E+03  0.24750251766E+03  0.00000000000E+00 0. -1.
         -3   -1    0    0    0  501 -0.00000000000E+00 -0.00000000000E+00 -0.11578397065E+03  0.11578397065E+03  0.00000000000E+00 0.  1.
         23    2    1    2    0    0 -0.11267380492E+03  0.19348805153E+02 -0.88007155050E+00  0.16946711385E+03  0.12509422678E+03 0.  0.
          5    1    3    3  502    0 -0.10751210977E+03  0.23397639693E+02 -0.49146120244E+02  0.12057826017E+03  0.41800000000E+01 0.  1.
         -5    1    3    3    0  502 -0.51616951526E+01 -0.40488345407E+01  0.48266048693E+02  0.48888853683E+02  0.41800000000E+01 0.  1.
        -11    1    1    2    0    0  0.46343431490E+02 -0.22220202520E+02  0.71564973043E+01  0.51890909570E+02  0.00000000000E+00 0.  1.
         11    1    1    2    0    0  0.66330373429E+02  0.28713973677E+01  0.12544212125E+03  0.14192846489E+03  0.00000000000E+00 0. -1.
</event>
<event>
 7    1  0.6671761E-006  0.1228860E+03  0.7561462E-02  0.1238411E+00
         -1   -1    0    0    0  501 -0.00000000000E+00  0.00000000000E+00  0.82437752286E+02  0.82437752286E+02  0.00000000000E+00 0.  1.
          1   -1    0    0  501    0  0.00000000000E+00 -0.00000000000E+00 -0.35788748153E+03  0.35788748153E+03  0.00000000000E+00 0. -1.
         23    2    1    2    0    0  0.69562670589E+02 -0.74624087521E+02 -0.40217100356E+02  0.16635539008E+03  0.12509588750E+03 0.  0.
          5    1    3    3  502    0  0.42638971479E+02 -0.64821417377E+02  0.35399414622E+02  0.85384360366E+02  0.41800000000E+01 0.  1.
         -5    1    3    3    0  502  0.26923699109E+02 -0.98026701440E+01 -0.75616514978E+02  0.80971029715E+02  0.41800000000E+01 0.  1.
        -11    1    1    2    0    0  0.10427186841E+02  0.56031299693E+02 -0.78264257282E+02  0.96816975467E+02  0.00000000000E+00 0.  1.
         11    1    1    2    0    0 -0.79989857430E+02  0.18592787828E+02 -0.15696837160E+03  0.17715286826E+03  0.00000000000E+00 0. -1.
</event>
<event>
 7    1  0.6671761E-006  0.1393934E+03  0.7561462E-02  0.1214148E+00
          1   -1    0    0  501    0  0.00000000000E+00  0.00000000000E+00  0.27758181779E+03  0.27758181779E+03  0.00000000000E+00 0. -1.
         -1   -1    0    0    0  501 -0.00000000000E+00 -0.00000000000E+00 -0.89764325368E+02  0.89764325368E+02  0.00000000000E+00 0.  1.
         23    2    1    2    0    0  0.57899122847E+02 -0.86543135564E+02  0.46126453481E+02  0.16916085672E+03  0.12508286452E+03 0.  0.
          5    1    3    3  502    0 -0.31229141251E+02 -0.57392647687E+02  0.21628263897E+01  0.65508209331E+02  0.41800000000E+01 0. -1.
         -5    1    3    3    0  502  0.89128264098E+02 -0.29150487877E+02  0.43963627092E+02  0.10365264739E+03  0.41800000000E+01 0. -1.
        -11    1    1    2    0    0 -0.29916580760E+02  0.86433254663E+02  0.54175086407E+02  0.10630451215E+03  0.00000000000E+00 0.  1.
         11    1    1    2    0    0 -0.27982542087E+02  0.10988090139E+00  0.87515952531E+02  0.91880774284E+02  0.00000000000E+00 0. -1.
</event>
<event>
 7    1  0.7107949E-006  0.2176420E+03  0.7561462E-02  0.1135653E+00
         -1   -1    0    0    0  501 -0.00000000000E+00  0.00000000000E+00  0.23491621500E+03  0.23491621500E+03  0.00000000000E+00 0.  1.
          1   -1    0    0  501    0  0.00000000000E+00 -0.00000000000E+00 -0.26880090420E+03  0.26880090420E+03  0.00000000000E+00 0. -1.
         23    2    1    2    0    0 -0.19994038580E+03  0.35158818151E+02  0.84215466184E+02  0.25288805709E+03  0.12509126392E+03 0.  0.
          5    1    3    3  502    0 -0.17394617084E+03 -0.13949086475E+02  0.90836889255E+02  0.19677565961E+03  0.41800000000E+01 0. -1.
         -5    1    3    3    0  502 -0.25994214954E+02  0.49107904625E+02 -0.66214230714E+01  0.56112397483E+02  0.41800000000E+01 0. -1.
        -11    1    1    2    0    0  0.13058328173E+03 -0.36673513069E+02 -0.30387042565E+02  0.13899752654E+03  0.00000000000E+00 0.  1.
         11    1    1    2    0    0  0.69357104064E+02  0.15146949182E+01 -0.87713112821E+02  0.11183153556E+03  0.00000000000E+00 0. -1.
</event>
<event>
 6    1  0.6671761E-006  0.1167234E+03  0.7561462E-02  0.1248602E+00
         -2   -1    0    0    0  501 -0.00000000000E+00  0.00000000000E+00  0.68143250829E+03  0.68143250829E+03  0.00000000000E+00 0.  1.
          2   -1    0    0  501    0  0.00000000000E+00 -0.00000000000E+00 -0.56418941917E+03  0.56418941917E+03  0.00000000000E+00 0. -1.
          5    1    1    2  502    0 -0.79577859669E+02 -0.22577083455E+00  0.67013466244E+02  0.10411994900E+03  0.41800000000E+01 0. -1.
         -5    1    1    2    0  502  0.51837068078E+02  0.24878497002E+01  0.58995606417E+03  0.59224901948E+03  0.41800000000E+01 0.  1.
        -11    1    1    2    0    0 -0.36964026424E+02 -0.85408847039E+00 -0.18167306272E+03  0.18539733125E+03  0.00000000000E+00 0.  1.
         11    1    1    2    0    0  0.64704818015E+02 -0.14079903952E+01 -0.35805337858E+03  0.36385562772E+03  0.00000000000E+00 0. -1.
</event>
<event>
 7    1  0.6671761E-006  0.9601431E+02  0.7561462E-02  0.1288908E+00
          1   -1    0    0  501    0  0.00000000000E+00  0.00000000000E+00  0.26411177341E+03  0.26411177341E+03  0.00000000000E+00 0. -1.
         -1   -1    0    0    0  501 -0.00000000000E+00 -0.00000000000E+00 -0.48314476285E+02  0.48314476285E+02  0.00000000000E+00 0.  1.
         23    2    1    2    0    0 -0.63478347834E+01 -0.47763859332E+02  0.12412871916E+03  0.17489996655E+03  0.11340360715E+03 0.  0.
          5    1    3    3  502    0  0.26245560322E+02 -0.51169587636E+02  0.12919459504E+03  0.14147746083E+03  0.41800000000E+01 0. -1.
         -5    1    3    3    0  502 -0.32593395105E+02  0.34057283045E+01 -0.50658758867E+01  0.33422505715E+02  0.41800000000E+01 0.  1.
        -11    1    1    2    0    0 -0.22128973223E+02  0.64576704956E+02  0.71187078427E+02  0.98627797369E+02  0.00000000000E+00 0.  1.
         11    1    1    2    0    0  0.28476808006E+02 -0.16812845624E+02  0.20481499539E+02  0.38898485775E+02  0.00000000000E+00 0. -1.
</event>
<event>
 6    1  0.6671761E-006  0.1113199E+03  0.7561462E-02  0.1258145E+00
         -2   -1    0    0    0  501 -0.00000000000E+00  0.00000000000E+00  0.44007891680E+02  0.44007891680E+02  0.00000000000E+00 0.  1.
          2   -1    0    0  501    0  0.00000000000E+00 -0.00000000000E+00 -0.39559751947E+03  0.39559751947E+03  0.00000000000E+00 0. -1.
          5    1    1    2  502    0 -0.82679810718E+02  0.12454624121E+02 -0.20989223632E+03  0.22597188327E+03  0.41800000000E+01 0. -1.
         -5    1    1    2    0  502  0.13830820677E+02 -0.20417479735E+02  0.67823769090E+01  0.25915981861E+02  0.41800000000E+01 0.  1.
        -11    1    1    2    0    0  0.13030082750E+02  0.45048084753E+02 -0.49513342887E+02  0.68195924514E+02  0.00000000000E+00 0.  1.
         11    1    1    2    0    0  0.55818907292E+02 -0.37085229140E+02 -0.98966425485E+02  0.11952162150E+03  0.00000000000E+00 0. -1.
</event>
<event>
 7    1  0.6671761E-006  0.1468486E+03  0.7561462E-02  0.1204400E+00
          1   -1    0    0  501    0  0.00000000000E+00  0.00000000000E+00  0.75205086063E+03  0.75205086063E+03  0.00000000000E+00 0. -1.
         -1   -1    0    0    0  501 -0.00000000000E+00 -0.00000000000E+00 -0.32420232475E+02  0.32420232475E+02  0.00000000000E+00 0.  1.
         23    2    1    2    0    0 -0.10119648502E+03 -0.23372523965E+02  0.28119290125E+03  0.32481259869E+03  0.12508706208E+03 0.  0.
          5    1    3    3  502    0 -0.18891858692E+02  0.48874157231E+02  0.80422370162E+02  0.96077133556E+02  0.41800000000E+01 0. -1.
         -5    1    3    3    0  502 -0.82304626329E+02 -0.72246681196E+02  0.20077053108E+03  0.22873546514E+03  0.41800000000E+01 0. -1.
        -11    1    1    2    0    0  0.32136223583E+02 -0.30226409501E+02  0.21995003668E+03  0.22433098612E+03  0.00000000000E+00 0. -1.
         11    1    1    2    0    0  0.69060261438E+02  0.53598933466E+02  0.21848769022E+03  0.23532750829E+03  0.00000000000E+00 0.  1.
</event>
<event>
 7    1  0.6671761E-006  0.1207809E+03  0.7561462E-02  0.1241814E+00
          2   -1    0    0  501    0  0.00000000000E+00  0.00000000000E+00  0.36158826358E+03  0.36158826358E+03  0.00000000000E+00 0.  1.
         -2   -1    0    0    0  501 -0.00000000000E+00 -0.00000000000E+00 -0.71347736249E+02  0.71347736249E+02  0.00000000000E+00 0. -1.
         23    2    1    2    0    0 -0.88802686787E+01  0.89096852732E+02  0.50936349197E+02  0.16204699492E+03  0.12509040152E+03 0.  0.
          5    1    3    3  502    0 -0.43404011707E+02 -0.11624040823E+02  0.27817599420E+02  0.53012430569E+02  0.41800000000E+01 0. -1.
         -5    1    3    3    0  502  0.34523743028E+02  0.10072089355E+03  0.23118749777E+02  0.10903456435E+03  0.41800000000E+01 0. -1.
        -11    1    1    2    0    0  0.69023907554E+00 -0.46312265460E+02  0.21711749778E+03  0.22200295089E+03  0.00000000000E+00 0.  1.
         11    1    1    2    0    0  0.81900296032E+01 -0.42784587271E+02  0.22186680355E+02  0.48886054024E+02  0.00000000000E+00 0. -1.
</event>
<event>
 7    1  0.6671761E-006  0.9485852E+02  0.7561462E-02  0.1291495E+00
         -1   -1    0    0    0  501 -0.00000000000E+00  0.00000000000E+00  0.77427198925E+03  0.77427198925E+03  0.00000000000E+00 0.  1.
          1   -1    0    0  501    0  0.00000000000E+00 -0.00000000000E+00 -0.38215771301E+02  0.38215771301E+02  0.00000000000E+00 0. -1.
         23    2    1    2    0    0  0.12745650527E+02 -0.74986857935E+02  0.64779473086E+03  0.66413273238E+03  0.12509513349E+03 0.  0.
          5    1    3    3  502    0 -0.26814225386E+02 -0.12206236007E+02  0.31349893100E+02  0.43223640267E+02  0.41800000000E+01 0.  1.
         -5    1    3    3    0  502  0.39559875913E+02 -0.62780621928E+02  0.61644483776E+03  0.62090909212E+03  0.41800000000E+01 0.  1.
        -11    1    1    2    0    0  0.14195751028E+02  0.21766762695E+02  0.84701291493E+02  0.88598081729E+02  0.00000000000E+00 0.  1.
         11    1    1    2    0    0 -0.26941401555E+02  0.53220095240E+02  0.35601955959E+01  0.59756946440E+02  0.00000000000E+00 0. -1.
</event>
<event>
 7    1  0.6671761E-006  0.1433828E+03  0.7561462E-02  0.1208848E+00
          2   -1    0    0  501    0  0.00000000000E+00  0.00000000000E+00  0.45965253697E+03  0.45965253697E+03  0.00000000000E+00 0. -1.
         -2   -1    0    0    0  501 -0.00000000000E+00 -0.00000000000E+00 -0.62791300357E+02  0.62791300357E+02  0.00000000000E+00 0.  1.
         23    2    1    2    0    0  0.94314284769E+02  0.81351201817E+02  0.15569638559E+03  0.23537322272E+03  0.12508392038E+03 0.  0.
          5    1    3    3  502    0  0.93881815711E+02  0.65166184284E+02  0.17548941843E+03  0.20946225263E+03  0.41800000000E+01 0.  1.
         -5    1    3    3    0  502  0.43246905822E+00  0.16185017533E+02 -0.19793032837E+02  0.25910970088E+02  0.41800000000E+01 0.  1.
        -11    1    1    2    0    0  0.17697341287E+02 -0.24073315049E+02  0.48742015958E+02  0.57170836147E+02  0.00000000000E+00 0.  1.
         11    1    1    2    0    0 -0.11201162606E+03 -0.57277886768E+02  0.19242283506E+03  0.22989977846E+03  0.00000000000E+00 0. -1.
</event>
<event>
 7    1  0.6671761E-006  0.1154084E+03  0.7561462E-02  0.1250870E+00
         -2   -1    0    0    0  501 -0.00000000000E+00  0.00000000000E+00  0.66762448116E+02  0.66762448116E+02  0.00000000000E+00 0.  1.
          2   -1    0    0  501    0  0.00000000000E+00 -0.00000000000E+00 -0.21544763695E+03  0.21544763695E+03  0.00000000000E+00 0. -1.
         23    2    1    2    0    0 -0.51154989398E+02  0.46994319490E+01 -0.89716015964E+02  0.16228350314E+03  0.12509218308E+03 0.  0.
          5    1    3    3  502    0 -0.34312567738E+02  0.64373866093E+02 -0.49711983817E+02  0.88374773977E+02  0.41800000000E+01 0. -1.
         -5    1    3    3    0  502 -0.16842421660E+02 -0.59674434144E+02 -0.40004032147E+02  0.73908729158E+02  0.41800000000E+01 0. -1.
        -11    1    1    2    0    0 -0.65710002241E+01 -0.31343502182E+02 -0.44324938908E+02  0.54683575068E+02  0.00000000000E+00 0. -1.
         11    1    1    2    0    0  0.57725989623E+02  0.26644070233E+02 -0.14644233966E+02  0.65243006866E+02  0.00000000000E+00 0.  1.
</event>
<event>
 7    1  0.6671761E-006  0.2722998E+03  0.7561462E-02  0.1099971E+00
          1   -1    0    0  501    0  0.00000000000E+00  0.00000000000E+00  0.81139462875E+02  0.81139462875E+02  0.00000000000E+00 0. -1.
         -1   -1    0    0    0  501 -0.00000000000E+00 -0.00000000000E+00 -0.11627380834E+04  0.11627380834E+04  0.00000000000E+00 0.  1.
         23    2    1    2    0    0  0.23664491279E+03 -0.13268081407E+03 -0.74509931515E+03  0.80276142422E+03  0.12509157285E+03 0.  0.
          5    1    3    3  502    0  0.10694453202E+03 -0.78205308032E+02 -0.52529179105E+03  0.54175837906E+03  0.41800000000E+01 0. -1.
         -5    1    3    3    0  502  0.12970038078E+03 -0.54475506034E+02 -0.21980752410E+03  0.26100304516E+03  0.41800000000E+01 0. -1.
        -11    1    1    2    0    0 -0.18309947222E+03  0.10340800994E+03 -0.19401118606E+03  0.28611007246E+03  0.00000000000E+00 0. -1.
         11    1    1    2    0    0 -0.53545440579E+02  0.29272804128E+02 -0.14248811935E+03  0.15500604964E+03  0.00000000000E+00 0.  1.
</event>
<event>
 7    1  0.6671761E-006  0.9555277E+02  0.7561462E-02  0.1289936E+00
         -2   -1    0    0    0  501 -0.00000000000E+00  0.00000000000E+00  0.83979208270E+02  0.83979208270E+02  0.00000000000E+00 0.  1.
          2   -1    0    0  501    0  0.00000000000E+00 -0.00000000000E+00 -0.22988888861E+03  0.22988888861E+03  0.00000000000E+00 0. -1.
         23    2    1    2    0    0  0.41081687052E+02 -0.71169222419E+02 -0.54122916783E+02  0.15911625945E+03  0.12504371504E+03 0.  0.
          5    1    3    3  502    0  0.18940896661E+01 -0.10634619530E+02  0.39330999257E+02  0.41001007436E+02  0.41800000000E+01 0.  1.
         -5    1    3    3    0  502  0.39187597386E+02 -0.60534602889E+02 -0.93453916040E+02  0.11811525202E+03  0.41800000000E+01 0.  1.
        -11    1    1    2    0    0 -0.54797975659E+02  0.27094360250E+02 -0.11589954602E+02  0.62219366288E+02  0.00000000000E+00 0.  1.
         11    1    1    2    0    0  0.13716288607E+02  0.44074862170E+02 -0.80196808960E+02  0.92532471142E+02  0.00000000000E+00 0. -1.
</event>
<event>
 7    1  0.6671761E-006  0.8539823E+02  0.7561462E-02  0.1314394E+00
          1   -1    0    0  501    0  0.00000000000E+00  0.00000000000E+00  0.55902119666E+02  0.55902119666E+02  0.00000000000E+00 0. -1.
         -1   -1    0    0    0  501 -0.00000000000E+00 -0.00000000000E+00 -0.22666480830E+03  0.22666480830E+03  0.00000000000E+00 0.  1.
         23    2    1    2    0    0  0.12845081716E+02  0.11028834144E+02 -0.12799182540E+03  0.17976621764E+03  0.12508938536E+03 0.  0.
          5    1    3    3  502    0 -0.48767910238E+02  0.10600620400E+02 -0.10025364281E+03  0.11206671013E+03  0.41800000000E+01 0.  1.
         -5    1    3    3    0  502  0.61612991954E+02  0.42821374332E+00 -0.27738182584E+02  0.67699507514E+02  0.41800000000E+01 0.  1.
        -11    1    1    2    0    0 -0.34095399416E+02 -0.15154778233E+02 -0.62969381643E+02  0.73193623964E+02  0.00000000000E+00 0.  1.
         11    1    1    2    0    0  0.21250317699E+02  0.41259440897E+01  0.20198518405E+02  0.29607086359E+02  0.00000000000E+00 0. -1.
</event>
<event>
 7    1  0.6671761E-006  0.1036038E+03  0.7561462E-02  0.1272895E+00
          2   -1    0    0  501    0  0.00000000000E+00  0.00000000000E+00  0.70050244083E+03  0.70050244083E+03  0.00000000000E+00 0. -1.
         -2   -1    0    0    0  501 -0.00000000000E+00 -0.00000000000E+00 -0.29588476523E+02  0.29588476523E+02  0.00000000000E+00 0.  1.
         23    2    1    2    0    0  0.36951266683E+02 -0.69151804439E+02  0.23201023585E+03  0.27499427989E+03  0.12508291756E+03 0.  0.
          5    1    3    3  502    0  0.54212682754E+02 -0.50244559822E+02  0.23724738725E+03  0.24853033199E+03  0.41800000000E+01 0.  1.
         -5    1    3    3    0  502 -0.17261416071E+02 -0.18907244617E+02 -0.52371513957E+01  0.26463947902E+02  0.41800000000E+01 0.  1.
        -11    1    1    2    0    0 -0.14917090619E+02 -0.14454935672E+02  0.26209072521E+02  0.33442192515E+02  0.00000000000E+00 0.  1.
         11    1    1    2    0    0 -0.22034176064E+02  0.83606740112E+02  0.41269465593E+03  0.42165444494E+03  0.00000000000E+00 0. -1.
</event>
<event>
 7    1  0.6671761E-006  0.1017570E+03  0.7561462E-02  0.1276644E+00
         -3   -1    0    0    0  501 -0.00000000000E+00  0.00000000000E+00  0.14827671629E+03  0.14827671629E+03  0.00000000000E+00 0.  1.
          3   -1    0    0  501    0  0.00000000000E+00 -0.00000000000E+00 -0.16874945850E+03  0.16874945850E+03  0.00000000000E+00 0. -1.
         23    2    1    2    0    0 -0.14235143648E+02  0.56533699445E+02  0.88103518854E+02  0.16373980194E+03  0.12509913756E+03 0.  0.
          5    1    3    3  502    0  0.17584806896E+02  0.72853267121E+02  0.74695544876E+01  0.75432689253E+02  0.41800000000E+01 0.  1.
         -5    1    3    3    0  502 -0.31819950544E+02 -0.16319567676E+02  0.80633964366E+02  0.88307112687E+02  0.41800000000E+01 0.  1.
        -11    1    1    2    0    0 -0.24164198845E+02 -0.47053415379E+02 -0.20485825680E+02  0.56723905529E+02  0.00000000000E+00 0.  1.
         11    1    1    2    0    0  0.38399342493E+02 -0.94802840664E+01 -0.88090435386E+02  0.96562467327E+02  0.00000000000E+00 0. -1.
</event>
<event>
 7    1  0.6671761E-006  0.6588956E+02  0.7561462E-02  0.1374656E+00
          4   -1    0    0  501    0  0.00000000000E+00  0.00000000000E+00  0.61650126386E+02  0.61650126386E+02  0.00000000000E+00 0. -1.
         -4   -1    0    0    0  501 -0.00000000000E+00 -0.00000000000E+00 -0.22792362711E+03  0.22792362711E+03  0.00000000000E+00 0.  1.
         23    2    1    2    0    0  0.42367685286E+02  0.15508900244E+02 -0.13737128949E+03  0.19119086185E+03  0.12509007849E+03 0.  0.
          5    1    3    3  502    0  0.38199169339E+02  0.25286365327E+02  0.68589760730E+01  0.46509082580E+02  0.41800000000E+01 0. -1.
         -5    1    3    3    0  502  0.41685159469E+01 -0.97774650833E+01 -0.14423026556E+03  0.14468177927E+03  0.41800000000E+01 0. -1.
        -11    1    1    2    0    0 -0.56588096662E+02 -0.19039194272E+02  0.65101611160E+01  0.60059019307E+02  0.00000000000E+00 0. -1.
         11    1    1    2    0    0  0.14220411376E+02  0.35302940278E+01 -0.35412372352E+02  0.38323872341E+02  0.00000000000E+00 0.  1.
</event>
<event>
 7    1  0.6671761E-006  0.8735422E+02  0.7561462E-02  0.1309388E+00
         -1   -1    0    0    0  501 -0.00000000000E+00  0.00000000000E+00  0.62802974041E+03  0.62802974041E+03  0.00000000000E+00 0.  1.
          1   -1    0    0  501    0  0.00000000000E+00 -0.00000000000E+00 -0.32792809711E+02  0.32792809711E+02  0.00000000000E+00 0. -1.
         23    2    1    2    0    0 -0.55835298705E+01  0.62931441253E+01  0.54247569150E+03  0.55677556118E+03  0.12509344583E+03 0.  0.
          5    1    3    3  502    0  0.36477286094E+02  0.19092681578E+02  0.63668747134E+02  0.75936188028E+02  0.41800000000E+01 0.  1.
         -5    1    3    3    0  502 -0.42060815964E+02 -0.12799537453E+02  0.47880694437E+03  0.48083937315E+03  0.41800000000E+01 0.  1.
        -11    1    1    2    0    0  0.68648976349E+01  0.41141095684E+02  0.30262113506E+02  0.51531661020E+02  0.00000000000E+00 0.  1.
         11    1    1    2    0    0 -0.12813677643E+01 -0.47434239809E+02  0.22499125691E+02  0.52515327920E+02  0.00000000000E+00 0. -1.
</event>
<event>
 7    1  0.6671761E-006  0.6823954E+02  0.7561462E-02  0.1366184E+00
          1   -1    0    0  501    0  0.00000000000E+00  0.00000000000E+00  0.11319930509E+03  0.11319930509E+03  0.00000000000E+00 0. -1.
         -1   -1    0    0    0  501 -0.00000000000E+00 -0.00000000000E+00 -0.18095364596E+03  0.18095364596E+03  0.00000000000E+00 0.  1.
         23    2    1    2    0    0  0.15587952257E+02 -0.23426758986E+02 -0.13348185392E+03  0.17911201528E+03  0.11606856336E+03 0.  0.
          5    1    3    3  502    0 -0.16392860868E+02 -0.10600327035E+02  0.16042998420E+02  0.25611384558E+02  0.41800000000E+01 0. -1.
         -5    1    3    3    0  502  0.31980813125E+02 -0.12826431951E+02 -0.14952485234E+03  0.15350063073E+03  0.41800000000E+01 0.  1.
        -11    1    1    2    0    0  0.26095013766E+02 -0.10432512196E+02 -0.24998748663E+01  0.28214117539E+02  0.00000000000E+00 0.  1.
         11    1    1    2    0    0 -0.41682966023E+02  0.33859271182E+02  0.68227387917E+02  0.86826818227E+02  0.00000000000E+00 0. -1.
</event>
<event>
 7    1  0.6671761E-006  0.8865253E+02  0.7561462E-02  0.1306148E+00
          2   -1    0    0  501    0  0.00000000000E+00  0.00000000000E+00  0.58658128384E+03  0.58658128384E+03  0.00000000000E+00 0. -1.
         -2   -1    0    0    0  501 -0.00000000000E+00 -0.00000000000E+00 -0.35049209312E+02  0.35049209312E+02  0.00000000000E+00 0.  1.
         23    2    1    2    0    0 -0.32060966736E+02 -0.60908875684E+02  0.16084414454E+03  0.21507221679E+03  0.12508965934E+03 0.  0.
          5    1    3    3  502    0  0.10711283403E+01  0.32041105725E+01  0.13963198199E+03  0.13973538004E+03  0.41800000000E+01 0.  1.
         -5    1    3    3    0  502 -0.33132095076E+02 -0.64112986256E+02  0.21212162554E+02  0.75336836747E+02  0.41800000000E+01 0.  1.
        -11    1    1    2    0    0  0.34318882133E-01  0.67034402052E+02  0.33810230213E+03  0.34468359250E+03  0.00000000000E+00 0. -1.
         11    1    1    2    0    0  0.32026647854E+02 -0.61255263684E+01  0.52585627855E+02  0.61874683861E+02  0.00000000000E+00 0.  1.
</event>
<event>
 7    1  0.6671761E-006  0.1706134E+03  0.7561462E-02  0.1177210E+00
          1   -1    0    0  501    0  0.00000000000E+00  0.00000000000E+00  0.43204891198E+02  0.43204891198E+02  0.00000000000E+00 0. -1.
         -1   -1    0    0    0  501 -0.00000000000E+00 -0.00000000000E+00 -0.10308404225E+04  0.10308404225E+04  0.00000000000E+00 0.  1.
         23    2    1    2    0    0  0.29930484324E+02  0.16011159519E+03 -0.71246567047E+03  0.74147585295E+03  0.12509017584E+03 0.  0.
          5    1    3    3  502    0  0.38526968136E+02  0.34615373333E+02 -0.72183725617E+02  0.88941070314E+02  0.41800000000E+01 0.  1.
         -5    1    3    3    0  502 -0.85964838120E+01  0.12549622186E+03 -0.64028194486E+03  0.65253478263E+03  0.41800000000E+01 0.  1.
        -11    1    1    2    0    0 -0.88392960632E+01 -0.22279359224E+02 -0.12646878894E+03  0.12872007449E+03  0.00000000000E+00 0.  1.
         11    1    1    2    0    0 -0.21091188261E+02 -0.13783223597E+03 -0.14870107187E+03  0.20384938624E+03  0.00000000000E+00 0. -1.
</event>
<event>
 7    1  0.6671761E-006  0.1138052E+03  0.7561462E-02  0.1253681E+00
         -2   -1    0    0    0  501 -0.00000000000E+00  0.00000000000E+00  0.47310566721E+03  0.47310566721E+03  0.00000000000E+00 0.  1.
          2   -1    0    0  501    0  0.00000000000E+00 -0.00000000000E+00 -0.36388321114E+02  0.36388321114E+02  0.00000000000E+00 0. -1.
         23    2    1    2    0    0  0.44521196538E+02 -0.46183940060E+02  0.31413797420E+03  0.34415735751E+03  0.12508607690E+03 0.  0.
          5    1    3    3  502    0 -0.28766208572E+02  0.24636678124E+02  0.98457827897E+02  0.10557403534E+03  0.41800000000E+01 0. -1.
         -5    1    3    3    0  502  0.73287405110E+02 -0.70820618184E+02  0.21568014630E+03  0.23858332217E+03  0.41800000000E+01 0. -1.
        -11    1    1    2    0    0 -0.39963048660E+02 -0.11240025495E+01  0.10870856957E+03  0.11582686104E+03  0.00000000000E+00 0.  1.
         11    1    1    2    0    0 -0.45581478779E+01  0.47307942609E+02  0.13870802328E+02  0.49509769776E+02  0.00000000000E+00 0. -1.
</event>
<event>
 7    1  0.6671761E-006  0.1827590E+03  0.7561462E-02  0.1165159E+00
         -1   -1    0    0    0  501 -0.00000000000E+00  0.00000000000E+00  0.35962594059E+02  0.35962594059E+02  0.00000000000E+00 0.  1.
          1   -1    0    0  501    0  0.00000000000E+00 -0.00000000000E+00 -0.10550699737E+04  0.10550699737E+04  0.00000000000E+00 0. -1.
         23    2    1    2    0    0 -0.15676815767E+03  0.32520074057E+02 -0.48760956760E+03  0.52824680695E+03  0.12509111945E+03 0.  0.
          5    1    3    3  502    0 -0.77867611595E+02 -0.28956561218E+02 -0.33904482797E+03  0.34909986415E+03  0.41800000000E+01 0. -1.
         -5    1    3    3    0  502 -0.78900546072E+02  0.61476635276E+02 -0.14856473962E+03  0.17914694280E+03  0.41800000000E+01 0. -1.
        -11    1    1    2    0    0  0.45743864565E+02 -0.52267841525E+02 -0.25198859383E+03  0.26138607427E+03  0.00000000000E+00 0.  1.
         11    1    1    2    0    0  0.11102429310E+03  0.19747767468E+02 -0.27950921822E+03  0.30139968654E+03  0.00000000000E+00 0. -1.
</event>
<event>
 7    1  0.6671761E-006  0.1038404E+03  0.7561462E-02  0.1272421E+00
          1   -1    0    0  501    0  0.00000000000E+00  0.00000000000E+00  0.29591165955E+02  0.29591165955E+02  0.00000000000E+00 0. -1.
         -1   -1    0    0    0  501 -0.00000000000E+00 -0.00000000000E+00 -0.50209249898E+03  0.50209249898E+03  0.00000000000E+00 0.  1.
         23    2    1    2    0    0 -0.31440502376E+02  0.42158486844E+02 -0.30967100134E+03  0.33809450254E+03  0.12508365351E+03 0.  0.
          5    1    3    3  502    0  0.27197588329E+02  0.33832445744E+02 -0.25051075460E+03  0.25427829983E+03  0.41800000000E+01 0.  1.
         -5    1    3    3    0  502 -0.58638090706E+02  0.83260411001E+01 -0.59160246736E+02  0.83816202705E+02  0.41800000000E+01 0.  1.
        -11    1    1    2    0    0  0.59837893882E+02 -0.46744904618E+02 -0.11707108829E+03  0.13953959784E+03  0.00000000000E+00 0.  1.
         11    1    1    2    0    0 -0.28397391505E+02  0.45864177735E+01 -0.45759243397E+02  0.54049564555E+02  0.00000000000E+00 0. -1.
</event>
<event>
 7    1  0.6671761E-006  0.2004799E+03  0.7561462E-02  0.1149335E+00
         -2   -1    0    0    0  501 -0.00000000000E+00  0.00000000000E+00  0.21807234502E+03  0.21807234502E+03  0.00000000000E+00 0.  1.
          2   -1    0    0  501    0  0.00000000000E+00 -0.00000000000E+00 -0.19407808321E+03  0.19407808321E+03  0.00000000000E+00 0. -1.
         23    2    1    2    0    0 -0.85253659495E+02 -0.14933492954E+03  0.39980009558E+02  0.21636693256E+03  0.12508853147E+03 0.  0.
          5    1    3    3  502    0 -0.89217805847E+02 -0.41875999087E+02 -0.71111584597E+01  0.98901249509E+02  0.41800000000E+01 0.  1.
         -5    1    3    3    0  502  0.39641463526E+01 -0.10745893045E+03  0.47091168017E+02  0.11746568305E+03  0.41800000000E+01 0.  1.
        -11    1    1    2    0    0  0.93348140259E+02  0.74507212447E+02 -0.16114011932E+02  0.12051913283E+03  0.00000000000E+00 0.  1.
         11    1    1    2    0    0 -0.80944807644E+01  0.74827717091E+02  0.12826418440E+00  0.75264362852E+02  0.00000000000E+00 0. -1.
</event>
<event>
 6    1  0.6671761E-006  0.2386779E+03  0.7561462E-02  0.1120677E+00
         -2   -1    0    0    0  501 -0.00000000000E+00  0.00000000000E+00  0.13080567218E+03  0.13080567218E+03  0.00000000000E+00 0.  1.
          2   -1    0    0  501    0  0.00000000000E+00 -0.00000000000E+00 -0.59135402453E+03  0.59135402453E+03  0.00000000000E+00 0. -1.
          5    1    1    2  502    0 -0.15703935542E+02 -0.22356784951E+03 -0.30569124845E+03  0.37906966208E+03  0.41800000000E+01 0. -1.
         -5    1    1    2    0  502 -0.17908462283E+02  0.12188457622E+03  0.13246950612E+02  0.12397385628E+03  0.41800000000E+01 0.  1.
        -11    1    1    2    0    0  0.42835160461E+02  0.19208018872E+02 -0.10448805750E+03  0.11454934797E+03  0.00000000000E+00 0.  1.
         11    1    1    2    0    0 -0.92227626357E+01  0.82475254415E+02 -0.63615996998E+02  0.10456683038E+03  0.00000000000E+00 0. -1.
</event>
<event>
 7    1  0.6671761E-006  0.1275351E+03  0.7561462E-02  0.1231160E+00
          1   -1    0    0  501    0  0.00000000000E+00  0.00000000000E+00  0.15992104597E+03  0.15992104597E+03  0.00000000000E+00 0. -1.
         -1   -1    0    0    0  501 -0.00000000000E+00 -0.00000000000E+00 -0.11241793216E+03  0.11241793216E+03  0.00000000000E+00 0.  1.
         23    2    1    2    0    0 -0.18510755663E+02 -0.73807813070E+02  0.13069155830E+02  0.14706025918E+03  0.12516259685E+03 0.  0.
          5    1    3    3  502    0 -0.41207713944E+02  0.14543589461E+02 -0.22172206562E+02  0.49179984005E+02  0.41800000000E+01 0.  1.
         -5    1    3    3    0  502  0.22696958281E+02 -0.88351402531E+02  0.35241362393E+02  0.97880275172E+02  0.41800000000E+01 0.  1.
        -11    1    1    2    0    0  0.16522888044E+02  0.96082474965E+02  0.23031364919E+02  0.10017630256E+03  0.00000000000E+00 0.  1.
         11    1    1    2    0    0  0.19878676189E+01 -0.22274661895E+02  0.11402593057E+02  0.25102416390E+02  0.00000000000E+00 0. -1.
</event>
<event>
 7    1  0.6671761E-006  0.9545013E+02  0.7561462E-02  0.1290165E+00
          4   -1    0    0  501    0  0.00000000000E+00  0.00000000000E+00  0.41101825917E+03  0.41101825917E+03  0.00000000000E+00 0. -1.
         -4   -1    0    0    0  501 -0.00000000000E+00 -0.00000000000E+00 -0.43540680937E+02  0.43540680937E+02  0.00000000000E+00 0.  1.
         23    2    1    2    0    0 -0.17543035121E+02 -0.33537483197E+02  0.84292437124E+02  0.15551014526E+03  0.12508265053E+03 0.  0.
          5    1    3    3  502    0 -0.60224667030E+02  0.90828276391E+01  0.13706072667E+02  0.62568659126E+02  0.41800000000E+01 0.  1.
         -5    1    3    3    0  502  0.42681631909E+02 -0.42620310836E+02  0.70586364457E+02  0.92941486138E+02  0.41800000000E+01 0.  1.
        -11    1    1    2    0    0  0.26656020742E+02  0.46467516014E+02  0.27688826899E+03  0.28202284835E+03  0.00000000000E+00 0. -1.
         11    1    1    2    0    0 -0.91129856212E+01 -0.12930032817E+02  0.62968721190E+01  0.17025946495E+02  0.00000000000E+00 0.  1.
</event>
<event>
 7    1  0.6671761E-006  0.1075818E+03  0.7561462E-02  0.1265115E+00
          2   -1    0    0  501    0  0.00000000000E+00  0.00000000000E+00  0.32536734037E+03  0.32536734037E+03  0.00000000000E+00 0. -1.
         -2   -1    0    0    0  501 -0.00000000000E+00 -0.00000000000E+00 -0.49946466122E+02  0.49946466122E+02  0.00000000000E+00 0.  1.
         23    2    1    2    0    0 -0.25296485157E+02 -0.48689757396E+02  0.95315403187E+02  0.16656209579E+03  0.12508917232E+03 0.  0.
          5    1    3    3  502    0 -0.52821943229E+02  0.64605041876E+00  0.96285745116E+02  0.10990446843E+03  0.41800000000E+01 0.  1.
         -5    1    3    3    0  502  0.27525458073E+02 -0.49335807815E+02 -0.97034192894E+00  0.56657627362E+02  0.41800000000E+01 0.  1.
        -11    1    1    2    0    0 -0.27583766439E+02 -0.72752894079E+01  0.46916534581E+02  0.54908607922E+02  0.00000000000E+00 0. -1.
         11    1    1    2    0    0  0.52880251595E+02  0.55965046804E+02  0.13318893648E+03  0.15384310278E+03  0.00000000000E+00 0.  1.
</event>
<event>
 7    1  0.6671761E-006  0.7117094E+02  0.7561462E-02  0.1356156E+00
          1   -1    0    0  501    0  0.00000000000E+00  0.00000000000E+00  0.34099317485E+03  0.34099317485E+03  0.00000000000E+00 0. -1.
         -1   -1    0    0    0  501 -0.00000000000E+00 -0.00000000000E+00 -0.39141431990E+02  0.39141431990E+02  0.00000000000E+00 0.  1.
         23    2    1    2    0    0 -0.23014009666E+02 -0.16068552204E+02  0.12650821401E+03  0.18011057687E+03  0.12509056190E+03 0.  0.
          5    1    3    3  502    0  0.11121549369E+02  0.24166916940E+02  0.12424726375E+03  0.12713215047E+03  0.41800000000E+01 0.  1.
         -5    1    3    3    0  502 -0.34135559035E+02 -0.40235469144E+02  0.22609502674E+01  0.52978426402E+02  0.41800000000E+01 0.  1.
        -11    1    1    2    0    0 -0.16250210934E+02  0.16578582570E+02  0.31707841137E+01  0.23430164902E+02  0.00000000000E+00 0.  1.
         11    1    1    2    0    0  0.39264220600E+02 -0.51003036531E+00  0.17217274473E+03  0.17659386506E+03  0.00000000000E+00 0. -1.
</event>
<event>
 7    1  0.6671761E-006  0.7818491E+02  0.7561462E-02  0.1334283E+00
          2   -1    0    0  501    0  0.00000000000E+00  0.00000000000E+00  0.16418845015E+03  0.16418845015E+03  0.00000000000E+00 0. -1.
         -2   -1    0    0    0  501 -0.00000000000E+00 -0.00000000000E+00 -0.72717370253E+02  0.72717370253E+02  0.00000000000E+00 0.  1.
         23    2    1    2    0    0 -0.12411221768E+02  0.11991617748E+02  0.38998616391E+02  0.13215161548E+03  0.12508125388E+03 0.  0.
          5    1    3    3  502    0 -0.96608736604E+01  0.39707618859E+02 -0.34371186916E+02  0.53561911517E+02  0.41800000000E+01 0. -1.
         -5    1    3    3    0  502 -0.27503481076E+01 -0.27716001111E+02  0.73369803306E+02  0.78589703966E+02  0.41800000000E+01 0. -1.
        -11    1    1    2    0    0  0.47961721242E+02  0.40337794459E+01  0.14361245997E+02  0.50227915224E+02  0.00000000000E+00 0.  1.
         11    1    1    2    0    0 -0.35550499475E+02 -0.16025397194E+02  0.38111217510E+02  0.54526289698E+02  0.00000000000E+00 0. -1.
</event>
<event>
 7    1  0.6860390E-006  0.1464632E+03  0.7561462E-02  0.1204888E+00
          1   -1    0    0  501    0  0.00000000000E+00  0.00000000000E+00  0.51449529452E+02  0.51449529452E+02  0.00000000000E+00 0. -1.
         -1   -1    0    0    0  501 -0.00000000000E+00 -0.00000000000E+00 -0.59467195286E+03  0.59467195286E+03  0.00000000000E+00 0.  1.
         23    2    1    2    0    0 -0.11893827509E+03 -0.10784834091E+02 -0.40715184215E+03  0.44236026734E+03  0.12508939854E+03 0.  0.
          5    1    3    3  502    0 -0.80284645640E+02 -0.42713752827E+02 -0.36662359298E+03  0.37775709170E+03  0.41800000000E+01 0. -1.
         -5    1    3    3    0  502 -0.38653629450E+02  0.31928918736E+02 -0.40528249178E+02  0.64603175640E+02  0.41800000000E+01 0. -1.
        -11    1    1    2    0    0  0.47984347787E+01  0.34643566884E+02 -0.28517861854E+02  0.45127266121E+02  0.00000000000E+00 0. -1.
         11    1    1    2    0    0  0.11413984031E+03 -0.23858732793E+02 -0.10755271940E+03  0.15863394885E+03  0.00000000000E+00 0.  1.
</event>
<event>
 7    1  0.6671761E-006  0.1312353E+03  0.7561462E-02  0.1225634E+00
         -2   -1    0    0    0  501 -0.00000000000E+00  0.00000000000E+00  0.58399071602E+02  0.58399071602E+02  0.00000000000E+00 0.  1.
          2   -1    0    0  501    0  0.00000000000E+00 -0.00000000000E+00 -0.43615515320E+03  0.43615515320E+03  0.00000000000E+00 0. -1.
         23    2    1    2    0    0 -0.69778808097E+02  0.86354070400E+02 -0.25477920322E+03  0.30477670256E+03  0.12510111310E+03 0.  0.
          5    1    3    3  502    0 -0.72949162183E+02  0.71688998702E+02 -0.81625671547E+02  0.13092408279E+03  0.41800000000E+01 0. -1.
         -5    1    3    3    0  502  0.31703540861E+01  0.14665071698E+02 -0.17315353167E+03  0.17385261978E+03  0.41800000000E+01 0. -1.
        -11    1    1    2    0    0  0.60102164109E+02 -0.25348587942E+01 -0.50096310555E+02  0.78283689047E+02  0.00000000000E+00 0. -1.
         11    1    1    2    0    0  0.96766439883E+01 -0.83819211606E+02 -0.72880567822E+02  0.11149383319E+03  0.00000000000E+00 0.  1.
</event>
<event>
 7    1  0.6671761E-006  0.1479748E+03  0.7561462E-02  0.1202984E+00
         -2   -1    0    0    0  501 -0.00000000000E+00  0.00000000000E+00  0.28516485963E+03  0.28516485963E+03  0.00000000000E+00 0.  1.
          2   -1    0    0  501    0  0.00000000000E+00 -0.00000000000E+00 -0.83631278230E+02  0.83631278230E+02  0.00000000000E+00 0. -1.
         23    2    1    2    0    0 -0.10798825360E+03  0.95020555853E+01  0.10935468867E+03  0.19839012738E+03  0.12509373578E+03 0.  0.
          5    1    3    3  502    0 -0.10595503274E+03 -0.35273269602E+02  0.10469908455E+03  0.15313406942E+03  0.41800000000E+01 0.  1.
         -5    1    3    3    0  502 -0.20332208640E+01  0.44775325187E+02  0.46556041224E+01  0.45256057964E+02  0.41800000000E+01 0.  1.
        -11    1    1    2    0    0 -0.13218997974E+02 -0.12139356982E+02  0.27926280171E+02  0.33196129587E+02  0.00000000000E+00 0.  1.
         11    1    1    2    0    0  0.12120725158E+03  0.26373013971E+01  0.64252612557E+02  0.13720988089E+03  0.00000000000E+00 0. -1.
</event>
<event>
 7    1  0.6671761E-006  0.1021997E+03  0.7561462E-02  0.1275737E+00
          1   -1    0    0  501    0  0.00000000000E+00  0.00000000000E+00  0.24039480556E+03  0.24039480556E+03  0.00000000000E+00 0. -1.
         -1   -1    0    0    0  501 -0.00000000000E+00 -0.00000000000E+00 -0.62729679880E+02  0.62729679880E+02  0.00000000000E+00 0.  1.
         23    2    1    2    0    0  0.39377777279E+02 -0.41548533235E+02  0.82039582809E+02  0.16017149518E+03  0.12509006660E+03 0.  0.
          5    1    3    3  502    0  0.71229028792E+02  0.17179108397E+01  0.78605846393E+02  0.10617380679E+03  0.41800000000E+01 0.  1.
         -5    1    3    3    0  502 -0.31851251513E+02 -0.43266444075E+02  0.34337364160E+01  0.53997688391E+02  0.41800000000E+01 0.  1.
        -11    1    1    2    0    0 -0.20517018034E+02  0.53165748203E+02  0.14424114587E+02  0.58784350745E+02  0.00000000000E+00 0.  1.
         11    1    1    2    0    0 -0.18860759245E+02 -0.11617214968E+02  0.81201428284E+02  0.84168639518E+02  0.00000000000E+00 0. -1.
</event>
<event>
 7    1  0.6671761E-006  0.9542740E+02  0.7561462E-02  0.1290216E+00
         -2   -1    0    0    0  501 -0.00000000000E+00  0.00000000000E+00  0.52366790550E+03  0.52366790550E+03  0.00000000000E+00 0.  1.
          2   -1    0    0  501    0  0.00000000000E+00 -0.00000000000E+00 -0.61516280272E+02  0.61516280272E+02  0.00000000000E+00 0. -1.
         23    2    1    2    0    0 -0.53190471872E+02  0.34656693219E+02  0.45259156702E+03  0.47383207308E+03  0.12508954496E+03 0.  0.
          5    1    3    3  502    0  0.89102993288E+01  0.14375141208E+02  0.92481757744E+00  0.17446082839E+02  0.41800000000E+01 0.  1.
         -5    1    3    3    0  502 -0.62100771201E+02  0.20281552010E+02  0.45166674945E+03  0.45638599024E+03  0.41800000000E+01 0.  1.
        -11    1    1    2    0    0  0.45978267338E+02 -0.63410964623E+02  0.18320179799E+02  0.80439918509E+02  0.00000000000E+00 0.  1.
         11    1    1    2    0    0  0.72122045336E+01  0.28754271405E+02 -0.87601215991E+01  0.30912194175E+02  0.00000000000E+00 0. -1.
</event>
<event>
 6    1  0.6671761E-006  0.8547870E+02  0.7561462E-02  0.1314185E+00
          2   -1    0    0  501    0  0.00000000000E+00  0.00000000000E+00  0.26590847615E+02  0.26590847615E+02  0.00000000000E+00 0. -1.
         -2   -1    0    0    0  501 -0.00000000000E+00 -0.00000000000E+00 -0.78914536067E+03  0.78914536067E+03  0.00000000000E+00 0.  1.
          5    1    1    2  502    0  0.62524518617E+01 -0.32033475879E-01  0.69990439407E+01  0.10273908531E+02  0.41800000000E+01 0. -1.
         -5    1    1    2    0  502  0.30403828807E+02 -0.46860919178E+02 -0.60778895737E+03  0.61036483160E+03  0.41800000000E+01 0.  1.
        -11    1    1    2    0    0  0.73197324668E+01  0.60845198131E+02 -0.75230805070E+02  0.97032935905E+02  0.00000000000E+00 0. -1.
         11    1    1    2    0    0 -0.43976013135E+02 -0.13952245477E+02 -0.86533794565E+02  0.98064532257E+02  0.00000000000E+00 0.  1.
</event>
<event>
 7    1  0.6671761E-006  0.1020196E+03  0.7561462E-02  0.1276105E+00
          1   -1    0    0  501    0  0.00000000000E+00  0.00000000000E+00  0.61974256143E+03  0.61974256143E+03  0.00000000000E+00 0. -1.
         -1   -1    0    0    0  501 -0.00000000000E+00 -0.00000000000E+00 -0.20935409602E+02  0.20935409602E+02  0.00000000000E+00 0.  1.
         23    2    1    2    0    0 -0.71139713658E+01 -0.26760272588E+02  0.27961175535E+03  0.30756621821E+03  0.12509006384E+03 0.  0.
          5    1    3    3  502    0 -0.49203191114E+02  0.19425596098E+02  0.64495824532E+02  0.83519408413E+02  0.41800000000E+01 0.  1.
         -5    1    3    3    0  502  0.42089219749E+02 -0.46185868686E+02  0.21511593082E+03  0.22404680979E+03  0.41800000000E+01 0.  1.
        -11    1    1    2    0    0 -0.25960234176E+02 -0.18797371193E+02  0.61635870521E+02  0.69471256337E+02  0.00000000000E+00 0. -1.
         11    1    1    2    0    0  0.33074205542E+02  0.45557643781E+02  0.25755952595E+03  0.26364049649E+03  0.00000000000E+00 0.  1.
</event>
<event>
 7    1  0.6671761E-006  0.1215468E+03  0.7561462E-02  0.1240567E+00
          3   -1    0    0  501    0  0.00000000000E+00  0.00000000000E+00  0.20038938865E+03  0.20038938865E+03  0.00000000000E+00 0. -1.
         -3   -1    0    0    0  501 -0.00000000000E+00 -0.00000000000E+00 -0.81785439783E+02  0.81785439783E+02  0.00000000000E+00 0.  1.
         23    2    1    2    0    0 -0.14803840152E+02  0.52342762156E+02  0.35904657751E+02  0.14105285713E+03  0.12509134912E+03 0.  0.
          5    1    3    3  502    0  0.18752011646E+01  0.91347280294E+02  0.36358831198E+02  0.98423975751E+02  0.41800000000E+01 0. -1.
         -5    1    3    3    0  502 -0.16679041317E+02 -0.39004518138E+02 -0.45417344754E+00  0.42628881383E+02  0.41800000000E+01 0. -1.
        -11    1    1    2    0    0  0.54735451207E+02 -0.22617389286E+02  0.23354630775E+02  0.63662820356E+02  0.00000000000E+00 0.  1.
         11    1    1    2    0    0 -0.39931611055E+02 -0.29725372870E+02  0.59344660337E+02  0.77459150940E+02  0.00000000000E+00 0. -1.
</event>
<event>
 6    1  0.6671761E-006  0.1198339E+03  0.7561462E-02  0.1243371E+00
         -2   -1    0    0    0  501 -0.00000000000E+00  0.00000000000E+00  0.65009405278E+02  0.65009405278E+02  0.00000000000E+00 0.  1.
          2   -1    0    0  501    0  0.00000000000E+00 -0.00000000000E+00 -0.70692877716E+03  0.70692877716E+03  0.00000000000E+00 0. -1.
          5    1    1    2  502    0  0.35950616143E+02 -0.14552816797E+02 -0.72738867286E+02  0.82538757514E+02  0.41800000000E+01 0. -1.
         -5    1    1    2    0  502 -0.35719356363E+02 -0.70234808712E+02  0.24673873401E+02  0.82674501525E+02  0.41800000000E+01 0.  1.
        -11    1    1    2    0    0  0.43224581763E+02  0.34615396693E+02 -0.21025066916E+03  0.21742109842E+03  0.00000000000E+00 0.  1.
         11    1    1    2    0    0 -0.43455841543E+02  0.50172228815E+02 -0.38360370883E+03  0.38930382497E+03  0.00000000000E+00 0. -1.
</event>
<event>
 7    1  0.6671761E-006  0.1206348E+03  0.7561462E-02  0.1242054E+00
         -2   -1    0    0    0  501 -0.00000000000E+00  0.00000000000E+00  0.33160550380E+02  0.33160550380E+02  0.00000000000E+00 0.  1.
          2   -1    0    0  501    0  0.00000000000E+00 -0.00000000000E+00 -0.49884845116E+03  0.49884845116E+03  0.00000000000E+00 0. -1.
         23    2    1    2    0    0 -0.49578742096E+02 -0.42522461598E+02 -0.17939119791E+03  0.22460094307E+03  0.11831386365E+03 0.  0.
          5    1    3    3  502    0 -0.86934163938E+02 -0.20016451204E+02 -0.10118740607E+03  0.13496136753E+03  0.41800000000E+01 0. -1.
         -5    1    3    3    0  502  0.37355421842E+02 -0.22506010393E+02 -0.78203791841E+02  0.89639575540E+02  0.41800000000E+01 0.  1.
        -11    1    1    2    0    0 -0.89104865505E+01 -0.20389294453E+02 -0.31851372855E+02  0.38853957992E+02  0.00000000000E+00 0. -1.
         11    1    1    2    0    0  0.58489228646E+02  0.62911756051E+02 -0.25444533002E+03  0.26855410048E+03  0.00000000000E+00 0.  1.
</event>
<event>
 7    1  0.6671761E-006  0.1248704E+03  0.7561462E-02  0.1235272E+00
         -2   -1    0    0    0  501 -0.00000000000E+00  0.00000000000E+00  0.33134568186E+03  0.33134568186E+03  0.00000000000E+00 0.  1.
          2   -1    0    0  501    0  0.00000000000E+00 -0.00000000000E+00 -0.56305744468E+02  0.56305744468E+02  0.00000000000E+00 0. -1.
         23    2    1    2    0    0 -0.34311502273E+02 -0.55521241759E+02  0.22439170189E+03  0.26506564024E+03  0.12509304651E+03 0.  0.
          5    1    3    3  502    0  0.24733795169E+02  0.26946013627E+02  0.84982180166E+02  0.92613668643E+02  0.41800000000E+01 0.  1.
         -5    1    3    3    0  502 -0.59045297442E+02 -0.82467255386E+02  0.13940952172E+03  0.17245197160E+03  0.41800000000E+01 0.  1.
        -11    1    1    2    0    0  0.50536997774E+02  0.72210133212E+02  0.43134200261E+02  0.98126707449E+02  0.00000000000E+00 0. -1.
         11    1    1    2    0    0 -0.16225495501E+02 -0.16688891454E+02  0.75140352454E+01  0.24459078639E+02  0.00000000000E+00 0.  1.
</event>
<event>
 7    1  0.6671761E-006  0.1294326E+03  0.7561462E-02  0.1228300E+00
          1   -1    0    0  501    0  0.00000000000E+00  0.00000000000E+00  0.99763863188E+02  0.99763863188E+02  0.00000000000E+00 0.  1.
         -1   -1    0    0    0  501 -0.00000000000E+00 -0.00000000000E+00 -0.21533423680E+03  0.21533423680E+03  0.00000000000E+00 0. -1.
         23    2    1    2    0    0  0.50685423107E+02  0.71439645929E+02 -0.10839715051E+03  0.18727261586E+03  0.12509378596E+03 0.  0.
          5    1    3    3  502    0  0.21699734829E+02  0.10464110148E+03 -0.88131235892E+02  0.13858292012E+03  0.41800000000E+01 0. -1.
         -5    1    3    3    0  502  0.28985688277E+02 -0.33201455548E+02 -0.20265914613E+02  0.48689695732E+02  0.41800000000E+01 0. -1.
        -11    1    1    2    0    0  0.13281205679E+02 -0.25953071082E+02 -0.34082374553E+02  0.44850424502E+02  0.00000000000E+00 0. -1.
         11    1    1    2    0    0 -0.63966628785E+02 -0.45486574847E+02  0.26909151444E+02  0.82975059632E+02  0.00000000000E+00 0.  1.
</event>
<event>
 7    1  0.6671761E-006  0.1389137E+03  0.7561462E-02  0.1214798E+00
          1   -1    0    0  501    0  0.00000000000E+00  0.00000000000E+00  0.96453145097E+03  0.96453145097E+03  0.00000000000E+00 0. -1.
         -1   -1    0    0    0  501 -0.00000000000E+00 -0.00000000000E+00 -0.27603057929E+02  0.27603057929E+02  0.00000000000E+00 0.  1.
         23    2    1    2    0    0  0.12826329408E+02  0.10185327773E+03  0.69682069645E+03  0.71536128207E+03  0.12507628062E+03 0.  0.
          5    1    3    3  502    0 -0.25463693022E+02 -0.53738453344E+01  0.33477652948E+03  0.33581255927E+03  0.41800000000E+01 0. -1.
         -5    1    3    3    0  502  0.38290022430E+02  0.10722712306E+03  0.36204416697E+03  0.37954872279E+03  0.41800000000E+01 0. -1.
        -11    1    1    2    0    0 -0.50536155008E+02 -0.37439507090E+02  0.11583968053E+03  0.13181218168E+03  0.00000000000E+00 0.  1.
         11    1    1    2    0    0  0.37709825600E+02 -0.64413770640E+02  0.12426801606E+03  0.14496104515E+03  0.00000000000E+00 0. -1.
</event>
<event>
 7    1  0.6671761E-006  0.1148348E+03  0.7561462E-02  0.1251870E+00
          1   -1    0    0  501    0  0.00000000000E+00  0.00000000000E+00  0.29587559303E+03  0.29587559303E+03  0.00000000000E+00 0. -1.
         -1   -1    0    0    0  501 -0.00000000000E+00 -0.00000000000E+00 -0.90486260027E+02  0.90486260027E+02  0.00000000000E+00 0.  1.
         23    2    1    2    0    0  0.63316995895E+02 -0.19766134995E+01 -0.12848100269E+02  0.14080250826E+03  0.12508926286E+03 0.  0.
          5    1    3    3  502    0  0.32631540895E+02  0.56060155548E+02  0.18994081196E+02  0.67718579590E+02  0.41800000000E+01 0. -1.
         -5    1    3    3    0  502  0.30685455000E+02 -0.58036769047E+02 -0.31842181465E+02  0.73083928674E+02  0.41800000000E+01 0. -1.
        -11    1    1    2    0    0  0.51781370262E+01 -0.24806698785E+02  0.12108802783E+03  0.12371134100E+03  0.00000000000E+00 0.  1.
         11    1    1    2    0    0 -0.68495132921E+02  0.26783312285E+02  0.97149405443E+02  0.12184800380E+03  0.00000000000E+00 0. -1.
</event>
<event>
 7    1  0.6671761E-006  0.1019789E+03  0.7561462E-02  0.1276189E+00
         -2   -1    0    0    0  501 -0.00000000000E+00  0.00000000000E+00  0.11623322270E+04  0.11623322270E+04  0.00000000000E+00 0.  1.
          2   -1    0    0  501    0  0.00000000000E+00 -0.00000000000E+00 -0.22675325286E+02  0.22675325286E+02  0.00000000000E+00 0. -1.
         23    2    1    2    0    0  0.67944064373E+02  0.23191636259E+02  0.96368464823E+03  0.97441829221E+03  0.12509460060E+03 0.  0.
          5    1    3    3  502    0  0.75661391319E+02  0.26485111995E+02  0.29667757332E+03  0.30734534681E+03  0.41800000000E+01 0. -1.
         -5    1    3    3    0  502 -0.77173269460E+01 -0.32934757359E+01  0.66700707491E+03  0.66707294541E+03  0.41800000000E+01 0. -1.
        -11    1    1    2    0    0 -0.59883700745E+02 -0.55115157757E+02  0.10975443057E+03  0.13663737870E+03  0.00000000000E+00 0. -1.
         11    1    1    2    0    0 -0.80603636277E+01  0.31923521498E+02  0.66217822965E+02  0.73951881416E+02  0.00000000000E+00 0.  1.
</event>
<event>
 7    1  0.7667427E-006  0.1015190E+03  0.7561462E-02  0.1277134E+00
          1   -1    0    0  501    0  0.00000000000E+00  0.00000000000E+00  0.25104079112E+03  0.25104079112E+03  0.00000000000E+00 0. -1.
         -1   -1    0    0    0  501 -0.00000000000E+00 -0.00000000000E+00 -0.56182378390E+02  0.56182378390E+02  0.00000000000E+00 0.  1.
         23    2    1    2    0    0 -0.43175399179E+02  0.19501938906E+02  0.10337593524E+03  0.16905143033E+03  0.12508941359E+03 0.  0.
          5    1    3    3  502    0  0.40822851769E+02  0.15273842468E+02  0.13340964103E+02  0.45773892270E+02  0.41800000000E+01 0.  1.
         -5    1    3    3    0  502 -0.83998250948E+02  0.42280964372E+01  0.90034971135E+02  0.12327753806E+03  0.41800000000E+01 0.  1.
        -11    1    1    2    0    0 -0.59808130972E+01 -0.24884422567E+02 -0.82192634379E+01  0.26880492987E+02  0.00000000000E+00 0.  1.
         11    1    1    2    0    0  0.49156212277E+02  0.53824836611E+01  0.99701740932E+02  0.11129124620E+03  0.00000000000E+00 0. -1.
</event>
<event>
 7    1  0.6671761E-006  0.2796863E+03  0.7561462E-02  0.1095860E+00
         -1   -1    0    0    0  501 -0.00000000000E+00  0.00000000000E+00  0.23119214052E+03  0.23119214052E+03  0.00000000000E+00 0. -1.
          1   -1    0    0  501    0  0.00000000000E+00 -0.00000000000E+00 -0.40079384210E+03  0.40079384210E+03  0.00000000000E+00 0.  1.
         23    2    1    2    0    0  0.27190203242E+03 -0.43819301442E+02 -0.13767904204E+02  0.30279801898E+03  0.12508492596E+03 0.  0.
          5    1    3    3  502    0  0.19946842697E+03 -0.27291246249E+01 -0.58824581568E+02  0.20802140581E+03  0.41800000000E+01 0.  1.
         -5    1    3    3    0  502  0.72433605449E+02 -0.41090176817E+02  0.45056677364E+02  0.94776613172E+02  0.41800000000E+01 0.  1.
        -11    1    1    2    0    0 -0.18516451770E+02  0.93417918166E+01 -0.46806230829E+02  0.51195227365E+02  0.00000000000E+00 0.  1.
         11    1    1    2    0    0 -0.25338558065E+03  0.34477509625E+02 -0.10902756655E+03  0.27799273627E+03  0.00000000000E+00 0. -1.
</event>
<event>
 7    1  0.6671761E-006  0.1286108E+03  0.7561462E-02  0.1229532E+00
          2   -1    0    0  501    0  0.00000000000E+00  0.00000000000E+00  0.70554237120E+02  0.70554237120E+02  0.00000000000E+00 0. -1.
         -2   -1    0    0    0  501 -0.00000000000E+00 -0.00000000000E+00 -0.27664184927E+03  0.27664184927E+03  0.00000000000E+00 0.  1.
         23    2    1    2    0    0 -0.39620002229E+02  0.76929220380E+02 -0.93413257441E+02  0.17849112779E+03  0.12508075995E+03 0.  0.
          5    1    3    3  502    0  0.37994632479E+02  0.50288899339E+02 -0.67242274965E+02  0.92258123959E+02  0.41800000000E+01 0. -1.
         -5    1    3    3    0  502 -0.77614634708E+02  0.26640321041E+02 -0.26170982477E+02  0.86233003832E+02  0.41800000000E+01 0. -1.
        -11    1    1    2    0    0 -0.17109066408E+02 -0.41795028861E+02 -0.10004470120E+02  0.46256178108E+02  0.00000000000E+00 0. -1.
         11    1    1    2    0    0  0.56729068637E+02 -0.35134191519E+02 -0.10266988459E+03  0.12244878049E+03  0.00000000000E+00 0.  1.
</event>
<event>
 7    1  0.6671761E-006  0.9439809E+02  0.7561462E-02  0.1292538E+00
         -1   -1    0    0    0  501 -0.00000000000E+00  0.00000000000E+00  0.70988973454E+02  0.70988973454E+02  0.00000000000E+00 0.  1.
          1   -1    0    0  501    0  0.00000000000E+00 -0.00000000000E+00 -0.21883537931E+03  0.21883537931E+03  0.00000000000E+00 0. -1.
         23    2    1    2    0    0 -0.14644837346E+02 -0.48960800153E+02 -0.42611435523E+02  0.14168649565E+03  0.12509075665E+03 0.  0.
          5    1    3    3  502    0  0.27342238665E+02 -0.81509283470E+01  0.34378482900E+02  0.44870793782E+02  0.41800000000E+01 0.  1.
         -5    1    3    3    0  502 -0.41987076012E+02 -0.40809871806E+02 -0.76989918422E+02  0.96815701865E+02  0.41800000000E+01 0.  1.
        -11    1    1    2    0    0 -0.13207080666E+02  0.66859725864E+02 -0.53173957558E+02  0.86441423430E+02  0.00000000000E+00 0.  1.
         11    1    1    2    0    0  0.27851918013E+02 -0.17898925711E+02 -0.52061012775E+02  0.61696433687E+02  0.00000000000E+00 0. -1.
</event>
<event>
 7    1  0.6671761E-006  0.8640740E+02  0.7561462E-02  0.1311793E+00
         -1   -1    0    0    0  501 -0.00000000000E+00  0.00000000000E+00  0.11765023312E+03  0.11765023312E+03  0.00000000000E+00 0.  1.
          1   -1    0    0  501    0  0.00000000000E+00 -0.00000000000E+00 -0.18293869875E+03  0.18293869875E+03  0.00000000000E+00 0. -1.
         23    2    1    2    0    0 -0.65052712207E+01 -0.38871383305E+02  0.61265409552E+02  0.14257307736E+03  0.12255745178E+03 0.  0.
          5    1    3    3  502    0  0.14253991113E+02 -0.62092963114E+02 -0.10058348294E+02  0.64632461668E+02  0.41800000000E+01 0. -1.
         -5    1    3    3    0  502 -0.20759262334E+02  0.23221579809E+02  0.71323757847E+02  0.77940615695E+02  0.41800000000E+01 0.  1.
        -11    1    1    2    0    0  0.35398950069E+02  0.10203308077E+02 -0.10639918102E+03  0.11259653140E+03  0.00000000000E+00 0. -1.
         11    1    1    2    0    0 -0.28893678849E+02  0.28668075228E+02 -0.20154694162E+02  0.45419323107E+02  0.00000000000E+00 0.  1.
</event>
<event>
 7    1  0.6671761E-006  0.1074965E+03  0.7561462E-02  0.1265278E+00
          2   -1    0    0  501    0  0.00000000000E+00  0.00000000000E+00  0.21282170737E+03  0.21282170737E+03  0.00000000000E+00 0. -1.
         -2   -1    0    0    0  501 -0.00000000000E+00 -0.00000000000E+00 -0.61526125841E+02  0.61526125841E+02  0.00000000000E+00 0.  1.
         23    2    1    2    0    0 -0.18449406209E+02 -0.19579775164E+02  0.92969934163E+02  0.15815795141E+03  0.12508709267E+03 0.  0.
          5    1    3    3  502    0 -0.71769897033E+02 -0.16615795745E+02  0.61316052377E+02  0.95938175235E+02  0.41800000000E+01 0.  1.
         -5    1    3    3    0  502  0.53320490823E+02 -0.29639794189E+01  0.31653881786E+02  0.62219776179E+02  0.41800000000E+01 0.  1.
        -11    1    1    2    0    0  0.46413284738E+02 -0.94139824979E+01  0.26000107287E+01  0.47429696630E+02  0.00000000000E+00 0.  1.
         11    1    1    2    0    0 -0.27963878529E+02  0.28993757662E+02  0.55725636642E+02  0.68760185172E+02  0.00000000000E+00 0. -1.
</event>
<event>
 7    1  0.6671761E-006  0.1025602E+03  0.7561462E-02  0.1275003E+00
          2   -1    0    0  501    0  0.00000000000E+00  0.00000000000E+00  0.42981093271E+03  0.42981093271E+03  0.00000000000E+00 0. -1.
         -2   -1    0    0    0  501 -0.00000000000E+00 -0.00000000000E+00 -0.27719862451E+02  0.27719862451E+02  0.00000000000E+00 0.  1.
         23    2    1    2    0    0  0.17233147440E+01  0.10083976374E+02  0.21478194912E+03  0.24876211542E+03  0.12508656205E+03 0.  0.
          5    1    3    3  502    0 -0.23217015731E+02  0.57480781239E+02  0.66314503311E+02  0.90874395628E+02  0.41800000000E+01 0. -1.
         -5    1    3    3    0  502  0.24940330475E+02 -0.47396804865E+02  0.14846744581E+03  0.15788771979E+03  0.41800000000E+01 0. -1.
        -11    1    1    2    0    0  0.38767304213E+02  0.15075559373E+02  0.61639672585E+02  0.74361452398E+02  0.00000000000E+00 0. -1.
         11    1    1    2    0    0 -0.40490618957E+02 -0.25159535747E+02  0.12566944855E+03  0.13440722734E+03  0.00000000000E+00 0.  1.
</event>
<event>
 7    1  0.6671761E-006  0.9343936E+02  0.7561462E-02  0.1294730E+00
         -2   -1    0    0    0  501 -0.00000000000E+00  0.00000000000E+00  0.73500893164E+02  0.73500893164E+02  0.00000000000E+00 0.  1.
          2   -1    0    0  501    0  0.00000000000E+00 -0.00000000000E+00 -0.19199328353E+03  0.19199328353E+03  0.00000000000E+00 0. -1.
         23    2    1    2    0    0 -0.18045111084E+02  0.45875042658E+02 -0.59570800388E+02  0.14705534423E+03  0.12508576431E+03 0.  0.
          5    1    3    3  502    0 -0.43380262304E+02  0.37992636372E+02  0.21473767172E+02  0.61675624461E+02  0.41800000000E+01 0. -1.
         -5    1    3    3    0  502  0.25335151220E+02  0.78824062859E+01 -0.81044567561E+02  0.85379719766E+02  0.41800000000E+01 0. -1.
        -11    1    1    2    0    0  0.54383784579E+02 -0.21683477186E+02 -0.27705898858E+02  0.64771799724E+02  0.00000000000E+00 0.  1.
         11    1    1    2    0    0 -0.36338673495E+02 -0.24191565472E+02 -0.31215691118E+02  0.53667032742E+02  0.00000000000E+00 0. -1.
</event>
<event>
 7    1  0.6671761E-006  0.1053880E+03  0.7561462E-02  0.1269357E+00
          1   -1    0    0  501    0  0.00000000000E+00  0.00000000000E+00  0.70232318127E+02  0.70232318127E+02  0.00000000000E+00 0. -1.
         -1   -1    0    0    0  501 -0.00000000000E+00 -0.00000000000E+00 -0.22570859045E+03  0.22570859045E+03  0.00000000000E+00 0.  1.
         23    2    1    2    0    0 -0.23926743296E+02  0.38778578670E+02 -0.13876994216E+03  0.19231253463E+03  0.12510294528E+03 0.  0.
          5    1    3    3  502    0  0.25401032304E+02  0.51904619590E+02 -0.17265835427E+02  0.60455632077E+02  0.41800000000E+01 0. -1.
         -5    1    3    3    0  502 -0.49327775600E+02 -0.13126040920E+02 -0.12150410674E+03  0.13185690255E+03  0.41800000000E+01 0. -1.
        -11    1    1    2    0    0 -0.29238050175E+02 -0.38643582170E+02 -0.13796396119E+02  0.50383832395E+02  0.00000000000E+00 0. -1.
         11    1    1    2    0    0  0.53164793471E+02 -0.13499650000E+00 -0.29099340360E+01  0.53244541551E+02  0.00000000000E+00 0.  1.
</event>
<event>
 7    1  0.6671761E-006  0.1324708E+03  0.7561462E-02  0.1223835E+00
         -2   -1    0    0    0  501 -0.00000000000E+00  0.00000000000E+00  0.11095830367E+03  0.11095830367E+03  0.00000000000E+00 0.  1.
          2   -1    0    0  501    0  0.00000000000E+00 -0.00000000000E+00 -0.32520666327E+03  0.32520666327E+03  0.00000000000E+00 0. -1.
         23    2    1    2    0    0 -0.64659805312E+02 -0.88561716581E+02  0.14068823870E+02  0.16694623117E+03  0.12509613995E+03 0.  0.
          5    1    3    3  502    0 -0.14540201143E+01 -0.78688712500E+02  0.50116535773E+02  0.93397897232E+02  0.41800000000E+01 0. -1.
         -5    1    3    3    0  502 -0.63205785197E+02 -0.98730040810E+01 -0.36047711904E+02  0.73548333941E+02  0.41800000000E+01 0. -1.
        -11    1    1    2    0    0  0.12438086211E+02  0.62369861934E+02 -0.18738807839E+03  0.19788632492E+03  0.00000000000E+00 0. -1.
         11    1    1    2    0    0  0.52221719101E+02  0.26191854648E+02 -0.40929105068E+02  0.71332410848E+02  0.00000000000E+00 0.  1.
</event>
<event>
 7    1  0.6671761E-006  0.1492794E+03  0.7561462E-02  0.1201361E+00
         -2   -1    0    0    0  501 -0.00000000000E+00  0.00000000000E+00  0.12454831358E+04  0.12454831358E+04  0.00000000000E+00 0.  1.
          2   -1    0    0  501    0  0.00000000000E+00 -0.00000000000E+00 -0.19272222856E+02  0.19272222856E+02  0.00000000000E+00 0. -1.
         23    2    1    2    0    0 -0.16478151562E+02  0.10745746729E+03  0.76556313099E+03  0.78329626880E+03  0.12508996933E+03 0.  0.
          5    1    3    3  502    0  0.40068760269E+02 -0.20390989827E+01  0.24716634698E+03  0.25043629720E+03  0.41800000000E+01 0.  1.
         -5    1    3    3    0  502 -0.56546911830E+02  0.10949656628E+03  0.51839678401E+03  0.53285997160E+03  0.41800000000E+01 0.  1.
        -11    1    1    2    0    0  0.46731154462E+02 -0.85825661100E+02  0.26816021012E+03  0.28541153304E+03  0.00000000000E+00 0. -1.
         11    1    1    2    0    0 -0.30253002901E+02 -0.21631806195E+02  0.19248757185E+03  0.19604755684E+03  0.00000000000E+00 0.  1.
</event>
<event>
 7    1  0.6671761E-006  0.7264154E+02  0.7561462E-02  0.1351334E+00
          4   -1    0    0  501    0  0.00000000000E+00  0.00000000000E+00  0.66640014794E+02  0.66640014794E+02  0.00000000000E+00 0.  1.
         -4   -1    0    0    0  501 -0.00000000000E+00 -0.00000000000E+00 -0.19250270268E+03  0.19250270268E+03  0.00000000000E+00 0. -1.
         23    2    1    2    0    0  0.33400837962E+01 -0.20989789249E+02 -0.10234528545E+03  0.16301508971E+03  0.12509050567E+03 0.  0.
          5    1    3    3  502    0  0.38495592906E+02 -0.28294500978E+02 -0.11509244990E+03  0.12468453746E+03  0.41800000000E+01 0.  1.
         -5    1    3    3    0  502 -0.35155509109E+02  0.73047117284E+01  0.12747164453E+02  0.38330552250E+02  0.41800000000E+01 0.  1.
        -11    1    1    2    0    0 -0.11992187709E+02 -0.17783641384E+02  0.25312670042E+02  0.33178332261E+02  0.00000000000E+00 0.  1.
         11    1    1    2    0    0  0.86521039132E+01  0.38773430633E+02 -0.48830072482E+02  0.62949295498E+02  0.00000000000E+00 0. -1.
</event>
<event>
 7    1  0.6671761E-006  0.7619433E+02  0.7561462E-02  0.1340212E+00
          1   -1    0    0  501    0  0.00000000000E+00  0.00000000000E+00  0.41270744370E+03  0.41270744370E+03  0.00000000000E+00 0. -1.
         -1   -1    0    0    0  501 -0.00000000000E+00 -0.00000000000E+00 -0.30111136094E+02  0.30111136094E+02  0.00000000000E+00 0.  1.
         23    2    1    2    0    0  0.93659191019E+01 -0.13667526155E+02  0.22535122597E+03  0.25827507136E+03  0.12509322815E+03 0.  0.
          5    1    3    3  502    0 -0.20489309854E+02 -0.15159378292E+02 -0.46999767159E+01  0.26252252277E+02  0.41800000000E+01 0.  1.
         -5    1    3    3    0  502  0.29855228956E+02  0.14918521368E+01  0.23005120268E+03  0.23202281908E+03  0.41800000000E+01 0.  1.
        -11    1    1    2    0    0 -0.36075906825E+02  0.43382236624E+02  0.98076101067E+02  0.11314774018E+03  0.00000000000E+00 0. -1.
         11    1    1    2    0    0  0.26709987723E+02 -0.29714710468E+02  0.59168980568E+02  0.71395768248E+02  0.00000000000E+00 0.  1.
</event>
<event>
 7    1  0.6671761E-006  0.9676486E+02  0.7561462E-02  0.1287250E+00
          2   -1    0    0  501    0  0.00000000000E+00  0.00000000000E+00  0.40759388615E+03  0.40759388615E+03  0.00000000000E+00 0. -1.
         -2   -1    0    0    0  501 -0.00000000000E+00 -0.00000000000E+00 -0.37571439611E+02  0.37571439611E+02  0.00000000000E+00 0.  1.
         23    2    1    2    0    0  0.10628785173E+02 -0.61938814041E+02  0.18630268869E+03  0.23303396519E+03  0.12508696719E+03 0.  0.
          5    1    3    3  502    0  0.33948355973E+02 -0.86819684712E+02  0.17227567947E+03  0.19592480870E+03  0.41800000000E+01 0.  1.
         -5    1    3    3    0  502 -0.23319570800E+02  0.24880870672E+02  0.14027009217E+02  0.37109156488E+02  0.41800000000E+01 0.  1.
        -11    1    1    2    0    0  0.55851548133E+01  0.10069839628E+02 -0.72315922171E+01  0.13597483239E+02  0.00000000000E+00 0.  1.
         11    1    1    2    0    0 -0.16213939986E+02  0.51868974412E+02  0.19095135007E+03  0.19853387734E+03  0.00000000000E+00 0. -1.
</event>
<event>
 7    1  0.6671761E-006  0.1333297E+03  0.7561462E-02  0.1222597E+00
         -1   -1    0    0    0  501 -0.00000000000E+00  0.00000000000E+00  0.10741397266E+03  0.10741397266E+03  0.00000000000E+00 0.  1.
          1   -1    0    0  501    0  0.00000000000E+00 -0.00000000000E+00 -0.19344546156E+03  0.19344546156E+03  0.00000000000E+00 0. -1.
         23    2    1    2    0    0 -0.39479485204E+02  0.78744425599E+02 -0.12012775860E+02  0.15346347892E+03  0.12508964092E+03 0.  0.
          5    1    3    3  502    0 -0.10694544096E+01 -0.32605753738E+02 -0.13597459501E+02  0.35589917314E+02  0.41800000000E+01 0.  1.
         -5    1    3    3    0  502 -0.38410030795E+02  0.11135017934E+03  0.15846836404E+01  0.11787356161E+03  0.41800000000E+01 0.  1.
        -11    1    1    2    0    0 -0.22459175760E+02 -0.27584481364E+02  0.35196332065E+01  0.35745013720E+02  0.00000000000E+00 0.  1.
         11    1    1    2    0    0  0.61938660964E+02 -0.51159944235E+02 -0.77538346244E+02  0.11165094157E+03  0.00000000000E+00 0. -1.
</event>
<event>
 7    1  0.6671761E-006  0.2225904E+03  0.7561462E-02  0.1131966E+00
         -2   -1    0    0    0  501 -0.00000000000E+00  0.00000000000E+00  0.18871309982E+03  0.18871309982E+03  0.00000000000E+00 0.  1.
          2   -1    0    0  501    0  0.00000000000E+00 -0.00000000000E+00 -0.28626957259E+03  0.28626957259E+03  0.00000000000E+00 0. -1.
         23    2    1    2    0    0 -0.11607858421E+03 -0.15985209739E+03 -0.10547333865E+03  0.25461429548E+03  0.12114818837E+03 0.  0.
          5    1    3    3  502    0 -0.87678260184E+02 -0.21628465544E+02 -0.36510488491E+02  0.97497466636E+02  0.41800000000E+01 0. -1.
         -5    1    3    3    0  502 -0.28400324030E+02 -0.13822363184E+03 -0.68962850159E+02  0.15711682885E+03  0.41800000000E+01 0.  1.
        -11    1    1    2    0    0  0.11428707005E+03  0.94688703810E+02  0.30236407963E+02  0.15146526129E+03  0.00000000000E+00 0.  1.
         11    1    1    2    0    0  0.17915141602E+01  0.65163393577E+02 -0.22319542087E+02  0.68903115637E+02  0.00000000000E+00 0. -1.
</event>
<event>
 7    1  0.6671761E-006  0.2614919E+03  0.7561462E-02  0.1106250E+00
          1   -1    0    0  501    0  0.00000000000E+00  0.00000000000E+00  0.67265358549E+03  0.67265358549E+03  0.00000000000E+00 0. -1.
         -1   -1    0    0    0  501 -0.00000000000E+00 -0.00000000000E+00 -0.12362752934E+03  0.12362752934E+03  0.00000000000E+00 0.  1.
         23    2    1    2    0    0 -0.22199399200E+03 -0.10146867319E+03  0.13137481088E+03  0.30411002023E+03  0.12508532827E+03 0.  0.
          5    1    3    3  502    0 -0.29640357128E+02 -0.70621935531E+02  0.18429992114E+02  0.78886916267E+02  0.41800000000E+01 0.  1.
         -5    1    3    3    0  502 -0.19235363487E+03 -0.30846737660E+02  0.11294481876E+03  0.22522310396E+03  0.41800000000E+01 0.  1.
        -11    1    1    2    0    0  0.13318133535E+03  0.92514118068E+02  0.20383583225E+03  0.26047106679E+03  0.00000000000E+00 0.  1.
         11    1    1    2    0    0  0.88812656648E+02  0.89545551224E+01  0.21381541303E+03  0.23170002781E+03  0.00000000000E+00 0. -1.
</event>
<event>
 7    1  0.6671761E-006  0.1506944E+03  0.7561462E-02  0.1199622E+00
         -2   -1    0    0    0  501 -0.00000000000E+00  0.00000000000E+00  0.50041888374E+02  0.50041888374E+02  0.00000000000E+00 0.  1.
          2   -1    0    0  501    0  0.00000000000E+00 -0.00000000000E+00 -0.61559154278E+03  0.61559154278E+03  0.00000000000E+00 0. -1.
         23    2    1    2    0    0  0.87360339133E+02  0.10414061825E+03 -0.25182885671E+03  0.31231778557E+03  0.12509008310E+03 0.  0.
          5    1    3    3  502    0  0.42347302695E+00 -0.10873313220E+02  0.86878825609E+01  0.14538224554E+02  0.41800000000E+01 0. -1.
         -5    1    3    3    0  502  0.86936866106E+02  0.11501393147E+03 -0.26051673927E+03  0.29777956102E+03  0.41800000000E+01 0. -1.
        -11    1    1    2    0    0 -0.16897662457E+02 -0.60037715577E+02 -0.60867856015E+02  0.87149034327E+02  0.00000000000E+00 0.  1.
         11    1    1    2    0    0 -0.70462676677E+02 -0.44102902675E+02 -0.25285294168E+03  0.26616661125E+03  0.00000000000E+00 0. -1.
</event>
<event>
 7    1  0.6671761E-006  0.1983841E+03  0.7561462E-02  0.1151110E+00
          1   -1    0    0  501    0  0.00000000000E+00  0.00000000000E+00  0.85636950634E+03  0.85636950634E+03  0.00000000000E+00 0. -1.
         -1   -1    0    0    0  501 -0.00000000000E+00 -0.00000000000E+00 -0.71022350532E+02  0.71022350532E+02  0.00000000000E+00 0.  1.
         23    2    1    2    0    0  0.18507985225E+03 -0.43275344529E+02  0.19195721957E+03  0.29769560560E+03  0.12509113596E+03 0.  0.
          5    1    3    3  502    0  0.33268780425E+02  0.90090146370E+01 -0.13199761271E+02  0.37144046539E+02  0.41800000000E+01 0. -1.
         -5    1    3    3    0  502  0.15181107182E+03 -0.52284359166E+02  0.20515698084E+03  0.26055155906E+03  0.41800000000E+01 0. -1.
        -11    1    1    2    0    0 -0.10215330844E+03 -0.10351515909E+02  0.20951116684E+03  0.23331819761E+03  0.00000000000E+00 0.  1.
         11    1    1    2    0    0 -0.82926543805E+02  0.53626860438E+02  0.38387876940E+03  0.39637805366E+03  0.00000000000E+00 0. -1.
</event>
<event>
 7    1  0.6671761E-006  0.3356928E+03  0.7561462E-02  0.1068645E+00
         -2   -1    0    0    0  501 -0.00000000000E+00  0.00000000000E+00  0.68771622463E+02  0.68771622463E+02  0.00000000000E+00 0. -1.
          2   -1    0    0  501    0  0.00000000000E+00 -0.00000000000E+00 -0.18604290534E+04  0.18604290534E+04  0.00000000000E+00 0.  1.
         23    2    1    2    0    0 -0.21687431817E+03 -0.24383172027E+03 -0.64802317089E+03  0.73625477095E+03  0.12509468427E+03 0.  0.
          5    1    3    3  502    0 -0.56051107536E+02 -0.14583067105E+03 -0.23401895531E+03  0.28140834231E+03  0.41800000000E+01 0. -1.
         -5    1    3    3    0  502 -0.16082321063E+03 -0.98001049226E+02 -0.41400421558E+03  0.45484642864E+03  0.41800000000E+01 0. -1.
        -11    1    1    2    0    0  0.14882328000E+03  0.17828821577E+03 -0.94302067664E+03  0.97119671186E+03  0.00000000000E+00 0.  1.
         11    1    1    2    0    0  0.68051038161E+02  0.65543504509E+02 -0.20061358344E+03  0.22174919309E+03  0.00000000000E+00 0. -1.
</event>
<event>
 7    1  0.6671761E-006  0.1197076E+03  0.7561462E-02  0.1243580E+00
         -1   -1    0    0    0  501 -0.00000000000E+00  0.00000000000E+00  0.59319257969E+02  0.59319257969E+02  0.00000000000E+00 0.  1.
          1   -1    0    0  501    0  0.00000000000E+00 -0.00000000000E+00 -0.24853681015E+03  0.24853681015E+03  0.00000000000E+00 0. -1.
         23    2    1    2    0    0  0.44657625961E+02  0.30544483758E+02 -0.11822876326E+03  0.18042610732E+03  0.12509304815E+03 0.  0.
          5    1    3    3  502    0  0.15461490042E+02 -0.48849725950E+02 -0.49292249041E+02  0.71221847879E+02  0.41800000000E+01 0. -1.
         -5    1    3    3    0  502  0.29196135918E+02  0.79394209708E+02 -0.68936514216E+02  0.10920425944E+03  0.41800000000E+01 0. -1.
        -11    1    1    2    0    0 -0.29647927549E+02 -0.61852593524E+02 -0.33505867976E+02  0.76337318020E+02  0.00000000000E+00 0. -1.
         11    1    1    2    0    0 -0.15009698412E+02  0.31308109766E+02 -0.37482920947E+02  0.51092642780E+02  0.00000000000E+00 0.  1.
</event>
<event>
 7    1  0.6671761E-006  0.9903474E+02  0.7561462E-02  0.1282339E+00
          2   -1    0    0  501    0  0.00000000000E+00  0.00000000000E+00  0.85821204855E+02  0.85821204855E+02  0.00000000000E+00 0. -1.
         -2   -1    0    0    0  501 -0.00000000000E+00 -0.00000000000E+00 -0.28853584347E+03  0.28853584347E+03  0.00000000000E+00 0.  1.
         23    2    1    2    0    0 -0.29045577014E+02 -0.67405857778E+02 -0.21733700496E+03  0.25705202889E+03  0.11598782963E+03 0.  0.
          5    1    3    3  502    0 -0.52963249108E+02 -0.11911594462E+00 -0.14873795940E+03  0.15794167566E+03  0.41800000000E+01 0. -1.
         -5    1    3    3    0  502  0.23917672093E+02 -0.67286741833E+02 -0.68599045567E+02  0.99110353231E+02  0.41800000000E+01 0.  1.
        -11    1    1    2    0    0  0.53437223107E+01  0.13651888902E+02  0.47688497056E+02  0.49891103318E+02  0.00000000000E+00 0. -1.
         11    1    1    2    0    0  0.23701854704E+02  0.53753968876E+02 -0.33066130708E+02  0.67413916117E+02  0.00000000000E+00 0.  1.
</event>
<event>
 7    1  0.6671761E-006  0.1012416E+03  0.7561462E-02  0.1277706E+00
          1   -1    0    0  501    0  0.00000000000E+00  0.00000000000E+00  0.39956085974E+03  0.39956085974E+03  0.00000000000E+00 0. -1.
         -1   -1    0    0    0  501 -0.00000000000E+00 -0.00000000000E+00 -0.42174416217E+02  0.42174416217E+02  0.00000000000E+00 0.  1.
         23    2    1    2    0    0 -0.25968929947E+02 -0.60608069740E+02  0.15308351983E+03  0.20839918356E+03  0.12509169527E+03 0.  0.
          5    1    3    3  502    0 -0.19554992852E+02  0.74040430936E+01 -0.15559793123E+02  0.26396915759E+02  0.41800000000E+01 0. -1.
         -5    1    3    3    0  502 -0.64139370950E+01 -0.68012112834E+02  0.16864331295E+03  0.18200226780E+03  0.41800000000E+01 0. -1.
        -11    1    1    2    0    0 -0.33164742190E+02  0.93410262930E+01  0.63232221632E+02  0.72010198925E+02  0.00000000000E+00 0. -1.
         11    1    1    2    0    0  0.59133672137E+02  0.51267043447E+02  0.14107070206E+03  0.16132589347E+03  0.00000000000E+00 0.  1.
</event>
<event>
 7    1  0.6671761E-006  0.9758219E+02  0.7561462E-02  0.1285464E+00
         -1   -1    0    0    0  501 -0.00000000000E+00  0.00000000000E+00  0.52045883329E+02  0.52045883329E+02  0.00000000000E+00 0.  1.
          1   -1    0    0  501    0  0.00000000000E+00 -0.00000000000E+00 -0.31835954415E+03  0.31835954415E+03  0.00000000000E+00 0. -1.
         23    2    1    2    0    0  0.16665673161E+01  0.69492977171E+02 -0.15799442014E+03  0.21317013999E+03  0.12508885029E+03 0.  0.
          5    1    3    3  502    0  0.13549813836E+02 -0.17653549062E+02 -0.11114902829E+03  0.11343202431E+03  0.41800000000E+01 0.  1.
         -5    1    3    3    0  502 -0.11883246520E+02  0.87146526233E+02 -0.46845391848E+02  0.99738115681E+02  0.41800000000E+01 0.  1.
        -11    1    1    2    0    0 -0.23514869777E+02 -0.22045776344E+02  0.48467093683E+01  0.32595336276E+02  0.00000000000E+00 0.  1.
         11    1    1    2    0    0  0.21848302461E+02 -0.47447200826E+02 -0.11316595005E+03  0.12463995121E+03  0.00000000000E+00 0. -1.
</event>
<event>
 7    1  0.6671761E-006  0.2567320E+03  0.7561462E-02  0.1109123E+00
         -1   -1    0    0    0  501 -0.00000000000E+00  0.00000000000E+00  0.11110605873E+03  0.11110605873E+03  0.00000000000E+00 0.  1.
          1   -1    0    0  501    0  0.00000000000E+00 -0.00000000000E+00 -0.69760051020E+03  0.69760051020E+03  0.00000000000E+00 0. -1.
         23    2    1    2    0    0 -0.14620889601E+03  0.19207481454E+03 -0.17732453364E+03  0.32459307756E+03  0.12508756977E+03 0.  0.
          5    1    3    3  502    0 -0.16708003167E+03  0.14987500726E+03 -0.14274322714E+03  0.26602886325E+03  0.41800000000E+01 0. -1.
         -5    1    3    3    0  502  0.20871135660E+02  0.42199807281E+02 -0.34581306501E+02  0.58564214309E+02  0.41800000000E+01 0. -1.
        -11    1    1    2    0    0  0.14082723396E+02 -0.25124788307E+02 -0.79116613944E+01  0.29869256297E+02  0.00000000000E+00 0.  1.
         11    1    1    2    0    0  0.13212617262E+03 -0.16695002624E+03 -0.40125825643E+03  0.45424423508E+03  0.00000000000E+00 0. -1.
</event>
<event>
 7    1  0.6671761E-006  0.1214738E+03  0.7561462E-02  0.1240685E+00
         -1   -1    0    0    0  501 -0.00000000000E+00  0.00000000000E+00  0.15558611184E+03  0.15558611184E+03  0.00000000000E+00 0.  1.
          1   -1    0    0  501    0  0.00000000000E+00 -0.00000000000E+00 -0.15432185507E+03  0.15432185507E+03  0.00000000000E+00 0. -1.
         23    2    1    2    0    0 -0.73002798707E+02 -0.81448136681E+02 -0.14993954149E+02  0.16683692972E+03  0.12508610982E+03 0.  0.
          5    1    3    3  502    0 -0.48735849242E+02 -0.45081012377E+02  0.53572366710E+02  0.85410488543E+02  0.41800000000E+01 0.  1.
         -5    1    3    3    0  502 -0.24266949466E+02 -0.36367124304E+02 -0.68566320859E+02  0.81426441176E+02  0.41800000000E+01 0.  1.
        -11    1    1    2    0    0  0.54459529416E+02  0.59706279400E+01 -0.18644990824E+02  0.57871620204E+02  0.00000000000E+00 0. -1.
         11    1    1    2    0    0  0.18543269292E+02  0.75477508741E+02  0.34903201744E+02  0.85199416980E+02  0.00000000000E+00 0.  1.
</event>
<event>
 7    1  0.6671761E-006  0.9677246E+02  0.7561462E-02  0.1287233E+00
         -1   -1    0    0    0  501 -0.00000000000E+00  0.00000000000E+00  0.30863726050E+03  0.30863726050E+03  0.00000000000E+00 0.  1.
          1   -1    0    0  501    0  0.00000000000E+00 -0.00000000000E+00 -0.43148005726E+02  0.43148005726E+02  0.00000000000E+00 0. -1.
         23    2    1    2    0    0  0.14003579885E+02 -0.18045389698E+02  0.20200928776E+03  0.23869963785E+03  0.12509207981E+03 0.  0.
          5    1    3    3  502    0  0.48593460768E+01 -0.66603023223E+02  0.16100365437E+03  0.17435373545E+03  0.41800000000E+01 0. -1.
         -5    1    3    3    0  502  0.91442338083E+01  0.48557633525E+02  0.41005633390E+02  0.64345902396E+02  0.41800000000E+01 0. -1.
        -11    1    1    2    0    0  0.29603263524E+02  0.15375489196E+02 -0.30459245089E+01  0.33496813810E+02  0.00000000000E+00 0. -1.
         11    1    1    2    0    0 -0.43606843409E+02  0.26699005018E+01  0.66525891526E+02  0.79588814567E+02  0.00000000000E+00 0.  1.
</event>
<event>
 7    1  0.6671761E-006  0.2369446E+03  0.7561462E-02  0.1121845E+00
          1   -1    0    0  501    0  0.00000000000E+00  0.00000000000E+00  0.35231538717E+03  0.35231538717E+03  0.00000000000E+00 0. -1.
         -1   -1    0    0    0  501 -0.00000000000E+00 -0.00000000000E+00 -0.19495260148E+03  0.19495260148E+03  0.00000000000E+00 0.  1.
         23    2    1    2    0    0 -0.63524969256E+02  0.20893189844E+03 -0.22986983566E+02  0.24883740018E+03  0.11706276270E+03 0.  0.
          5    1    3    3  502    0 -0.74864681783E+02  0.54076451650E+02 -0.86034797905E+01  0.92846515637E+02  0.41800000000E+01 0. -1.
         -5    1    3    3    0  502  0.11339712527E+02  0.15485544679E+03 -0.14383503776E+02  0.15599088455E+03  0.41800000000E+01 0.  1.
        -11    1    1    2    0    0  0.10997759331E+02 -0.13487058778E+03  0.15155934022E+03  0.20317790177E+03  0.00000000000E+00 0. -1.
         11    1    1    2    0    0  0.52527209925E+02 -0.74061310658E+02  0.28790429023E+02  0.95252686693E+02  0.00000000000E+00 0.  1.
</event>
<event>
 7    1  0.6671761E-006  0.1244680E+03  0.7561462E-02  0.1235903E+00
         -2   -1    0    0    0  501 -0.00000000000E+00  0.00000000000E+00  0.41039580120E+02  0.41039580120E+02  0.00000000000E+00 0.  1.
          2   -1    0    0  501    0  0.00000000000E+00 -0.00000000000E+00 -0.48919491810E+03  0.48919491810E+03  0.00000000000E+00 0. -1.
         23    2    1    2    0    0 -0.61932389773E+02 -0.48785698487E+02 -0.16047501191E+03  0.21820679474E+03  0.12508521312E+03 0.  0.
          5    1    3    3  502    0  0.12101147770E+02  0.26446337082E+02 -0.43479186041E+01  0.29702244336E+02  0.41800000000E+01 0. -1.
         -5    1    3    3    0  502 -0.74033537543E+02 -0.75232035569E+02 -0.15612709331E+03  0.18850455040E+03  0.41800000000E+01 0. -1.
        -11    1    1    2    0    0  0.59238092206E+02 -0.55691374904E+01 -0.97564235426E+02  0.11427574937E+03  0.00000000000E+00 0.  1.
         11    1    1    2    0    0  0.26942975673E+01  0.54354835977E+02 -0.19011609064E+03  0.19775195411E+03  0.00000000000E+00 0. -1.
</event>
<event>
 7    1  0.6671761E-006  0.1244304E+03  0.7561462E-02  0.1235962E+00
          1   -1    0    0  501    0  0.00000000000E+00  0.00000000000E+00  0.31216620996E+03  0.31216620996E+03  0.00000000000E+00 0. -1.
         -1   -1    0    0    0  501 -0.00000000000E+00 -0.00000000000E+00 -0.65186112101E+02  0.65186112101E+02  0.00000000000E+00 0.  1.
         23    2    1    2    0    0  0.82144601158E+02  0.44150728293E+02  0.12824589819E+03  0.20197016513E+03  0.12509162598E+03 0.  0.
          5    1    3    3  502    0  0.10334495361E+03  0.66378990050E+02  0.11481514856E+03  0.16818543485E+03  0.41800000000E+01 0.  1.
         -5    1    3    3    0  502 -0.21200352449E+02 -0.22228261756E+02  0.13430749634E+02  0.33784730284E+02  0.41800000000E+01 0.  1.
        -11    1    1    2    0    0 -0.45599820957E+02 -0.14340210489E+02  0.11897665235E+03  0.12822023675E+03  0.00000000000E+00 0. -1.
         11    1    1    2    0    0 -0.36544780201E+02 -0.29810517805E+02 -0.24245268250E+00  0.47161920180E+02  0.00000000000E+00 0.  1.
</event>
<event>
 6    1  0.6671761E-006  0.2554875E+03  0.7561462E-02  0.1109885E+00
         -1   -1    0    0    0  501 -0.00000000000E+00  0.00000000000E+00  0.12738248320E+03  0.12738248320E+03  0.00000000000E+00 0.  1.
          1   -1    0    0  501    0  0.00000000000E+00 -0.00000000000E+00 -0.63353847612E+03  0.63353847612E+03  0.00000000000E+00 0. -1.
          5    1    1    2  502    0  0.10492066847E+03 -0.13586674513E+03 -0.29365088113E+03  0.34017117969E+03  0.41800000000E+01 0. -1.
         -5    1    1    2    0  502 -0.18337414756E+03  0.38750552692E+02 -0.44750431473E+02  0.19273753356E+03  0.41800000000E+01 0.  1.
        -11    1    1    2    0    0  0.97093704935E+02  0.88009054277E+02 -0.12808087234E+03  0.18324161927E+03  0.00000000000E+00 0.  1.
         11    1    1    2    0    0 -0.18640225846E+02  0.91071381562E+01 -0.39673807973E+02  0.44770626801E+02  0.00000000000E+00 0. -1.
</event>
<event>
 7    1  0.6671761E-006  0.1049476E+03  0.7561462E-02  0.1270223E+00
          2   -1    0    0  501    0  0.00000000000E+00  0.00000000000E+00  0.11146635693E+03  0.11146635693E+03  0.00000000000E+00 0. -1.
         -2   -1    0    0    0  501 -0.00000000000E+00 -0.00000000000E+00 -0.18759787026E+03  0.18759787026E+03  0.00000000000E+00 0.  1.
         23    2    1    2    0    0  0.73674479696E+02  0.29687209282E+02 -0.96085811023E+02  0.17659860789E+03  0.12508127708E+03 0.  0.
          5    1    3    3  502    0  0.66646110654E+02  0.61911582597E+02 -0.19525451032E+02  0.93131432734E+02  0.41800000000E+01 0.  1.
         -5    1    3    3    0  502  0.70283690418E+01 -0.32224373316E+02 -0.76560359991E+02  0.83467175159E+02  0.41800000000E+01 0.  1.
        -11    1    1    2    0    0 -0.20652816842E+02  0.61993894829E+01 -0.32972232252E+02  0.39397200067E+02  0.00000000000E+00 0.  1.
         11    1    1    2    0    0 -0.53021662854E+02 -0.35886598764E+02  0.52926529944E+02  0.83068419238E+02  0.00000000000E+00 0. -1.
</event>
<event>
 7    1  0.6671761E-006  0.1167799E+03  0.7561462E-02  0.1248506E+00
         -1   -1    0    0    0  501 -0.00000000000E+00  0.00000000000E+00  0.60969122230E+02  0.60969122230E+02  0.00000000000E+00 0.  1.
          1   -1    0    0  501    0  0.00000000000E+00 -0.00000000000E+00 -0.37073574502E+03  0.37073574502E+03  0.00000000000E+00 0. -1.
         23    2    1    2    0    0 -0.76081359525E+02 -0.21476001508E+02 -0.70958605881E+02  0.16411001560E+03  0.12508949421E+03 0.  0.
          5    1    3    3  502    0 -0.93090494828E+02 -0.19842193922E+02 -0.94852047648E+02  0.13443934034E+03  0.41800000000E+01 0.  1.
         -5    1    3    3    0  502  0.17009135303E+02 -0.16338075865E+01  0.23893441767E+02  0.29670675262E+02  0.41800000000E+01 0.  1.
        -11    1    1    2    0    0  0.92847819811E+02  0.34926999979E+02 -0.19348224401E+03  0.21743042960E+03  0.00000000000E+00 0.  1.
         11    1    1    2    0    0 -0.16766460286E+02 -0.13450998471E+02 -0.45325772903E+02  0.50164422051E+02  0.00000000000E+00 0. -1.
</event>
<event>
 7    1  0.6671761E-006  0.1494661E+03  0.7561462E-02  0.1201131E+00
          4   -1    0    0  501    0  0.00000000000E+00  0.00000000000E+00  0.40536976521E+03  0.40536976521E+03  0.00000000000E+00 0. -1.
         -4   -1    0    0    0  501 -0.00000000000E+00 -0.00000000000E+00 -0.61644584541E+02  0.61644584541E+02  0.00000000000E+00 0.  1.
         23    2    1    2    0    0  0.94087104336E+02  0.78177455476E+02  0.18429084088E+03  0.25411425553E+03  0.12508734181E+03 0.  0.
          5    1    3    3  502    0  0.29348928502E+02 -0.31126464199E+02  0.75175700392E+02  0.86597198034E+02  0.41800000000E+01 0. -1.
         -5    1    3    3    0  502  0.64738175834E+02  0.10930391968E+03  0.10911514049E+03  0.16751705749E+03  0.41800000000E+01 0. -1.
        -11    1    1    2    0    0 -0.71844504358E+02 -0.34221114676E+02  0.52984818243E+02  0.95603914461E+02  0.00000000000E+00 0.  1.
         11    1    1    2    0    0 -0.22242599978E+02 -0.43956340800E+02  0.10644952155E+03  0.11729617977E+03  0.00000000000E+00 0. -1.
</event>
<event>
 7    1  0.6671761E-006  0.1193251E+03  0.7561462E-02  0.1244215E+00
          2   -1    0    0  501    0  0.00000000000E+00  0.00000000000E+00  0.61697255985E+02  0.61697255985E+02  0.00000000000E+00 0. -1.
         -2   -1    0    0    0  501 -0.00000000000E+00 -0.00000000000E+00 -0.28706173420E+03  0.28706173420E+03  0.00000000000E+00 0.  1.
         23    2    1    2    0    0 -0.71008084070E+02 -0.30592511705E+02 -0.12936160808E+03  0.19585656293E+03  0.12508923943E+03 0.  0.
          5    1    3    3  502    0  0.19872805798E+02  0.13741894192E+02 -0.79188279300E+02  0.82897672131E+02  0.41800000000E+01 0.  1.
         -5    1    3    3    0  502 -0.90880889868E+02 -0.44334405897E+02 -0.50173328784E+02  0.11295889080E+03  0.41800000000E+01 0.  1.
        -11    1    1    2    0    0  0.10469493367E+02  0.48640088059E+02 -0.66838324904E+02  0.83323646906E+02  0.00000000000E+00 0. -1.
         11    1    1    2    0    0  0.60538590703E+02 -0.18047576355E+02 -0.29164545229E+02  0.69578780350E+02  0.00000000000E+00 0.  1.
</event>
<event>
 7    1  0.6671761E-006  0.1211585E+03  0.7561462E-02  0.1241198E+00
          1   -1    0    0  501    0  0.00000000000E+00  0.00000000000E+00  0.16596934177E+03  0.16596934177E+03  0.00000000000E+00 0. -1.
         -1   -1    0    0    0  501 -0.00000000000E+00 -0.00000000000E+00 -0.17503514425E+03  0.17503514425E+03  0.00000000000E+00 0.  1.
         23    2    1    2    0    0  0.89081059383E+02 -0.65462854045E+02 -0.74460596801E+02  0.18279080901E+03  0.12508908418E+03 0.  0.
          5    1    3    3  502    0  0.10558972310E+02 -0.48478259040E+01  0.33747744192E+02  0.35935719699E+02  0.41800000000E+01 0. -1.
         -5    1    3    3    0  502  0.78522087073E+02 -0.60615028141E+02 -0.10820834099E+03  0.14685508931E+03  0.41800000000E+01 0. -1.
        -11    1    1    2    0    0 -0.49463656265E+00  0.37909235125E+02 -0.93830146319E+01  0.39056314940E+02  0.00000000000E+00 0.  1.
         11    1    1    2    0    0 -0.88586422820E+02  0.27553618920E+02  0.74777808954E+02  0.11915736207E+03  0.00000000000E+00 0. -1.
</event>
<event>
 7    1  0.6671761E-006  0.6416362E+02  0.7561462E-02  0.1381146E+00
          3   -1    0    0  501    0  0.00000000000E+00  0.00000000000E+00  0.72253430714E+02  0.72253430714E+02  0.00000000000E+00 0. -1.
         -3   -1    0    0    0  501 -0.00000000000E+00 -0.00000000000E+00 -0.22036196414E+03  0.22036196414E+03  0.00000000000E+00 0.  1.
         23    2    1    2    0    0  0.45500206935E+02  0.13848239198E+02 -0.14006102979E+03  0.19371738062E+03  0.12508912394E+03 0.  0.
          5    1    3    3  502    0 -0.64332753338E+01 -0.12778094634E+02 -0.13407527368E+03  0.13490114213E+03  0.41800000000E+01 0.  1.
         -5    1    3    3    0  502  0.51933482269E+02  0.26626333832E+02 -0.59857561041E+01  0.58816238490E+02  0.41800000000E+01 0.  1.
        -11    1    1    2    0    0 -0.28953305475E+02  0.54810754304E+01 -0.45146173760E+02  0.53912086687E+02  0.00000000000E+00 0.  1.
         11    1    1    2    0    0 -0.16546901460E+02 -0.19329314628E+02  0.37098670126E+02  0.44985927545E+02  0.00000000000E+00 0. -1.
</event>
<event>
 6    1  0.6671761E-006  0.1331675E+03  0.7561462E-02  0.1222830E+00
         -4   -1    0    0    0  501 -0.00000000000E+00  0.00000000000E+00  0.59070186891E+03  0.59070186891E+03  0.00000000000E+00 0.  1.
          4   -1    0    0  501    0  0.00000000000E+00 -0.00000000000E+00 -0.30408715412E+02  0.30408715412E+02  0.00000000000E+00 0. -1.
          5    1    1    2  502    0 -0.64638352950E+02  0.48109131736E+02  0.18523979505E+03  0.20204915070E+03  0.41800000000E+01 0. -1.
         -5    1    1    2    0  502  0.70845624035E+02  0.84174241250E+01  0.16171679291E+03  0.17680426744E+03  0.41800000000E+01 0.  1.
        -11    1    1    2    0    0  0.89844231062E+00 -0.84914804599E+02  0.14726785245E+03  0.16999750470E+03  0.00000000000E+00 0.  1.
         11    1    1    2    0    0 -0.71057133958E+01  0.28388248739E+02  0.66068713079E+02  0.72259661480E+02  0.00000000000E+00 0. -1.
</event>
<event>
 7    1  0.6671761E-006  0.1893822E+03  0.7561462E-02  0.1159020E+00
          1   -1    0    0  501    0  0.00000000000E+00  0.00000000000E+00  0.75435562801E+03  0.75435562801E+03  0.00000000000E+00 0. -1.
         -1   -1    0    0    0  501 -0.00000000000E+00 -0.00000000000E+00 -0.65390057174E+02  0.65390057174E+02  0.00000000000E+00 0.  1.
         23    2    1    2    0    0 -0.16282636760E+03 -0.70563322241E+02  0.21588159539E+03  0.30617617556E+03  0.12508948326E+03 0.  0.
          5    1    3    3  502    0 -0.12613122798E+03 -0.44708938407E+02  0.65243873641E+02  0.14893693730E+03  0.41800000000E+01 0.  1.
         -5    1    3    3    0  502 -0.36695139621E+02 -0.25854383834E+02  0.15063772175E+03  0.15723923826E+03  0.41800000000E+01 0.  1.
        -11    1    1    2    0    0  0.85806000823E+02  0.85732154735E+02  0.29368150398E+03  0.31774439084E+03  0.00000000000E+00 0. -1.
         11    1    1    2    0    0  0.77020366773E+02 -0.15168832494E+02  0.17940247147E+03  0.19582511878E+03  0.00000000000E+00 0.  1.
</event>
<event>
 7    1  0.6671761E-006  0.1086337E+03  0.7561462E-02  0.1263121E+00
          2   -1    0    0  501    0  0.00000000000E+00  0.00000000000E+00  0.23539851372E+03  0.23539851372E+03  0.00000000000E+00 0. -1.
         -2   -1    0    0    0  501 -0.00000000000E+00 -0.00000000000E+00 -0.77670525670E+02  0.77670525670E+02  0.00000000000E+00 0.  1.
         23    2    1    2    0    0 -0.10879411558E+02 -0.33668265301E+02  0.49168898288E+01  0.13008854755E+03  0.12508773206E+03 0.  0.
          5    1    3    3  502    0  0.23649066879E+02 -0.73377445757E+02  0.31301573110E+01  0.77270940171E+02  0.41800000000E+01 0.  1.
         -5    1    3    3    0  502 -0.34528478437E+02  0.39709180456E+02  0.17867325178E+01  0.52817607375E+02  0.41800000000E+01 0.  1.
        -11    1    1    2    0    0  0.25668331012E+02  0.55358763010E+02  0.56518103100E+02  0.83173023493E+02  0.00000000000E+00 0.  1.
         11    1    1    2    0    0 -0.14788919453E+02 -0.21690497709E+02  0.96292995117E+02  0.99807468348E+02  0.00000000000E+00 0. -1.
</event>
<event>
 7    1  0.6671761E-006  0.1930572E+03  0.7561462E-02  0.1155733E+00
         -4   -1    0    0    0  501 -0.00000000000E+00  0.00000000000E+00  0.28320770773E+02  0.28320770773E+02  0.00000000000E+00 0.  1.
          4   -1    0    0  501    0  0.00000000000E+00 -0.00000000000E+00 -0.13691271188E+04  0.13691271188E+04  0.00000000000E+00 0. -1.
         23    2    1    2    0    0  0.14438607988E+03  0.77456804432E+02 -0.74951700974E+03  0.77734903727E+03  0.12509548851E+03 0.  0.
          5    1    3    3  502    0  0.14807743080E+02  0.69759189124E+02 -0.35126692911E+03  0.35845716845E+03  0.41800000000E+01 0. -1.
         -5    1    3    3    0  502  0.12957833680E+03  0.76976153084E+01 -0.39825008062E+03  0.41889186882E+03  0.41800000000E+01 0. -1.
        -11    1    1    2    0    0 -0.91722156067E+02 -0.70849343218E+00 -0.24816902759E+03  0.26457762969E+03  0.00000000000E+00 0.  1.
         11    1    1    2    0    0 -0.52663923817E+02 -0.76748311000E+02 -0.34312031066E+03  0.35552122258E+03  0.00000000000E+00 0. -1.
</event>
<event>
 7    1  0.6671761E-006  0.1079966E+03  0.7561462E-02  0.1264325E+00
         -3   -1    0    0    0  501 -0.00000000000E+00  0.00000000000E+00  0.39324851565E+03  0.39324851565E+03  0.00000000000E+00 0.  1.
          3   -1    0    0  501    0  0.00000000000E+00 -0.00000000000E+00 -0.56807562744E+02  0.56807562744E+02  0.00000000000E+00 0. -1.
         23    2    1    2    0    0 -0.50849511144E+02 -0.73571972633E+02  0.20678763986E+03  0.25769591026E+03  0.12509015239E+03 0.  0.
          5    1    3    3  502    0 -0.48271406104E+01 -0.70993168651E+02  0.34293477615E+02  0.79100229383E+02  0.41800000000E+01 0.  1.
         -5    1    3    3    0  502 -0.46022370533E+02 -0.25788039825E+01  0.17249416225E+03  0.17859568088E+03  0.41800000000E+01 0.  1.
        -11    1    1    2    0    0  0.12284610320E+02  0.53620162901E+02 -0.64962242114E+00  0.55013230495E+02  0.00000000000E+00 0. -1.
         11    1    1    2    0    0  0.38564900824E+02  0.19951809732E+02  0.13030293547E+03  0.13734693764E+03  0.00000000000E+00 0.  1.
</event>
<event>
 7    1  0.6671761E-006  0.5348673E+02  0.7561462E-02  0.1427394E+00
         -2   -1    0    0    0  501 -0.00000000000E+00  0.00000000000E+00  0.34315490027E+03  0.34315490027E+03  0.00000000000E+00 0.  1.
          2   -1    0    0  501    0  0.00000000000E+00 -0.00000000000E+00 -0.41833089383E+02  0.41833089383E+02  0.00000000000E+00 0. -1.
         23    2    1    2    0    0 -0.31979020908E+02  0.46800095491E+01  0.24318898043E+03  0.27537739366E+03  0.12508904216E+03 0.  0.
          5    1    3    3  502    0 -0.24125412981E+01  0.32248039335E+02  0.41057768842E+01  0.32864664920E+02  0.41800000000E+01 0.  1.
         -5    1    3    3    0  502 -0.29566479609E+02 -0.27568029786E+02  0.23908320354E+03  0.24251272874E+03  0.41800000000E+01 0.  1.
        -11    1    1    2    0    0  0.14908805463E+02  0.26603430713E+01  0.79709607749E+02  0.81135513021E+02  0.00000000000E+00 0.  1.
         11    1    1    2    0    0  0.17070215444E+02 -0.73403526203E+01 -0.21576777294E+02  0.28475082973E+02  0.00000000000E+00 0. -1.
</event>
<event>
 7    1  0.6671761E-006  0.1168051E+03  0.7561462E-02  0.1248463E+00
         -2   -1    0    0    0  501 -0.00000000000E+00  0.00000000000E+00  0.28379346158E+02  0.28379346158E+02  0.00000000000E+00 0.  1.
          2   -1    0    0  501    0  0.00000000000E+00 -0.00000000000E+00 -0.78578217139E+03  0.78578217139E+03  0.00000000000E+00 0. -1.
         23    2    1    2    0    0 -0.31992187170E+02 -0.10233338813E+03 -0.32852335784E+03  0.36751973971E+03  0.12509012779E+03 0.  0.
          5    1    3    3  502    0 -0.38390061063E+02 -0.97023245675E+02 -0.33828318027E+03  0.35403430546E+03  0.41800000000E+01 0. -1.
         -5    1    3    3    0  502  0.63978738926E+01 -0.53101424499E+01  0.97598224313E+01  0.13485434256E+02  0.41800000000E+01 0. -1.
        -11    1    1    2    0    0  0.35659282177E+02  0.27697931214E+02 -0.10578088108E+03  0.11501458430E+03  0.00000000000E+00 0. -1.
         11    1    1    2    0    0 -0.36670950066E+01  0.74635456911E+02 -0.32309858631E+03  0.33162719353E+03  0.00000000000E+00 0.  1.
</event>
<event>
 7    1  0.6671761E-006  0.1579636E+03  0.7561462E-02  0.1191015E+00
          1   -1    0    0  501    0  0.00000000000E+00  0.00000000000E+00  0.17008911565E+03  0.17008911565E+03  0.00000000000E+00 0. -1.
         -1   -1    0    0    0  501 -0.00000000000E+00 -0.00000000000E+00 -0.46116880704E+03  0.46116880704E+03  0.00000000000E+00 0.  1.
         23    2    1    2    0    0 -0.54076648432E+02  0.12382551878E+03 -0.39619571384E+03  0.43689362564E+03  0.12509178010E+03 0.  0.
          5    1    3    3  502    0 -0.24621244805E+02 -0.20964068432E+02 -0.42605765922E+02  0.53650923112E+02  0.41800000000E+01 0.  1.
         -5    1    3    3    0  502 -0.29455403627E+02  0.14478958722E+03 -0.35358994792E+03  0.38324270252E+03  0.41800000000E+01 0.  1.
        -11    1    1    2    0    0  0.20525750024E+02 -0.59769893518E+02 -0.41566082295E+01  0.63332645430E+02  0.00000000000E+00 0.  1.
         11    1    1    2    0    0  0.33550898408E+02 -0.64055625266E+02  0.10927263068E+03  0.13103165163E+03  0.00000000000E+00 0. -1.
</event>
<event>
 7    1  0.7203649E-006  0.8652167E+02  0.7561462E-02  0.1311500E+00
         -3   -1    0    0    0  501 -0.00000000000E+00  0.00000000000E+00  0.68689274786E+02  0.68689274786E+02  0.00000000000E+00 0.  1.
          3   -1    0    0  501    0  0.00000000000E+00 -0.00000000000E+00 -0.18768795186E+03  0.18768795186E+03  0.00000000000E+00 0. -1.
         23    2    1    2    0    0 -0.12112360320E+02 -0.12500129853E+02 -0.35856918977E+02  0.13128623046E+03  0.12508954054E+03 0.  0.
          5    1    3    3  502    0 -0.42888113288E+02 -0.57261766912E+02 -0.23522949098E+02  0.75426134367E+02  0.41800000000E+01 0. -1.
         -5    1    3    3    0  502  0.30775752968E+02  0.44761637059E+02 -0.12333969879E+02  0.55860096096E+02  0.41800000000E+01 0. -1.
        -11    1    1    2    0    0 -0.10228471981E+02 -0.10621707848E+02  0.15468892047E+02  0.21371217509E+02  0.00000000000E+00 0.  1.
         11    1    1    2    0    0  0.22340832301E+02  0.23121837701E+02 -0.98610650139E+02  0.10371977867E+03  0.00000000000E+00 0. -1.
</event>
<event>
 7    1  0.6671761E-006  0.1001462E+03  0.7561462E-02  0.1279989E+00
         -1   -1    0    0    0  501 -0.00000000000E+00  0.00000000000E+00  0.12475304462E+03  0.12475304462E+03  0.00000000000E+00 0.  1.
          1   -1    0    0  501    0  0.00000000000E+00 -0.00000000000E+00 -0.12706151698E+03  0.12706151698E+03  0.00000000000E+00 0. -1.
         23    2    1    2    0    0 -0.46863616466E+02  0.85786855966E+01  0.39582476117E+02  0.13961177149E+03  0.12511947061E+03 0.  0.
          5    1    3    3  502    0 -0.57500109966E+02  0.35008309720E+02 -0.22560566298E+02  0.71121698147E+02  0.41800000000E+01 0.  1.
         -5    1    3    3    0  502  0.10636493500E+02 -0.26429624123E+02  0.62143042415E+02  0.68490073338E+02  0.41800000000E+01 0.  1.
        -11    1    1    2    0    0  0.28496531376E+02  0.41707805610E+02 -0.21899059547E+02  0.55055991121E+02  0.00000000000E+00 0.  1.
         11    1    1    2    0    0  0.18367085091E+02 -0.50286491207E+02 -0.19991888926E+02  0.57146798996E+02  0.00000000000E+00 0. -1.
</event>
<event>
 7    1  0.6671761E-006  0.2368253E+03  0.7561462E-02  0.1121926E+00
          2   -1    0    0  501    0  0.00000000000E+00  0.00000000000E+00  0.11012631331E+03  0.11012631331E+03  0.00000000000E+00 0. -1.
         -2   -1    0    0    0  501 -0.00000000000E+00 -0.00000000000E+00 -0.69162172306E+03  0.69162172306E+03  0.00000000000E+00 0.  1.
         23    2    1    2    0    0  0.18657951741E+03  0.10050378094E+03 -0.49947837154E+03  0.55681182831E+03  0.12509133545E+03 0.  0.
          5    1    3    3  502    0  0.11082889207E+03 -0.95084908605E+01 -0.25386519912E+03  0.27719752243E+03  0.41800000000E+01 0.  1.
         -5    1    3    3    0  502  0.75750625342E+02  0.11001227180E+03 -0.24561317242E+03  0.27961430588E+03  0.41800000000E+01 0.  1.
        -11    1    1    2    0    0 -0.84563564483E+02  0.13069117505E+01 -0.14615245162E+02  0.85827209249E+02  0.00000000000E+00 0. -1.
         11    1    1    2    0    0 -0.10201595293E+03 -0.10181069269E+03 -0.67401793052E+02  0.15910899881E+03  0.00000000000E+00 0.  1.
</event>
<event>
 7    1  0.6671761E-006  0.1124851E+03  0.7561462E-02  0.1256036E+00
         -2   -1    0    0    0  501 -0.00000000000E+00  0.00000000000E+00  0.13647930836E+04  0.13647930836E+04  0.00000000000E+00 0.  1.
          2   -1    0    0  501    0  0.00000000000E+00 -0.00000000000E+00 -0.12349764861E+02  0.12349764861E+02  0.00000000000E+00 0. -1.
         23    2    1    2    0    0  0.19269002898E+02  0.56013129708E+02  0.99596453884E+03  0.10046550681E+04  0.11780355712E+03 0.  0.
          5    1    3    3  502    0 -0.46074541465E+02  0.15945778296E+02  0.24947383111E+03  0.25422784274E+03  0.41800000000E+01 0. -1.
         -5    1    3    3    0  502  0.65343544363E+02  0.40067351412E+02  0.74649070773E+03  0.75042722537E+03  0.41800000000E+01 0.  1.
        -11    1    1    2    0    0  0.13483481623E+01  0.20237912710E+02  0.27570096128E+02  0.34227201962E+02  0.00000000000E+00 0.  1.
         11    1    1    2    0    0 -0.20617351060E+02 -0.76251042417E+02  0.32890868374E+03  0.33826057836E+03  0.00000000000E+00 0. -1.
</event>
<event>
 7    1  0.6671761E-006  0.1338506E+03  0.7561462E-02  0.1221851E+00
          1   -1    0    0  501    0  0.00000000000E+00  0.00000000000E+00  0.35091615560E+03  0.35091615560E+03  0.00000000000E+00 0. -1.
         -1   -1    0    0    0  501 -0.00000000000E+00 -0.00000000000E+00 -0.80464974091E+02  0.80464974091E+02  0.00000000000E+00 0.  1.
         23    2    1    2    0    0  0.98335442965E+01 -0.12689178650E+03  0.15438107371E+03  0.23616065652E+03  0.12545961779E+03 0.  0.
          5    1    3    3  502    0 -0.22195835277E+02 -0.27820435100E+02 -0.13728887062E+02  0.38374294166E+02  0.41800000000E+01 0.  1.
         -5    1    3    3    0  502  0.32029379573E+02 -0.99071351395E+02  0.16810996077E+03  0.19778636235E+03  0.41800000000E+01 0.  1.
        -11    1    1    2    0    0 -0.13423636991E+01  0.79816815604E+02  0.12325630888E+03  0.14684905063E+03  0.00000000000E+00 0. -1.
         11    1    1    2    0    0 -0.84911805973E+01  0.47074970891E+02 -0.71862010790E+01  0.48371422537E+02  0.00000000000E+00 0.  1.
</event>
<event>
 7    1  0.6671761E-006  0.1334229E+03  0.7561462E-02  0.1222463E+00
         -1   -1    0    0    0  501 -0.00000000000E+00  0.00000000000E+00  0.29635826311E+03  0.29635826311E+03  0.00000000000E+00 0.  1.
          1   -1    0    0  501    0  0.00000000000E+00 -0.00000000000E+00 -0.11217903428E+03  0.11217903428E+03  0.00000000000E+00 0. -1.
         23    2    1    2    0    0  0.71482133806E+02  0.94550005155E+02  0.19352826723E+03  0.25913951837E+03  0.12510276111E+03 0.  0.
          5    1    3    3  502    0  0.59939120260E+02  0.80421452685E+02  0.45994425581E+02  0.11042313061E+03  0.41800000000E+01 0.  1.
         -5    1    3    3    0  502  0.11543013547E+02  0.14128552470E+02  0.14753384165E+03  0.14871638776E+03  0.41800000000E+01 0.  1.
        -11    1    1    2    0    0 -0.83501372554E+02 -0.41310793332E+02  0.38659000218E+01  0.93241654035E+02  0.00000000000E+00 0.  1.
         11    1    1    2    0    0  0.12019238748E+02 -0.53239211823E+02 -0.13214938428E+02  0.56156124985E+02  0.00000000000E+00 0. -1.
</event>
<event>
 7    1  0.6671761E-006  0.1315230E+03  0.7561462E-02  0.1225213E+00
          1   -1    0    0  501    0  0.00000000000E+00  0.00000000000E+00  0.10864776734E+03  0.10864776734E+03  0.00000000000E+00 0. -1.
         -1   -1    0    0    0  501 -0.00000000000E+00 -0.00000000000E+00 -0.23176597248E+03  0.23176597248E+03  0.00000000000E+00 0.  1.
         23    2    1    2    0    0 -0.82053554613E+02 -0.51103897927E+02 -0.11980285438E+03  0.19835659262E+03  0.12509284436E+03 0.  0.
          5    1    3    3  502    0 -0.64206576840E+02 -0.69752110975E+02 -0.22399049329E+02  0.97504006615E+02  0.41800000000E+01 0. -1.
         -5    1    3    3    0  502 -0.17846977772E+02  0.18648213048E+02 -0.97403805055E+02  0.10085258601E+03  0.41800000000E+01 0. -1.
        -11    1    1    2    0    0  0.60621791770E+02 -0.23016767893E+02 -0.26181371471E+01  0.64897056049E+02  0.00000000000E+00 0.  1.
         11    1    1    2    0    0  0.21431762842E+02  0.74120665820E+02 -0.69721360704E+00  0.77160091155E+02  0.00000000000E+00 0. -1.
</event>
<event>
 7    1  0.6671761E-006  0.8252436E+02  0.7561462E-02  0.1322037E+00
         -3   -1    0    0    0  501 -0.00000000000E+00  0.00000000000E+00  0.16503025162E+03  0.16503025162E+03  0.00000000000E+00 0.  1.
          3   -1    0    0  501    0  0.00000000000E+00 -0.00000000000E+00 -0.97361684097E+02  0.97361684097E+02  0.00000000000E+00 0. -1.
         23    2    1    2    0    0 -0.14984942156E+02 -0.37300938001E+02  0.91533384750E+02  0.16013282748E+03  0.12509297920E+03 0.  0.
          5    1    3    3  502    0  0.88823268655E+01 -0.47241715080E+02  0.11516027145E+03  0.12486006526E+03  0.41800000000E+01 0.  1.
         -5    1    3    3    0  502 -0.23867269022E+02  0.99407770792E+01 -0.23626886704E+02  0.35272762223E+02  0.41800000000E+01 0.  1.
        -11    1    1    2    0    0 -0.32395840300E+02  0.38839924559E+01 -0.29525626383E+02  0.44003846189E+02  0.00000000000E+00 0. -1.
         11    1    1    2    0    0  0.47380782456E+02  0.33416945545E+02  0.56608091512E+01  0.58255262045E+02  0.00000000000E+00 0.  1.
</event>
<event>
 6    1  0.6671761E-006  0.1358772E+03  0.7561462E-02  0.1218987E+00
         -2   -1    0    0    0  501 -0.00000000000E+00  0.00000000000E+00  0.12674044946E+03  0.12674044946E+03  0.00000000000E+00 0.  1.
          2   -1    0    0  501    0  0.00000000000E+00 -0.00000000000E+00 -0.17360202756E+03  0.17360202756E+03  0.00000000000E+00 0. -1.
          5    1    1    2  502    0 -0.15955821245E+02  0.88024468790E+02  0.11964181791E+01  0.89564497173E+02  0.41800000000E+01 0. -1.
         -5    1    1    2    0  502 -0.29353808293E+02 -0.78182576977E+02  0.21588145040E+02  0.86357870576E+02  0.41800000000E+01 0.  1.
        -11    1    1    2    0    0 -0.24393762269E+02 -0.15085693440E+02 -0.38208008966E+02  0.47775367433E+02  0.00000000000E+00 0.  1.
         11    1    1    2    0    0  0.69703391807E+02  0.52438016273E+01 -0.31438132357E+02  0.76644741835E+02  0.00000000000E+00 0. -1.
</event>
<event>
 7    1  0.6671761E-006  0.1891696E+03  0.7561462E-02  0.1159212E+00
         -1   -1    0    0    0  501 -0.00000000000E+00  0.00000000000E+00  0.12244376766E+03  0.12244376766E+03  0.00000000000E+00 0.  1.
          1   -1    0    0  501    0  0.00000000000E+00 -0.00000000000E+00 -0.38349891417E+03  0.38349891417E+03  0.00000000000E+00 0. -1.
         23    2    1    2    0    0  0.17879577387E+03 -0.52979128693E+01 -0.19939049020E+03  0.29563556741E+03  0.12509126470E+03 0.  0.
          5    1    3    3  502    0  0.85992084938E+02  0.38497702561E+02 -0.15982289848E+03  0.18557355160E+03  0.41800000000E+01 0. -1.
         -5    1    3    3    0  502  0.92803688933E+02 -0.43795615430E+02 -0.39567591712E+02  0.11006201581E+03  0.41800000000E+01 0. -1.
        -11    1    1    2    0    0 -0.15330201468E+03  0.15032737945E+02 -0.83630591004E+02  0.17527568761E+03  0.00000000000E+00 0. -1.
         11    1    1    2    0    0 -0.25493759189E+02 -0.97348250757E+01  0.21965934697E+02  0.35031426805E+02  0.00000000000E+00 0.  1.
</event>
<event>
 7    1  0.6671761E-006  0.8075509E+02  0.7561462E-02  0.1326922E+00
         -1   -1    0    0    0  501 -0.00000000000E+00  0.00000000000E+00  0.26724009223E+02  0.26724009223E+02  0.00000000000E+00 0.  1.
          1   -1    0    0  501    0  0.00000000000E+00 -0.00000000000E+00 -0.50588084499E+03  0.50588084499E+03  0.00000000000E+00 0. -1.
         23    2    1    2    0    0 -0.29602822031E+02 -0.30103898346E+01 -0.20105217020E+03  0.23865302841E+03  0.12509157969E+03 0.  0.
          5    1    3    3  502    0 -0.47633250388E+02  0.38729127382E+01 -0.21110996985E+03  0.21649207322E+03  0.41800000000E+01 0.  1.
         -5    1    3    3    0  502  0.18030428358E+02 -0.68833025728E+01  0.10057799654E+02  0.22160955190E+02  0.41800000000E+01 0.  1.
        -11    1    1    2    0    0  0.33906737386E+02 -0.38932191856E+02 -0.17785478735E+03  0.18519640328E+03  0.00000000000E+00 0. -1.
         11    1    1    2    0    0 -0.43039153556E+01  0.41942581690E+02 -0.10024987822E+03  0.10875542253E+03  0.00000000000E+00 0.  1.
</event>
<event>
 6    1  0.6671761E-006  0.6679966E+02  0.7561462E-02  0.1371327E+00
         -2   -1    0    0    0  501 -0.00000000000E+00  0.00000000000E+00  0.46616590540E+02  0.46616590540E+02  0.00000000000E+00 0.  1.
          2   -1    0    0  501    0  0.00000000000E+00 -0.00000000000E+00 -0.38405117591E+03  0.38405117591E+03  0.00000000000E+00 0. -1.
          5    1    1    2  502    0  0.38976982934E+01  0.99815601114E+01 -0.25513771370E+03  0.25539684600E+03  0.41800000000E+01 0. -1.
         -5    1    1    2    0  502 -0.43546853540E+02 -0.18810246737E+02  0.12936176483E+02  0.49345424282E+02  0.41800000000E+01 0.  1.
        -11    1    1    2    0    0  0.52415843382E+02 -0.83476905270E+01 -0.39313141324E+02  0.66050190426E+02  0.00000000000E+00 0. -1.
         11    1    1    2    0    0 -0.12766688135E+02  0.17176377153E+02 -0.55919906831E+02  0.59875305745E+02  0.00000000000E+00 0.  1.
</event>
<event>
 7    1  0.6671761E-006  0.1052801E+03  0.7561462E-02  0.1269569E+00
          4   -1    0    0  501    0  0.00000000000E+00  0.00000000000E+00  0.17528539742E+03  0.17528539742E+03  0.00000000000E+00 0. -1.
         -4   -1    0    0    0  501 -0.00000000000E+00 -0.00000000000E+00 -0.78391618651E+02  0.78391618651E+02  0.00000000000E+00 0.  1.
         23    2    1    2    0    0 -0.74495779191E+01 -0.38441461627E+02  0.36452070059E+02  0.13605215064E+03  0.12509273400E+03 0.  0.
          5    1    3    3  502    0 -0.20386296084E+02 -0.82091002485E+02  0.30187768875E+02  0.89907216322E+02  0.41800000000E+01 0. -1.
         -5    1    3    3    0  502  0.12936718165E+02  0.43649540858E+02  0.62643011844E+01  0.46144934320E+02  0.41800000000E+01 0. -1.
        -11    1    1    2    0    0  0.19773025990E+02 -0.15310873189E+02 -0.11045545282E+02  0.27338607595E+02  0.00000000000E+00 0.  1.
         11    1    1    2    0    0 -0.12323448071E+02  0.53752334816E+02  0.71487253988E+02  0.90286257832E+02  0.00000000000E+00 0. -1.
</event>
<event>
 7    1  0.6671761E-006  0.1023850E+03  0.7561462E-02  0.1275359E+00
          1   -1    0    0  501    0  0.00000000000E+00  0.00000000000E+00  0.87201816363E+02  0.87201816363E+02  0.00000000000E+00 0. -1.
         -1   -1    0    0    0  501 -0.00000000000E+00 -0.00000000000E+00 -0.12809177053E+03  0.12809177053E+03  0.00000000000E+00 0.  1.
         23    2    1    2    0    0 -0.70065770986E+01 -0.12830224517E+02 -0.20747003366E+02  0.12763585240E+03  0.12508703324E+03 0.  0.
          5    1    3    3  502    0  0.57443209293E+02 -0.86180475781E+01 -0.23633560248E+02  0.62849109842E+02  0.41800000000E+01 0. -1.
         -5    1    3    3    0  502 -0.64449786392E+02 -0.42121769393E+01  0.28865568816E+01  0.64786742557E+02  0.41800000000E+01 0. -1.
        -11    1    1    2    0    0 -0.26541598215E+02 -0.21241811739E+02 -0.20769078684E+02  0.39837490271E+02  0.00000000000E+00 0.  1.
         11    1    1    2    0    0  0.33548175313E+02  0.34072036256E+02  0.62612788153E+00  0.47820244224E+02  0.00000000000E+00 0. -1.
</event>
<event>
 7    1  0.6671761E-006  0.1318696E+03  0.7561462E-02  0.1224708E+00
         -2   -1    0    0    0  501 -0.00000000000E+00  0.00000000000E+00  0.61286573254E+02  0.61286573254E+02  0.00000000000E+00 0.  1.
          2   -1    0    0  501    0  0.00000000000E+00 -0.00000000000E+00 -0.48810150227E+03  0.48810150227E+03  0.00000000000E+00 0. -1.
         23    2    1    2    0    0 -0.97572339876E+02  0.65008545195E+02 -0.11999292976E+03  0.20926563868E+03  0.12508929564E+03 0.  0.
          5    1    3    3  502    0  0.14734379974E+02  0.70546745327E+01  0.16227872608E+02  0.23402705728E+02  0.41800000000E+01 0. -1.
         -5    1    3    3    0  502 -0.11230671985E+03  0.57953870662E+02 -0.13622080237E+03  0.18586293296E+03  0.41800000000E+01 0. -1.
        -11    1    1    2    0    0  0.75850282866E+02 -0.35392224275E+02 -0.10158961901E+03  0.13162950140E+03  0.00000000000E+00 0.  1.
         11    1    1    2    0    0  0.21722057010E+02 -0.29616320919E+02 -0.20523238025E+03  0.20849293544E+03  0.00000000000E+00 0. -1.
</event>
<event>
 7    1  0.6671761E-006  0.1289280E+03  0.7561462E-02  0.1229055E+00
         -2   -1    0    0    0  501 -0.00000000000E+00  0.00000000000E+00  0.60385722910E+02  0.60385722910E+02  0.00000000000E+00 0.  1.
          2   -1    0    0  501    0  0.00000000000E+00 -0.00000000000E+00 -0.35172081691E+03  0.35172081691E+03  0.00000000000E+00 0. -1.
         23    2    1    2    0    0  0.44098436805E+02  0.64086864321E+02 -0.75935201672E+02  0.16572668861E+03  0.12508949659E+03 0.  0.
          5    1    3    3  502    0 -0.15070786762E+02  0.76995702943E+02 -0.69111865757E+02  0.10463932948E+03  0.41800000000E+01 0. -1.
         -5    1    3    3    0  502  0.59169223568E+02 -0.12908838623E+02 -0.68233359143E+01  0.61087359128E+02  0.41800000000E+01 0. -1.
        -11    1    1    2    0    0 -0.20954288461E+02  0.21440376963E+02 -0.41340803585E+02  0.51066956149E+02  0.00000000000E+00 0.  1.
         11    1    1    2    0    0 -0.23144148344E+02 -0.85527241284E+02 -0.17405908874E+03  0.19531289506E+03  0.00000000000E+00 0. -1.
</event>
<event>
 7    1  0.6671761E-006  0.8079855E+02  0.7561462E-02  0.1326800E+00
         -1   -1    0    0    0  501 -0.00000000000E+00  0.00000000000E+00  0.18223280972E+03  0.18223280972E+03  0.00000000000E+00 0.  1.
          1   -1    0    0  501    0  0.00000000000E+00 -0.00000000000E+00 -0.10027337080E+03  0.10027337080E+03  0.00000000000E+00 0. -1.
         23    2    1    2    0    0 -0.67475021846E+02 -0.66069223036E+01  0.91918135502E+02  0.16939081146E+03  0.12509106034E+03 0.  0.
          5    1    3    3  502    0 -0.44296267792E+01 -0.84191056466E+01 -0.30170340054E+02  0.31909634161E+02  0.41800000000E+01 0. -1.
         -5    1    3    3    0  502 -0.63045395067E+02  0.18121833430E+01  0.12208847556E+03  0.13748117730E+03  0.41800000000E+01 0. -1.
        -11    1    1    2    0    0 -0.98747144489E+01 -0.22891182284E+01  0.25589850806E+02  0.27524362154E+02  0.00000000000E+00 0.  1.
         11    1    1    2    0    0  0.77349736295E+02  0.88960405320E+01 -0.35548547383E+02  0.85591006906E+02  0.00000000000E+00 0. -1.
</event>
<event>
 7    1  0.6671761E-006  0.3781361E+03  0.7561462E-02  0.1051625E+00
          2   -1    0    0  501    0  0.00000000000E+00  0.00000000000E+00  0.94906309703E+03  0.94906309703E+03  0.00000000000E+00 0. -1.
         -2   -1    0    0    0  501 -0.00000000000E+00 -0.00000000000E+00 -0.16832910072E+03  0.16832910072E+03  0.00000000000E+00 0.  1.
         23    2    1    2    0    0  0.29903866045E+03  0.22973311779E+03  0.28966778443E+03  0.49168490393E+03  0.12508074816E+03 0.  0.
          5    1    3    3  502    0  0.13342164424E+03  0.80325696045E+02  0.19435301576E+03  0.24908657076E+03  0.41800000000E+01 0. -1.
         -5    1    3    3    0  502  0.16561701621E+03  0.14940742174E+03  0.95314768673E+02  0.24259833317E+03  0.41800000000E+01 0. -1.
        -11    1    1    2    0    0 -0.92426127443E+02 -0.79801808605E+02  0.23098514821E+03  0.26127582434E+03  0.00000000000E+00 0. -1.
         11    1    1    2    0    0 -0.20661253301E+03 -0.14993130918E+03  0.26008106367E+03  0.36443146949E+03  0.00000000000E+00 0.  1.
</event>
<event>
 6    1  0.6671761E-006  0.1666238E+03  0.7561462E-02  0.1181415E+00
          2   -1    0    0  501    0  0.00000000000E+00  0.00000000000E+00  0.14318307519E+03  0.14318307519E+03  0.00000000000E+00 0. -1.
         -2   -1    0    0    0  501 -0.00000000000E+00 -0.00000000000E+00 -0.20299560670E+03  0.20299560670E+03  0.00000000000E+00 0.  1.
          5    1    1    2  502    0 -0.10363700080E+03  0.20986069280E+02 -0.24020101701E+02  0.10851488711E+03  0.41800000000E+01 0. -1.
         -5    1    1    2    0  502  0.11831348493E+03 -0.58360048352E+02 -0.43090098718E+02  0.13884597570E+03  0.41800000000E+01 0.  1.
        -11    1    1    2    0    0 -0.50719485273E+02  0.14522242192E+02 -0.82469854638E+01  0.53398262836E+02  0.00000000000E+00 0. -1.
         11    1    1    2    0    0  0.36043001144E+02  0.22851736880E+02  0.15544654374E+02  0.45419556245E+02  0.00000000000E+00 0.  1.
</event>
<event>
 7    1  0.6671761E-006  0.9083219E+02  0.7561462E-02  0.1300849E+00
         -1   -1    0    0    0  501 -0.00000000000E+00  0.00000000000E+00  0.48903686600E+02  0.48903686600E+02  0.00000000000E+00 0.  1.
          1   -1    0    0  501    0  0.00000000000E+00 -0.00000000000E+00 -0.25656109457E+03  0.25656109457E+03  0.00000000000E+00 0. -1.
         23    2    1    2    0    0 -0.38735373144E+01 -0.42357951965E+01 -0.87001267584E+02  0.15247041436E+03  0.12508021602E+03 0.  0.
          5    1    3    3  502    0 -0.49421965123E+02  0.11187428983E+02 -0.90783893274E+02  0.10405227956E+03  0.41800000000E+01 0. -1.
         -5    1    3    3    0  502  0.45548427809E+02 -0.15423224179E+02  0.37826256899E+01  0.48418134795E+02  0.41800000000E+01 0. -1.
        -11    1    1    2    0    0  0.32985062981E+02 -0.24926263242E+02 -0.23723242672E+02  0.47666814682E+02  0.00000000000E+00 0.  1.
         11    1    1    2    0    0 -0.29111525667E+02  0.29162058438E+02 -0.96932897713E+02  0.10532755213E+03  0.00000000000E+00 0. -1.
</event>
<event>
 7    1  0.6671761E-006  0.1421208E+03  0.7561462E-02  0.1210503E+00
          2   -1    0    0  501    0  0.00000000000E+00  0.00000000000E+00  0.65743110140E+03  0.65743110140E+03  0.00000000000E+00 0.  1.
         -2   -1    0    0    0  501 -0.00000000000E+00 -0.00000000000E+00 -0.37045183609E+02  0.37045183609E+02  0.00000000000E+00 0. -1.
         23    2    1    2    0    0 -0.10503233120E+03 -0.67632481624E+02  0.32521825973E+03  0.37016377408E+03  0.12509340515E+03 0.  0.
          5    1    3    3  502    0 -0.14648285241E+02 -0.67069906691E+02  0.64883493430E+02  0.94553079081E+02  0.41800000000E+01 0.  1.
         -5    1    3    3    0  502 -0.90384045963E+02 -0.56257493259E+00  0.26033476630E+03  0.27561069500E+03  0.41800000000E+01 0.  1.
        -11    1    1    2    0    0  0.84383894051E+02  0.52518101843E+02  0.17322617128E+03  0.19971504454E+03  0.00000000000E+00 0. -1.
         11    1    1    2    0    0  0.20648437153E+02  0.15114379781E+02  0.12194148678E+03  0.12459746639E+03  0.00000000000E+00 0.  1.
</event>
<event>
 7    1  0.6671761E-006  0.1232276E+03  0.7561462E-02  0.1237865E+00
         -2   -1    0    0    0  501 -0.00000000000E+00  0.00000000000E+00  0.60107981052E+02  0.60107981052E+02  0.00000000000E+00 0. -1.
          2   -1    0    0  501    0  0.00000000000E+00 -0.00000000000E+00 -0.31189350083E+03  0.31189350083E+03  0.00000000000E+00 0.  1.
         23    2    1    2    0    0 -0.69273489288E+02  0.24537730909E+02 -0.85365303148E+02  0.16833252738E+03  0.12509072003E+03 0.  0.
          5    1    3    3  502    0 -0.19197921053E+02 -0.45285596115E+02 -0.33524732513E+01  0.49477842163E+02  0.41800000000E+01 0.  1.
         -5    1    3    3    0  502 -0.50075568235E+02  0.69823327024E+02 -0.82012829897E+02  0.11885468522E+03  0.41800000000E+01 0.  1.
        -11    1    1    2    0    0  0.48545237744E+01  0.27704069063E+02 -0.75666652880E+02  0.80724991185E+02  0.00000000000E+00 0.  1.
         11    1    1    2    0    0  0.64418965513E+02 -0.52241799972E+02 -0.90753563747E+02  0.12294396331E+03  0.00000000000E+00 0. -1.
</event>
<event>
 7    1  0.6671761E-006  0.1233434E+03  0.7561462E-02  0.1237681E+00
          1   -1    0    0  501    0  0.00000000000E+00  0.00000000000E+00  0.34076092377E+03  0.34076092377E+03  0.00000000000E+00 0. -1.
         -1   -1    0    0    0  501 -0.00000000000E+00 -0.00000000000E+00 -0.12773220172E+03  0.12773220172E+03  0.00000000000E+00 0.  1.
         23    2    1    2    0    0  0.68807566008E+02  0.20200224826E+02 -0.71642534977E+02  0.16100905616E+03  0.12509489647E+03 0.  0.
          5    1    3    3  502    0  0.19628180799E+01  0.54962234967E+02 -0.65015333255E+02  0.85259403502E+02  0.41800000000E+01 0. -1.
         -5    1    3    3    0  502  0.66844747928E+02 -0.34762010141E+02 -0.66272017227E+01  0.75749652654E+02  0.41800000000E+01 0. -1.
        -11    1    1    2    0    0  0.86791432656E+01  0.24932029035E+02  0.58288332634E+02  0.63987993569E+02  0.00000000000E+00 0. -1.
         11    1    1    2    0    0 -0.77486709273E+02 -0.45132253861E+02  0.22638292439E+03  0.24349607576E+03  0.00000000000E+00 0.  1.
</event>
<event>
 7    1  0.6671761E-006  0.1879201E+03  0.7561462E-02  0.1160351E+00
         -1   -1    0    0    0  501 -0.00000000000E+00  0.00000000000E+00  0.34970020259E+02  0.34970020259E+02  0.00000000000E+00 0.  1.
          1   -1    0    0  501    0  0.00000000000E+00 -0.00000000000E+00 -0.12262463468E+04  0.12262463468E+04  0.00000000000E+00 0. -1.
         23    2    1    2    0    0 -0.88369376406E+02  0.13199547713E+03 -0.38217559934E+03  0.43235107273E+03  0.12504922507E+03 0.  0.
          5    1    3    3  502    0 -0.16584122422E+02  0.12281478844E+03 -0.28757530350E+03  0.31317013420E+03  0.41800000000E+01 0. -1.
         -5    1    3    3    0  502 -0.71785253983E+02  0.91806886881E+01 -0.94600295849E+02  0.11918093853E+03  0.41800000000E+01 0. -1.
        -11    1    1    2    0    0  0.76775968830E+02 -0.39895252185E+02 -0.42356847634E+03  0.43231520293E+03  0.00000000000E+00 0.  1.
         11    1    1    2    0    0  0.11593407576E+02 -0.92100224944E+02 -0.38553225087E+03  0.39655009141E+03  0.00000000000E+00 0. -1.
</event>
<event>
 7    1  0.6671761E-006  0.1057168E+03  0.7561462E-02  0.1268714E+00
         -1   -1    0    0    0  501 -0.00000000000E+00  0.00000000000E+00  0.77072135180E+02  0.77072135180E+02  0.00000000000E+00 0.  1.
          1   -1    0    0  501    0  0.00000000000E+00 -0.00000000000E+00 -0.16847943001E+03  0.16847943001E+03  0.00000000000E+00 0. -1.
         23    2    1    2    0    0  0.11462015705E+02 -0.92369365343E+01 -0.18742783938E+02  0.12734210746E+03  0.12509205244E+03 0.  0.
          5    1    3    3  502    0  0.31580253372E+02 -0.58763579056E+02  0.81822238619E+01  0.67341605370E+02  0.41800000000E+01 0.  1.
         -5    1    3    3    0  502 -0.20118237667E+02  0.49526642522E+02 -0.26925007799E+02  0.60000502092E+02  0.41800000000E+01 0.  1.
        -11    1    1    2    0    0  0.90846916147E+01 -0.38205293681E+02 -0.44445437951E+02  0.59309131183E+02  0.00000000000E+00 0.  1.
         11    1    1    2    0    0 -0.20546707320E+02  0.47442230215E+02 -0.28219072941E+02  0.58900326545E+02  0.00000000000E+00 0. -1.
</event>
<event>
 7    1  0.6671761E-006  0.1053877E+03  0.7561462E-02  0.1269358E+00
          2   -1    0    0  501    0  0.00000000000E+00  0.00000000000E+00  0.18745282115E+03  0.18745282115E+03  0.00000000000E+00 0. -1.
         -2   -1    0    0    0  501 -0.00000000000E+00 -0.00000000000E+00 -0.99438280829E+02  0.99438280829E+02  0.00000000000E+00 0.  1.
         23    2    1    2    0    0  0.52558878711E+02 -0.11491336221E+02 -0.20472447837E+02  0.13766559889E+03  0.12505282667E+03 0.  0.
          5    1    3    3  502    0  0.34248778750E+02  0.54105376923E+02  0.60603618636E+01  0.64455962050E+02  0.41800000000E+01 0.  1.
         -5    1    3    3    0  502  0.18310099961E+02 -0.65596713143E+02 -0.26532809701E+02  0.73209636841E+02  0.41800000000E+01 0.  1.
        -11    1    1    2    0    0 -0.48109307286E+02 -0.15864275926E+02  0.16690264128E+02  0.53336156731E+02  0.00000000000E+00 0.  1.
         11    1    1    2    0    0 -0.44495714249E+01  0.27355612147E+02  0.91796724035E+02  0.95889346360E+02  0.00000000000E+00 0. -1.
</event>
<event>
 7    1  0.6671761E-006  0.9507292E+02  0.7561462E-02  0.1291012E+00
          1   -1    0    0  501    0  0.00000000000E+00  0.00000000000E+00  0.41921525683E+03  0.41921525683E+03  0.00000000000E+00 0. -1.
         -1   -1    0    0    0  501 -0.00000000000E+00 -0.00000000000E+00 -0.23961227949E+02  0.23961227949E+02  0.00000000000E+00 0.  1.
         23    2    1    2    0    0  0.82895571904E+01  0.33554949932E+02  0.27047826539E+03  0.30000158600E+03  0.12509119924E+03 0.  0.
          5    1    3    3  502    0  0.61628324951E+02  0.27856760025E+01  0.89446437334E+02  0.10873797855E+03  0.41800000000E+01 0.  1.
         -5    1    3    3    0  502 -0.53338767761E+02  0.30769273930E+02  0.18103182806E+03  0.19126360745E+03  0.41800000000E+01 0.  1.
        -11    1    1    2    0    0  0.15516451229E+02 -0.39173002630E+02  0.99242016068E+02  0.10781587150E+03  0.00000000000E+00 0.  1.
         11    1    1    2    0    0 -0.23806008419E+02  0.56180526973E+01  0.25533747421E+02  0.35359027282E+02  0.00000000000E+00 0. -1.
</event>
<event>
 7    1  0.6671761E-006  0.1045642E+03  0.7561462E-02  0.1270981E+00
          1   -1    0    0  501    0  0.00000000000E+00  0.00000000000E+00  0.50269814175E+03  0.50269814175E+03  0.00000000000E+00 0. -1.
         -1   -1    0    0    0  501 -0.00000000000E+00 -0.00000000000E+00 -0.43221026171E+02  0.43221026171E+02  0.00000000000E+00 0.  1.
         23    2    1    2    0    0 -0.75401953520E+02  0.46521608346E+02  0.16115719681E+03  0.22241606981E+03  0.12509017304E+03 0.  0.
          5    1    3    3  502    0 -0.77154912493E+02  0.27916032539E+02  0.17855138397E+03  0.19654580767E+03  0.41800000000E+01 0.  1.
         -5    1    3    3    0  502  0.17529589736E+01  0.18605575807E+02 -0.17394187164E+02  0.25870262143E+02  0.41800000000E+01 0.  1.
        -11    1    1    2    0    0  0.22844615898E+02  0.14676967278E+02  0.19987950329E+02  0.33716583492E+02  0.00000000000E+00 0.  1.
         11    1    1    2    0    0  0.52557337622E+02 -0.61198575624E+02  0.27833196844E+03  0.28978651461E+03  0.00000000000E+00 0. -1.
</event>
<event>
 7    1  0.6671761E-006  0.8342094E+02  0.7561462E-02  0.1319614E+00
          1   -1    0    0  501    0  0.00000000000E+00  0.00000000000E+00  0.14739600537E+02  0.14739600537E+02  0.00000000000E+00 0. -1.
         -1   -1    0    0    0  501 -0.00000000000E+00 -0.00000000000E+00 -0.98294153180E+03  0.98294153180E+03  0.00000000000E+00 0.  1.
         23    2    1    2    0    0 -0.67468991103E+02  0.47483980709E+02 -0.72829090592E+03  0.74354751655E+03  0.12509385492E+03 0.  0.
          5    1    3    3  502    0 -0.52771439256E+02  0.29986515444E+02 -0.11751622382E+03  0.13233121767E+03  0.41800000000E+01 0.  1.
         -5    1    3    3    0  502 -0.14697551847E+02  0.17497465265E+02 -0.61077468210E+03  0.61121629888E+03  0.41800000000E+01 0.  1.
        -11    1    1    2    0    0  0.51772105371E+02 -0.32872315924E+02 -0.19397063373E+03  0.20343437959E+03  0.00000000000E+00 0.  1.
         11    1    1    2    0    0  0.15696885732E+02 -0.14611664785E+02 -0.45940391613E+02  0.50699236198E+02  0.00000000000E+00 0. -1.
</event>
<event>
 7    1  0.6671761E-006  0.1064177E+03  0.7561462E-02  0.1267351E+00
         -3   -1    0    0    0  501 -0.00000000000E+00  0.00000000000E+00  0.19599955422E+03  0.19599955422E+03  0.00000000000E+00 0.  1.
          3   -1    0    0  501    0  0.00000000000E+00 -0.00000000000E+00 -0.60015926865E+02  0.60015926865E+02  0.00000000000E+00 0. -1.
         23    2    1    2    0    0  0.13391143398E+01 -0.15160001690E+02  0.82636791020E+02  0.15069188822E+03  0.12509031564E+03 0.  0.
          5    1    3    3  502    0 -0.50318718543E+02  0.25144075113E+02  0.57053929606E+02  0.80229802646E+02  0.41800000000E+01 0.  1.
         -5    1    3    3    0  502  0.51657832882E+02 -0.40304076804E+02  0.25582861413E+02  0.70462085572E+02  0.41800000000E+01 0.  1.
        -11    1    1    2    0    0 -0.36261830947E+02  0.35178700930E+02  0.28163461067E+02  0.57841524202E+02  0.00000000000E+00 0.  1.
         11    1    1    2    0    0  0.34922716608E+02 -0.20018699240E+02  0.25183375265E+02  0.47482068660E+02  0.00000000000E+00 0. -1.
</event>
<event>
 7    1  0.6671761E-006  0.8757228E+02  0.7561462E-02  0.1308840E+00
          3   -1    0    0  501    0  0.00000000000E+00  0.00000000000E+00  0.15234578730E+03  0.15234578730E+03  0.00000000000E+00 0. -1.
         -3   -1    0    0    0  501 -0.00000000000E+00 -0.00000000000E+00 -0.14032467209E+03  0.14032467209E+03  0.00000000000E+00 0.  1.
         23    2    1    2    0    0  0.32097841515E+02 -0.50992596383E+02 -0.71053237436E+02  0.15594337807E+03  0.12505702018E+03 0.  0.
          5    1    3    3  502    0  0.11523294044E+02 -0.44834701317E+02  0.28160758842E+02  0.54345537871E+02  0.41800000000E+01 0.  1.
         -5    1    3    3    0  502  0.20574547470E+02 -0.61578950650E+01 -0.99213996279E+02  0.10159784020E+03  0.41800000000E+01 0.  1.
        -11    1    1    2    0    0  0.84131171893E+01  0.63757816856E+02  0.61926701372E+02  0.89279091022E+02  0.00000000000E+00 0.  1.
         11    1    1    2    0    0 -0.40510958704E+02 -0.12765220473E+02  0.21147651281E+02  0.47447990301E+02  0.00000000000E+00 0. -1.
</event>
<event>
 7    1  0.6671761E-006  0.7979421E+02  0.7561462E-02  0.1329636E+00
         -2   -1    0    0    0  501 -0.00000000000E+00  0.00000000000E+00  0.32467879305E+02  0.32467879305E+02  0.00000000000E+00 0.  1.
          2   -1    0    0  501    0  0.00000000000E+00 -0.00000000000E+00 -0.55061809171E+03  0.55061809171E+03  0.00000000000E+00 0. -1.
         23    2    1    2    0    0  0.69250679178E+02  0.23795060565E+02 -0.22083337735E+03  0.26415299509E+03  0.12509021860E+03 0.  0.
          5    1    3    3  502    0  0.39426282065E+02  0.33784682157E+02 -0.12700427502E+02  0.53615387014E+02  0.41800000000E+01 0.  1.
         -5    1    3    3    0  502  0.29824397113E+02 -0.99896215923E+01 -0.20813294985E+03  0.21053760808E+03  0.41800000000E+01 0.  1.
        -11    1    1    2    0    0 -0.75537618059E+01 -0.10028987657E+02  0.22618068490E+01  0.12757573479E+02  0.00000000000E+00 0.  1.
         11    1    1    2    0    0 -0.61696917372E+02 -0.13766072908E+02 -0.29957864191E+03  0.30617540245E+03  0.00000000000E+00 0. -1.
</event>
<event>
 7    1  0.6671761E-006  0.1348737E+03  0.7561462E-02  0.1220398E+00
          4   -1    0    0  501    0  0.00000000000E+00  0.00000000000E+00  0.37691640535E+03  0.37691640535E+03  0.00000000000E+00 0. -1.
         -4   -1    0    0    0  501 -0.00000000000E+00 -0.00000000000E+00 -0.67288915415E+02  0.67288915415E+02  0.00000000000E+00 0.  1.
         23    2    1    2    0    0  0.82171486823E+02 -0.33536615385E+02  0.66198656721E+02  0.16705181232E+03  0.12508872063E+03 0.  0.
          5    1    3    3  502    0  0.66607714667E+02 -0.76052084990E+02  0.21804382412E+02  0.10350560747E+03  0.41800000000E+01 0. -1.
         -5    1    3    3    0  502  0.15563772156E+02  0.42515469605E+02  0.44394274309E+02  0.63546204850E+02  0.41800000000E+01 0. -1.
        -11    1    1    2    0    0 -0.90235086236E+02  0.51151176512E+02  0.15415905040E+03  0.18580588383E+03  0.00000000000E+00 0.  1.
         11    1    1    2    0    0  0.80635994127E+01 -0.17614561127E+02  0.89269782816E+02  0.91347624617E+02  0.00000000000E+00 0. -1.
</event>
<event>
 7    1  0.6671761E-006  0.1203368E+03  0.7561462E-02  0.1242542E+00
         -1   -1    0    0    0  501 -0.00000000000E+00  0.00000000000E+00  0.43357348855E+03  0.43357348855E+03  0.00000000000E+00 0.  1.
          1   -1    0    0  501    0  0.00000000000E+00 -0.00000000000E+00 -0.85984677705E+02  0.85984677705E+02  0.00000000000E+00 0. -1.
         23    2    1    2    0    0  0.63625746358E+02  0.66149873707E+01  0.38025568799E+03  0.40488835094E+03  0.12348358117E+03 0.  0.
          5    1    3    3  502    0 -0.32753591455E+02  0.11245550497E+02  0.16956917405E+03  0.17311971969E+03  0.41800000000E+01 0. -1.
         -5    1    3    3    0  502  0.96379337813E+02 -0.46305631260E+01  0.21068651394E+03  0.23176863124E+03  0.41800000000E+01 0.  1.
        -11    1    1    2    0    0 -0.15785832774E+01 -0.39129049582E+02 -0.18005434573E+02  0.43101857506E+02  0.00000000000E+00 0. -1.
         11    1    1    2    0    0 -0.62047163080E+02  0.32514062211E+02 -0.14661442566E+02  0.71567957815E+02  0.00000000000E+00 0.  1.
</event>
<event>
 7    1  0.6671761E-006  0.1325046E+03  0.7561462E-02  0.1223786E+00
          2   -1    0    0  501    0  0.00000000000E+00  0.00000000000E+00  0.11248173439E+04  0.11248173439E+04  0.00000000000E+00 0. -1.
         -2   -1    0    0    0  501 -0.00000000000E+00 -0.00000000000E+00 -0.15753602085E+02  0.15753602085E+02  0.00000000000E+00 0.  1.
         23    2    1    2    0    0 -0.24825340980E+01 -0.76818024991E+02  0.62809937524E+03  0.64502947866E+03  0.12508809384E+03 0.  0.
          5    1    3    3  502    0  0.36992288799E+02  0.19936217796E+02  0.17879837731E+03  0.18371775728E+03  0.41800000000E+01 0. -1.
         -5    1    3    3    0  502 -0.39474822897E+02 -0.96754242787E+02  0.44930099793E+03  0.46131172138E+03  0.41800000000E+01 0. -1.
        -11    1    1    2    0    0 -0.34274888460E+02  0.14038975075E+01  0.17212471605E+03  0.17550970566E+03  0.00000000000E+00 0. -1.
         11    1    1    2    0    0  0.36757422558E+02  0.75414127483E+02  0.30883965053E+03  0.32003176167E+03  0.00000000000E+00 0.  1.
</event>
<event>
 7    1  0.6671761E-006  0.9263666E+02  0.7561462E-02  0.1296589E+00
          1   -1    0    0  501    0  0.00000000000E+00  0.00000000000E+00  0.19245012083E+03  0.19245012083E+03  0.00000000000E+00 0. -1.
         -1   -1    0    0    0  501 -0.00000000000E+00 -0.00000000000E+00 -0.88044211233E+02  0.88044211233E+02  0.00000000000E+00 0.  1.
         23    2    1    2    0    0 -0.55611536697E+02  0.44912531163E+02  0.54791315877E+02  0.15424417314E+03  0.12521740367E+03 0.  0.
          5    1    3    3  502    0 -0.30216714054E+02  0.34932736095E+02  0.94858616044E+02  0.10558870819E+03  0.41800000000E+01 0. -1.
         -5    1    3    3    0  502 -0.25394822642E+02  0.99797950672E+01 -0.40067300167E+02  0.48655464948E+02  0.41800000000E+01 0. -1.
        -11    1    1    2    0    0  0.25312966458E+02 -0.68414768324E+02  0.49042798052E+02  0.87900641844E+02  0.00000000000E+00 0. -1.
         11    1    1    2    0    0  0.30298570239E+02  0.23502237162E+02  0.57179566723E+00  0.38349517082E+02  0.00000000000E+00 0.  1.
</event>
<event>
 7    1  0.6671761E-006  0.7971600E+02  0.7561462E-02  0.1329859E+00
          2   -1    0    0  501    0  0.00000000000E+00  0.00000000000E+00  0.17617590953E+03  0.17617590953E+03  0.00000000000E+00 0. -1.
         -2   -1    0    0    0  501 -0.00000000000E+00 -0.00000000000E+00 -0.49750358362E+02  0.49750358362E+02  0.00000000000E+00 0.  1.
         23    2    1    2    0    0  0.24584787119E+02 -0.44821347837E+02  0.63921204858E+02  0.14338394858E+03  0.11772710521E+03 0.  0.
          5    1    3    3  502    0  0.28396546922E+02 -0.72377670402E+02  0.79458343497E+02  0.11124743503E+03  0.41800000000E+01 0. -1.
         -5    1    3    3    0  502 -0.38117598033E+01  0.27556322565E+02 -0.15537138639E+02  0.32136513551E+02  0.41800000000E+01 0.  1.
        -11    1    1    2    0    0 -0.10492111990E+02  0.34255142725E+02  0.46844043953E+02  0.58973414951E+02  0.00000000000E+00 0.  1.
         11    1    1    2    0    0 -0.14092675128E+02  0.10566205112E+02  0.15660302356E+02  0.23568904358E+02  0.00000000000E+00 0. -1.
</event>
<event>
 7    1  0.6671761E-006  0.1018542E+03  0.7561462E-02  0.1276445E+00
         -3   -1    0    0    0  501 -0.00000000000E+00  0.00000000000E+00  0.86445767349E+03  0.86445767349E+03  0.00000000000E+00 0.  1.
          3   -1    0    0  501    0  0.00000000000E+00 -0.00000000000E+00 -0.27912132162E+02  0.27912132162E+02  0.00000000000E+00 0. -1.
         23    2    1    2    0    0 -0.33259847668E+02 -0.42853469855E+02  0.73097008271E+03  0.74357845238E+03  0.12509602585E+03 0.  0.
          5    1    3    3  502    0 -0.16301571874E+02 -0.82783846410E+02  0.34664419041E+03  0.35678925659E+03  0.41800000000E+01 0. -1.
         -5    1    3    3    0  502 -0.16958275795E+02  0.39930376555E+02  0.38432589230E+03  0.38678919579E+03  0.41800000000E+01 0. -1.
        -11    1    1    2    0    0 -0.14307204509E+02  0.13981388776E+02 -0.86030007010E+01  0.21775834175E+02  0.00000000000E+00 0. -1.
         11    1    1    2    0    0  0.47567052177E+02  0.28872081079E+02  0.11417845932E+03  0.12701551910E+03  0.00000000000E+00 0.  1.
</event>
<event>
 7    1  0.6671761E-006  0.8933935E+02  0.7561462E-02  0.1304459E+00
         -3   -1    0    0    0  501 -0.00000000000E+00  0.00000000000E+00  0.77829886089E+03  0.77829886089E+03  0.00000000000E+00 0.  1.
          3   -1    0    0  501    0  0.00000000000E+00 -0.00000000000E+00 -0.15283347807E+02  0.15283347807E+02  0.00000000000E+00 0. -1.
         23    2    1    2    0    0  0.14955581072E+02  0.27827360056E+01  0.46377706205E+03  0.48059186901E+03  0.12509183929E+03 0.  0.
          5    1    3    3  502    0  0.45643049143E+02  0.24272012459E+02  0.82447901161E+02  0.97404041650E+02  0.41800000000E+01 0. -1.
         -5    1    3    3    0  502 -0.30687468071E+02 -0.21489276454E+02  0.38132916088E+03  0.38318782736E+03  0.41800000000E+01 0. -1.
        -11    1    1    2    0    0 -0.28112702817E+02 -0.40427227950E+02  0.20151043797E+03  0.20743948860E+03  0.00000000000E+00 0. -1.
         11    1    1    2    0    0  0.13157121745E+02  0.37644491945E+02  0.97728013064E+02  0.10555085108E+03  0.00000000000E+00 0.  1.
</event>
<event>
 7    1  0.6671761E-006  0.1853417E+03  0.7561462E-02  0.1162731E+00
          1   -1    0    0  501    0  0.00000000000E+00  0.00000000000E+00  0.13898775471E+03  0.13898775471E+03  0.00000000000E+00 0. -1.
         -1   -1    0    0    0  501 -0.00000000000E+00 -0.00000000000E+00 -0.24831275051E+03  0.24831275051E+03  0.00000000000E+00 0.  1.
         23    2    1    2    0    0 -0.18106156524E+02  0.14949267464E+03 -0.67240937143E+02  0.20699031847E+03  0.12509098944E+03 0.  0.
          5    1    3    3  502    0 -0.63207403238E+02  0.35034858442E+02 -0.30284481492E+02  0.78468078538E+02  0.41800000000E+01 0. -1.
         -5    1    3    3    0  502  0.45101246714E+02  0.11445781620E+03 -0.36956455651E+02  0.12852223993E+03  0.41800000000E+01 0. -1.
        -11    1    1    2    0    0 -0.29146428363E+02 -0.10944701479E+03 -0.23883053378E+02  0.11575216444E+03  0.00000000000E+00 0.  1.
         11    1    1    2    0    0  0.47252584887E+02 -0.40045659843E+02 -0.18201005276E+02  0.64558022304E+02  0.00000000000E+00 0. -1.
</event>
<event>
 7    1  0.6671761E-006  0.1375912E+03  0.7561462E-02  0.1216607E+00
          1   -1    0    0  501    0  0.00000000000E+00  0.00000000000E+00  0.70920693934E+03  0.70920693934E+03  0.00000000000E+00 0. -1.
         -1   -1    0    0    0  501 -0.00000000000E+00 -0.00000000000E+00 -0.28186609301E+02  0.28186609301E+02  0.00000000000E+00 0.  1.
         23    2    1    2    0    0  0.94859021907E+01  0.89147551477E+02  0.36040496667E+03  0.39188979457E+03  0.12509437563E+03 0.  0.
          5    1    3    3  502    0 -0.54452705508E+02  0.57324137223E+02  0.14934619676E+03  0.16903524110E+03  0.41800000000E+01 0. -1.
         -5    1    3    3    0  502  0.63938607698E+02  0.31823414254E+02  0.21105876991E+03  0.22285455348E+03  0.41800000000E+01 0. -1.
        -11    1    1    2    0    0 -0.44159900649E+02 -0.74960547969E+02  0.26075760890E+03  0.27488854319E+03  0.00000000000E+00 0.  1.
         11    1    1    2    0    0  0.34673998458E+02 -0.14187003508E+02  0.59857754471E+02  0.70615210882E+02  0.00000000000E+00 0. -1.
</event>
<event>
 7    1  0.6671761E-006  0.6098012E+02  0.7561462E-02  0.1393764E+00
         -2   -1    0    0    0  501 -0.00000000000E+00  0.00000000000E+00  0.11677244628E+03  0.11677244628E+03  0.00000000000E+00 0.  1.
          2   -1    0    0  501    0  0.00000000000E+00 -0.00000000000E+00 -0.11061375538E+03  0.11061375538E+03  0.00000000000E+00 0. -1.
         23    2    1    2    0    0  0.21709983816E+02  0.26275155444E+02  0.17208325820E+02  0.13078821852E+03  0.12509086472E+03 0.  0.
          5    1    3    3  502    0  0.27077388022E+02 -0.92643769671E+01 -0.48099891854E+02  0.56125623551E+02  0.41800000000E+01 0.  1.
         -5    1    3    3    0  502 -0.53674042057E+01  0.35539532411E+02  0.65308217674E+02  0.74662594970E+02  0.41800000000E+01 0.  1.
        -11    1    1    2    0    0 -0.28817232613E+02  0.83273222475E+00  0.33356538046E+02  0.44088376800E+02  0.00000000000E+00 0.  1.
         11    1    1    2    0    0  0.71072487970E+01 -0.27107887669E+02 -0.44406172969E+02  0.52509606331E+02  0.00000000000E+00 0. -1.
</event>
<event>
 7    1  0.6671761E-006  0.1092160E+03  0.7561462E-02  0.1262029E+00
         -4   -1    0    0    0  501 -0.00000000000E+00  0.00000000000E+00  0.39938617324E+02  0.39938617324E+02  0.00000000000E+00 0.  1.
          4   -1    0    0  501    0  0.00000000000E+00 -0.00000000000E+00 -0.37485340411E+03  0.37485340411E+03  0.00000000000E+00 0. -1.
         23    2    1    2    0    0 -0.14030368261E+02 -0.41704459075E+02 -0.12117408558E+03  0.17962997333E+03  0.12509058783E+03 0.  0.
          5    1    3    3  502    0 -0.55652374571E+02 -0.62366887474E+02 -0.93061061866E+02  0.12515849585E+03  0.41800000000E+01 0.  1.
         -5    1    3    3    0  502  0.41622006310E+02  0.20662428399E+02 -0.28113023715E+02  0.54471477481E+02  0.41800000000E+01 0.  1.
        -11    1    1    2    0    0  0.20456752042E+02 -0.18473793999E+02 -0.25938938614E+02  0.37849548284E+02  0.00000000000E+00 0.  1.
         11    1    1    2    0    0 -0.64263837807E+01  0.60178253074E+02 -0.18780176259E+03  0.19731249981E+03  0.00000000000E+00 0. -1.
</event>
<event>
 7    1  0.6671761E-006  0.2165203E+03  0.7561462E-02  0.1136504E+00
          2   -1    0    0  501    0  0.00000000000E+00  0.00000000000E+00  0.78785999919E+03  0.78785999919E+03  0.00000000000E+00 0. -1.
         -2   -1    0    0    0  501 -0.00000000000E+00 -0.00000000000E+00 -0.68134136373E+02  0.68134136373E+02  0.00000000000E+00 0.  1.
         23    2    1    2    0    0 -0.35196971344E+02 -0.19123111735E+03  0.25577867675E+03  0.34478933371E+03  0.12509510830E+03 0.  0.
          5    1    3    3  502    0 -0.42251182837E+02 -0.66945515559E+01  0.74311359068E+02  0.85846548901E+02  0.41800000000E+01 0. -1.
         -5    1    3    3    0  502  0.70542114935E+01 -0.18453656580E+03  0.18146731769E+03  0.25894278481E+03  0.41800000000E+01 0. -1.
        -11    1    1    2    0    0  0.54648159249E+02  0.12780505870E+03  0.23693652103E+03  0.27469887029E+03  0.00000000000E+00 0. -1.
         11    1    1    2    0    0 -0.19451187905E+02  0.63426058652E+02  0.22701066503E+03  0.23650593157E+03  0.00000000000E+00 0.  1.
</event>
<event>
 7    1  0.6671761E-006  0.1709698E+03  0.7561462E-02  0.1176840E+00
         -2   -1    0    0    0  501 -0.00000000000E+00  0.00000000000E+00  0.19865747307E+03  0.19865747307E+03  0.00000000000E+00 0.  1.
          2   -1    0    0  501    0  0.00000000000E+00 -0.00000000000E+00 -0.19122432631E+03  0.19122432631E+03  0.00000000000E+00 0. -1.
         23    2    1    2    0    0 -0.14588706051E+03 -0.22136065630E+02  0.67218857556E+02  0.20479121044E+03  0.12509206705E+03 0.  0.
          5    1    3    3  502    0 -0.11339070622E+03 -0.71428119607E+02  0.42542486812E+02  0.14066543325E+03  0.41800000000E+01 0.  1.
         -5    1    3    3    0  502 -0.32496354285E+02  0.49292053977E+02  0.24676370743E+02  0.64125777190E+02  0.41800000000E+01 0.  1.
        -11    1    1    2    0    0  0.11038946118E+03  0.87482556317E+01 -0.84948758690E+02  0.13956595831E+03  0.00000000000E+00 0. -1.
         11    1    1    2    0    0  0.35497599331E+02  0.13387809998E+02  0.25163047888E+02  0.45524630629E+02  0.00000000000E+00 0.  1.
</event>
<event>
 7    1  0.6671761E-006  0.1070652E+03  0.7561462E-02  0.1266103E+00
          1   -1    0    0  501    0  0.00000000000E+00  0.00000000000E+00  0.29683668646E+02  0.29683668646E+02  0.00000000000E+00 0. -1.
         -1   -1    0    0    0  501 -0.00000000000E+00 -0.00000000000E+00 -0.60455388269E+03  0.60455388269E+03  0.00000000000E+00 0.  1.
         23    2    1    2    0    0 -0.31035603003E+02 -0.43342276923E+02 -0.45737870021E+03  0.47716333814E+03  0.12509122365E+03 0.  0.
          5    1    3    3  502    0 -0.49358056544E+01 -0.85587012889E+02 -0.27349947188E+03  0.28665123839E+03  0.41800000000E+01 0.  1.
         -5    1    3    3    0  502 -0.26099797349E+02  0.42244735966E+02 -0.18387922833E+03  0.19051209975E+03  0.41800000000E+01 0.  1.
        -11    1    1    2    0    0  0.91771479474E+01  0.53558206368E+02 -0.12104850196E+03  0.13268549785E+03  0.00000000000E+00 0.  1.
         11    1    1    2    0    0  0.21858455056E+02 -0.10215929444E+02  0.35569881230E+01  0.24388715349E+02  0.00000000000E+00 0. -1.
</event>
<event>
 6    1  0.6671761E-006  0.1043076E+03  0.7561462E-02  0.1271490E+00
         -1   -1    0    0    0  501 -0.00000000000E+00  0.00000000000E+00  0.21070433030E+03  0.21070433030E+03  0.00000000000E+00 0.  1.
          1   -1    0    0  501    0  0.00000000000E+00 -0.00000000000E+00 -0.91647481904E+02  0.91647481904E+02  0.00000000000E+00 0. -1.
          5    1    1    2  502    0 -0.19792054762E+02  0.23514262223E+02 -0.18334508933E+02  0.36031549750E+02  0.41800000000E+01 0. -1.
         -5    1    1    2    0  502  0.92624926034E+02 -0.24698360750E+02  0.10904735917E+03  0.14525214245E+03  0.41800000000E+01 0.  1.
        -11    1    1    2    0    0 -0.73127508379E+01 -0.12713849128E+02  0.48863700523E+02  0.51017443226E+02  0.00000000000E+00 0.  1.
         11    1    1    2    0    0 -0.65520120434E+02  0.13897947656E+02 -0.20519702364E+02  0.70050676770E+02  0.00000000000E+00 0. -1.
</event>
<event>
 7    1  0.6671761E-006  0.1325312E+03  0.7561462E-02  0.1223747E+00
          2   -1    0    0  501    0  0.00000000000E+00  0.00000000000E+00  0.34990176495E+03  0.34990176495E+03  0.00000000000E+00 0. -1.
         -2   -1    0    0    0  501 -0.00000000000E+00 -0.00000000000E+00 -0.57690839969E+02  0.57690839969E+02  0.00000000000E+00 0.  1.
         23    2    1    2    0    0  0.75416747139E+02 -0.43635042894E+02  0.12614336070E+03  0.19786582694E+03  0.12508811016E+03 0.  0.
          5    1    3    3  502    0  0.29288768462E+02  0.37536697084E+02  0.10067438945E+02  0.48843232007E+02  0.41800000000E+01 0.  1.
         -5    1    3    3    0  502  0.46127978677E+02 -0.81171739977E+02  0.11607592176E+03  0.14902259493E+03  0.41800000000E+01 0.  1.
        -11    1    1    2    0    0 -0.37967142753E+02  0.68877736845E+02  0.12995588299E+03  0.15190186992E+03  0.00000000000E+00 0. -1.
         11    1    1    2    0    0 -0.37449604386E+02 -0.25242693952E+02  0.36111681282E+02  0.57824908056E+02  0.00000000000E+00 0.  1.
</event>
<event>
 7    1  0.6671761E-006  0.9441909E+02  0.7561462E-02  0.1292490E+00
          2   -1    0    0  501    0  0.00000000000E+00  0.00000000000E+00  0.45685359090E+03  0.45685359090E+03  0.00000000000E+00 0. -1.
         -2   -1    0    0    0  501 -0.00000000000E+00 -0.00000000000E+00 -0.34192170182E+02  0.34192170182E+02  0.00000000000E+00 0.  1.
         23    2    1    2    0    0 -0.15992795113E+02  0.60466091747E+02  0.24981368066E+03  0.28631729791E+03  0.12513513612E+03 0.  0.
          5    1    3    3  502    0 -0.55885344175E+00  0.64584110602E+02  0.25931310561E+03  0.26726799060E+03  0.41800000000E+01 0. -1.
         -5    1    3    3    0  502 -0.15433941671E+02 -0.41180188547E+01 -0.94994249452E+01  0.19049307312E+02  0.41800000000E+01 0. -1.
        -11    1    1    2    0    0  0.15459944021E+02 -0.83321277267E+02  0.11773254944E+03  0.14505998177E+03  0.00000000000E+00 0.  1.
         11    1    1    2    0    0  0.53285109158E+00  0.22855185520E+02  0.55115190614E+02  0.59668481394E+02  0.00000000000E+00 0. -1.
</event>
<event>
 7    1  0.6671761E-006  0.1154641E+03  0.7561462E-02  0.1250773E+00
          2   -1    0    0  501    0  0.00000000000E+00  0.00000000000E+00  0.25221002431E+03  0.25221002431E+03  0.00000000000E+00 0. -1.
         -2   -1    0    0    0  501 -0.00000000000E+00 -0.00000000000E+00 -0.87263012618E+02  0.87263012618E+02  0.00000000000E+00 0.  1.
         23    2    1    2    0    0 -0.57364796874E+02  0.21763452736E+02 -0.87151635743E+01  0.13959837451E+03  0.12508950514E+03 0.  0.
          5    1    3    3  502    0 -0.93822645110E+02  0.20201205290E+02  0.12984520250E+02  0.96937338507E+02  0.41800000000E+01 0.  1.
         -5    1    3    3    0  502  0.36457848236E+02  0.15622474466E+01 -0.21699683825E+02  0.42661036007E+02  0.41800000000E+01 0.  1.
        -11    1    1    2    0    0  0.55715738854E+02 -0.46970829561E+02  0.13949902140E+03  0.15738640144E+03  0.00000000000E+00 0. -1.
         11    1    1    2    0    0  0.16490580195E+01  0.25207376825E+02  0.34163153867E+02  0.42488260977E+02  0.00000000000E+00 0.  1.
</event>
<event>
 7    1  0.6671761E-006  0.1449720E+03  0.7561462E-02  0.1206791E+00
          2   -1    0    0  501    0  0.00000000000E+00  0.00000000000E+00  0.20787368977E+03  0.20787368977E+03  0.00000000000E+00 0. -1.
         -2   -1    0    0    0  501 -0.00000000000E+00 -0.00000000000E+00 -0.10885087962E+03  0.10885087962E+03  0.00000000000E+00 0.  1.
         23    2    1    2    0    0 -0.67506389152E+02 -0.77489791937E+02  0.35858418913E+02  0.16581735003E+03  0.12509111453E+03 0.  0.
          5    1    3    3  502    0  0.31673526185E+02  0.55795510376E+01  0.82877303176E+01  0.33473908117E+02  0.41800000000E+01 0.  1.
         -5    1    3    3    0  502 -0.99179915337E+02 -0.83069342974E+02  0.27570688596E+02  0.13234344192E+03  0.41800000000E+01 0.  1.
        -11    1    1    2    0    0  0.42102476049E+02 -0.44010325009E+01  0.47713814533E+02  0.63785544395E+02  0.00000000000E+00 0.  1.
         11    1    1    2    0    0  0.25403913103E+02  0.81890824437E+02  0.15450576696E+02  0.87121674962E+02  0.00000000000E+00 0. -1.
</event>
<event>
 7    1  0.6671761E-006  0.3825456E+03  0.7561462E-02  0.1049997E+00
         -2   -1    0    0    0  501 -0.00000000000E+00  0.00000000000E+00  0.26026233411E+03  0.26026233411E+03  0.00000000000E+00 0.  1.
          2   -1    0    0  501    0  0.00000000000E+00 -0.00000000000E+00 -0.57026153331E+03  0.57026153331E+03  0.00000000000E+00 0. -1.
         23    2    1    2    0    0 -0.28322989749E+03  0.23639865921E+03 -0.14561207423E+03  0.41587766845E+03  0.12509139877E+03 0.  0.
          5    1    3    3  502    0 -0.18479906882E+03  0.82433310894E+02 -0.45407506235E+02  0.20742531332E+03  0.41800000000E+01 0. -1.
         -5    1    3    3    0  502 -0.98430828670E+02  0.15396534832E+03 -0.10020456799E+03  0.20845235514E+03  0.41800000000E+01 0. -1.
        -11    1    1    2    0    0  0.64666109392E+02 -0.10373266320E+02 -0.18652175672E+02  0.68097092562E+02  0.00000000000E+00 0.  1.
         11    1    1    2    0    0  0.21856378810E+03 -0.22602539289E+03 -0.14573494930E+03  0.34654910640E+03  0.00000000000E+00 0. -1.
</event>
<event>
 7    1  0.6671761E-006  0.1100961E+03  0.7561462E-02  0.1260392E+00
          1   -1    0    0  501    0  0.00000000000E+00  0.00000000000E+00  0.38533012357E+03  0.38533012357E+03  0.00000000000E+00 0. -1.
         -1   -1    0    0    0  501 -0.00000000000E+00 -0.00000000000E+00 -0.40338064853E+02  0.40338064853E+02  0.00000000000E+00 0.  1.
         23    2    1    2    0    0 -0.55999582577E+02  0.28168649843E+02  0.18087824566E+03  0.22867666099E+03  0.12508656780E+03 0.  0.
          5    1    3    3  502    0 -0.82430385506E+02  0.53383478234E+02  0.10202445005E+03  0.14167224503E+03  0.41800000000E+01 0. -1.
         -5    1    3    3    0  502  0.26430802929E+02 -0.25214828391E+02  0.78853795605E+02  0.87004415955E+02  0.41800000000E+01 0. -1.
        -11    1    1    2    0    0  0.20768552047E+02  0.17702798183E+02  0.50695165213E+01  0.27756473396E+02  0.00000000000E+00 0.  1.
         11    1    1    2    0    0  0.35231030530E+02 -0.45871448026E+02  0.15904429654E+03  0.16923505404E+03  0.00000000000E+00 0. -1.
</event>
<event>
 6    1  0.6671761E-006  0.8699185E+02  0.7561462E-02  0.1310304E+00
          2   -1    0    0  501    0  0.00000000000E+00  0.00000000000E+00  0.25980660441E+03  0.25980660441E+03  0.00000000000E+00 0. -1.
         -2   -1    0    0    0  501 -0.00000000000E+00 -0.00000000000E+00 -0.93020905197E+02  0.93020905197E+02  0.00000000000E+00 0.  1.
          5    1    1    2  502    0  0.30731245131E+02 -0.39299177674E+02  0.75424526574E+02  0.90527158367E+02  0.41800000000E+01 0. -1.
         -5    1    1    2    0  502 -0.42975558486E+01  0.53710951681E+02 -0.68003114742E+02  0.86863291046E+02  0.41800000000E+01 0.  1.
        -11    1    1    2    0    0 -0.47379309059E+02 -0.11208051039E+02  0.83382040929E+02  0.96555601000E+02  0.00000000000E+00 0. -1.
         11    1    1    2    0    0  0.20945619777E+02 -0.32037229676E+01  0.75982246455E+02  0.78881459197E+02  0.00000000000E+00 0.  1.
</event>
<event>
 7    1  0.6671761E-006  0.2249116E+03  0.7561462E-02  0.1130273E+00
         -2   -1    0    0    0  501 -0.00000000000E+00  0.00000000000E+00  0.36329528309E+03  0.36329528309E+03  0.00000000000E+00 0. -1.
          2   -1    0    0  501    0  0.00000000000E+00 -0.00000000000E+00 -0.15902402018E+03  0.15902402018E+03  0.00000000000E+00 0.  1.
         23    2    1    2    0    0  0.90806531974E+02 -0.18954477726E+03  0.15090494552E+03  0.28738751977E+03  0.12508491156E+03 0.  0.
          5    1    3    3  502    0  0.10123888162E+03 -0.10294269737E+03  0.47528491152E+02  0.15206228976E+03  0.41800000000E+01 0. -1.
         -5    1    3    3    0  502 -0.10432349649E+02 -0.86602079891E+02  0.10337645437E+03  0.13532523001E+03  0.41800000000E+01 0. -1.
        -11    1    1    2    0    0 -0.74909762797E+02  0.89322285006E+02 -0.71265681569E+01  0.11679354064E+03  0.00000000000E+00 0. -1.
         11    1    1    2    0    0 -0.15896769177E+02  0.10022249226E+03  0.60492885549E+02  0.11813824286E+03  0.00000000000E+00 0.  1.
</event>
<event>
 7    1  0.6671761E-006  0.1616270E+03  0.7561462E-02  0.1186872E+00
          1   -1    0    0  501    0  0.00000000000E+00  0.00000000000E+00  0.86478136212E+03  0.86478136212E+03  0.00000000000E+00 0. -1.
         -1   -1    0    0    0  501 -0.00000000000E+00 -0.00000000000E+00 -0.32561237524E+02  0.32561237524E+02  0.00000000000E+00 0.  1.
         23    2    1    2    0    0  0.10404667720E+03  0.62982559766E+02  0.55041995125E+03  0.57740636773E+03  0.12507388570E+03 0.  0.
          5    1    3    3  502    0  0.11193347282E+02 -0.36161550403E+02  0.10369901158E+03  0.11047129108E+03  0.41800000000E+01 0.  1.
         -5    1    3    3    0  502  0.92853329921E+02  0.99144110169E+02  0.44672093968E+03  0.46693507665E+03  0.41800000000E+01 0.  1.
        -11    1    1    2    0    0 -0.10060937993E+03 -0.15657956412E+02  0.21617587760E+03  0.23895486809E+03  0.00000000000E+00 0.  1.
         11    1    1    2    0    0 -0.34372972757E+01 -0.47324603354E+02  0.65624295737E+02  0.80981363820E+02  0.00000000000E+00 0. -1.
</event>
<event>
 6    1  0.6671761E-006  0.1406159E+03  0.7561462E-02  0.1212503E+00
          3   -1    0    0  501    0  0.00000000000E+00  0.00000000000E+00  0.11394292190E+02  0.11394292190E+02  0.00000000000E+00 0. -1.
         -3   -1    0    0    0  501 -0.00000000000E+00 -0.00000000000E+00 -0.18314154936E+04  0.18314154936E+04  0.00000000000E+00 0.  1.
          5    1    1    2  502    0 -0.67347162350E+02  0.18124902169E+02 -0.64390262956E+03  0.64768219144E+03  0.41800000000E+01 0. -1.
         -5    1    1    2    0  502  0.10226164439E+03 -0.44469568765E+02 -0.66151437026E+03  0.67086043327E+03  0.41800000000E+01 0.  1.
        -11    1    1    2    0    0  0.89496801353E+01 -0.28310928989E+02 -0.13206888375E+03  0.13536541482E+03  0.00000000000E+00 0.  1.
         11    1    1    2    0    0 -0.43864162178E+02  0.54655595585E+02 -0.38253531789E+03  0.38890174631E+03  0.00000000000E+00 0. -1.
</event>
<event>
 7    1  0.6671761E-006  0.1095477E+03  0.7561462E-02  0.1261410E+00
          2   -1    0    0  501    0  0.00000000000E+00  0.00000000000E+00  0.80150976900E+02  0.80150976900E+02  0.00000000000E+00 0. -1.
         -2   -1    0    0    0  501 -0.00000000000E+00 -0.00000000000E+00 -0.18158699392E+03  0.18158699392E+03  0.00000000000E+00 0.  1.
         23    2    1    2    0    0  0.16819460617E+02  0.48479237081E+02 -0.71739843060E+02  0.15306817745E+03  0.12510048434E+03 0.  0.
          5    1    3    3  502    0  0.36337449372E+02 -0.21153981007E+02  0.10435938052E+02  0.43523353988E+02  0.41800000000E+01 0.  1.
         -5    1    3    3    0  502 -0.19517988755E+02  0.69633218087E+02 -0.82175781112E+02  0.10954482346E+03  0.41800000000E+01 0.  1.
        -11    1    1    2    0    0 -0.44825285347E+02 -0.59338613636E+02 -0.18688042816E+02  0.76678681646E+02  0.00000000000E+00 0. -1.
         11    1    1    2    0    0  0.28005824730E+02  0.10859376555E+02 -0.11008131144E+02  0.31991111723E+02  0.00000000000E+00 0.  1.
</event>
<event>
 7    1  0.6671761E-006  0.1373743E+03  0.7561462E-02  0.1216906E+00
         -1   -1    0    0    0  501 -0.00000000000E+00  0.00000000000E+00  0.18153073327E+03  0.18153073327E+03  0.00000000000E+00 0.  1.
          1   -1    0    0  501    0  0.00000000000E+00 -0.00000000000E+00 -0.11524076799E+03  0.11524076799E+03  0.00000000000E+00 0. -1.
         23    2    1    2    0    0  0.72856860344E+02 -0.58290975736E+02  0.46436543908E+02  0.16281739864E+03  0.12508873945E+03 0.  0.
          5    1    3    3  502    0  0.10185685174E+03 -0.50074643205E+02  0.61176871877E+02  0.12900531071E+03  0.41800000000E+01 0. -1.
         -5    1    3    3    0  502 -0.28999991397E+02 -0.82163325303E+01 -0.14740327970E+02  0.33812087927E+02  0.41800000000E+01 0. -1.
        -11    1    1    2    0    0  0.20948462131E+02  0.13173623542E+01 -0.46536733634E+01  0.21499539181E+02  0.00000000000E+00 0.  1.
         11    1    1    2    0    0 -0.93805322474E+02  0.56973613381E+02  0.24507094732E+02  0.11245456344E+03  0.00000000000E+00 0. -1.
</event>
<event>
 7    1  0.6671761E-006  0.6959445E+02  0.7561462E-02  0.1361478E+00
          1   -1    0    0  501    0  0.00000000000E+00  0.00000000000E+00  0.77142398842E+02  0.77142398842E+02  0.00000000000E+00 0. -1.
         -1   -1    0    0    0  501 -0.00000000000E+00 -0.00000000000E+00 -0.17106096136E+03  0.17106096136E+03  0.00000000000E+00 0.  1.
         23    2    1    2    0    0  0.34473407902E+02  0.14008703871E+02 -0.62970700402E+02  0.14490829269E+03  0.12509374302E+03 0.  0.
          5    1    3    3  502    0  0.56328477966E+02 -0.21004128839E+02 -0.79920508475E+02  0.10009411038E+03  0.41800000000E+01 0.  1.
         -5    1    3    3    0  502 -0.21855070063E+02  0.35012832710E+02  0.16949808073E+02  0.44814182304E+02  0.41800000000E+01 0.  1.
        -11    1    1    2    0    0 -0.14854249557E+02 -0.38347368362E+01 -0.62733118871E+02  0.64581716761E+02  0.00000000000E+00 0.  1.
         11    1    1    2    0    0 -0.19619158345E+02 -0.10173967035E+02  0.31785256757E+02  0.38713350753E+02  0.00000000000E+00 0. -1.
</event>
<event>
 7    1  0.6671761E-006  0.1438698E+03  0.7561462E-02  0.1208215E+00
         -1   -1    0    0    0  501 -0.00000000000E+00  0.00000000000E+00  0.83232892631E+02  0.83232892631E+02  0.00000000000E+00 0.  1.
          1   -1    0    0  501    0  0.00000000000E+00 -0.00000000000E+00 -0.28156973551E+03  0.28156973551E+03  0.00000000000E+00 0. -1.
         23    2    1    2    0    0  0.87678006228E+02 -0.44760390678E+02 -0.59425835906E+02  0.16991375886E+03  0.12509328570E+03 0.  0.
          5    1    3    3  502    0  0.78440902743E+01  0.40054802753E+02 -0.51767956365E+01  0.41354426472E+02  0.41800000000E+01 0.  1.
         -5    1    3    3    0  502  0.79833915953E+02 -0.84815193431E+02 -0.54249040270E+02  0.12855933239E+03  0.41800000000E+01 0.  1.
        -11    1    1    2    0    0 -0.93474325394E+02  0.89730145739E+01 -0.70351545497E+02  0.11733415723E+03  0.00000000000E+00 0.  1.
         11    1    1    2    0    0  0.57963191660E+01  0.35787376104E+02 -0.68559461475E+02  0.77554712055E+02  0.00000000000E+00 0. -1.
</event>
<event>
 7    1  0.6671761E-006  0.1422690E+03  0.7561462E-02  0.1210308E+00
         -1   -1    0    0    0  501 -0.00000000000E+00  0.00000000000E+00  0.68022825775E+03  0.68022825775E+03  0.00000000000E+00 0.  1.
          1   -1    0    0  501    0  0.00000000000E+00 -0.00000000000E+00 -0.46325736197E+02  0.46325736197E+02  0.00000000000E+00 0. -1.
         23    2    1    2    0    0 -0.12470846847E+03  0.52064143509E+02  0.39610094163E+03  0.43681146922E+03  0.12508167943E+03 0.  0.
          5    1    3    3  502    0  0.14864867088E+01 -0.53028192902E+01 -0.74089284128E+01  0.10133812480E+02  0.41800000000E+01 0.  1.
         -5    1    3    3    0  502 -0.12619495518E+03  0.57366962799E+02  0.40350987005E+03  0.42667765674E+03  0.41800000000E+01 0.  1.
        -11    1    1    2    0    0  0.37816154107E+02 -0.34166292852E+00  0.79694019868E+01  0.38648280855E+02  0.00000000000E+00 0. -1.
         11    1    1    2    0    0  0.86892314365E+02 -0.51722480580E+02  0.22983217793E+03  0.25109424387E+03  0.00000000000E+00 0.  1.
</event>
<event>
 7    1  0.6671761E-006  0.1406075E+03  0.7561462E-02  0.1212514E+00
         -1   -1    0    0    0  501 -0.00000000000E+00  0.00000000000E+00  0.40559402925E+02  0.40559402925E+02  0.00000000000E+00 0.  1.
          1   -1    0    0  501    0  0.00000000000E+00 -0.00000000000E+00 -0.62135474788E+03  0.62135474788E+03  0.00000000000E+00 0. -1.
         23    2    1    2    0    0  0.11241906562E+03  0.19066705584E+02 -0.27216700387E+03  0.32050575494E+03  0.12508986920E+03 0.  0.
          5    1    3    3  502    0 -0.20852326001E+02  0.26015027817E+02 -0.77275940440E+02  0.84265322303E+02  0.41800000000E+01 0.  1.
         -5    1    3    3    0  502  0.13327139162E+03 -0.69483222326E+01 -0.19489106343E+03  0.23624043264E+03  0.41800000000E+01 0.  1.
        -11    1    1    2    0    0 -0.57511710261E+02 -0.77154128131E+01 -0.26240098480E+03  0.26874039748E+03  0.00000000000E+00 0. -1.
         11    1    1    2    0    0 -0.54907355362E+02 -0.11351292771E+02 -0.46227356275E+02  0.72667998380E+02  0.00000000000E+00 0.  1.
</event>
<event>
 7    1  0.6671761E-006  0.1275971E+03  0.7561462E-02  0.1231065E+00
         -2   -1    0    0    0  501 -0.00000000000E+00  0.00000000000E+00  0.24289378459E+02  0.24289378459E+02  0.00000000000E+00 0.  1.
          2   -1    0    0  501    0  0.00000000000E+00 -0.00000000000E+00 -0.69408281521E+03  0.69408281521E+03  0.00000000000E+00 0. -1.
         23    2    1    2    0    0 -0.61339904730E+02 -0.27752334688E+02 -0.31248125747E+03  0.34325891276E+03  0.12509743773E+03 0.  0.
          5    1    3    3  502    0 -0.92686692096E+02 -0.47016229300E+02 -0.21126893909E+03  0.23548542574E+03  0.41800000000E+01 0. -1.
         -5    1    3    3    0  502  0.31346787366E+02  0.19263894612E+02 -0.10121231838E+03  0.10777348702E+03  0.41800000000E+01 0. -1.
        -11    1    1    2    0    0 -0.21689079364E+02  0.22045681394E+02 -0.10085566271E+03  0.10549072439E+03  0.00000000000E+00 0.  1.
         11    1    1    2    0    0  0.83028984093E+02  0.57066532943E+01 -0.25645651658E+03  0.26962255653E+03  0.00000000000E+00 0. -1.
</event>
<event>
 7    1  0.6671761E-006  0.2349433E+03  0.7561462E-02  0.1123208E+00
         -2   -1    0    0    0  501 -0.00000000000E+00  0.00000000000E+00  0.20381312613E+03  0.20381312613E+03  0.00000000000E+00 0. -1.
          2   -1    0    0  501    0  0.00000000000E+00 -0.00000000000E+00 -0.28383187264E+03  0.28383187264E+03  0.00000000000E+00 0.  1.
         23    2    1    2    0    0  0.19793579196E+03  0.85955546349E+02 -0.47881617749E+02  0.25398543285E+03  0.12509603149E+03 0.  0.
          5    1    3    3  502    0  0.15805849190E+01  0.44825586978E+02 -0.26312192406E+02  0.52169295240E+02  0.41800000000E+01 0. -1.
         -5    1    3    3    0  502  0.19635520704E+03  0.41129959370E+02 -0.21569425343E+02  0.20181613761E+03  0.41800000000E+01 0. -1.
        -11    1    1    2    0    0 -0.18293951618E+03 -0.57074100565E+02 -0.56816621821E+01  0.19172011063E+03  0.00000000000E+00 0.  1.
         11    1    1    2    0    0 -0.14996275778E+02 -0.28881445783E+02 -0.26455466580E+02  0.41939455286E+02  0.00000000000E+00 0. -1.
</event>
<event>
 7    1  0.6671761E-006  0.1855286E+03  0.7561462E-02  0.1162557E+00
         -1   -1    0    0    0  501 -0.00000000000E+00  0.00000000000E+00  0.82758910943E+02  0.82758910943E+02  0.00000000000E+00 0.  1.
          1   -1    0    0  501    0  0.00000000000E+00 -0.00000000000E+00 -0.46433135734E+03  0.46433135734E+03  0.00000000000E+00 0. -1.
         23    2    1    2    0    0  0.14989668174E+03  0.45228046456E+02 -0.25972022574E+03  0.32805417098E+03  0.12510136713E+03 0.  0.
          5    1    3    3  502    0  0.13400499205E+03 -0.16781149560E+02 -0.19196331684E+03  0.23474737972E+03  0.41800000000E+01 0.  1.
         -5    1    3    3    0  502  0.15891689693E+02  0.62009196016E+02 -0.67756908896E+02  0.93306791259E+02  0.41800000000E+01 0.  1.
        -11    1    1    2    0    0 -0.12266916542E+03 -0.44386769944E+01 -0.51127490331E+02  0.13297159947E+03  0.00000000000E+00 0.  1.
         11    1    1    2    0    0 -0.27227516322E+02 -0.40789369461E+02 -0.70724730333E+02  0.86064497830E+02  0.00000000000E+00 0. -1.
</event>
<event>
 7    1  0.6671761E-006  0.3289816E+03  0.7561462E-02  0.1071588E+00
          2   -1    0    0  501    0  0.00000000000E+00  0.00000000000E+00  0.86036004052E+03  0.86036004052E+03  0.00000000000E+00 0.  1.
         -2   -1    0    0    0  501 -0.00000000000E+00 -0.00000000000E+00 -0.14081509149E+03  0.14081509149E+03  0.00000000000E+00 0. -1.
         23    2    1    2    0    0  0.10815569316E+03  0.30339087821E+03  0.25921934534E+03  0.43195510677E+03  0.12508743468E+03 0.  0.
          5    1    3    3  502    0  0.25923662095E+02  0.20693932842E+03  0.10898944361E+03  0.23535524877E+03  0.41800000000E+01 0.  1.
         -5    1    3    3    0  502  0.82232031069E+02  0.96451549794E+02  0.15022990173E+03  0.19659985800E+03  0.41800000000E+01 0.  1.
        -11    1    1    2    0    0 -0.28814536502E+02 -0.10494563048E+03  0.23324392508E+03  0.25738413210E+03  0.00000000000E+00 0.  1.
         11    1    1    2    0    0 -0.79341156662E+02 -0.19844524774E+03  0.22708167862E+03  0.31183589315E+03  0.00000000000E+00 0. -1.
</event>
<event>
 7    1  0.6671761E-006  0.1099080E+03  0.7561462E-02  0.1260740E+00
         -2   -1    0    0    0  501 -0.00000000000E+00  0.00000000000E+00  0.28917654424E+02  0.28917654424E+02  0.00000000000E+00 0. -1.
          2   -1    0    0  501    0  0.00000000000E+00 -0.00000000000E+00 -0.49761315165E+03  0.49761315165E+03  0.00000000000E+00 0.  1.
         23    2    1    2    0    0  0.15325356820E+02 -0.27352737212E+02 -0.17540590633E+03  0.21771322407E+03  0.12509507250E+03 0.  0.
          5    1    3    3  502    0  0.23580791923E+02 -0.73196676598E+02 -0.77752727920E+02  0.10943841333E+03  0.41800000000E+01 0. -1.
         -5    1    3    3    0  502 -0.82554351031E+01  0.45843939386E+02 -0.97653178407E+02  0.10827481074E+03  0.41800000000E+01 0. -1.
        -11    1    1    2    0    0  0.32647226158E+02 -0.11172192790E+02 -0.12324040407E+03  0.12797990648E+03  0.00000000000E+00 0.  1.
         11    1    1    2    0    0 -0.47972582978E+02  0.38524930002E+02 -0.17004918683E+03  0.18083767553E+03  0.00000000000E+00 0. -1.
</event>
<event>
 7    1  0.6671761E-006  0.7747095E+02  0.7561462E-02  0.1336386E+00
         -2   -1    0    0    0  501 -0.00000000000E+00  0.00000000000E+00  0.22018325021E+02  0.22018325021E+02  0.00000000000E+00 0.  1.
          2   -1    0    0  501    0  0.00000000000E+00 -0.00000000000E+00 -0.49972221946E+03  0.49972221946E+03  0.00000000000E+00 0. -1.
         23    2    1    2    0    0  0.19794980584E+02  0.63585081013E+01 -0.29909994307E+03  0.31960368612E+03  0.11069538544E+03 0.  0.
          5    1    3    3  502    0  0.10362561086E+02 -0.41743613465E+02 -0.51802151444E+02  0.67459967622E+02  0.41800000000E+01 0. -1.
         -5    1    3    3    0  502  0.94324194983E+01  0.48102121566E+02 -0.24729779162E+03  0.25214371850E+03  0.41800000000E+01 0.  1.
        -11    1    1    2    0    0 -0.26168939726E+02  0.21553315365E+02 -0.16831536064E+02  0.37850487657E+02  0.00000000000E+00 0.  1.
         11    1    1    2    0    0  0.63739591422E+01 -0.27911823466E+02 -0.16177241531E+03  0.16428637071E+03  0.00000000000E+00 0. -1.
</event>
<event>
 7    1  0.6671761E-006  0.1414882E+03  0.7561462E-02  0.1211340E+00
          2   -1    0    0  501    0  0.00000000000E+00  0.00000000000E+00  0.38730520743E+03  0.38730520743E+03  0.00000000000E+00 0. -1.
         -2   -1    0    0    0  501 -0.00000000000E+00 -0.00000000000E+00 -0.55428677152E+02  0.55428677152E+02  0.00000000000E+00 0.  1.
         23    2    1    2    0    0  0.86943983324E+02  0.29142031366E+02  0.13369664236E+03  0.20472236514E+03  0.12501176098E+03 0.  0.
          5    1    3    3  502    0 -0.88975865058E-01  0.61570602222E+02  0.60156544544E+02  0.86181374009E+02  0.41800000000E+01 0. -1.
         -5    1    3    3    0  502  0.87032959189E+02 -0.32428570856E+02  0.73540097812E+02  0.11854099113E+03  0.41800000000E+01 0. -1.
        -11    1    1    2    0    0 -0.53416427678E+02  0.29293294864E+02  0.67087476062E+02  0.90620865778E+02  0.00000000000E+00 0.  1.
         11    1    1    2    0    0 -0.33527555646E+02 -0.58435326230E+02  0.13109241186E+03  0.14739065366E+03  0.00000000000E+00 0. -1.
</event>
<event>
 7    1  0.6671761E-006  0.9182968E+02  0.7561462E-02  0.1298480E+00
          2   -1    0    0  501    0  0.00000000000E+00  0.00000000000E+00  0.16713470787E+03  0.16713470787E+03  0.00000000000E+00 0. -1.
         -2   -1    0    0    0  501 -0.00000000000E+00 -0.00000000000E+00 -0.11160450441E+03  0.11160450441E+03  0.00000000000E+00 0.  1.
         23    2    1    2    0    0 -0.14157065299E+02  0.63723616836E+02 -0.19713516216E+02  0.14247142829E+03  0.12509341836E+03 0.  0.
          5    1    3    3  502    0  0.26398686271E+02  0.69100690523E+02 -0.51723532896E+02  0.90358133683E+02  0.41800000000E+01 0.  1.
         -5    1    3    3    0  502 -0.40555751570E+02 -0.53770736862E+01  0.32010016680E+02  0.52113294606E+02  0.41800000000E+01 0.  1.
        -11    1    1    2    0    0 -0.25941423722E+01 -0.35724910872E+02 -0.16100674735E+02  0.39271243403E+02  0.00000000000E+00 0.  1.
         11    1    1    2    0    0  0.16751207671E+02 -0.27998705964E+02  0.91344394413E+02  0.96996540582E+02  0.00000000000E+00 0. -1.
</event>
<event>
 7    1  0.6671761E-006  0.1355081E+03  0.7561462E-02  0.1219504E+00
         -2   -1    0    0    0  501 -0.00000000000E+00  0.00000000000E+00  0.32989152406E+02  0.32989152406E+02  0.00000000000E+00 0.  1.
          2   -1    0    0  501    0  0.00000000000E+00 -0.00000000000E+00 -0.71064046101E+03  0.71064046101E+03  0.00000000000E+00 0. -1.
         23    2    1    2    0    0  0.88577496995E+02  0.17774195961E+01 -0.21621609917E+03  0.26503936547E+03  0.12508929416E+03 0.  0.
          5    1    3    3  502    0 -0.21026604898E+02 -0.31989836828E+02 -0.52853812106E+02  0.65394691129E+02  0.41800000000E+01 0. -1.
         -5    1    3    3    0  502  0.10960410189E+03  0.33767256424E+02 -0.16336228706E+03  0.19964467434E+03  0.41800000000E+01 0. -1.
        -11    1    1    2    0    0 -0.29179093196E+02 -0.38198258081E+02 -0.10598997673E+03  0.11638041746E+03  0.00000000000E+00 0. -1.
         11    1    1    2    0    0 -0.59398403799E+02  0.36420838485E+02 -0.35544523271E+03  0.36220983049E+03  0.00000000000E+00 0.  1.
</event>
<event>
 7    1  0.6671761E-006  0.1223456E+03  0.7561462E-02  0.1239277E+00
          3   -1    0    0  501    0  0.00000000000E+00  0.00000000000E+00  0.23547924637E+03  0.23547924637E+03  0.00000000000E+00 0. -1.
         -3   -1    0    0    0  501 -0.00000000000E+00 -0.00000000000E+00 -0.87079306712E+02  0.87079306712E+02  0.00000000000E+00 0.  1.
         23    2    1    2    0    0  0.21920836636E+02 -0.58257527701E+02  0.29480833883E+01  0.13975203653E+03  0.12508987931E+03 0.  0.
          5    1    3    3  502    0 -0.43035588833E+02  0.92363626069E+01 -0.93221369915E+01  0.45185693958E+02  0.41800000000E+01 0.  1.
         -5    1    3    3    0  502  0.64956425469E+02 -0.67493890307E+02  0.12270220380E+02  0.94566342568E+02  0.41800000000E+01 0.  1.
        -11    1    1    2    0    0 -0.50040382074E+02  0.60486804822E+02  0.82807100966E+02  0.11410394106E+03  0.00000000000E+00 0.  1.
         11    1    1    2    0    0  0.28119545438E+02 -0.22292771214E+01  0.62644755303E+02  0.68702575491E+02  0.00000000000E+00 0. -1.
</event>
<event>
 7    1  0.6671761E-006  0.1855595E+03  0.7561462E-02  0.1162528E+00
         -2   -1    0    0    0  501 -0.00000000000E+00  0.00000000000E+00  0.37557396004E+03  0.37557396004E+03  0.00000000000E+00 0.  1.
          2   -1    0    0  501    0  0.00000000000E+00 -0.00000000000E+00 -0.14640361150E+03  0.14640361150E+03  0.00000000000E+00 0. -1.
         23    2    1    2    0    0  0.14120111726E+03  0.11482959752E+03  0.23146073691E+03  0.31991578797E+03  0.12509375157E+03 0.  0.
          5    1    3    3  502    0  0.10024408445E+03  0.87804245138E+02  0.68936326382E+02  0.15009380876E+03  0.41800000000E+01 0. -1.
         -5    1    3    3    0  502  0.40957032810E+02  0.27025352379E+02  0.16252441053E+03  0.16982197922E+03  0.41800000000E+01 0. -1.
        -11    1    1    2    0    0 -0.78493069253E+02 -0.32262722538E+02  0.35111624039E+02  0.91841555567E+02  0.00000000000E+00 0.  1.
         11    1    1    2    0    0 -0.62708048010E+02 -0.82566874979E+02 -0.37402012398E+02  0.11022022800E+03  0.00000000000E+00 0. -1.
</event>
<event>
 7    1  0.6671761E-006  0.2396127E+03  0.7561462E-02  0.1120051E+00
          2   -1    0    0  501    0  0.00000000000E+00  0.00000000000E+00  0.14557667258E+04  0.14557667258E+04  0.00000000000E+00 0. -1.
         -2   -1    0    0    0  501 -0.00000000000E+00 -0.00000000000E+00 -0.39837675603E+02  0.39837675603E+02  0.00000000000E+00 0.  1.
         23    2    1    2    0    0  0.21018077523E+03 -0.43785461566E+02  0.75073911315E+03  0.79079065624E+03  0.12509005185E+03 0.  0.
          5    1    3    3  502    0  0.13272957233E+03 -0.87489645413E+02  0.45882935358E+03  0.48560624535E+03  0.41800000000E+01 0.  1.
         -5    1    3    3    0  502  0.77451202900E+02  0.43704183847E+02  0.29190975957E+03  0.30518441089E+03  0.41800000000E+01 0.  1.
        -11    1    1    2    0    0 -0.44269515957E+02 -0.25821263370E+02  0.11370079986E+03  0.12471727857E+03  0.00000000000E+00 0. -1.
         11    1    1    2    0    0 -0.16591125927E+03  0.69606724936E+02  0.55148913714E+03  0.58009646654E+03  0.00000000000E+00 0.  1.
</event>
<event>
 7    1  0.6671761E-006  0.1059037E+03  0.7561462E-02  0.1268349E+00
          2   -1    0    0  501    0  0.00000000000E+00  0.00000000000E+00  0.15318885021E+03  0.15318885021E+03  0.00000000000E+00 0.  1.
         -2   -1    0    0    0  501 -0.00000000000E+00 -0.00000000000E+00 -0.93757608181E+02  0.93757608181E+02  0.00000000000E+00 0. -1.
         23    2    1    2    0    0 -0.43425974775E+01  0.45074555111E+02  0.11983573113E+02  0.13356850327E+03  0.12508543228E+03 0.  0.
          5    1    3    3  502    0  0.57225992145E+02  0.41557276909E+02  0.14156276452E+01  0.70861116578E+02  0.41800000000E+01 0. -1.
         -5    1    3    3    0  502 -0.61568589623E+02  0.35172782016E+01  0.10567945468E+02  0.62707386690E+02  0.41800000000E+01 0. -1.
        -11    1    1    2    0    0  0.12267472453E+01 -0.61963626098E+02  0.64307738981E+02  0.89311148021E+02  0.00000000000E+00 0.  1.
         11    1    1    2    0    0  0.31158502322E+01  0.16889070988E+02 -0.16860070065E+02  0.24066807102E+02  0.00000000000E+00 0. -1.
</event>
<event>
 7    1  0.6671761E-006  0.2101228E+03  0.7561462E-02  0.1141469E+00
          1   -1    0    0  501    0  0.00000000000E+00  0.00000000000E+00  0.57920700372E+03  0.57920700372E+03  0.00000000000E+00 0. -1.
         -1   -1    0    0    0  501 -0.00000000000E+00 -0.00000000000E+00 -0.95134546287E+02  0.95134546287E+02  0.00000000000E+00 0.  1.
         23    2    1    2    0    0  0.10051233652E+03  0.10150518146E+03  0.85373691457E+02  0.20818946036E+03  0.12509257594E+03 0.  0.
          5    1    3    3  502    0  0.39296365094E+01  0.79500893030E+02  0.37988095662E+01  0.79798103924E+02  0.41800000000E+01 0.  1.
         -5    1    3    3    0  502  0.96582700015E+02  0.22004288428E+02  0.81574881891E+02  0.12839135643E+03  0.41800000000E+01 0.  1.
        -11    1    1    2    0    0 -0.40288078897E+02  0.58157408770E+02  0.10976224208E+03  0.13058776084E+03  0.00000000000E+00 0. -1.
         11    1    1    2    0    0 -0.60224257628E+02 -0.15966259023E+03  0.28893652390E+03  0.33556432881E+03  0.00000000000E+00 0.  1.
</event>
<event>
 7    1  0.6671761E-006  0.1263206E+03  0.7561462E-02  0.1233020E+00
          2   -1    0    0  501    0  0.00000000000E+00  0.00000000000E+00  0.98034131228E+02  0.98034131228E+02  0.00000000000E+00 0. -1.
         -2   -1    0    0    0  501 -0.00000000000E+00 -0.00000000000E+00 -0.25551250115E+03  0.25551250115E+03  0.00000000000E+00 0.  1.
         23    2    1    2    0    0  0.11309125431E+02  0.99347321597E+02 -0.14542518676E+03  0.21632049769E+03  0.12509310993E+03 0.  0.
          5    1    3    3  502    0 -0.28200283062E+02  0.42443911359E+01  0.94083178795E+01  0.30319295279E+02  0.41800000000E+01 0. -1.
         -5    1    3    3    0  502  0.39509408494E+02  0.95102930461E+02 -0.15483350464E+03  0.18600120242E+03  0.41800000000E+01 0. -1.
        -11    1    1    2    0    0 -0.34501026354E+02 -0.24295334920E+02  0.26390569740E+02  0.49769933590E+02  0.00000000000E+00 0. -1.
         11    1    1    2    0    0  0.23191900922E+02 -0.75051986677E+02 -0.38443752907E+02  0.87456201096E+02  0.00000000000E+00 0.  1.
</event>
<event>
 7    1  0.6671761E-006  0.1317292E+03  0.7561462E-02  0.1224912E+00
          2   -1    0    0  501    0  0.00000000000E+00  0.00000000000E+00  0.37529831988E+03  0.37529831988E+03  0.00000000000E+00 0. -1.
         -2   -1    0    0    0  501 -0.00000000000E+00 -0.00000000000E+00 -0.61300072396E+02  0.61300072396E+02  0.00000000000E+00 0.  1.
         23    2    1    2    0    0 -0.54936664094E+02 -0.89068647989E+02  0.17399982686E+03  0.23848591160E+03  0.12509328187E+03 0.  0.
          5    1    3    3  502    0  0.19253836181E+02 -0.53867226163E+02  0.14690455504E+02  0.59208699911E+02  0.41800000000E+01 0.  1.
         -5    1    3    3    0  502 -0.74190500275E+02 -0.35201421826E+02  0.15930937135E+03  0.17927721169E+03  0.41800000000E+01 0.  1.
        -11    1    1    2    0    0 -0.27605232430E+01  0.58531971630E+02  0.11335522792E+03  0.12760493677E+03  0.00000000000E+00 0. -1.
         11    1    1    2    0    0  0.57697187337E+02  0.30536676359E+02  0.26643192701E+02  0.70507543901E+02  0.00000000000E+00 0.  1.
</event>
<event>
 6    1  0.6671761E-006  0.6400864E+02  0.7561462E-02  0.1381740E+00
         -2   -1    0    0    0  501 -0.00000000000E+00  0.00000000000E+00  0.13582479565E+03  0.13582479565E+03  0.00000000000E+00 0.  1.
          2   -1    0    0  501    0  0.00000000000E+00 -0.00000000000E+00 -0.76203361607E+02  0.76203361607E+02  0.00000000000E+00 0. -1.
          5    1    1    2  502    0 -0.18860563327E+02  0.51014282603E+02 -0.18886618987E+02  0.57726550696E+02  0.41800000000E+01 0. -1.
         -5    1    1    2    0  502  0.16995995155E+02 -0.36997261006E+02  0.10476368631E+03  0.11247472401E+03  0.41800000000E+01 0.  1.
        -11    1    1    2    0    0 -0.77842107589E+01 -0.19810446978E+02 -0.17871354266E+02  0.27792679791E+02  0.00000000000E+00 0. -1.
         11    1    1    2    0    0  0.96487789308E+01  0.57934253815E+01 -0.83842790106E+01  0.14034202757E+02  0.00000000000E+00 0.  1.
</event>
<event>
 7    1  0.6671761E-006  0.1534210E+03  0.7561462E-02  0.1196331E+00
          2   -1    0    0  501    0  0.00000000000E+00  0.00000000000E+00  0.67715274864E+03  0.67715274864E+03  0.00000000000E+00 0.  1.
         -2   -1    0    0    0  501 -0.00000000000E+00 -0.00000000000E+00 -0.35815053563E+02  0.35815053563E+02  0.00000000000E+00 0. -1.
         23    2    1    2    0    0 -0.31466582224E+02  0.10656380434E+03  0.30637761361E+03  0.34908582194E+03  0.12509068217E+03 0.  0.
          5    1    3    3  502    0  0.37324101044E+02  0.87523096672E+02  0.18913316832E+03  0.21175979016E+03  0.41800000000E+01 0. -1.
         -5    1    3    3    0  502 -0.68790683267E+02  0.19040707668E+02  0.11724444528E+03  0.13732603177E+03  0.41800000000E+01 0. -1.
        -11    1    1    2    0    0  0.59848559396E+02 -0.55200697841E+02  0.16336105359E+03  0.18252616507E+03  0.00000000000E+00 0.  1.
         11    1    1    2    0    0 -0.28381977173E+02 -0.51363106500E+02  0.17159902787E+03  0.18135581519E+03  0.00000000000E+00 0. -1.
</event>
<event>
 6    1  0.6671761E-006  0.1068864E+03  0.7561462E-02  0.1266447E+00
         -1   -1    0    0    0  501 -0.00000000000E+00  0.00000000000E+00  0.78412898085E+03  0.78412898085E+03  0.00000000000E+00 0.  1.
          1   -1    0    0  501    0  0.00000000000E+00 -0.00000000000E+00 -0.26499768429E+02  0.26499768429E+02  0.00000000000E+00 0. -1.
          5    1    1    2  502    0 -0.32791447011E+02 -0.24788029463E+02  0.76589474173E+02  0.87023820623E+02  0.41800000000E+01 0. -1.
         -5    1    1    2    0  502  0.71418922262E+02 -0.50012222617E+01  0.55925771577E+03  0.56383715710E+03  0.41800000000E+01 0.  1.
        -11    1    1    2    0    0 -0.60246786924E+02 -0.42693845562E+01  0.90111166609E+02  0.10848006880E+03  0.00000000000E+00 0. -1.
         11    1    1    2    0    0  0.21619311673E+02  0.34058636280E+02  0.31670855873E+02  0.51287702758E+02  0.00000000000E+00 0.  1.
</event>
<event>
 7    1  0.6671761E-006  0.1732395E+03  0.7561462E-02  0.1174511E+00
          2   -1    0    0  501    0  0.00000000000E+00  0.00000000000E+00  0.63923873673E+03  0.63923873673E+03  0.00000000000E+00 0. -1.
         -2   -1    0    0    0  501 -0.00000000000E+00 -0.00000000000E+00 -0.63309095671E+02  0.63309095671E+02  0.00000000000E+00 0.  1.
         23    2    1    2    0    0  0.59533461995E+02 -0.13334574937E+03  0.15214643175E+03  0.24519478312E+03  0.12508646211E+03 0.  0.
          5    1    3    3  502    0  0.49424742145E+02 -0.15154528071E+03  0.15660469737E+03  0.22349783194E+03  0.41800000000E+01 0.  1.
         -5    1    3    3    0  502  0.10108719850E+02  0.18199531344E+02 -0.44582656218E+01  0.21696951180E+02  0.41800000000E+01 0.  1.
        -11    1    1    2    0    0 -0.26560799810E+02 -0.18549985235E+01  0.12424582356E+03  0.12706668240E+03  0.00000000000E+00 0. -1.
         11    1    1    2    0    0 -0.32972662185E+02  0.13520074789E+03  0.29953738575E+03  0.33028636688E+03  0.00000000000E+00 0.  1.
</event>
<event>
 7    1  0.6671761E-006  0.1033674E+03  0.7561462E-02  0.1273370E+00
         -2   -1    0    0    0  501 -0.00000000000E+00  0.00000000000E+00  0.73361446081E+02  0.73361446081E+02  0.00000000000E+00 0.  1.
          2   -1    0    0  501    0  0.00000000000E+00 -0.00000000000E+00 -0.42889534241E+03  0.42889534241E+03  0.00000000000E+00 0. -1.
         23    2    1    2    0    0 -0.15330039275E+02 -0.42558377786E+02 -0.63888336073E+00  0.13301588910E+03  0.12508634201E+03 0.  0.
          5    1    3    3  502    0 -0.59778276590E+02 -0.25260860975E+02 -0.35219259341E+02  0.73955541224E+02  0.41800000000E+01 0. -1.
         -5    1    3    3    0  502  0.44448237315E+02 -0.17297516811E+02  0.34580375980E+02  0.59060347875E+02  0.41800000000E+01 0. -1.
        -11    1    1    2    0    0 -0.22791155610E+02  0.50032262087E+02 -0.13209382256E+03  0.14307844695E+03  0.00000000000E+00 0.  1.
         11    1    1    2    0    0  0.38121194885E+02 -0.74738843006E+01 -0.22280119041E+03  0.22616245244E+03  0.00000000000E+00 0. -1.
</event>
<event>
 7    1  0.6671761E-006  0.1206356E+03  0.7561462E-02  0.1242052E+00
         -2   -1    0    0    0  501 -0.00000000000E+00  0.00000000000E+00  0.73606091924E+03  0.73606091924E+03  0.00000000000E+00 0.  1.
          2   -1    0    0  501    0  0.00000000000E+00 -0.00000000000E+00 -0.55631566162E+02  0.55631566162E+02  0.00000000000E+00 0. -1.
         23    2    1    2    0    0 -0.76284334855E+02 -0.75314287743E+01  0.65426994162E+03  0.67051601880E+03  0.12508618148E+03 0.  0.
          5    1    3    3  502    0 -0.47441562923E+02  0.43298492844E+02  0.52065842998E+03  0.52462189669E+03  0.41800000000E+01 0.  1.
         -5    1    3    3    0  502 -0.28842771933E+02 -0.50829921619E+02  0.13361151164E+03  0.14589412211E+03  0.41800000000E+01 0.  1.
        -11    1    1    2    0    0 -0.15532933941E+02  0.20355131901E+02  0.51621048154E+01  0.26119930276E+02  0.00000000000E+00 0.  1.
         11    1    1    2    0    0  0.91817268796E+02 -0.12823703126E+02  0.20997306639E+02  0.95056536320E+02  0.00000000000E+00 0. -1.
</event>
<event>
 6    1  0.6671761E-006  0.2701942E+03  0.7561462E-02  0.1101168E+00
          2   -1    0    0  501    0  0.00000000000E+00  0.00000000000E+00  0.10358050319E+04  0.10358050319E+04  0.00000000000E+00 0. -1.
         -2   -1    0    0    0  501 -0.00000000000E+00 -0.00000000000E+00 -0.11007237823E+03  0.11007237823E+03  0.00000000000E+00 0.  1.
          5    1    1    2  502    0  0.65878489221E+02 -0.14785590818E+02  0.13332438677E+03  0.14950402518E+03  0.41800000000E+01 0. -1.
         -5    1    1    2    0  502 -0.69545399037E+02 -0.22299878829E+03  0.92404722955E+02  0.25123918351E+03  0.41800000000E+01 0.  1.
        -11    1    1    2    0    0 -0.70572339523E+01  0.19037472483E+03  0.64087809612E+03  0.66859335510E+03  0.00000000000E+00 0. -1.
         11    1    1    2    0    0  0.10724143768E+02  0.47409654279E+02  0.59125447867E+02  0.76540846376E+02  0.00000000000E+00 0.  1.
</event>
<event>
 7    1  0.6671761E-006  0.8307421E+02  0.7561462E-02  0.1320547E+00
          1   -1    0    0  501    0  0.00000000000E+00  0.00000000000E+00  0.92847850509E+02  0.92847850509E+02  0.00000000000E+00 0. -1.
         -1   -1    0    0    0  501 -0.00000000000E+00 -0.00000000000E+00 -0.21890019080E+03  0.21890019080E+03  0.00000000000E+00 0.  1.
         23    2    1    2    0    0 -0.34062842190E+01  0.21256298982E+02 -0.15909930429E+03  0.20352804750E+03  0.12509054510E+03 0.  0.
          5    1    3    3  502    0 -0.34578054088E+02  0.17293447436E+02  0.23869606308E+01  0.38959916963E+02  0.41800000000E+01 0. -1.
         -5    1    3    3    0  502  0.31171769869E+02  0.39628515461E+01 -0.16148626492E+03  0.16456813054E+03  0.41800000000E+01 0. -1.
        -11    1    1    2    0    0  0.34248474575E+02 -0.45063051446E+02  0.39097606462E+02  0.68791419867E+02  0.00000000000E+00 0. -1.
         11    1    1    2    0    0 -0.30842190356E+02  0.23806752464E+02 -0.60506424583E+01  0.39428573940E+02  0.00000000000E+00 0.  1.
</event>
<event>
 7    1  0.6671761E-006  0.1750150E+03  0.7561462E-02  0.1172717E+00
         -1   -1    0    0    0  501 -0.00000000000E+00  0.00000000000E+00  0.21635388795E+03  0.21635388795E+03  0.00000000000E+00 0.  1.
          1   -1    0    0  501    0  0.00000000000E+00 -0.00000000000E+00 -0.19784404241E+03  0.19784404241E+03  0.00000000000E+00 0. -1.
         23    2    1    2    0    0  0.14827678392E+03 -0.32049228700E+02  0.99475406665E+02  0.22035410900E+03  0.12508964431E+03 0.  0.
          5    1    3    3  502    0  0.15221771417E+03 -0.49434240308E+02  0.11436820247E+03  0.19675247078E+03  0.41800000000E+01 0. -1.
         -5    1    3    3    0  502 -0.39409302523E+01  0.17385011608E+02 -0.14892795803E+02  0.23601638221E+02  0.41800000000E+01 0. -1.
        -11    1    1    2    0    0  0.83509939431E+01 -0.61889606689E+01  0.45434216431E+01  0.11343941741E+02  0.00000000000E+00 0.  1.
         11    1    1    2    0    0 -0.15662777786E+03  0.38238189369E+02 -0.85508982771E+02  0.18249987961E+03  0.00000000000E+00 0. -1.
</event>
<event>
 7    1  0.6671761E-006  0.1242917E+03  0.7561462E-02  0.1236180E+00
         -1   -1    0    0    0  501 -0.00000000000E+00  0.00000000000E+00  0.31542250692E+02  0.31542250692E+02  0.00000000000E+00 0.  1.
          1   -1    0    0  501    0  0.00000000000E+00 -0.00000000000E+00 -0.55025559272E+03  0.55025559272E+03  0.00000000000E+00 0. -1.
         23    2    1    2    0    0 -0.57352655648E+02  0.34055348502E+02 -0.21089226050E+03  0.25411068209E+03  0.12509036471E+03 0.  0.
          5    1    3    3  502    0 -0.71451451654E+02 -0.27979187750E+02 -0.13126508110E+03  0.15210568302E+03  0.41800000000E+01 0.  1.
         -5    1    3    3    0  502  0.14098796006E+02  0.62034536252E+02 -0.79627179400E+02  0.10200499907E+03  0.41800000000E+01 0.  1.
        -11    1    1    2    0    0  0.54348425772E+02 -0.60523243371E+02 -0.26549167225E+03  0.27767362569E+03  0.00000000000E+00 0. -1.
         11    1    1    2    0    0  0.30042298767E+01  0.26467894869E+02 -0.42329409282E+02  0.50013535629E+02  0.00000000000E+00 0.  1.
</event>
<event>
 7    1  0.6671761E-006  0.6687417E+02  0.7561462E-02  0.1371057E+00
         -1   -1    0    0    0  501 -0.00000000000E+00  0.00000000000E+00  0.10265376802E+03  0.10265376802E+03  0.00000000000E+00 0.  1.
          1   -1    0    0  501    0  0.00000000000E+00 -0.00000000000E+00 -0.13231224028E+03  0.13231224028E+03  0.00000000000E+00 0. -1.
         23    2    1    2    0    0 -0.12624690391E+02 -0.34448166992E+02  0.26834783800E+01  0.13038229828E+03  0.12508510555E+03 0.  0.
          5    1    3    3  502    0 -0.49746994696E+02 -0.20083736530E+02  0.46442051189E+02  0.71080633600E+02  0.41800000000E+01 0.  1.
         -5    1    3    3    0  502  0.37122304305E+02 -0.14364430463E+02 -0.43758572809E+02  0.59301664679E+02  0.41800000000E+01 0.  1.
        -11    1    1    2    0    0 -0.32463874892E+01  0.11938045088E+02  0.32154545732E+02  0.34452442054E+02  0.00000000000E+00 0.  1.
         11    1    1    2    0    0  0.15871077880E+02  0.22510121904E+02 -0.64496496381E+02  0.70131267966E+02  0.00000000000E+00 0. -1.
</event>
<event>
 7    1  0.6671761E-006  0.1450692E+03  0.7561462E-02  0.1206666E+00
         -2   -1    0    0    0  501 -0.00000000000E+00  0.00000000000E+00  0.26842679304E+03  0.26842679304E+03  0.00000000000E+00 0.  1.
          2   -1    0    0  501    0  0.00000000000E+00 -0.00000000000E+00 -0.10071398191E+03  0.10071398191E+03  0.00000000000E+00 0. -1.
         23    2    1    2    0    0  0.84811371058E+02  0.60559204057E+02  0.16333942853E+03  0.23062498871E+03  0.12509088955E+03 0.  0.
          5    1    3    3  502    0 -0.32163397919E+02  0.75865709673E+01  0.44716699674E+02  0.55759266983E+02  0.41800000000E+01 0.  1.
         -5    1    3    3    0  502  0.11697476898E+03  0.52972633090E+02  0.11862272885E+03  0.17486572172E+03  0.41800000000E+01 0.  1.
        -11    1    1    2    0    0 -0.64783770044E+02 -0.23011248863E+00 -0.23757329378E+02  0.69002902200E+02  0.00000000000E+00 0. -1.
         11    1    1    2    0    0 -0.20027601014E+02 -0.60329091569E+02  0.28130711980E+02  0.69512884046E+02  0.00000000000E+00 0.  1.
</event>
<event>
 7    1  0.6671761E-006  0.1194518E+03  0.7561462E-02  0.1244004E+00
         -2   -1    0    0    0  501 -0.00000000000E+00  0.00000000000E+00  0.10623150513E+03  0.10623150513E+03  0.00000000000E+00 0.  1.
          2   -1    0    0  501    0  0.00000000000E+00 -0.00000000000E+00 -0.16377470072E+03  0.16377470072E+03  0.00000000000E+00 0. -1.
         23    2    1    2    0    0 -0.38954605577E+01 -0.64934266459E+02  0.52503852003E+01  0.14109446046E+03  0.12509375145E+03 0.  0.
          5    1    3    3  502    0  0.51629468567E+02 -0.17058113161E+02  0.31656066701E+02  0.63056801442E+02  0.41800000000E+01 0.  1.
         -5    1    3    3    0  502 -0.55524929125E+02 -0.47876153298E+02 -0.26405681500E+02  0.78037659014E+02  0.41800000000E+01 0.  1.
        -11    1    1    2    0    0  0.29354890163E+02  0.77259601665E+02 -0.36707281959E+02  0.90433291296E+02  0.00000000000E+00 0.  1.
         11    1    1    2    0    0 -0.25459429605E+02 -0.12325335206E+02 -0.26086298832E+02  0.38478454107E+02  0.00000000000E+00 0. -1.
</event>
<event>
 7    1  0.6671761E-006  0.8878951E+02  0.7561462E-02  0.1305810E+00
          1   -1    0    0  501    0  0.00000000000E+00  0.00000000000E+00  0.26058616027E+03  0.26058616027E+03  0.00000000000E+00 0. -1.
         -1   -1    0    0    0  501 -0.00000000000E+00 -0.00000000000E+00 -0.67929419776E+02  0.67929419776E+02  0.00000000000E+00 0.  1.
         23    2    1    2    0    0  0.20864826182E+02  0.73289165836E+02  0.97856392384E+02  0.17615395716E+03  0.12509076821E+03 0.  0.
          5    1    3    3  502    0 -0.21692327742E+02  0.44279805245E+02  0.11211459703E+03  0.12254963689E+03  0.41800000000E+01 0.  1.
         -5    1    3    3    0  502  0.42557153924E+02  0.29009360591E+02 -0.14258204641E+02  0.53604320270E+02  0.41800000000E+01 0.  1.
        -11    1    1    2    0    0 -0.75243498193E+01 -0.17316093596E+02 -0.17776394959E+02  0.25931894558E+02  0.00000000000E+00 0.  1.
         11    1    1    2    0    0 -0.13340476362E+02 -0.55973072241E+02  0.11257674307E+03  0.12642972833E+03  0.00000000000E+00 0. -1.
</event>
<event>
 7    1  0.6671761E-006  0.1446811E+03  0.7561462E-02  0.1207165E+00
         -2   -1    0    0    0  501 -0.00000000000E+00  0.00000000000E+00  0.66460764440E+02  0.66460764440E+02  0.00000000000E+00 0.  1.
          2   -1    0    0  501    0  0.00000000000E+00 -0.00000000000E+00 -0.47975699351E+03  0.47975699351E+03  0.00000000000E+00 0. -1.
         23    2    1    2    0    0  0.45953602744E+00 -0.13953280452E+03 -0.19266250396E+03  0.26876819043E+03  0.12509150668E+03 0.  0.
          5    1    3    3  502    0 -0.17168507923E+01 -0.38970603451E+02  0.11713082018E+02  0.40942938345E+02  0.41800000000E+01 0. -1.
         -5    1    3    3    0  502  0.21763868198E+01 -0.10056220107E+03 -0.20437558597E+03  0.22782525208E+03  0.41800000000E+01 0. -1.
        -11    1    1    2    0    0  0.25495466512E+02  0.48443352049E+02 -0.14887528145E+03  0.15862101562E+03  0.00000000000E+00 0. -1.
         11    1    1    2    0    0 -0.25955002539E+02  0.91089452476E+02 -0.71758443661E+02  0.11882855190E+03  0.00000000000E+00 0.  1.
</event>
<event>
 7    1  0.6671761E-006  0.9442358E+02  0.7561462E-02  0.1292480E+00
         -2   -1    0    0    0  501 -0.00000000000E+00  0.00000000000E+00  0.41539078660E+02  0.41539078660E+02  0.00000000000E+00 0.  1.
          2   -1    0    0  501    0  0.00000000000E+00 -0.00000000000E+00 -0.29584962381E+03  0.29584962381E+03  0.00000000000E+00 0. -1.
         23    2    1    2    0    0  0.81843040173E+01 -0.20295196107E+02 -0.12335099323E+03  0.17703476515E+03  0.12508782005E+03 0.  0.
          5    1    3    3  502    0  0.55237498266E+02  0.11143921508E+01 -0.11048428770E+03  0.12359884026E+03  0.41800000000E+01 0.  1.
         -5    1    3    3    0  502 -0.47053194249E+02 -0.21409588257E+02 -0.12866705531E+02  0.53435924897E+02  0.41800000000E+01 0.  1.
        -11    1    1    2    0    0  0.34972924253E+02  0.15152081672E+02 -0.24358054942E+02  0.45232796181E+02  0.00000000000E+00 0.  1.
         11    1    1    2    0    0 -0.43157228270E+02  0.51431144345E+01 -0.10660149697E+03  0.11512114113E+03  0.00000000000E+00 0. -1.
</event>
<event>
 7    1  0.6671761E-006  0.1067318E+03  0.7561462E-02  0.1266745E+00
         -4   -1    0    0    0  501 -0.00000000000E+00  0.00000000000E+00  0.58565199668E+02  0.58565199668E+02  0.00000000000E+00 0.  1.
          4   -1    0    0  501    0  0.00000000000E+00 -0.00000000000E+00 -0.26344855670E+03  0.26344855670E+03  0.00000000000E+00 0. -1.
         23    2    1    2    0    0  0.24811007378E+02  0.44325602579E+02 -0.68820973948E+02  0.15153271631E+03  0.12508194325E+03 0.  0.
          5    1    3    3  502    0 -0.31422832534E+02 -0.26165110529E+02 -0.59626792951E+01  0.41533520894E+02  0.41800000000E+01 0. -1.
         -5    1    3    3    0  502  0.56233839913E+02  0.70490713108E+02 -0.62858294653E+02  0.10999919542E+03  0.41800000000E+01 0. -1.
        -11    1    1    2    0    0  0.16376563824E+02 -0.36720321816E+02 -0.15913969045E+02  0.43241511164E+02  0.00000000000E+00 0.  1.
         11    1    1    2    0    0 -0.41187571202E+02 -0.76052807629E+01 -0.12014841404E+03  0.12723952890E+03  0.00000000000E+00 0. -1.
</event>
<event>
 7    1  0.6671761E-006  0.1314372E+03  0.7561462E-02  0.1225339E+00
          1   -1    0    0  501    0  0.00000000000E+00  0.00000000000E+00  0.70739162291E+02  0.70739162291E+02  0.00000000000E+00 0. -1.
         -1   -1    0    0    0  501 -0.00000000000E+00 -0.00000000000E+00 -0.36899852992E+03  0.36899852992E+03  0.00000000000E+00 0.  1.
         23    2    1    2    0    0 -0.56088156618E+02 -0.72476878817E+02 -0.26055347711E+03  0.30320810142E+03  0.12509300162E+03 0.  0.
          5    1    3    3  502    0 -0.82245525754E+02 -0.67158252959E+02 -0.12088741788E+03  0.16095278080E+03  0.41800000000E+01 0.  1.
         -5    1    3    3    0  502  0.26157369136E+02 -0.53186258583E+01 -0.13966605924E+03  0.14225532062E+03  0.41800000000E+01 0.  1.
        -11    1    1    2    0    0 -0.13129649905E+02 -0.13755746655E+02  0.18156799890E+01  0.19102485872E+02  0.00000000000E+00 0. -1.
         11    1    1    2    0    0  0.69217806523E+02  0.86232625472E+02 -0.39521570510E+02  0.11742710493E+03  0.00000000000E+00 0.  1.
</event>
<event>
 7    1  0.7899200E-006  0.1125890E+03  0.7561462E-02  0.1255849E+00
          1   -1    0    0  501    0  0.00000000000E+00  0.00000000000E+00  0.18811254113E+03  0.18811254113E+03  0.00000000000E+00 0. -1.
         -1   -1    0    0    0  501 -0.00000000000E+00 -0.00000000000E+00 -0.11000023555E+03  0.11000023555E+03  0.00000000000E+00 0.  1.
         23    2    1    2    0    0 -0.20036775552E+02  0.92959364656E+02  0.32489512904E+02  0.16045623876E+03  0.12509084802E+03 0.  0.
          5    1    3    3  502    0 -0.86348264831E+01  0.23952334953E+02 -0.47538467639E+02  0.54089304705E+02  0.41800000000E+01 0.  1.
         -5    1    3    3    0  502 -0.11401949069E+02  0.69007029703E+02  0.80027980543E+02  0.10636693406E+03  0.41800000000E+01 0.  1.
        -11    1    1    2    0    0 -0.28374283306E+02 -0.70392378866E+02  0.20410216100E+02  0.78592390705E+02  0.00000000000E+00 0. -1.
         11    1    1    2    0    0  0.48411058858E+02 -0.22566985790E+02  0.25212576576E+02  0.59064147204E+02  0.00000000000E+00 0.  1.
</event>
<event>
 7    1  0.6671761E-006  0.1737270E+03  0.7561462E-02  0.1174016E+00
         -3   -1    0    0    0  501 -0.00000000000E+00  0.00000000000E+00  0.20566845781E+03  0.20566845781E+03  0.00000000000E+00 0.  1.
          3   -1    0    0  501    0  0.00000000000E+00 -0.00000000000E+00 -0.18719336672E+03  0.18719336672E+03  0.00000000000E+00 0. -1.
         23    2    1    2    0    0 -0.82635178170E+02  0.12410319950E+03  0.76113659991E+02  0.20898474588E+03  0.12510458815E+03 0.  0.
          5    1    3    3  502    0 -0.11223825644E+03  0.94896779294E+02  0.79316588483E+02  0.16706710789E+03  0.41800000000E+01 0. -1.
         -5    1    3    3    0  502  0.29603078268E+02  0.29206420211E+02 -0.32029284916E+01  0.41917637998E+02  0.41800000000E+01 0. -1.
        -11    1    1    2    0    0  0.49337858985E+02 -0.27597028618E+02  0.15114145097E+02  0.58517157311E+02  0.00000000000E+00 0.  1.
         11    1    1    2    0    0  0.33297319185E+02 -0.96506170886E+02 -0.72752713997E+02  0.12535992134E+03  0.00000000000E+00 0. -1.
</event>
<event>
 7    1  0.6671761E-006  0.4251163E+02  0.7561462E-02  0.1490502E+00
         -4   -1    0    0    0  501 -0.00000000000E+00  0.00000000000E+00  0.23007104836E+03  0.23007104836E+03  0.00000000000E+00 0. -1.
          4   -1    0    0  501    0  0.00000000000E+00 -0.00000000000E+00 -0.68699327381E+02  0.68699327381E+02  0.00000000000E+00 0.  1.
         23    2    1    2    0    0  0.18605673474E+02  0.11518383705E+02  0.15801248540E+03  0.20271892994E+03  0.12509266471E+03 0.  0.
          5    1    3    3  502    0  0.24107702416E+01  0.39691325213E+01 -0.21439380621E+02  0.22331262113E+02  0.41800000000E+01 0.  1.
         -5    1    3    3    0  502  0.16194903232E+02  0.75492511835E+01  0.17945186602E+03  0.18038766783E+03  0.41800000000E+01 0.  1.
        -11    1    1    2    0    0  0.11112458501E+02 -0.25325179654E+02  0.38887411807E+02  0.47718783047E+02  0.00000000000E+00 0. -1.
         11    1    1    2    0    0 -0.29718131975E+02  0.13806795949E+02 -0.35528176233E+02  0.48332662754E+02  0.00000000000E+00 0.  1.
</event>
<event>
 7    1  0.6671761E-006  0.3241950E+03  0.7561462E-02  0.1073735E+00
          1   -1    0    0  501    0  0.00000000000E+00  0.00000000000E+00  0.17596117253E+04  0.17596117253E+04  0.00000000000E+00 0. -1.
         -1   -1    0    0    0  501 -0.00000000000E+00 -0.00000000000E+00 -0.61366744270E+02  0.61366744270E+02  0.00000000000E+00 0.  1.
         23    2    1    2    0    0 -0.27479875573E+03  0.13651595570E+03  0.73599800617E+03  0.80715096189E+03  0.12509455573E+03 0.  0.
          5    1    3    3  502    0 -0.15511772610E+01  0.41251375281E+02  0.10716523995E+03  0.11491711434E+03  0.41800000000E+01 0.  1.
         -5    1    3    3    0  502 -0.27324757847E+03  0.95264580422E+02  0.62883276622E+03  0.69223384755E+03  0.41800000000E+01 0.  1.
        -11    1    1    2    0    0  0.10345007710E+03 -0.88837403837E+01  0.26648194332E+03  0.28599556887E+03  0.00000000000E+00 0. -1.
         11    1    1    2    0    0  0.17134867863E+03 -0.12763221532E+03  0.69576503158E+03  0.72783193886E+03  0.00000000000E+00 0.  1.
</event>
<event>
 7    1  0.6671761E-006  0.6760486E+02  0.7561462E-02  0.1368433E+00
          1   -1    0    0  501    0  0.00000000000E+00  0.00000000000E+00  0.52519987813E+02  0.52519987813E+02  0.00000000000E+00 0. -1.
         -1   -1    0    0    0  501 -0.00000000000E+00 -0.00000000000E+00 -0.27000580184E+03  0.27000580184E+03  0.00000000000E+00 0.  1.
         23    2    1    2    0    0 -0.39792940366E+02 -0.30707092009E+01 -0.15356649483E+03  0.20204715874E+03  0.12508988234E+03 0.  0.
          5    1    3    3  502    0 -0.46919020448E+02 -0.22544416348E+02 -0.55377683368E+01  0.52514611933E+02  0.41800000000E+01 0.  1.
         -5    1    3    3    0  502  0.71260800822E+01  0.19473707147E+02 -0.14802872650E+03  0.14953254681E+03  0.41800000000E+01 0.  1.
        -11    1    1    2    0    0  0.12332420075E+02 -0.21630230650E+02 -0.77286981443E+02  0.81198725134E+02  0.00000000000E+00 0.  1.
         11    1    1    2    0    0  0.27460520291E+02  0.24700939851E+02  0.13367662245E+02  0.39279905780E+02  0.00000000000E+00 0. -1.
</event>
<event>
 7    1  0.6671761E-006  0.1299912E+03  0.7561462E-02  0.1227469E+00
          1   -1    0    0  501    0  0.00000000000E+00  0.00000000000E+00  0.19887416488E+03  0.19887416488E+03  0.00000000000E+00 0.  1.
         -1   -1    0    0    0  501 -0.00000000000E+00 -0.00000000000E+00 -0.13688487434E+03  0.13688487434E+03  0.00000000000E+00 0. -1.
         23    2    1    2    0    0  0.18493376305E+02  0.10703357658E+03 -0.13909051566E+02  0.16625095925E+03  0.12509087997E+03 0.  0.
          5    1    3    3  502    0  0.27883378750E+02 -0.38177774334E+00  0.37341936109E+02  0.46792319425E+02  0.41800000000E+01 0. -1.
         -5    1    3    3    0  502 -0.93900024456E+01  0.10741535432E+03 -0.51250987675E+02  0.11945863982E+03  0.41800000000E+01 0. -1.
        -11    1    1    2    0    0  0.81210265046E+01 -0.93809056230E+02  0.95336452221E+02  0.13399675080E+03  0.00000000000E+00 0.  1.
         11    1    1    2    0    0 -0.26614402809E+02 -0.13224520350E+02 -0.19438110110E+02  0.35511329179E+02  0.00000000000E+00 0. -1.
</event>
<event>
 7    1  0.6671761E-006  0.8323933E+02  0.7561462E-02  0.1320102E+00
          1   -1    0    0  501    0  0.00000000000E+00  0.00000000000E+00  0.26666367663E+03  0.26666367663E+03  0.00000000000E+00 0. -1.
         -1   -1    0    0    0  501 -0.00000000000E+00 -0.00000000000E+00 -0.46936558113E+02  0.46936558113E+02  0.00000000000E+00 0.  1.
         23    2    1    2    0    0  0.40466255611E+00 -0.53402300942E+01  0.89024405179E+02  0.15362833549E+03  0.12509052297E+03 0.  0.
          5    1    3    3  502    0 -0.36463582514E+02 -0.66215508239E+01 -0.17223984520E+02  0.41080114749E+02  0.41800000000E+01 0.  1.
         -5    1    3    3    0  502  0.36868245070E+02  0.12813207298E+01  0.10624838970E+03  0.11254822074E+03  0.41800000000E+01 0.  1.
        -11    1    1    2    0    0  0.45729583730E+02  0.13290502149E+01  0.69958555915E+02  0.83589238233E+02  0.00000000000E+00 0. -1.
         11    1    1    2    0    0 -0.46134246286E+02  0.40111798793E+01  0.60744157427E+02  0.76382661029E+02  0.00000000000E+00 0.  1.
</event>
<event>
 7    1  0.6671761E-006  0.1114632E+03  0.7561462E-02  0.1257884E+00
         -2   -1    0    0    0  501 -0.00000000000E+00  0.00000000000E+00  0.21336209370E+03  0.21336209370E+03  0.00000000000E+00 0.  1.
          2   -1    0    0  501    0  0.00000000000E+00 -0.00000000000E+00 -0.65951538256E+02  0.65951538256E+02  0.00000000000E+00 0. -1.
         23    2    1    2    0    0  0.22096193503E+02  0.27623311078E+02  0.12087345021E+03  0.17750880912E+03  0.12509075613E+03 0.  0.
          5    1    3    3  502    0 -0.34956799371E+02  0.54607708416E+02  0.46620975634E+02  0.79968540126E+02  0.41800000000E+01 0.  1.
         -5    1    3    3    0  502  0.57052992874E+02 -0.26984397339E+02  0.74252474572E+02  0.97540268996E+02  0.41800000000E+01 0.  1.
        -11    1    1    2    0    0  0.32797597860E+02  0.96316535624E+00  0.22493935148E+02  0.39781744951E+02  0.00000000000E+00 0.  1.
         11    1    1    2    0    0 -0.54893791364E+02 -0.28586476434E+02  0.40431700853E+01  0.62023077879E+02  0.00000000000E+00 0. -1.
</event>
<event>
 7    1  0.6671761E-006  0.1016146E+03  0.7561462E-02  0.1276937E+00
          4   -1    0    0  501    0  0.00000000000E+00  0.00000000000E+00  0.32387838687E+03  0.32387838687E+03  0.00000000000E+00 0. -1.
         -4   -1    0    0    0  501 -0.00000000000E+00 -0.00000000000E+00 -0.53124062211E+02  0.53124062211E+02  0.00000000000E+00 0.  1.
         23    2    1    2    0    0  0.24998169580E+02 -0.16557954094E+02  0.54289160896E+02  0.13962305496E+03  0.12509280619E+03 0.  0.
          5    1    3    3  502    0 -0.38263602832E+02 -0.18001420754E+02 -0.15586331531E+02  0.45261027181E+02  0.41800000000E+01 0.  1.
         -5    1    3    3    0  502  0.63261772413E+02  0.14434666608E+01  0.69875492426E+02  0.94362027779E+02  0.41800000000E+01 0.  1.
        -11    1    1    2    0    0  0.33074843296E+02 -0.83791546898E+01  0.81229863952E+02  0.88104746126E+02  0.00000000000E+00 0.  1.
         11    1    1    2    0    0 -0.58073012876E+02  0.24937108783E+02  0.13523529981E+03  0.14927464800E+03  0.00000000000E+00 0. -1.
</event>
<event>
 7    1  0.6671761E-006  0.4105513E+03  0.7561462E-02  0.1040186E+00
         -2   -1    0    0    0  501 -0.00000000000E+00  0.00000000000E+00  0.18741150632E+03  0.18741150632E+03  0.00000000000E+00 0. -1.
          2   -1    0    0  501    0  0.00000000000E+00 -0.00000000000E+00 -0.97777839210E+03  0.97777839210E+03  0.00000000000E+00 0.  1.
         23    2    1    2    0    0 -0.38579480886E+03  0.11784812839E+03 -0.27345640989E+03  0.50314188939E+03  0.12509011489E+03 0.  0.
          5    1    3    3  502    0 -0.29924905499E+03  0.12059330134E+03 -0.26212183430E+03  0.41571392767E+03  0.41800000000E+01 0. -1.
         -5    1    3    3    0  502 -0.86545753872E+02 -0.27451729517E+01 -0.11334575590E+02  0.87427961726E+02  0.41800000000E+01 0. -1.
        -11    1    1    2    0    0  0.33959635330E+03 -0.72977915063E+02 -0.41128411159E+03  0.53833640013E+03  0.00000000000E+00 0.  1.
         11    1    1    2    0    0  0.46198455561E+02 -0.44870213323E+02 -0.10562636430E+03  0.12371160889E+03  0.00000000000E+00 0. -1.
</event>
<event>
 7    1  0.6671761E-006  0.1241990E+03  0.7561462E-02  0.1236326E+00
          3   -1    0    0  501    0  0.00000000000E+00  0.00000000000E+00  0.84315813827E+02  0.84315813827E+02  0.00000000000E+00 0. -1.
         -3   -1    0    0    0  501 -0.00000000000E+00 -0.00000000000E+00 -0.20820689158E+03  0.20820689158E+03  0.00000000000E+00 0.  1.
         23    2    1    2    0    0 -0.24973505810E+02  0.59683232534E+02 -0.11672790576E+03  0.17887538761E+03  0.11910178870E+03 0.  0.
          5    1    3    3  502    0 -0.65814290441E+02  0.42224761231E+01 -0.64433362821E+02  0.92295616230E+02  0.41800000000E+01 0. -1.
         -5    1    3    3    0  502  0.40840784631E+02  0.55460756410E+02 -0.52294542940E+02  0.86579771380E+02  0.41800000000E+01 0.  1.
        -11    1    1    2    0    0 -0.29409583615E+02  0.38759141002E+01 -0.40555250696E+01  0.29939833034E+02  0.00000000000E+00 0.  1.
         11    1    1    2    0    0  0.54383089425E+02 -0.63559146634E+02 -0.31076469245E+01  0.83707484765E+02  0.00000000000E+00 0. -1.
</event>
<event>
 7    1  0.6671761E-006  0.7608481E+02  0.7561462E-02  0.1340544E+00
         -1   -1    0    0    0  501 -0.00000000000E+00  0.00000000000E+00  0.16208020608E+03  0.16208020608E+03  0.00000000000E+00 0.  1.
          1   -1    0    0  501    0  0.00000000000E+00 -0.00000000000E+00 -0.10095898316E+03  0.10095898316E+03  0.00000000000E+00 0. -1.
         23    2    1    2    0    0 -0.26768521081E+02 -0.18490082109E+02  0.96690842495E+02  0.16141328719E+03  0.12508674351E+03 0.  0.
          5    1    3    3  502    0 -0.37486177908E+02 -0.34622585618E+02  0.12021056485E+03  0.13065982271E+03  0.41800000000E+01 0. -1.
         -5    1    3    3    0  502  0.10717656827E+02  0.16132503509E+02 -0.23519722360E+02  0.30753464475E+02  0.41800000000E+01 0. -1.
        -11    1    1    2    0    0 -0.15361119485E+02  0.33159975180E+02 -0.42966360023E+02  0.56406170225E+02  0.00000000000E+00 0.  1.
         11    1    1    2    0    0  0.42129640567E+02 -0.14669893071E+02  0.73967404481E+01  0.45219731824E+02  0.00000000000E+00 0. -1.
</event>
<event>
 7    1  0.6671761E-006  0.1318354E+03  0.7561462E-02  0.1224757E+00
          1   -1    0    0  501    0  0.00000000000E+00  0.00000000000E+00  0.32324294367E+03  0.32324294367E+03  0.00000000000E+00 0. -1.
         -1   -1    0    0    0  501 -0.00000000000E+00 -0.00000000000E+00 -0.68704611146E+02  0.68704611146E+02  0.00000000000E+00 0.  1.
         23    2    1    2    0    0  0.55561823089E+02  0.62239958965E+02  0.60725766032E+02  0.16211818316E+03  0.12503502699E+03 0.  0.
          5    1    3    3  502    0  0.28116467910E+02 -0.33641707886E+02  0.41397122635E+02  0.60444143138E+02  0.41800000000E+01 0.  1.
         -5    1    3    3    0  502  0.27445355179E+02  0.95881666851E+02  0.19328643397E+02  0.10167404002E+03  0.41800000000E+01 0.  1.
        -11    1    1    2    0    0 -0.55581588810E+02  0.19521861182E+01  0.11828814307E+03  0.13071040064E+03  0.00000000000E+00 0. -1.
         11    1    1    2    0    0  0.19765721261E-01 -0.64192145083E+02  0.75524423419E+02  0.99118971009E+02  0.00000000000E+00 0.  1.
</event>
<event>
 7    1  0.6671761E-006  0.1154376E+03  0.7561462E-02  0.1250819E+00
         -1   -1    0    0    0  501 -0.00000000000E+00  0.00000000000E+00  0.48418528482E+03  0.48418528482E+03  0.00000000000E+00 0.  1.
          1   -1    0    0  501    0  0.00000000000E+00 -0.00000000000E+00 -0.62239930695E+02  0.62239930695E+02  0.00000000000E+00 0. -1.
         23    2    1    2    0    0  0.65309432233E+02 -0.40436765365E+02  0.40457035118E+03  0.43037637322E+03  0.12508476982E+03 0.  0.
          5    1    3    3  502    0 -0.13487981489E+02  0.34194515731E+02  0.12817157157E+03  0.13340395313E+03  0.41800000000E+01 0.  1.
         -5    1    3    3    0  502  0.78797413722E+02 -0.74631281096E+02  0.27639877960E+03  0.29697242009E+03  0.41800000000E+01 0.  1.
        -11    1    1    2    0    0 -0.43558270571E+02  0.45444664694E+02 -0.25336958437E+02  0.67856480510E+02  0.00000000000E+00 0. -1.
         11    1    1    2    0    0 -0.21751161662E+02 -0.50078993284E+01  0.42711961388E+02  0.48192361790E+02  0.00000000000E+00 0.  1.
</event>
<event>
 7    1  0.6671761E-006  0.1023169E+03  0.7561462E-02  0.1275498E+00
          3   -1    0    0  501    0  0.00000000000E+00  0.00000000000E+00  0.14693088359E+03  0.14693088359E+03  0.00000000000E+00 0. -1.
         -3   -1    0    0    0  501 -0.00000000000E+00 -0.00000000000E+00 -0.99899028863E+02  0.99899028863E+02  0.00000000000E+00 0.  1.
         23    2    1    2    0    0 -0.37594104461E+02 -0.38938617359E+02  0.24084432970E+02  0.13840991277E+03  0.12509081273E+03 0.  0.
          5    1    3    3  502    0 -0.17422666397E+02  0.37996281609E+02 -0.20919500042E+02  0.46929357576E+02  0.41800000000E+01 0.  1.
         -5    1    3    3    0  502 -0.20171438064E+02 -0.76934898968E+02  0.45003933012E+02  0.91480555198E+02  0.41800000000E+01 0.  1.
        -11    1    1    2    0    0  0.31773439824E+02 -0.10297818021E+02 -0.23216064680E+02  0.40676555821E+02  0.00000000000E+00 0.  1.
         11    1    1    2    0    0  0.58206646371E+01  0.49236435380E+02  0.46163486437E+02  0.67743443858E+02  0.00000000000E+00 0. -1.
</event>
<event>
 7    1  0.6671761E-006  0.1222820E+03  0.7561462E-02  0.1239379E+00
          1   -1    0    0  501    0  0.00000000000E+00  0.00000000000E+00  0.81049212391E+02  0.81049212391E+02  0.00000000000E+00 0. -1.
         -1   -1    0    0    0  501 -0.00000000000E+00 -0.00000000000E+00 -0.21990505213E+03  0.21990505213E+03  0.00000000000E+00 0.  1.
         23    2    1    2    0    0 -0.53310246303E+02  0.65059024193E+02 -0.12862286933E+03  0.19815763390E+03  0.12509175181E+03 0.  0.
          5    1    3    3  502    0 -0.85382446984E+01 -0.35557762528E+02 -0.14648207423E+02  0.39614372130E+02  0.41800000000E+01 0. -1.
         -5    1    3    3    0  502 -0.44772001605E+02  0.10061678672E+03 -0.11397466190E+03  0.15854326177E+03  0.41800000000E+01 0. -1.
        -11    1    1    2    0    0  0.51509984766E+02 -0.24656725167E+02  0.93414563498E+01  0.57866185578E+02  0.00000000000E+00 0. -1.
         11    1    1    2    0    0  0.18002615368E+01 -0.40402299026E+02 -0.19574426760E+02  0.44930445037E+02  0.00000000000E+00 0.  1.
</event>
<event>
 7    1  0.6671761E-006  0.1141769E+03  0.7561462E-02  0.1253025E+00
          1   -1    0    0  501    0  0.00000000000E+00  0.00000000000E+00  0.10847677849E+03  0.10847677849E+03  0.00000000000E+00 0. -1.
         -1   -1    0    0    0  501 -0.00000000000E+00 -0.00000000000E+00 -0.13371977062E+03  0.13371977062E+03  0.00000000000E+00 0.  1.
         23    2    1    2    0    0 -0.83143011509E+01  0.47111934985E+02  0.43830731514E+01  0.13399697240E+03  0.12508922920E+03 0.  0.
          5    1    3    3  502    0 -0.52402536110E+02 -0.95186671136E+01  0.25319024613E+02  0.59119846259E+02  0.41800000000E+01 0.  1.
         -5    1    3    3    0  502  0.44088234959E+02  0.56630602099E+02 -0.20935951461E+02  0.74877126143E+02  0.41800000000E+01 0.  1.
        -11    1    1    2    0    0  0.47916973810E+02 -0.40806051362E+02 -0.25422203777E+02  0.67878263470E+02  0.00000000000E+00 0. -1.
         11    1    1    2    0    0 -0.39602672659E+02 -0.63058836233E+01 -0.42038614981E+01  0.40321313241E+02  0.00000000000E+00 0.  1.
</event>
<event>
 7    1  0.7962836E-006  0.1433016E+03  0.7561462E-02  0.1208954E+00
          1   -1    0    0  501    0  0.00000000000E+00  0.00000000000E+00  0.16040926147E+03  0.16040926147E+03  0.00000000000E+00 0. -1.
         -1   -1    0    0    0  501 -0.00000000000E+00 -0.00000000000E+00 -0.14675689116E+03  0.14675689116E+03  0.00000000000E+00 0.  1.
         23    2    1    2    0    0 -0.58856924704E+02  0.90267401073E+02 -0.35310605903E+01  0.16514220331E+03  0.12508851924E+03 0.  0.
          5    1    3    3  502    0  0.29818481712E+02 -0.88794057726E+01 -0.63603627039E+01  0.32029865941E+02  0.41800000000E+01 0.  1.
         -5    1    3    3    0  502 -0.88675406416E+02  0.99146806846E+02  0.28293021136E+01  0.13311233737E+03  0.41800000000E+01 0.  1.
        -11    1    1    2    0    0  0.27536188108E+01 -0.56666340150E+02  0.43541717344E+02  0.71515995916E+02  0.00000000000E+00 0. -1.
         11    1    1    2    0    0  0.56103305894E+02 -0.33601060923E+02 -0.26358286445E+02  0.70507953393E+02  0.00000000000E+00 0.  1.
</event>
<event>
 7    1  0.6671761E-006  0.1110942E+03  0.7561462E-02  0.1258557E+00
         -1   -1    0    0    0  501 -0.00000000000E+00  0.00000000000E+00  0.96474518109E+03  0.96474518109E+03  0.00000000000E+00 0.  1.
          1   -1    0    0  501    0  0.00000000000E+00 -0.00000000000E+00 -0.16037917383E+02  0.16037917383E+02  0.00000000000E+00 0. -1.
         23    2    1    2    0    0  0.47316722388E+02 -0.33199501036E+02  0.61859601713E+03  0.63375791154E+03  0.12508788485E+03 0.  0.
          5    1    3    3  502    0  0.80473042977E+02 -0.30285074649E+02  0.55706063444E+03  0.56367288318E+03  0.41800000000E+01 0.  1.
         -5    1    3    3    0  502 -0.33156320589E+02 -0.29144263871E+01  0.61535382691E+02  0.70085028353E+02  0.41800000000E+01 0.  1.
        -11    1    1    2    0    0 -0.50531537731E+02  0.58357975100E+02  0.19829362593E+03  0.21278968877E+03  0.00000000000E+00 0.  1.
         11    1    1    2    0    0  0.32148153432E+01 -0.25158474065E+02  0.13181762064E+03  0.13423549816E+03  0.00000000000E+00 0. -1.
</event>
<event>
 7    1  0.6671761E-006  0.1157213E+03  0.7561462E-02  0.1250327E+00
         -1   -1    0    0    0  501 -0.00000000000E+00  0.00000000000E+00  0.35764625481E+02  0.35764625481E+02  0.00000000000E+00 0.  1.
          1   -1    0    0  501    0  0.00000000000E+00 -0.00000000000E+00 -0.39458623193E+03  0.39458623193E+03  0.00000000000E+00 0. -1.
         23    2    1    2    0    0  0.18344942458E+02 -0.35948762226E+02 -0.16679265483E+03  0.21235403008E+03  0.12508234874E+03 0.  0.
          5    1    3    3  502    0  0.53367167567E+02  0.25039366276E+02 -0.94132304982E+02  0.11114579470E+03  0.41800000000E+01 0.  1.
         -5    1    3    3    0  502 -0.35022225109E+02 -0.60988128502E+02 -0.72660349848E+02  0.10120823538E+03  0.41800000000E+01 0.  1.
        -11    1    1    2    0    0 -0.24150665143E+02 -0.28401256900E+02 -0.54308663222E+02  0.65873491795E+02  0.00000000000E+00 0. -1.
         11    1    1    2    0    0  0.58057226852E+01  0.64350019127E+02 -0.13772028840E+03  0.15212333553E+03  0.00000000000E+00 0.  1.
</event>
<event>
 7    1  0.6671761E-006  0.1564883E+03  0.7561462E-02  0.1192719E+00
          2   -1    0    0  501    0  0.00000000000E+00  0.00000000000E+00  0.84185682720E+03  0.84185682720E+03  0.00000000000E+00 0. -1.
         -2   -1    0    0    0  501 -0.00000000000E+00 -0.00000000000E+00 -0.33105424169E+02  0.33105424169E+02  0.00000000000E+00 0.  1.
         23    2    1    2    0    0 -0.12171282476E+02  0.11808844558E+03  0.31637595114E+03  0.36032519975E+03  0.12508991176E+03 0.  0.
          5    1    3    3  502    0 -0.37004702333E+02 -0.53966860505E+01  0.13002034468E+03  0.13535595534E+03  0.41800000000E+01 0. -1.
         -5    1    3    3    0  502  0.24833419857E+02  0.12348513163E+03  0.18635560646E+03  0.22496924442E+03  0.41800000000E+01 0. -1.
        -11    1    1    2    0    0  0.39494399743E+02 -0.11527527550E+03  0.38628591098E+03  0.40504938190E+03  0.00000000000E+00 0.  1.
         11    1    1    2    0    0 -0.27323117267E+02 -0.28131700754E+01  0.10608954091E+03  0.10958766972E+03  0.00000000000E+00 0. -1.
</event>
<event>
 7    1  0.1307060E-005  0.1699368E+03  0.7561462E-02  0.1177914E+00
         -1   -1    0    0    0  501 -0.00000000000E+00  0.00000000000E+00  0.34179445621E+02  0.34179445621E+02  0.00000000000E+00 0.  1.
          1   -1    0    0  501    0  0.00000000000E+00 -0.00000000000E+00 -0.89304047223E+03  0.89304047223E+03  0.00000000000E+00 0. -1.
         23    2    1    2    0    0  0.66969350862E+02 -0.11466508498E+03 -0.37720621967E+03  0.41900486110E+03  0.12509023064E+03 0.  0.
          5    1    3    3  502    0 -0.72889260855E+01 -0.10334440911E+03 -0.17704485509E+03  0.20517199723E+03  0.41800000000E+01 0.  1.
         -5    1    3    3    0  502  0.74258276947E+02 -0.11320675877E+02 -0.20016136458E+03  0.21383286387E+03  0.41800000000E+01 0.  1.
        -11    1    1    2    0    0 -0.38765226055E+02  0.12503445777E+03 -0.36546588211E+03  0.38820312900E+03  0.00000000000E+00 0.  1.
         11    1    1    2    0    0 -0.28204124806E+02 -0.10369372789E+02 -0.11618892483E+03  0.12001192775E+03  0.00000000000E+00 0. -1.
</event>
<event>
 7    1  0.6671761E-006  0.9318819E+02  0.7561462E-02  0.1295310E+00
         -2   -1    0    0    0  501 -0.00000000000E+00  0.00000000000E+00  0.55505128537E+02  0.55505128537E+02  0.00000000000E+00 0.  1.
          2   -1    0    0  501    0  0.00000000000E+00 -0.00000000000E+00 -0.28601487152E+03  0.28601487152E+03  0.00000000000E+00 0. -1.
         23    2    1    2    0    0  0.42530917043E+02 -0.10805050109E+02 -0.64347579677E+02  0.14735677987E+03  0.12509109302E+03 0.  0.
          5    1    3    3  502    0 -0.21974155372E+02 -0.91461343964E+01 -0.77665140589E+02  0.81337947733E+02  0.41800000000E+01 0.  1.
         -5    1    3    3    0  502  0.64505072415E+02 -0.16589157126E+01  0.13317560912E+02  0.66018832141E+02  0.41800000000E+01 0.  1.
        -11    1    1    2    0    0  0.95182283975E+01 -0.29960305009E+02 -0.76952868781E+02  0.83126172543E+02  0.00000000000E+00 0. -1.
         11    1    1    2    0    0 -0.52049145440E+02  0.40765355118E+02 -0.89209294522E+02  0.11103704764E+03  0.00000000000E+00 0.  1.
</event>
<event>
 7    1  0.6671761E-006  0.8840994E+02  0.7561462E-02  0.1306749E+00
          1   -1    0    0  501    0  0.00000000000E+00  0.00000000000E+00  0.89845779326E+02  0.89845779326E+02  0.00000000000E+00 0. -1.
         -1   -1    0    0    0  501 -0.00000000000E+00 -0.00000000000E+00 -0.16759783963E+03  0.16759783963E+03  0.00000000000E+00 0.  1.
         23    2    1    2    0    0  0.14414165329E+01  0.57433776784E+01 -0.10491467275E+03  0.16337031868E+03  0.12509080062E+03 0.  0.
          5    1    3    3  502    0 -0.42151203391E+02  0.79052241540E+01 -0.11103181959E+03  0.11909976439E+03  0.41800000000E+01 0.  1.
         -5    1    3    3    0  502  0.43592619924E+02 -0.21618464756E+01  0.61171468384E+01  0.44270554293E+02  0.41800000000E+01 0.  1.
        -11    1    1    2    0    0  0.43940734416E+02  0.12958718596E+01  0.10298850755E+02  0.45150124604E+02  0.00000000000E+00 0.  1.
         11    1    1    2    0    0 -0.45382150949E+02 -0.70392495379E+01  0.16863761695E+02  0.48923175666E+02  0.00000000000E+00 0. -1.
</event>
<event>
 7    1  0.6671761E-006  0.1644030E+03  0.7561462E-02  0.1183814E+00
         -1   -1    0    0    0  501 -0.00000000000E+00  0.00000000000E+00  0.84664473071E+02  0.84664473071E+02  0.00000000000E+00 0.  1.
          1   -1    0    0  501    0  0.00000000000E+00 -0.00000000000E+00 -0.45850988109E+03  0.45850988109E+03  0.00000000000E+00 0. -1.
         23    2    1    2    0    0 -0.79040021562E+02  0.12521070732E+03 -0.99232865281E+02  0.21778617926E+03  0.12513437613E+03 0.  0.
          5    1    3    3  502    0 -0.58198970232E+01  0.10040976511E+03 -0.12358642468E+02  0.10142090797E+03  0.41800000000E+01 0. -1.
         -5    1    3    3    0  502 -0.73220124539E+02  0.24800942209E+02 -0.86874222813E+02  0.11636527129E+03  0.41800000000E+01 0. -1.
        -11    1    1    2    0    0  0.55148484591E+02 -0.10803547888E+03 -0.12995182377E+03  0.17776528500E+03  0.00000000000E+00 0.  1.
         11    1    1    2    0    0  0.23891536972E+02 -0.17175228432E+02 -0.14466071896E+03  0.14762288990E+03  0.00000000000E+00 0. -1.
</event>
<event>
 7    1  0.6671761E-006  0.8890679E+02  0.7561462E-02  0.1305521E+00
          2   -1    0    0  501    0  0.00000000000E+00  0.00000000000E+00  0.10396174987E+04  0.10396174987E+04  0.00000000000E+00 0. -1.
         -2   -1    0    0    0  501 -0.00000000000E+00 -0.00000000000E+00 -0.14640478011E+02  0.14640478011E+02  0.00000000000E+00 0.  1.
         23    2    1    2    0    0 -0.47894180208E+02  0.37148954528E+02  0.56687063448E+03  0.58366333227E+03  0.12508665747E+03 0.  0.
          5    1    3    3  502    0 -0.25358326242E+02 -0.11082991240E+02  0.48567684752E+03  0.48648263075E+03  0.41800000000E+01 0.  1.
         -5    1    3    3    0  502 -0.22535853966E+02  0.48231945769E+02  0.81193786962E+02  0.97180701519E+02  0.41800000000E+01 0.  1.
        -11    1    1    2    0    0  0.26089659444E+02 -0.59641212132E+02  0.39286842146E+03  0.39822523915E+03  0.00000000000E+00 0. -1.
         11    1    1    2    0    0  0.21804520764E+02  0.22492257604E+02  0.65237964718E+02  0.72369405265E+02  0.00000000000E+00 0.  1.
</event>
<event>
 7    1  0.6671761E-006  0.1788059E+03  0.7561462E-02  0.1168964E+00
         -1   -1    0    0    0  501 -0.00000000000E+00  0.00000000000E+00  0.97871862438E+03  0.97871862438E+03  0.00000000000E+00 0.  1.
          1   -1    0    0  501    0  0.00000000000E+00 -0.00000000000E+00 -0.43559619028E+02  0.43559619028E+02  0.00000000000E+00 0. -1.
         23    2    1    2    0    0  0.14959159963E+03  0.30964543940E+01  0.71535910231E+03  0.74146692561E+03  0.12508925532E+03 0.  0.
          5    1    3    3  502    0  0.10717766384E+02  0.39247649365E+02  0.28191640780E+03  0.28486765679E+03  0.41800000000E+01 0. -1.
         -5    1    3    3    0  502  0.13887383325E+03 -0.36151194971E+02  0.43344269451E+03  0.45659926882E+03  0.41800000000E+01 0. -1.
        -11    1    1    2    0    0 -0.54277932167E+02  0.41104796285E+02  0.68245629085E+02  0.96401058538E+02  0.00000000000E+00 0. -1.
         11    1    1    2    0    0 -0.95313667468E+02 -0.44201250679E+02  0.15155427396E+03  0.18441025926E+03  0.00000000000E+00 0.  1.
</event>
<event>
 7    1  0.6671761E-006  0.9078146E+02  0.7561462E-02  0.1300970E+00
          2   -1    0    0  501    0  0.00000000000E+00  0.00000000000E+00  0.47693100182E+03  0.47693100182E+03  0.00000000000E+00 0. -1.
         -2   -1    0    0    0  501 -0.00000000000E+00 -0.00000000000E+00 -0.31254341839E+02  0.31254341839E+02  0.00000000000E+00 0.  1.
         23    2    1    2    0    0 -0.23284619943E+02 -0.15110695311E+02  0.14853783748E+03  0.19616493441E+03  0.12508671269E+03 0.  0.
          5    1    3    3  502    0  0.31927324110E+02 -0.15408788282E+02 -0.20141558288E+01  0.35753517377E+02  0.41800000000E+01 0. -1.
         -5    1    3    3    0  502 -0.55211944054E+02  0.29809297073E+00  0.15055199331E+03  0.16041141703E+03  0.41800000000E+01 0. -1.
        -11    1    1    2    0    0  0.46157760642E+02  0.36755669569E+02  0.23579860568E+03  0.24306892140E+03  0.00000000000E+00 0. -1.
         11    1    1    2    0    0 -0.22873140699E+02 -0.21644974258E+02  0.61340216825E+02  0.68951487846E+02  0.00000000000E+00 0.  1.
</event>
<event>
 7    1  0.6671761E-006  0.5938812E+02  0.7561462E-02  0.1400418E+00
         -2   -1    0    0    0  501 -0.00000000000E+00  0.00000000000E+00  0.41992814245E+02  0.41992814245E+02  0.00000000000E+00 0.  1.
          2   -1    0    0  501    0  0.00000000000E+00 -0.00000000000E+00 -0.48621477375E+03  0.48621477375E+03  0.00000000000E+00 0. -1.
         23    2    1    2    0    0  0.13567900547E+02 -0.17518678754E+02 -0.54255122126E+02  0.12705882500E+03  0.11273568513E+03 0.  0.
          5    1    3    3  502    0  0.89507158025E+01 -0.17619336792E+02 -0.89253347737E+02  0.91510594057E+02  0.41800000000E+01 0. -1.
         -5    1    3    3    0  502  0.46171847442E+01  0.10065803806E+00  0.34998225611E+02  0.35548230939E+02  0.41800000000E+01 0.  1.
        -11    1    1    2    0    0  0.33356861768E+02  0.28818224015E+02 -0.14846626657E+03  0.15487221368E+03  0.00000000000E+00 0.  1.
         11    1    1    2    0    0 -0.46924762315E+02 -0.11299545261E+02 -0.24150057081E+03  0.24627654932E+03  0.00000000000E+00 0. -1.
</event>
<event>
 7    1  0.6671761E-006  0.1228574E+03  0.7561462E-02  0.1238456E+00
          1   -1    0    0  501    0  0.00000000000E+00  0.00000000000E+00  0.66474342618E+03  0.66474342618E+03  0.00000000000E+00 0. -1.
         -1   -1    0    0    0  501 -0.00000000000E+00 -0.00000000000E+00 -0.25173164000E+02  0.25173164000E+02  0.00000000000E+00 0.  1.
         23    2    1    2    0    0 -0.60260203419E+02 -0.20881025071E+02  0.27585498838E+03  0.30953333346E+03  0.12509036969E+03 0.  0.
          5    1    3    3  502    0  0.20956181553E+02 -0.47846054949E+02  0.13306454207E+03  0.14301066840E+03  0.41800000000E+01 0.  1.
         -5    1    3    3    0  502 -0.81216384973E+02  0.26965029878E+02  0.14279044631E+03  0.16652266507E+03  0.41800000000E+01 0.  1.
        -11    1    1    2    0    0 -0.41024042614E+01  0.40221594383E+02  0.18698534686E+03  0.19130636768E+03  0.00000000000E+00 0.  1.
         11    1    1    2    0    0  0.64362607681E+02 -0.19340569312E+02  0.17672992694E+03  0.18907688903E+03  0.00000000000E+00 0. -1.
</event>
<event>
 7    1  0.6671761E-006  0.1029417E+03  0.7561462E-02  0.1274229E+00
          1   -1    0    0  501    0  0.00000000000E+00  0.00000000000E+00  0.81531150158E+03  0.81531150158E+03  0.00000000000E+00 0. -1.
         -1   -1    0    0    0  501 -0.00000000000E+00 -0.00000000000E+00 -0.13734557328E+02  0.13734557328E+02  0.00000000000E+00 0.  1.
         23    2    1    2    0    0  0.18165958521E+02 -0.10405238228E+02  0.49154646444E+03  0.50764572323E+03  0.12509189655E+03 0.  0.
          5    1    3    3  502    0 -0.38156134175E+02 -0.44672062255E+02  0.18869588147E+03  0.19767420622E+03  0.41800000000E+01 0.  1.
         -5    1    3    3    0  502  0.56322092696E+02  0.34266824027E+02  0.30285058297E+03  0.30997151701E+03  0.41800000000E+01 0.  1.
        -11    1    1    2    0    0 -0.49002827693E+02  0.23729247779E+01  0.13843706162E+03  0.14687316951E+03  0.00000000000E+00 0.  1.
         11    1    1    2    0    0  0.30836869172E+02  0.80323134504E+01  0.17159341820E+03  0.17452716616E+03  0.00000000000E+00 0. -1.
</event>
<event>
 7    1  0.6671761E-006  0.1062170E+03  0.7561462E-02  0.1267740E+00
         -3   -1    0    0    0  501 -0.00000000000E+00  0.00000000000E+00  0.35833254172E+03  0.35833254172E+03  0.00000000000E+00 0.  1.
          3   -1    0    0  501    0  0.00000000000E+00 -0.00000000000E+00 -0.48999123388E+02  0.48999123388E+02  0.00000000000E+00 0. -1.
         23    2    1    2    0    0 -0.30515980311E+02  0.69597374894E+02  0.16631926075E+03  0.22155168387E+03  0.12509209600E+03 0.  0.
          5    1    3    3  502    0 -0.62012026923E+02  0.80321433690E+02  0.81086609855E+02  0.12995974335E+03  0.41800000000E+01 0. -1.
         -5    1    3    3    0  502  0.31496046611E+02 -0.10724058795E+02  0.85232650899E+02  0.91591940521E+02  0.41800000000E+01 0. -1.
        -11    1    1    2    0    0  0.16618811307E+02 -0.20917348172E+02 -0.68636622601E+01  0.27583150716E+02  0.00000000000E+00 0. -1.
         11    1    1    2    0    0  0.13897169004E+02 -0.48680026722E+02  0.14987781983E+03  0.15819683052E+03  0.00000000000E+00 0.  1.
</event>
<event>
 7    1  0.6671761E-006  0.1628330E+03  0.7561462E-02  0.1185535E+00
         -1   -1    0    0    0  501 -0.00000000000E+00  0.00000000000E+00  0.73593013377E+02  0.73593013377E+02  0.00000000000E+00 0.  1.
          1   -1    0    0  501    0  0.00000000000E+00 -0.00000000000E+00 -0.41472490375E+03  0.41472490375E+03  0.00000000000E+00 0. -1.
         23    2    1    2    0    0  0.12696717170E+03  0.19842189115E+02 -0.11153871321E+03  0.21124774889E+03  0.12518127538E+03 0.  0.
          5    1    3    3  502    0  0.11715696541E+03  0.64044131617E+02 -0.77394568194E+02  0.15438522250E+03  0.41800000000E+01 0. -1.
         -5    1    3    3    0  502  0.98102062830E+01 -0.44201942502E+02 -0.34144145020E+02  0.56862526389E+02  0.41800000000E+01 0. -1.
        -11    1    1    2    0    0 -0.61555065330E+01 -0.24943590158E+02 -0.12496658052E+02  0.28569903975E+02  0.00000000000E+00 0.  1.
         11    1    1    2    0    0 -0.12081166516E+03  0.51014010435E+01 -0.21709651911E+03  0.24850026426E+03  0.00000000000E+00 0. -1.
</event>
<event>
 7    1  0.6671761E-006  0.1106232E+03  0.7561462E-02  0.1259420E+00
         -1   -1    0    0    0  501 -0.00000000000E+00  0.00000000000E+00  0.18014585875E+03  0.18014585875E+03  0.00000000000E+00 0.  1.
          1   -1    0    0  501    0  0.00000000000E+00 -0.00000000000E+00 -0.91503523473E+02  0.91503523473E+02  0.00000000000E+00 0. -1.
         23    2    1    2    0    0 -0.26580951873E+00 -0.36444788525E+02  0.11091567090E+03  0.17110735591E+03  0.12508856035E+03 0.  0.
          5    1    3    3  502    0 -0.60632648400E+02 -0.32918469610E+02  0.66947557698E+02  0.96225732396E+02  0.41800000000E+01 0. -1.
         -5    1    3    3    0  502  0.60366838881E+02 -0.35263189157E+01  0.43968113203E+02  0.74881623515E+02  0.41800000000E+01 0. -1.
        -11    1    1    2    0    0 -0.17293027925E+02 -0.23427995407E+02  0.93605206094E+01  0.30586584145E+02  0.00000000000E+00 0.  1.
         11    1    1    2    0    0  0.17558837444E+02  0.59872783932E+02 -0.31633856234E+02  0.69955442165E+02  0.00000000000E+00 0. -1.
</event>
<event>
 7    1  0.6671761E-006  0.1362867E+03  0.7561462E-02  0.1218415E+00
          2   -1    0    0  501    0  0.00000000000E+00  0.00000000000E+00  0.52370430828E+03  0.52370430828E+03  0.00000000000E+00 0. -1.
         -2   -1    0    0    0  501 -0.00000000000E+00 -0.00000000000E+00 -0.39354008313E+02  0.39354008313E+02  0.00000000000E+00 0.  1.
         23    2    1    2    0    0  0.65578157018E+02  0.60303796804E+02  0.19641250268E+03  0.24932479379E+03  0.12509172236E+03 0.  0.
          5    1    3    3  502    0  0.83084092238E+02  0.87560230604E+02  0.15876597407E+03  0.19948400259E+03  0.41800000000E+01 0.  1.
         -5    1    3    3    0  502 -0.17505935220E+02 -0.27256433800E+02  0.37646528603E+02  0.49840791198E+02  0.41800000000E+01 0.  1.
        -11    1    1    2    0    0 -0.42243596178E+01  0.18661775385E+02  0.89509429687E+02  0.91531661613E+02  0.00000000000E+00 0. -1.
         11    1    1    2    0    0 -0.61353797401E+02 -0.78965572189E+02  0.19842836761E+03  0.22220186119E+03  0.00000000000E+00 0.  1.
</event>
<event>
 7    1  0.6671761E-006  0.1157185E+03  0.7561462E-02  0.1250332E+00
          1   -1    0    0  501    0  0.00000000000E+00  0.00000000000E+00  0.40936631001E+03  0.40936631001E+03  0.00000000000E+00 0. -1.
         -1   -1    0    0    0  501 -0.00000000000E+00 -0.00000000000E+00 -0.58528656992E+02  0.58528656992E+02  0.00000000000E+00 0.  1.
         23    2    1    2    0    0 -0.57131772867E+02 -0.65710504868E+02  0.85989780394E+02  0.17499736856E+03  0.12509167339E+03 0.  0.
          5    1    3    3  502    0  0.23812921349E+02 -0.58392042105E+01 -0.17609098431E+02  0.30474649736E+02  0.41800000000E+01 0. -1.
         -5    1    3    3    0  502 -0.80944694215E+02 -0.59871300657E+02  0.10359887882E+03  0.14452271883E+03  0.41800000000E+01 0. -1.
        -11    1    1    2    0    0  0.50209871976E+02  0.77372185517E+02  0.26360912380E+03  0.27927988916E+03  0.00000000000E+00 0. -1.
         11    1    1    2    0    0  0.69219008908E+01 -0.11661680650E+02  0.12387488258E+01  0.13617709285E+02  0.00000000000E+00 0.  1.
</event>
<event>
 7    1  0.6671761E-006  0.1633402E+03  0.7561462E-02  0.1184977E+00
         -2   -1    0    0    0  501 -0.00000000000E+00  0.00000000000E+00  0.11869943350E+03  0.11869943350E+03  0.00000000000E+00 0.  1.
          2   -1    0    0  501    0  0.00000000000E+00 -0.00000000000E+00 -0.46710202165E+03  0.46710202165E+03  0.00000000000E+00 0. -1.
         23    2    1    2    0    0  0.11957049804E+03  0.10764363180E+03 -0.13467087305E+02  0.20423474594E+03  0.12508482538E+03 0.  0.
          5    1    3    3  502    0  0.43852901187E+02  0.54800267474E+02  0.54952483810E+02  0.89237851468E+02  0.41800000000E+01 0. -1.
         -5    1    3    3    0  502  0.75717596853E+02  0.52843364326E+02 -0.68419571115E+02  0.11499689447E+03  0.41800000000E+01 0. -1.
        -11    1    1    2    0    0 -0.23923022943E+02 -0.40643058685E+02 -0.32246205492E+02  0.57131313783E+02  0.00000000000E+00 0.  1.
         11    1    1    2    0    0 -0.95647475097E+02 -0.67000573116E+02 -0.30268929535E+03  0.32443539543E+03  0.00000000000E+00 0. -1.
</event>
<event>
 7    1  0.6671761E-006  0.7865730E+02  0.7561462E-02  0.1332906E+00
         -2   -1    0    0    0  501 -0.00000000000E+00  0.00000000000E+00  0.51066759024E+02  0.51066759024E+02  0.00000000000E+00 0.  1.
          2   -1    0    0  501    0  0.00000000000E+00 -0.00000000000E+00 -0.24411526944E+03  0.24411526944E+03  0.00000000000E+00 0. -1.
         23    2    1    2    0    0 -0.43121371992E+01 -0.50644799120E+01 -0.76926235218E+02  0.14699589211E+03  0.12508358464E+03 0.  0.
          5    1    3    3  502    0  0.43697858533E+02 -0.11301127037E+01  0.12220523499E+02  0.45580627350E+02  0.41800000000E+01 0. -1.
         -5    1    3    3    0  502 -0.48009995732E+02 -0.39343672083E+01 -0.89146758718E+02  0.10141526476E+03  0.41800000000E+01 0. -1.
        -11    1    1    2    0    0 -0.40048617971E+01 -0.29362016626E+02 -0.10780766657E+03  0.11180635004E+03  0.00000000000E+00 0. -1.
         11    1    1    2    0    0  0.83169989962E+01  0.34426496538E+02 -0.83146086336E+01  0.36379786323E+02  0.00000000000E+00 0.  1.
</event>
<event>
 7    1  0.6671761E-006  0.9590163E+02  0.7561462E-02  0.1289158E+00
         -3   -1    0    0    0  501 -0.00000000000E+00  0.00000000000E+00  0.28184104170E+03  0.28184104170E+03  0.00000000000E+00 0.  1.
          3   -1    0    0  501    0  0.00000000000E+00 -0.00000000000E+00 -0.61320647367E+02  0.61320647367E+02  0.00000000000E+00 0. -1.
         23    2    1    2    0    0 -0.54866970281E+02  0.30134164429E+02  0.17364600118E+03  0.22297995239E+03  0.12509465677E+03 0.  0.
          5    1    3    3  502    0 -0.37817587734E+02  0.72853975705E+02  0.15012061648E+03  0.17114772453E+03  0.41800000000E+01 0. -1.
         -5    1    3    3    0  502 -0.17049382547E+02 -0.42719811275E+02  0.23525384693E+02  0.51832227866E+02  0.41800000000E+01 0. -1.
        -11    1    1    2    0    0  0.28388539236E+02 -0.97697087007E+01 -0.26191891577E+02  0.39841831690E+02  0.00000000000E+00 0. -1.
         11    1    1    2    0    0  0.26478431045E+02 -0.20364455729E+02  0.73066284734E+02  0.80339904982E+02  0.00000000000E+00 0.  1.
</event>
<event>
 7    1  0.6671761E-006  0.1222729E+03  0.7561462E-02  0.1239394E+00
         -1   -1    0    0    0  501 -0.00000000000E+00  0.00000000000E+00  0.46784720055E+02  0.46784720055E+02  0.00000000000E+00 0.  1.
          1   -1    0    0  501    0  0.00000000000E+00 -0.00000000000E+00 -0.47381278532E+03  0.47381278532E+03  0.00000000000E+00 0. -1.
         23    2    1    2    0    0 -0.49740562633E+02 -0.45885388479E+02 -0.10239339438E+03  0.17524862553E+03  0.12509229030E+03 0.  0.
          5    1    3    3  502    0 -0.84660389256E+02 -0.33295788152E+02 -0.10352106634E+03  0.13787702707E+03  0.41800000000E+01 0.  1.
         -5    1    3    3    0  502  0.34919826623E+02 -0.12589600327E+02  0.11276719627E+01  0.37371598465E+02  0.41800000000E+01 0.  1.
        -11    1    1    2    0    0 -0.68780813587E+00  0.62898199585E+02 -0.14648166497E+03  0.15941623118E+03  0.00000000000E+00 0.  1.
         11    1    1    2    0    0  0.50428370769E+02 -0.17012811106E+02 -0.17815300592E+03  0.18593264866E+03  0.00000000000E+00 0. -1.
</event>
<event>
 7    1  0.6671761E-006  0.1370341E+03  0.7561462E-02  0.1217376E+00
          2   -1    0    0  501    0  0.00000000000E+00  0.00000000000E+00  0.60110596860E+03  0.60110596860E+03  0.00000000000E+00 0. -1.
         -2   -1    0    0    0  501 -0.00000000000E+00 -0.00000000000E+00 -0.36895939819E+02  0.36895939819E+02  0.00000000000E+00 0.  1.
         23    2    1    2    0    0  0.88301135790E+02 -0.34501257376E+02  0.22796165988E+03  0.27676903059E+03  0.12508857093E+03 0.  0.
          5    1    3    3  502    0  0.99398582797E+02  0.86409405294E+01  0.10047760702E+03  0.14166144863E+03  0.41800000000E+01 0. -1.
         -5    1    3    3    0  502 -0.11097447007E+02 -0.43142197905E+02  0.12748405286E+03  0.13510758196E+03  0.41800000000E+01 0. -1.
        -11    1    1    2    0    0 -0.95764422111E+02  0.53046012775E+02  0.30583535410E+03  0.32483837186E+03  0.00000000000E+00 0. -1.
         11    1    1    2    0    0  0.74632863207E+01 -0.18544755399E+02  0.30413014802E+02  0.36394505971E+02  0.00000000000E+00 0.  1.
</event>
<event>
 7    1  0.6671761E-006  0.9223479E+02  0.7561462E-02  0.1297528E+00
          2   -1    0    0  501    0  0.00000000000E+00  0.00000000000E+00  0.64835904025E+03  0.64835904025E+03  0.00000000000E+00 0. -1.
         -2   -1    0    0    0  501 -0.00000000000E+00 -0.00000000000E+00 -0.36336934592E+02  0.36336934592E+02  0.00000000000E+00 0.  1.
         23    2    1    2    0    0 -0.55802772972E+02 -0.44707595150E+02  0.15477614354E+03  0.21145896787E+03  0.12508605816E+03 0.  0.
          5    1    3    3  502    0 -0.18557366388E+01  0.66113298321E+01  0.13372994894E+03  0.13397135920E+03  0.41800000000E+01 0. -1.
         -5    1    3    3    0  502 -0.53947036333E+02 -0.51318924982E+02  0.21046194599E+02  0.77487608671E+02  0.41800000000E+01 0. -1.
        -11    1    1    2    0    0 -0.14481434722E+02 -0.54892773631E+01  0.11733545629E+02  0.19429879325E+02  0.00000000000E+00 0.  1.
         11    1    1    2    0    0  0.70284207694E+02  0.50196872513E+02  0.44551241649E+03  0.45380712765E+03  0.00000000000E+00 0. -1.
</event>
<event>
 7    1  0.6671761E-006  0.1104993E+03  0.7561462E-02  0.1259648E+00
         -2   -1    0    0    0  501 -0.00000000000E+00  0.00000000000E+00  0.40018877865E+02  0.40018877865E+02  0.00000000000E+00 0.  1.
          2   -1    0    0  501    0  0.00000000000E+00 -0.00000000000E+00 -0.44453495993E+03  0.44453495993E+03  0.00000000000E+00 0. -1.
         23    2    1    2    0    0 -0.42676168219E+02 -0.61675392477E+02 -0.20546091173E+03  0.25196523529E+03  0.12508870524E+03 0.  0.
          5    1    3    3  502    0 -0.41261206861E+02  0.20814145084E+02 -0.13710135374E+03  0.14474104264E+03  0.41800000000E+01 0.  1.
         -5    1    3    3    0  502 -0.14149613576E+01 -0.82489537560E+02 -0.68359557989E+02  0.10722419266E+03  0.41800000000E+01 0.  1.
        -11    1    1    2    0    0  0.13519741860E+02  0.61358619721E+02 -0.48868654627E+02  0.79597795441E+02  0.00000000000E+00 0.  1.
         11    1    1    2    0    0  0.29156426359E+02  0.31677275619E+00 -0.15018651571E+03  0.15299080706E+03  0.00000000000E+00 0. -1.
</event>
<event>
 6    1  0.6671761E-006  0.1327330E+03  0.7561462E-02  0.1223456E+00
         -2   -1    0    0    0  501 -0.00000000000E+00  0.00000000000E+00  0.24361247007E+03  0.24361247007E+03  0.00000000000E+00 0.  1.
          2   -1    0    0  501    0  0.00000000000E+00 -0.00000000000E+00 -0.14988931082E+03  0.14988931082E+03  0.00000000000E+00 0. -1.
          5    1    1    2  502    0  0.29244078207E+02 -0.71978265622E+02 -0.55057680814E+02  0.95314780852E+02  0.41800000000E+01 0. -1.
         -5    1    1    2    0  502  0.19312095492E+02  0.83529731848E+02  0.17335114108E+03  0.19343800983E+03  0.41800000000E+01 0.  1.
        -11    1    1    2    0    0 -0.63618007656E+02  0.20146628070E+02 -0.16007678341E+02  0.68624946533E+02  0.00000000000E+00 0. -1.
         11    1    1    2    0    0  0.15061833958E+02 -0.31698094296E+02 -0.85626226769E+01  0.36124043673E+02  0.00000000000E+00 0.  1.
</event>
<event>
 7    1  0.6671761E-006  0.6033797E+02  0.7561462E-02  0.1396419E+00
          1   -1    0    0  501    0  0.00000000000E+00  0.00000000000E+00  0.42375681610E+03  0.42375681610E+03  0.00000000000E+00 0. -1.
         -1   -1    0    0    0  501 -0.00000000000E+00 -0.00000000000E+00 -0.29330870084E+02  0.29330870084E+02  0.00000000000E+00 0.  1.
         23    2    1    2    0    0 -0.11958927330E+01 -0.26478646529E+02  0.22788052701E+03  0.26130147142E+03  0.12508547277E+03 0.  0.
          5    1    3    3  502    0 -0.91622696980E+01 -0.30408034581E+02  0.24199655082E+03  0.24410735090E+03  0.41800000000E+01 0.  1.
         -5    1    3    3    0  502  0.79663769650E+01  0.39293880520E+01 -0.14116023812E+02  0.17194120527E+02  0.41800000000E+01 0.  1.
        -11    1    1    2    0    0 -0.18120866511E+02 -0.20899734379E+02  0.11819983492E+03  0.12139343341E+03  0.00000000000E+00 0. -1.
         11    1    1    2    0    0  0.19316759244E+02  0.47378380909E+02  0.48345584086E+02  0.70392781347E+02  0.00000000000E+00 0.  1.
</event>
<event>
 7    1  0.6671761E-006  0.1174386E+03  0.7561462E-02  0.1247383E+00
          2   -1    0    0  501    0  0.00000000000E+00  0.00000000000E+00  0.33259689740E+03  0.33259689740E+03  0.00000000000E+00 0. -1.
         -2   -1    0    0    0  501 -0.00000000000E+00 -0.00000000000E+00 -0.81216520777E+02  0.81216520777E+02  0.00000000000E+00 0.  1.
         23    2    1    2    0    0  0.35196291079E+02 -0.77367209754E+02  0.20720077940E+02  0.15264839481E+03  0.12509095394E+03 0.  0.
          5    1    3    3  502    0  0.56118253795E+02 -0.71293709075E+02 -0.31321811103E+02  0.96075905478E+02  0.41800000000E+01 0.  1.
         -5    1    3    3    0  502 -0.20921962715E+02 -0.60735006791E+01  0.52041889043E+02  0.56572489334E+02  0.41800000000E+01 0.  1.
        -11    1    1    2    0    0 -0.63633657365E+02  0.40986642950E+02  0.13024973714E+03  0.15064574761E+03  0.00000000000E+00 0.  1.
         11    1    1    2    0    0  0.28437366286E+02  0.36380566804E+02  0.10041056155E+03  0.11051927575E+03  0.00000000000E+00 0. -1.
</event>
<event>
 7    1  0.6671761E-006  0.1241819E+03  0.7561462E-02  0.1236353E+00
         -2   -1    0    0    0  501 -0.00000000000E+00  0.00000000000E+00  0.30046558152E+03  0.30046558152E+03  0.00000000000E+00 0.  1.
          2   -1    0    0  501    0  0.00000000000E+00 -0.00000000000E+00 -0.72722414924E+02  0.72722414924E+02  0.00000000000E+00 0. -1.
         23    2    1    2    0    0  0.85746748690E+02 -0.93313815248E+01  0.19193121413E+03  0.24480027426E+03  0.12509997494E+03 0.  0.
          5    1    3    3  502    0  0.30061656729E+02 -0.53836136909E+02  0.14942023221E+03  0.16169697287E+03  0.41800000000E+01 0.  1.
         -5    1    3    3    0  502  0.55685091960E+02  0.44504755384E+02  0.42510981922E+02  0.83103301393E+02  0.41800000000E+01 0.  1.
        -11    1    1    2    0    0 -0.97254494898E+02 -0.42575156632E+01  0.11171676839E+02  0.97986578575E+02  0.00000000000E+00 0. -1.
         11    1    1    2    0    0  0.11507746208E+02  0.13588897188E+02  0.24640275635E+02  0.30401143612E+02  0.00000000000E+00 0.  1.
</event>
<event>
 7    1  0.6671761E-006  0.1961766E+03  0.7561462E-02  0.1153005E+00
          1   -1    0    0  501    0  0.00000000000E+00  0.00000000000E+00  0.60048128159E+03  0.60048128159E+03  0.00000000000E+00 0. -1.
         -1   -1    0    0    0  501 -0.00000000000E+00 -0.00000000000E+00 -0.10813764946E+03  0.10813764946E+03  0.00000000000E+00 0.  1.
         23    2    1    2    0    0  0.17200260621E+03  0.64491545010E+02  0.59911871732E+02  0.23017596363E+03  0.12508991142E+03 0.  0.
          5    1    3    3  502    0  0.15174338565E+03  0.40477104789E+02  0.94440551025E+02  0.18330559505E+03  0.41800000000E+01 0. -1.
         -5    1    3    3    0  502  0.20259220561E+02  0.24014440221E+02 -0.34528679292E+02  0.46870368577E+02  0.41800000000E+01 0. -1.
        -11    1    1    2    0    0 -0.17042330727E+03 -0.34951114557E+02  0.38592700126E+03  0.42332651035E+03  0.00000000000E+00 0. -1.
         11    1    1    2    0    0 -0.15792989411E+01 -0.29540430453E+02  0.46504759144E+02  0.55116457066E+02  0.00000000000E+00 0.  1.
</event>
<event>
 7    1  0.6671761E-006  0.1156312E+03  0.7561462E-02  0.1250483E+00
          4   -1    0    0  501    0  0.00000000000E+00  0.00000000000E+00  0.29617501365E+02  0.29617501365E+02  0.00000000000E+00 0. -1.
         -4   -1    0    0    0  501 -0.00000000000E+00 -0.00000000000E+00 -0.55681760532E+03  0.55681760532E+03  0.00000000000E+00 0.  1.
         23    2    1    2    0    0 -0.68869349774E+01 -0.62363410987E+02 -0.35229718012E+03  0.37908062364E+03  0.12510871750E+03 0.  0.
          5    1    3    3  502    0  0.28738169436E+02  0.17722621594E+02 -0.20358730015E+03  0.20641035556E+03  0.41800000000E+01 0. -1.
         -5    1    3    3    0  502 -0.35625104414E+02 -0.80086032581E+02 -0.14870987997E+03  0.17267026808E+03  0.41800000000E+01 0. -1.
        -11    1    1    2    0    0  0.44595229021E+02  0.55441140657E+02 -0.94614869565E+02  0.11838254969E+03  0.00000000000E+00 0. -1.
         11    1    1    2    0    0 -0.37708294044E+02  0.69222703299E+01 -0.80288054272E+02  0.88971933356E+02  0.00000000000E+00 0.  1.
</event>
<event>
 7    1  0.6671761E-006  0.9195565E+02  0.7561462E-02  0.1298184E+00
         -1   -1    0    0    0  501 -0.00000000000E+00  0.00000000000E+00  0.19071471851E+03  0.19071471851E+03  0.00000000000E+00 0.  1.
          1   -1    0    0  501    0  0.00000000000E+00 -0.00000000000E+00 -0.63877922641E+02  0.63877922641E+02  0.00000000000E+00 0. -1.
         23    2    1    2    0    0  0.52475557112E+01 -0.13418705419E+02  0.93709238095E+02  0.15695630436E+03  0.12508501780E+03 0.  0.
          5    1    3    3  502    0  0.29782467069E+02 -0.61172492049E+02  0.32770736373E+02  0.75633740425E+02  0.41800000000E+01 0.  1.
         -5    1    3    3    0  502 -0.24534911358E+02  0.47753786630E+02  0.60938501722E+02  0.81322563935E+02  0.41800000000E+01 0.  1.
        -11    1    1    2    0    0  0.24564363614E+02 -0.72588333989E+01  0.51090615434E+02  0.57151986908E+02  0.00000000000E+00 0.  1.
         11    1    1    2    0    0 -0.29811919325E+02  0.20677538818E+02 -0.17963057657E+02  0.40484349888E+02  0.00000000000E+00 0. -1.
</event>
<event>
 7    1  0.6671761E-006  0.1356375E+03  0.7561462E-02  0.1219323E+00
         -1   -1    0    0    0  501 -0.00000000000E+00  0.00000000000E+00  0.44945342289E+03  0.44945342289E+03  0.00000000000E+00 0.  1.
          1   -1    0    0  501    0  0.00000000000E+00 -0.00000000000E+00 -0.46095824065E+02  0.46095824065E+02  0.00000000000E+00 0. -1.
         23    2    1    2    0    0  0.79970802680E+02 -0.44114944652E+02  0.26169086173E+03  0.30409036524E+03  0.12508950994E+03 0.  0.
          5    1    3    3  502    0  0.10194853809E+03 -0.67620507298E+02  0.20455454935E+03  0.23838220044E+03  0.41800000000E+01 0. -1.
         -5    1    3    3    0  502 -0.21977735412E+02  0.23505562646E+02  0.57136312387E+02  0.65708164808E+02  0.41800000000E+01 0. -1.
        -11    1    1    2    0    0 -0.31191289746E+02  0.57865946946E+02  0.37657809804E+02  0.75759322933E+02  0.00000000000E+00 0. -1.
         11    1    1    2    0    0 -0.48779512935E+02 -0.13751002294E+02  0.10400892728E+03  0.11569955877E+03  0.00000000000E+00 0.  1.
</event>
<event>
 7    1  0.6671761E-006  0.8400004E+02  0.7561462E-02  0.1318068E+00
         -1   -1    0    0    0  501 -0.00000000000E+00  0.00000000000E+00  0.23730354484E+02  0.23730354484E+02  0.00000000000E+00 0.  1.
          1   -1    0    0  501    0  0.00000000000E+00 -0.00000000000E+00 -0.55032053245E+03  0.55032053245E+03  0.00000000000E+00 0. -1.
         23    2    1    2    0    0 -0.25559367855E+02  0.32807934651E+02 -0.30211918187E+03  0.32962512692E+03  0.12508829833E+03 0.  0.
          5    1    3    3  502    0 -0.29012256322E+02 -0.12067004172E+02 -0.27519109069E+03  0.27701070809E+03  0.41800000000E+01 0.  1.
         -5    1    3    3    0  502  0.34528884666E+01  0.44874938823E+02 -0.26928091186E+02  0.52614418823E+02  0.41800000000E+01 0.  1.
        -11    1    1    2    0    0 -0.29646722243E+02 -0.13924717848E+02 -0.12389049608E+03  0.12814710659E+03  0.00000000000E+00 0. -1.
         11    1    1    2    0    0  0.55206090097E+02 -0.18883216803E+02 -0.10058050001E+03  0.11627865343E+03  0.00000000000E+00 0.  1.
</event>
<event>
 7    1  0.6671761E-006  0.1086441E+03  0.7561462E-02  0.1263102E+00
         -2   -1    0    0    0  501 -0.00000000000E+00  0.00000000000E+00  0.34480843572E+02  0.34480843572E+02  0.00000000000E+00 0.  1.
          2   -1    0    0  501    0  0.00000000000E+00 -0.00000000000E+00 -0.38984407694E+03  0.38984407694E+03  0.00000000000E+00 0. -1.
         23    2    1    2    0    0 -0.26269939470E+02  0.29134555879E+02 -0.22618141041E+03  0.26142871811E+03  0.12509201482E+03 0.  0.
          5    1    3    3  502    0  0.20442770422E+02 -0.40309407619E+02 -0.59176054076E+02  0.74579038484E+02  0.41800000000E+01 0. -1.
         -5    1    3    3    0  502 -0.46712709892E+02  0.69443963498E+02 -0.16700535634E+03  0.18684967963E+03  0.41800000000E+01 0. -1.
        -11    1    1    2    0    0 -0.76673489710E+01 -0.48449330001E+02 -0.33080643386E+02  0.59164641338E+02  0.00000000000E+00 0.  1.
         11    1    1    2    0    0  0.33937288441E+02  0.19314774122E+02 -0.96101179574E+02  0.10373156107E+03  0.00000000000E+00 0. -1.
</event>
<event>
 7    1  0.6671761E-006  0.1354002E+03  0.7561462E-02  0.1219656E+00
         -4   -1    0    0    0  501 -0.00000000000E+00  0.00000000000E+00  0.25485252337E+03  0.25485252337E+03  0.00000000000E+00 0.  1.
          4   -1    0    0  501    0  0.00000000000E+00 -0.00000000000E+00 -0.87327395470E+02  0.87327395470E+02  0.00000000000E+00 0. -1.
         23    2    1    2    0    0 -0.29676958885E+02  0.78299723062E+02  0.11307073220E+03  0.18826512489E+03  0.12508876149E+03 0.  0.
          5    1    3    3  502    0 -0.92794234921E+01 -0.29425755270E+02  0.57234278778E+02  0.65155336242E+02  0.41800000000E+01 0.  1.
         -5    1    3    3    0  502 -0.20397535393E+02  0.10772547833E+03  0.55836453417E+02  0.12310978865E+03  0.41800000000E+01 0.  1.
        -11    1    1    2    0    0  0.65458334670E+02 -0.63582146968E+02  0.53667648810E+01  0.91412718787E+02  0.00000000000E+00 0. -1.
         11    1    1    2    0    0 -0.35781375785E+02 -0.14717576094E+02  0.49087630825E+02  0.62502075158E+02  0.00000000000E+00 0.  1.
</event>
<event>
 7    1  0.6671761E-006  0.1025619E+03  0.7561462E-02  0.1274999E+00
         -1   -1    0    0    0  501 -0.00000000000E+00  0.00000000000E+00  0.16629115205E+04  0.16629115205E+04  0.00000000000E+00 0.  1.
          1   -1    0    0  501    0  0.00000000000E+00 -0.00000000000E+00 -0.12205682909E+02  0.12205682909E+02  0.00000000000E+00 0. -1.
         23    2    1    2    0    0  0.11323337013E+00 -0.29903609321E+02  0.14095992647E+04  0.14154547538E+04  0.12509130424E+03 0.  0.
          5    1    3    3  502    0  0.50104464628E+02 -0.33235646287E+02  0.39123415684E+03  0.39584934437E+03  0.41800000000E+01 0.  1.
         -5    1    3    3    0  502 -0.49991231258E+02  0.33320369661E+01  0.10183651079E+04  0.10196054094E+04  0.41800000000E+01 0.  1.
        -11    1    1    2    0    0 -0.23208991679E+02  0.55466275023E+02  0.12786129742E+03  0.14129287433E+03  0.00000000000E+00 0. -1.
         11    1    1    2    0    0  0.23095758309E+02 -0.25562665702E+02  0.11324527551E+03  0.11836957529E+03  0.00000000000E+00 0.  1.
</event>
<event>
 6    1  0.6671761E-006  0.1399697E+03  0.7561462E-02  0.1213370E+00
         -1   -1    0    0    0  501 -0.00000000000E+00  0.00000000000E+00  0.22521094061E+03  0.22521094061E+03  0.00000000000E+00 0.  1.
          1   -1    0    0  501    0  0.00000000000E+00 -0.00000000000E+00 -0.10208970202E+03  0.10208970202E+03  0.00000000000E+00 0. -1.
          5    1    1    2  502    0 -0.10958814015E+03  0.42809203155E+02  0.18244440688E+02  0.11913236484E+03  0.41800000000E+01 0. -1.
         -5    1    1    2    0  502  0.99064978130E+01 -0.44171595995E+02  0.25761595962E+02  0.52253237394E+02  0.41800000000E+01 0.  1.
        -11    1    1    2    0    0  0.54171318097E+02  0.31025680872E+02  0.31263888282E+01  0.62505190865E+02  0.00000000000E+00 0. -1.
         11    1    1    2    0    0  0.45510324243E+02 -0.29663288032E+02  0.75988813117E+02  0.93409849527E+02  0.00000000000E+00 0.  1.
</event>
<event>
 7    1  0.6671761E-006  0.9852307E+02  0.7561462E-02  0.1283433E+00
          2   -1    0    0  501    0  0.00000000000E+00  0.00000000000E+00  0.14641518152E+03  0.14641518152E+03  0.00000000000E+00 0. -1.
         -2   -1    0    0    0  501 -0.00000000000E+00 -0.00000000000E+00 -0.14525396183E+03  0.14525396183E+03  0.00000000000E+00 0.  1.
         23    2    1    2    0    0  0.19793133567E+02 -0.10304444460E+02 -0.92947935869E+02  0.15742845755E+03  0.12508577358E+03 0.  0.
          5    1    3    3  502    0  0.36379002549E+02  0.50978350847E+02 -0.54225948652E+02  0.82946669546E+02  0.41800000000E+01 0. -1.
         -5    1    3    3    0  502 -0.16585868982E+02 -0.61282795307E+02 -0.38721987217E+02  0.74481788006E+02  0.41800000000E+01 0. -1.
        -11    1    1    2    0    0 -0.14969718866E+02  0.38886271793E+02  0.96544466410E+02  0.10515259679E+03  0.00000000000E+00 0. -1.
         11    1    1    2    0    0 -0.48234147008E+01 -0.28581827333E+02 -0.24353108560E+01  0.29088089007E+02  0.00000000000E+00 0.  1.
</event>
<event>
 7    1  0.8923360E-006  0.1243726E+03  0.7561462E-02  0.1236053E+00
          1   -1    0    0  501    0  0.00000000000E+00  0.00000000000E+00  0.25419453004E+03  0.25419453004E+03  0.00000000000E+00 0. -1.
         -1   -1    0    0    0  501 -0.00000000000E+00 -0.00000000000E+00 -0.81209110713E+02  0.81209110713E+02  0.00000000000E+00 0.  1.
         23    2    1    2    0    0  0.62186531747E+02  0.63227077251E+02  0.64523029599E+02  0.16636078816E+03  0.12509141642E+03 0.  0.
          5    1    3    3  502    0  0.17383036146E+02  0.95067208378E+02  0.29831102130E+02  0.10122900330E+03  0.41800000000E+01 0.  1.
         -5    1    3    3    0  502  0.44803495601E+02 -0.31840131127E+02  0.34691927470E+02  0.65131784866E+02  0.41800000000E+01 0.  1.
        -11    1    1    2    0    0 -0.40366653888E+02 -0.63290578566E+02  0.19660651999E+02  0.77599647670E+02  0.00000000000E+00 0.  1.
         11    1    1    2    0    0 -0.21819877859E+02  0.63501315400E-01  0.88801737730E+02  0.91443204921E+02  0.00000000000E+00 0. -1.
</event>
<event>
 7    1  0.6671761E-006  0.1065149E+03  0.7561462E-02  0.1267163E+00
          2   -1    0    0  501    0  0.00000000000E+00  0.00000000000E+00  0.60069308116E+03  0.60069308116E+03  0.00000000000E+00 0. -1.
         -2   -1    0    0    0  501 -0.00000000000E+00 -0.00000000000E+00 -0.25978506448E+02  0.25978506448E+02  0.00000000000E+00 0.  1.
         23    2    1    2    0    0  0.41414297763E+02 -0.30248624275E+02  0.29215032158E+03  0.32191679846E+03  0.12509393030E+03 0.  0.
          5    1    3    3  502    0 -0.29175841206E+02  0.94451745582E+01  0.18483314471E+03  0.18740652288E+03  0.41800000000E+01 0. -1.
         -5    1    3    3    0  502  0.70590138969E+02 -0.39693798834E+02  0.10731717687E+03  0.13451027558E+03  0.41800000000E+01 0. -1.
        -11    1    1    2    0    0 -0.30022972522E+02 -0.28349074753E+02  0.51002665717E+02  0.65622563412E+02  0.00000000000E+00 0.  1.
         11    1    1    2    0    0 -0.11391325241E+02  0.58597699028E+02  0.23156158741E+03  0.23913222573E+03  0.00000000000E+00 0. -1.
</event>
<event>
 7    1  0.6671761E-006  0.2253352E+03  0.7561462E-02  0.1129967E+00
          1   -1    0    0  501    0  0.00000000000E+00  0.00000000000E+00  0.20591461777E+03  0.20591461777E+03  0.00000000000E+00 0. -1.
         -1   -1    0    0    0  501 -0.00000000000E+00 -0.00000000000E+00 -0.26756856325E+03  0.26756856325E+03  0.00000000000E+00 0.  1.
         23    2    1    2    0    0 -0.18160714074E+03  0.10007643390E+03 -0.49640123592E+02  0.24720114875E+03  0.12509124623E+03 0.  0.
          5    1    3    3  502    0 -0.19968782040E+03  0.83993945365E+02 -0.51040409514E+02  0.22260459177E+03  0.41800000000E+01 0. -1.
         -5    1    3    3    0  502  0.18080679660E+02  0.16082488535E+02  0.14002859213E+01  0.24596556977E+02  0.41800000000E+01 0. -1.
        -11    1    1    2    0    0  0.78150549842E+02 -0.59859348980E+02  0.36706247199E+02  0.10506188026E+03  0.00000000000E+00 0. -1.
         11    1    1    2    0    0  0.10345659090E+03 -0.40217084921E+02 -0.48720069095E+02  0.12122015201E+03  0.00000000000E+00 0.  1.
</event>
<event>
 7    1  0.8542824E-006  0.1801269E+03  0.7561462E-02  0.1167680E+00
          1   -1    0    0  501    0  0.00000000000E+00  0.00000000000E+00  0.10459541179E+04  0.10459541179E+04  0.00000000000E+00 0. -1.
         -1   -1    0    0    0  501 -0.00000000000E+00 -0.00000000000E+00 -0.54714988704E+02  0.54714988704E+02  0.00000000000E+00 0.  1.
         23    2    1    2    0    0 -0.16574505146E+03  0.44129022560E+02  0.23603997860E+03  0.31746017478E+03  0.12508916165E+03 0.  0.
          5    1    3    3  502    0 -0.44030049221E+02  0.28801426094E+02  0.15687617146E+01  0.52802469571E+02  0.41800000000E+01 0.  1.
         -5    1    3    3    0  502 -0.12171500223E+03  0.15327596467E+02  0.23447121688E+03  0.26465770521E+03  0.41800000000E+01 0.  1.
        -11    1    1    2    0    0  0.10735653058E+03  0.63488632663E+01  0.60345958028E+03  0.61296753402E+03  0.00000000000E+00 0. -1.
         11    1    1    2    0    0  0.58388520873E+02 -0.50477885827E+02  0.15173957034E+03  0.17024139783E+03  0.00000000000E+00 0.  1.
</event>
<event>
 7    1  0.6671761E-006  0.1414784E+03  0.7561462E-02  0.1211353E+00
          2   -1    0    0  501    0  0.00000000000E+00  0.00000000000E+00  0.27648307852E+03  0.27648307852E+03  0.00000000000E+00 0. -1.
         -2   -1    0    0    0  501 -0.00000000000E+00 -0.00000000000E+00 -0.10341066269E+03  0.10341066269E+03  0.00000000000E+00 0.  1.
         23    2    1    2    0    0 -0.12698265847E+03 -0.44437190141E+02  0.94737157576E+02  0.20668594982E+03  0.12507874883E+03 0.  0.
          5    1    3    3  502    0 -0.10946082452E+03 -0.12238868233E+02  0.11925271419E+03  0.16238886736E+03  0.41800000000E+01 0. -1.
         -5    1    3    3    0  502 -0.17521833953E+02 -0.32198321908E+02 -0.24515556616E+02  0.44297082465E+02  0.41800000000E+01 0. -1.
        -11    1    1    2    0    0  0.19156713371E+02  0.14226675281E+02  0.53397329041E+02  0.58486346317E+02  0.00000000000E+00 0. -1.
         11    1    1    2    0    0  0.10782594510E+03  0.30210514859E+02  0.24937929209E+02  0.11472144507E+03  0.00000000000E+00 0.  1.
</event>
<event>
 7    1  0.6671761E-006  0.1031399E+03  0.7561462E-02  0.1273828E+00
         -1   -1    0    0    0  501 -0.00000000000E+00  0.00000000000E+00  0.44284618091E+02  0.44284618091E+02  0.00000000000E+00 0.  1.
          1   -1    0    0  501    0  0.00000000000E+00 -0.00000000000E+00 -0.48316796680E+03  0.48316796680E+03  0.00000000000E+00 0. -1.
         23    2    1    2    0    0 -0.63191669384E+02  0.67250006309E+02 -0.17692289753E+03  0.23551020502E+03  0.12509034564E+03 0.  0.
          5    1    3    3  502    0 -0.26640336125E+02  0.50311048035E+02 -0.32472982454E+01  0.57174525875E+02  0.41800000000E+01 0. -1.
         -5    1    3    3    0  502 -0.36551333260E+02  0.16938958274E+02 -0.17367559928E+03  0.17833567915E+03  0.41800000000E+01 0. -1.
        -11    1    1    2    0    0 -0.99863224382E+01 -0.10928720541E+01  0.19175381772E+01  0.10227314302E+02  0.00000000000E+00 0.  1.
         11    1    1    2    0    0  0.73177991823E+02 -0.66157134255E+02 -0.26387798936E+03  0.28171506557E+03  0.00000000000E+00 0. -1.
</event>
<event>
 7    1  0.6671761E-006  0.2707706E+03  0.7561462E-02  0.1100839E+00
         -2   -1    0    0    0  501 -0.00000000000E+00  0.00000000000E+00  0.15768769969E+03  0.15768769969E+03  0.00000000000E+00 0.  1.
          2   -1    0    0  501    0  0.00000000000E+00 -0.00000000000E+00 -0.51180140787E+03  0.51180140787E+03  0.00000000000E+00 0. -1.
         23    2    1    2    0    0 -0.22936785175E+03 -0.11310413615E+03 -0.11319957141E+03  0.30634499914E+03  0.12502383172E+03 0.  0.
          5    1    3    3  502    0 -0.15937220665E+03 -0.13890213263E+02 -0.41697727841E+02  0.16537415513E+03  0.41800000000E+01 0.  1.
         -5    1    3    3    0  502 -0.69995645101E+02 -0.99213922885E+02 -0.71501843565E+02  0.14097084401E+03  0.41800000000E+01 0.  1.
        -11    1    1    2    0    0  0.19272878117E+03  0.11293267093E+03 -0.23797066409E+03  0.32638659320E+03  0.00000000000E+00 0. -1.
         11    1    1    2    0    0  0.36639070586E+02  0.17146521806E+00 -0.29434726726E+01  0.36757515219E+02  0.00000000000E+00 0.  1.
</event>
<event>
 7    1  0.6671761E-006  0.9754973E+02  0.7561462E-02  0.1285535E+00
          1   -1    0    0  501    0  0.00000000000E+00  0.00000000000E+00  0.30571315061E+03  0.30571315061E+03  0.00000000000E+00 0. -1.
         -1   -1    0    0    0  501 -0.00000000000E+00 -0.00000000000E+00 -0.52311719866E+02  0.52311719866E+02  0.00000000000E+00 0.  1.
         23    2    1    2    0    0  0.14854342030E+02  0.63645515860E+02  0.14140216425E+03  0.19978351315E+03  0.12508987531E+03 0.  0.
          5    1    3    3  502    0  0.50395048544E+02  0.37440404136E+02  0.14211778573E+03  0.15542323571E+03  0.41800000000E+01 0. -1.
         -5    1    3    3    0  502 -0.35540706514E+02  0.26205111724E+02 -0.71562147869E+00  0.44360277434E+02  0.41800000000E+01 0. -1.
        -11    1    1    2    0    0  0.13333455911E+02 -0.57433419777E+02  0.20701464136E+02  0.62489434077E+02  0.00000000000E+00 0.  1.
         11    1    1    2    0    0 -0.28187797941E+02 -0.62120960826E+01  0.91297802357E+02  0.95751923248E+02  0.00000000000E+00 0. -1.
</event>
<event>
 7    1  0.6671761E-006  0.1197121E+03  0.7561462E-02  0.1243573E+00
          3   -1    0    0  501    0  0.00000000000E+00  0.00000000000E+00  0.52787065748E+03  0.52787065748E+03  0.00000000000E+00 0. -1.
         -3   -1    0    0    0  501 -0.00000000000E+00 -0.00000000000E+00 -0.28112107805E+02  0.28112107805E+02  0.00000000000E+00 0.  1.
         23    2    1    2    0    0 -0.50820275467E+02  0.18827371061E+02  0.27090323345E+03  0.30327072363E+03  0.12508956638E+03 0.  0.
          5    1    3    3  502    0 -0.68710776400E+02  0.57348245382E+02  0.21513429755E+03  0.23304555440E+03  0.41800000000E+01 0. -1.
         -5    1    3    3    0  502  0.17890500933E+02 -0.38520874321E+02  0.55768935894E+02  0.70225169227E+02  0.41800000000E+01 0. -1.
        -11    1    1    2    0    0  0.28745504578E+02 -0.56553766042E+02  0.13231702810E+03  0.14673932129E+03  0.00000000000E+00 0. -1.
         11    1    1    2    0    0  0.22074770889E+02  0.37726394981E+02  0.96538288123E+02  0.10597272037E+03  0.00000000000E+00 0.  1.
</event>
<event>
 7    1  0.6671761E-006  0.1984619E+03  0.7561462E-02  0.1151043E+00
          2   -1    0    0  501    0  0.00000000000E+00  0.00000000000E+00  0.43254503897E+03  0.43254503897E+03  0.00000000000E+00 0. -1.
         -2   -1    0    0    0  501 -0.00000000000E+00 -0.00000000000E+00 -0.11172368651E+03  0.11172368651E+03  0.00000000000E+00 0.  1.
         23    2    1    2    0    0  0.11160767861E+03 -0.14079635642E+03  0.86329011412E+02  0.23532475802E+03  0.12508059650E+03 0.  0.
          5    1    3    3  502    0 -0.17861593338E+02 -0.56508691406E+02  0.47264727559E+02  0.75919006791E+02  0.41800000000E+01 0.  1.
         -5    1    3    3    0  502  0.12946927195E+03 -0.84287665017E+02  0.39064283853E+02  0.15940575123E+03  0.41800000000E+01 0.  1.
        -11    1    1    2    0    0 -0.10031275928E+03  0.10407758445E+03  0.22803213785E+03  0.26998786853E+03  0.00000000000E+00 0. -1.
         11    1    1    2    0    0 -0.11294919335E+02  0.36718771977E+02  0.64602031906E+01  0.38956098926E+02  0.00000000000E+00 0.  1.
</event>
<event>
 7    1  0.6671761E-006  0.8531913E+02  0.7561462E-02  0.1314600E+00
          1   -1    0    0  501    0  0.00000000000E+00  0.00000000000E+00  0.25707203235E+03  0.25707203235E+03  0.00000000000E+00 0. -1.
         -1   -1    0    0    0  501 -0.00000000000E+00 -0.00000000000E+00 -0.71499166911E+02  0.71499166911E+02  0.00000000000E+00 0.  1.
         23    2    1    2    0    0 -0.57448898023E+02  0.45325860604E+02  0.59632184348E+02  0.15671459842E+03  0.12509459790E+03 0.  0.
          5    1    3    3  502    0 -0.25575175073E+02 -0.14008878114E+02  0.80789096242E+02  0.85992375927E+02  0.41800000000E+01 0. -1.
         -5    1    3    3    0  502 -0.31873722950E+02  0.59334738718E+02 -0.21156911894E+02  0.70722222493E+02  0.41800000000E+01 0. -1.
        -11    1    1    2    0    0  0.20056004284E+02 -0.21265565219E+02 -0.83462937684E+01  0.30399476830E+02  0.00000000000E+00 0.  1.
         11    1    1    2    0    0  0.37392893739E+02 -0.24060295385E+02  0.13428697486E+03  0.14145712401E+03  0.00000000000E+00 0. -1.
</event>
<event>
 7    1  0.6671761E-006  0.1039368E+03  0.7561462E-02  0.1272229E+00
          1   -1    0    0  501    0  0.00000000000E+00  0.00000000000E+00  0.47278445060E+03  0.47278445060E+03  0.00000000000E+00 0. -1.
         -1   -1    0    0    0  501 -0.00000000000E+00 -0.00000000000E+00 -0.34853536992E+02  0.34853536992E+02  0.00000000000E+00 0.  1.
         23    2    1    2    0    0 -0.27587152562E+02 -0.14752713037E+02  0.12255858029E+03  0.17789089943E+03  0.12508346401E+03 0.  0.
          5    1    3    3  502    0 -0.57837203450E+02 -0.41789094308E+02  0.31489844606E+02  0.78106038303E+02  0.41800000000E+01 0.  1.
         -5    1    3    3    0  502  0.30250050888E+02  0.27036381271E+02  0.91068735685E+02  0.99784861127E+02  0.41800000000E+01 0.  1.
        -11    1    1    2    0    0 -0.18862378815E+02  0.38920173480E+02  0.12328894100E+03  0.13065501220E+03  0.00000000000E+00 0.  1.
         11    1    1    2    0    0  0.46449531377E+02 -0.24167460444E+02  0.19208339232E+03  0.19909207597E+03  0.00000000000E+00 0. -1.
</event>
<event>
 7    1  0.6671761E-006  0.1062724E+03  0.7561462E-02  0.1267633E+00
         -2   -1    0    0    0  501 -0.00000000000E+00  0.00000000000E+00  0.28586874427E+02  0.28586874427E+02  0.00000000000E+00 0.  1.
          2   -1    0    0  501    0  0.00000000000E+00 -0.00000000000E+00 -0.50664565056E+03  0.50664565056E+03  0.00000000000E+00 0. -1.
         23    2    1    2    0    0  0.39352064239E+02  0.14738962365E+02 -0.22109129849E+03  0.25747830497E+03  0.12509153966E+03 0.  0.
          5    1    3    3  502    0  0.56794212733E+02  0.55302181597E+02 -0.18120327326E+03  0.19782823997E+03  0.41800000000E+01 0. -1.
         -5    1    3    3    0  502 -0.17442148495E+02 -0.40563219232E+02 -0.39888025226E+02  0.59650065005E+02  0.41800000000E+01 0. -1.
        -11    1    1    2    0    0  0.26854436269E+01  0.28429954090E+02 -0.24567956858E+02  0.37670391572E+02  0.00000000000E+00 0.  1.
         11    1    1    2    0    0 -0.42037507865E+02 -0.43168916455E+02 -0.23239952079E+03  0.24008382844E+03  0.00000000000E+00 0. -1.
</event>
<event>
 7    1  0.6671761E-006  0.1678790E+03  0.7561462E-02  0.1180078E+00
          2   -1    0    0  501    0  0.00000000000E+00  0.00000000000E+00  0.36892614096E+03  0.36892614096E+03  0.00000000000E+00 0.  1.
         -2   -1    0    0    0  501 -0.00000000000E+00 -0.00000000000E+00 -0.82700316166E+02  0.82700316166E+02  0.00000000000E+00 0. -1.
         23    2    1    2    0    0  0.13424373032E+03  0.19328163886E+02  0.17332004708E+03  0.25314553253E+03  0.12509142605E+03 0.  0.
          5    1    3    3  502    0  0.30329892256E+02 -0.48324498500E+02  0.77797586234E+02  0.96566538425E+02  0.41800000000E+01 0.  1.
         -5    1    3    3    0  502  0.10391383807E+03  0.67652662386E+02  0.95522460844E+02  0.15657899411E+03  0.41800000000E+01 0.  1.
        -11    1    1    2    0    0 -0.78252405010E+02 -0.47772764227E+02  0.34348064293E+02  0.97905390109E+02  0.00000000000E+00 0.  1.
         11    1    1    2    0    0 -0.55991325313E+02  0.28444600340E+02  0.78557713423E+02  0.10057553449E+03  0.00000000000E+00 0. -1.
</event>
<event>
 7    1  0.6671761E-006  0.9831629E+02  0.7561462E-02  0.1283877E+00
          4   -1    0    0  501    0  0.00000000000E+00  0.00000000000E+00  0.15307130297E+03  0.15307130297E+03  0.00000000000E+00 0. -1.
         -4   -1    0    0    0  501 -0.00000000000E+00 -0.00000000000E+00 -0.12394764359E+03  0.12394764359E+03  0.00000000000E+00 0.  1.
         23    2    1    2    0    0 -0.74376530609E+02 -0.31594100109E+02 -0.66924831030E+01  0.14907066282E+03  0.12508883930E+03 0.  0.
          5    1    3    3  502    0 -0.75716959989E+02 -0.46937664324E+02  0.41454892864E+02  0.98347256721E+02  0.41800000000E+01 0. -1.
         -5    1    3    3    0  502  0.13404293805E+01  0.15343564215E+02 -0.48147375967E+02  0.50723406099E+02  0.41800000000E+01 0. -1.
        -11    1    1    2    0    0  0.48230051206E+02  0.41403498657E+02  0.62628743722E+02  0.89234225948E+02  0.00000000000E+00 0. -1.
         11    1    1    2    0    0  0.26146479403E+02 -0.98093985476E+01 -0.26812601243E+02  0.38714057789E+02  0.00000000000E+00 0.  1.
</event>
<event>
 7    1  0.6671761E-006  0.1008973E+03  0.7561462E-02  0.1278420E+00
         -2   -1    0    0    0  501 -0.00000000000E+00  0.00000000000E+00  0.25114321867E+03  0.25114321867E+03  0.00000000000E+00 0.  1.
          2   -1    0    0  501    0  0.00000000000E+00 -0.00000000000E+00 -0.98204155811E+02  0.98204155811E+02  0.00000000000E+00 0. -1.
         23    2    1    2    0    0  0.48812022051E+02  0.90694803895E+00  0.19541769646E+03  0.23710538333E+03  0.12508977042E+03 0.  0.
          5    1    3    3  502    0 -0.17357905286E+01 -0.49306883176E+02  0.13431365661E+03  0.14314961561E+03  0.41800000000E+01 0. -1.
         -5    1    3    3    0  502  0.50547812579E+02  0.50213831215E+02  0.61104039851E+02  0.93955767720E+02  0.41800000000E+01 0. -1.
        -11    1    1    2    0    0  0.79135128160E+01  0.19166357201E+02  0.17610028049E+02  0.27204522075E+02  0.00000000000E+00 0.  1.
         11    1    1    2    0    0 -0.56725534867E+02 -0.20073305240E+02 -0.60088661645E+02  0.85037469080E+02  0.00000000000E+00 0. -1.
</event>
<event>
 7    1  0.6671761E-006  0.1406987E+03  0.7561462E-02  0.1212392E+00
          1   -1    0    0  501    0  0.00000000000E+00  0.00000000000E+00  0.31079161000E+03  0.31079161000E+03  0.00000000000E+00 0. -1.
         -1   -1    0    0    0  501 -0.00000000000E+00 -0.00000000000E+00 -0.79106699493E+02  0.79106699493E+02  0.00000000000E+00 0.  1.
         23    2    1    2    0    0  0.91976922599E+02 -0.64771856255E+02  0.11335674308E+03  0.20286274123E+03  0.12509353670E+03 0.  0.
          5    1    3    3  502    0  0.11641993923E+02 -0.69407104519E+02  0.90823595622E+01  0.71083358358E+02  0.41800000000E+01 0. -1.
         -5    1    3    3    0  502  0.80334928676E+02  0.46352482645E+01  0.10427438352E+03  0.13177938287E+03  0.41800000000E+01 0. -1.
        -11    1    1    2    0    0 -0.22095819778E+02 -0.13102007556E+02 -0.40721408484E+01  0.26009040443E+02  0.00000000000E+00 0.  1.
         11    1    1    2    0    0 -0.69881102821E+02  0.77873863811E+02  0.12240030827E+03  0.16102652782E+03  0.00000000000E+00 0. -1.
</event>
<event>
 7    1  0.6671761E-006  0.1057557E+03  0.7561462E-02  0.1268638E+00
         -2   -1    0    0    0  501 -0.00000000000E+00  0.00000000000E+00  0.88706195528E+02  0.88706195528E+02  0.00000000000E+00 0.  1.
          2   -1    0    0  501    0  0.00000000000E+00 -0.00000000000E+00 -0.14746127858E+03  0.14746127858E+03  0.00000000000E+00 0. -1.
         23    2    1    2    0    0 -0.12787603833E+02 -0.13900813460E+02  0.24537586958E+01  0.12652779429E+03  0.12508599590E+03 0.  0.
          5    1    3    3  502    0  0.47849943360E+02  0.18753747270E+02  0.20045199391E+02  0.55322712649E+02  0.41800000000E+01 0.  1.
         -5    1    3    3    0  502 -0.60637547193E+02 -0.32654560730E+02 -0.17591440695E+02  0.71205081643E+02  0.41800000000E+01 0.  1.
        -11    1    1    2    0    0  0.31552612786E+02 -0.29793926472E+02 -0.30142044018E+02  0.52837375463E+02  0.00000000000E+00 0.  1.
         11    1    1    2    0    0 -0.18765008953E+02  0.43694739931E+02 -0.31066797728E+02  0.56802304352E+02  0.00000000000E+00 0. -1.
</event>
<event>
 7    1  0.6671761E-006  0.1044058E+03  0.7561462E-02  0.1271295E+00
         -2   -1    0    0    0  501 -0.00000000000E+00  0.00000000000E+00  0.37506224025E+02  0.37506224025E+02  0.00000000000E+00 0.  1.
          2   -1    0    0  501    0  0.00000000000E+00 -0.00000000000E+00 -0.54425434658E+03  0.54425434658E+03  0.00000000000E+00 0. -1.
         23    2    1    2    0    0  0.61271824839E+02  0.26017061060E+02 -0.12077748968E+03  0.17912260714E+03  0.11430915270E+03 0.  0.
          5    1    3    3  502    0  0.36218348659E+02  0.56445558354E+02 -0.12220435303E+03  0.13946055405E+03  0.41800000000E+01 0. -1.
         -5    1    3    3    0  502  0.25053476180E+02 -0.30428497294E+02  0.14268633507E+01  0.39662053090E+02  0.41800000000E+01 0.  1.
        -11    1    1    2    0    0 -0.25840099339E+02 -0.51982989553E+02 -0.30542123304E+03  0.31088916277E+03  0.00000000000E+00 0. -1.
         11    1    1    2    0    0 -0.35431725500E+02  0.25965928493E+02 -0.80549399841E+02  0.91748800696E+02  0.00000000000E+00 0.  1.
</event>
<event>
 7    1  0.6671761E-006  0.1366888E+03  0.7561462E-02  0.1217855E+00
          1   -1    0    0  501    0  0.00000000000E+00  0.00000000000E+00  0.72545567722E+03  0.72545567722E+03  0.00000000000E+00 0. -1.
         -1   -1    0    0    0  501 -0.00000000000E+00 -0.00000000000E+00 -0.32908821819E+02  0.32908821819E+02  0.00000000000E+00 0.  1.
         23    2    1    2    0    0 -0.74244540845E+02  0.39916487602E+02  0.20069165841E+03  0.25107104941E+03  0.12511575548E+03 0.  0.
          5    1    3    3  502    0  0.23418315680E+02  0.47084774492E+02  0.74508114103E+02  0.91292524149E+02  0.41800000000E+01 0.  1.
         -5    1    3    3    0  502 -0.97662856525E+02 -0.71682868900E+01  0.12618354431E+03  0.15977852526E+03  0.41800000000E+01 0.  1.
        -11    1    1    2    0    0  0.75701747770E+02  0.66752699736E+01  0.26407995586E+03  0.27479726514E+03  0.00000000000E+00 0.  1.
         11    1    1    2    0    0 -0.14572069256E+01 -0.46591757576E+02  0.22777524113E+03  0.23249618448E+03  0.00000000000E+00 0. -1.
</event>
<event>
 7    1  0.6671761E-006  0.1386492E+03  0.7561462E-02  0.1215158E+00
          1   -1    0    0  501    0  0.00000000000E+00  0.00000000000E+00  0.48528896415E+03  0.48528896415E+03  0.00000000000E+00 0. -1.
         -1   -1    0    0    0  501 -0.00000000000E+00 -0.00000000000E+00 -0.60535572460E+02  0.60535572460E+02  0.00000000000E+00 0.  1.
         23    2    1    2    0    0  0.87094799306E+02 -0.76798585408E+02  0.12541860202E+03  0.21180677648E+03  0.12509499608E+03 0.  0.
          5    1    3    3  502    0  0.90687726324E+02 -0.88310765032E+02  0.51380538268E+02  0.13667657824E+03  0.41800000000E+01 0. -1.
         -5    1    3    3    0  502 -0.35929270175E+01  0.11512179624E+02  0.74038063749E+02  0.75130198243E+02  0.41800000000E+01 0. -1.
        -11    1    1    2    0    0 -0.35721839157E+02 -0.99347245094E+01  0.34497593738E+02  0.50644175554E+02  0.00000000000E+00 0.  1.
         11    1    1    2    0    0 -0.51372960150E+02  0.86733309917E+02  0.26483719594E+03  0.28337358458E+03  0.00000000000E+00 0. -1.
</event>
<event>
 7    1  0.6671761E-006  0.2412194E+03  0.7561462E-02  0.1118983E+00
         -1   -1    0    0    0  501 -0.00000000000E+00  0.00000000000E+00  0.64358558754E+02  0.64358558754E+02  0.00000000000E+00 0.  1.
          1   -1    0    0  501    0  0.00000000000E+00 -0.00000000000E+00 -0.10422163849E+04  0.10422163849E+04  0.00000000000E+00 0. -1.
         23    2    1    2    0    0  0.10463683742E+03  0.20455192072E+03 -0.43055928169E+03  0.50380219070E+03  0.12507995959E+03 0.  0.
          5    1    3    3  502    0  0.10590125681E+03  0.16862735253E+03 -0.42196433502E+03  0.46660650729E+03  0.41800000000E+01 0.  1.
         -5    1    3    3    0  502 -0.12644193937E+01  0.35924568190E+02 -0.85949466668E+01  0.37195683409E+02  0.41800000000E+01 0.  1.
        -11    1    1    2    0    0 -0.25568714278E+02 -0.14719984573E+03 -0.38971049152E+03  0.41736772866E+03  0.00000000000E+00 0.  1.
         11    1    1    2    0    0 -0.79068123141E+02 -0.57352074986E+02 -0.15758805293E+03  0.18540502428E+03  0.00000000000E+00 0. -1.
</event>
<event>
 7    1  0.6671761E-006  0.8932412E+02  0.7561462E-02  0.1304497E+00
          2   -1    0    0  501    0  0.00000000000E+00  0.00000000000E+00  0.19989671001E+03  0.19989671001E+03  0.00000000000E+00 0.  1.
         -2   -1    0    0    0  501 -0.00000000000E+00 -0.00000000000E+00 -0.72507347499E+02  0.72507347499E+02  0.00000000000E+00 0. -1.
         23    2    1    2    0    0  0.36844497692E+02  0.24259021813E+01  0.22708455760E+02  0.13238848924E+03  0.12509051167E+03 0.  0.
          5    1    3    3  502    0 -0.19568970942E+02  0.40170806957E+02 -0.23020586241E+02  0.50438657260E+02  0.41800000000E+01 0.  1.
         -5    1    3    3    0  502  0.56413468634E+02 -0.37744904776E+02  0.45729042001E+02  0.81949831984E+02  0.41800000000E+01 0.  1.
        -11    1    1    2    0    0  0.12927423926E+02 -0.87243262558E+01 -0.73674479046E+01  0.17248520128E+02  0.00000000000E+00 0. -1.
         11    1    1    2    0    0 -0.49771921618E+02  0.62984240745E+01  0.11204835466E+03  0.12276704814E+03  0.00000000000E+00 0.  1.
</event>
<event>
 7    1  0.6671761E-006  0.9793792E+02  0.7561462E-02  0.1284693E+00
         -1   -1    0    0    0  501 -0.00000000000E+00  0.00000000000E+00  0.14972601826E+03  0.14972601826E+03  0.00000000000E+00 0.  1.
          1   -1    0    0  501    0  0.00000000000E+00 -0.00000000000E+00 -0.11252354738E+03  0.11252354738E+03  0.00000000000E+00 0. -1.
         23    2    1    2    0    0  0.61277576443E+02 -0.70627840788E+01  0.53594347787E+02  0.14865944354E+03  0.12418716417E+03 0.  0.
          5    1    3    3  502    0  0.11185939857E+02 -0.38840085367E+02 -0.26788631383E+02  0.48670120743E+02  0.41800000000E+01 0. -1.
         -5    1    3    3    0  502  0.50091636586E+02  0.31777301288E+02  0.80382979170E+02  0.99989322796E+02  0.41800000000E+01 0.  1.
        -11    1    1    2    0    0  0.20844399967E+01  0.28732818666E+02  0.22137636501E+02  0.36331731426E+02  0.00000000000E+00 0.  1.
         11    1    1    2    0    0 -0.63362016440E+02 -0.21670034587E+02 -0.38529513406E+02  0.77258390675E+02  0.00000000000E+00 0. -1.
</event>
<event>
 7    1  0.6671761E-006  0.3366871E+03  0.7561462E-02  0.1068216E+00
          2   -1    0    0  501    0  0.00000000000E+00  0.00000000000E+00  0.37630884046E+03  0.37630884046E+03  0.00000000000E+00 0.  1.
         -2   -1    0    0    0  501 -0.00000000000E+00 -0.00000000000E+00 -0.41754372261E+03  0.41754372261E+03  0.00000000000E+00 0. -1.
         23    2    1    2    0    0  0.31884117954E+03  0.24989493694E+02 -0.22822971305E+03  0.41233467007E+03  0.12508759195E+03 0.  0.
          5    1    3    3  502    0  0.10777199811E+03  0.65071947121E+02 -0.60489235613E+02  0.13973396833E+03  0.41800000000E+01 0.  1.
         -5    1    3    3    0  502  0.21106918143E+03 -0.40082453427E+02 -0.16774047743E+03  0.27260070175E+03  0.41800000000E+01 0.  1.
        -11    1    1    2    0    0 -0.22480580967E+03  0.24724660477E+02  0.12911046718E+03  0.26041980269E+03  0.00000000000E+00 0.  1.
         11    1    1    2    0    0 -0.94035369873E+02 -0.49714154172E+02  0.57884363728E+02  0.12109809031E+03  0.00000000000E+00 0. -1.
</event>
<event>
 7    1  0.6671761E-006  0.1149623E+03  0.7561462E-02  0.1251647E+00
          2   -1    0    0  501    0  0.00000000000E+00  0.00000000000E+00  0.30611696568E+03  0.30611696568E+03  0.00000000000E+00 0. -1.
         -2   -1    0    0    0  501 -0.00000000000E+00 -0.00000000000E+00 -0.54794526809E+02  0.54794526809E+02  0.00000000000E+00 0.  1.
         23    2    1    2    0    0  0.42957664668E+02 -0.42168398863E+02  0.84683127809E+02  0.16261456016E+03  0.12509487690E+03 0.  0.
          5    1    3    3  502    0 -0.78747327429E+01 -0.72809020228E+02  0.22912025861E+02  0.76847889831E+02  0.41800000000E+01 0. -1.
         -5    1    3    3    0  502  0.50832397411E+02  0.30640621365E+02  0.61771101948E+02  0.85766670334E+02  0.41800000000E+01 0. -1.
        -11    1    1    2    0    0  0.39761266836E+01  0.49421228475E+02  0.42217701675E+02  0.65119902811E+02  0.00000000000E+00 0.  1.
         11    1    1    2    0    0 -0.46933791352E+02 -0.72528296120E+01  0.12442160939E+03  0.13317702952E+03  0.00000000000E+00 0. -1.
</event>
<event>
 7    1  0.6671761E-006  0.1837508E+03  0.7561462E-02  0.1164222E+00
         -2   -1    0    0    0  501 -0.00000000000E+00  0.00000000000E+00  0.40966652259E+02  0.40966652259E+02  0.00000000000E+00 0.  1.
          2   -1    0    0  501    0  0.00000000000E+00 -0.00000000000E+00 -0.10999707260E+04  0.10999707260E+04  0.00000000000E+00 0. -1.
         23    2    1    2    0    0 -0.49841424646E+02 -0.15702394511E+03 -0.34450573266E+03  0.40183570211E+03  0.12508814774E+03 0.  0.
          5    1    3    3  502    0 -0.68684123784E+02 -0.88895264417E+02 -0.29428285498E+03  0.31502340870E+03  0.41800000000E+01 0. -1.
         -5    1    3    3    0  502  0.18842699138E+02 -0.68128680695E+02 -0.50222877681E+02  0.86812293407E+02  0.41800000000E+01 0. -1.
        -11    1    1    2    0    0  0.43959225328E+02  0.22060360469E+02 -0.27309131983E+03  0.27748503016E+03  0.00000000000E+00 0. -1.
         11    1    1    2    0    0  0.58821993183E+01  0.13496358464E+03 -0.44140702128E+03  0.46161664602E+03  0.00000000000E+00 0.  1.
</event>
<event>
 7    1  0.7458780E-006  0.1036438E+03  0.7561462E-02  0.1272815E+00
         -1   -1    0    0    0  501 -0.00000000000E+00  0.00000000000E+00  0.85177397490E+02  0.85177397490E+02  0.00000000000E+00 0.  1.
          1   -1    0    0  501    0  0.00000000000E+00 -0.00000000000E+00 -0.21293375274E+03  0.21293375274E+03  0.00000000000E+00 0. -1.
         23    2    1    2    0    0 -0.75470833835E+02 -0.26218294304E+02 -0.68084345552E+02  0.16329819058E+03  0.12509026829E+03 0.  0.
          5    1    3    3  502    0 -0.45304748042E+02 -0.36748098983E+02  0.25885629104E+02  0.63956869593E+02  0.41800000000E+01 0. -1.
         -5    1    3    3    0  502 -0.30166085793E+02  0.10529804679E+02 -0.93969974655E+02  0.99341320986E+02  0.41800000000E+01 0. -1.
        -11    1    1    2    0    0  0.71613435440E+02  0.53270779295E+02 -0.59891342100E+02  0.10748596616E+03  0.00000000000E+00 0.  1.
         11    1    1    2    0    0  0.38573983948E+01 -0.27052484991E+02  0.21933240505E+00  0.27326993491E+02  0.00000000000E+00 0. -1.
</event>
<event>
 7    1  0.6671761E-006  0.1680708E+03  0.7561462E-02  0.1179875E+00
          2   -1    0    0  501    0  0.00000000000E+00  0.00000000000E+00  0.36484292953E+03  0.36484292953E+03  0.00000000000E+00 0. -1.
         -2   -1    0    0    0  501 -0.00000000000E+00 -0.00000000000E+00 -0.18785337644E+03  0.18785337644E+03  0.00000000000E+00 0.  1.
         23    2    1    2    0    0 -0.80878346012E+02  0.13830139795E+03 -0.97576383789E+02  0.22547592156E+03  0.12509858913E+03 0.  0.
          5    1    3    3  502    0  0.80269207854E+01 -0.13984389745E+00 -0.54639724049E+02  0.55384319602E+02  0.41800000000E+01 0. -1.
         -5    1    3    3    0  502 -0.88905266798E+02  0.13844124184E+03 -0.42936659740E+02  0.17009160196E+03  0.41800000000E+01 0. -1.
        -11    1    1    2    0    0  0.21975888468E+02 -0.17434238905E+02  0.88358238600E+01  0.29410272753E+02  0.00000000000E+00 0.  1.
         11    1    1    2    0    0  0.58902457545E+02 -0.12086715904E+03  0.26573011301E+03  0.29781011165E+03  0.00000000000E+00 0. -1.
</event>
<event>
 7    1  0.6671761E-006  0.9082407E+02  0.7561462E-02  0.1300868E+00
          1   -1    0    0  501    0  0.00000000000E+00  0.00000000000E+00  0.30490733948E+03  0.30490733948E+03  0.00000000000E+00 0. -1.
         -1   -1    0    0    0  501 -0.00000000000E+00 -0.00000000000E+00 -0.42083797702E+02  0.42083797702E+02  0.00000000000E+00 0.  1.
         23    2    1    2    0    0  0.20430298331E+02 -0.24547951374E+02  0.13210146507E+03  0.18470980951E+03  0.12508763988E+03 0.  0.
          5    1    3    3  502    0  0.58866987165E+02 -0.10559124268E+02  0.13044247461E+03  0.14356019248E+03  0.41800000000E+01 0.  1.
         -5    1    3    3    0  502 -0.38436688834E+02 -0.13988827106E+02  0.16589904568E+01  0.41149617029E+02  0.41800000000E+01 0.  1.
        -11    1    1    2    0    0  0.27615215267E+02  0.25350596639E+01  0.83119098382E+01  0.28950207027E+02  0.00000000000E+00 0.  1.
         11    1    1    2    0    0 -0.48045513598E+02  0.22012891710E+02  0.12241016687E+03  0.13333112064E+03  0.00000000000E+00 0. -1.
</event>
<event>
 7    1  0.6671761E-006  0.8215918E+02  0.7561462E-02  0.1323033E+00
         -2   -1    0    0    0  501 -0.00000000000E+00  0.00000000000E+00  0.36229041440E+02  0.36229041440E+02  0.00000000000E+00 0.  1.
          2   -1    0    0  501    0  0.00000000000E+00 -0.00000000000E+00 -0.46899696059E+03  0.46899696059E+03  0.00000000000E+00 0. -1.
         23    2    1    2    0    0 -0.53663676664E+02 -0.32640836771E+02 -0.17537724271E+03  0.22438734256E+03  0.12508911953E+03 0.  0.
          5    1    3    3  502    0 -0.15138275189E+01 -0.39466689459E+02  0.15644197618E+01  0.39747088696E+02  0.41800000000E+01 0. -1.
         -5    1    3    3    0  502 -0.52149849145E+02  0.68258526877E+01 -0.17694166247E+03  0.18464025387E+03  0.41800000000E+01 0. -1.
        -11    1    1    2    0    0  0.41098888610E+02  0.49026381798E+01 -0.24414953749E+03  0.24763309788E+03  0.00000000000E+00 0. -1.
         11    1    1    2    0    0  0.12564788054E+02  0.27738198591E+02 -0.13241138952E+02  0.33205561592E+02  0.00000000000E+00 0.  1.
</event>
<event>
 7    1  0.6671761E-006  0.1503957E+03  0.7561462E-02  0.1199988E+00
         -1   -1    0    0    0  501 -0.00000000000E+00  0.00000000000E+00  0.86911556198E+02  0.86911556198E+02  0.00000000000E+00 0.  1.
          1   -1    0    0  501    0  0.00000000000E+00 -0.00000000000E+00 -0.32285557707E+03  0.32285557707E+03  0.00000000000E+00 0. -1.
         23    2    1    2    0    0 -0.80225290857E+02  0.83454558020E+02 -0.62428721314E+02  0.18151013730E+03  0.12509126329E+03 0.  0.
          5    1    3    3  502    0 -0.85813607566E+02  0.10824246347E+03 -0.69664722619E+02  0.15476127461E+03  0.41800000000E+01 0. -1.
         -5    1    3    3    0  502  0.55883167086E+01 -0.24787905452E+02  0.72360013059E+01  0.26748862690E+02  0.41800000000E+01 0. -1.
        -11    1    1    2    0    0 -0.11531216831E+02 -0.26368598780E+02 -0.67850760100E+01  0.29568720292E+02  0.00000000000E+00 0.  1.
         11    1    1    2    0    0  0.91756507688E+02 -0.57085959241E+02 -0.16673022354E+03  0.19868827567E+03  0.00000000000E+00 0. -1.
</event>
<event>
 7    1  0.6671761E-006  0.1162514E+03  0.7561462E-02  0.1249412E+00
         -1   -1    0    0    0  501 -0.00000000000E+00  0.00000000000E+00  0.30661459100E+03  0.30661459100E+03  0.00000000000E+00 0.  1.
          1   -1    0    0  501    0  0.00000000000E+00 -0.00000000000E+00 -0.10242725270E+03  0.10242725270E+03  0.00000000000E+00 0. -1.
         23    2    1    2    0    0 -0.17431251849E+01 -0.10327250271E+03  0.21750194158E+03  0.27133565162E+03  0.12509073885E+03 0.  0.
          5    1    3    3  502    0 -0.74726060404E+01 -0.38197681052E+01 -0.15377234122E+02  0.18010058263E+02  0.41800000000E+01 0. -1.
         -5    1    3    3    0  502  0.57294808555E+01 -0.99452734605E+02  0.23287917571E+03  0.25332559336E+03  0.41800000000E+01 0. -1.
        -11    1    1    2    0    0  0.31435658321E+02  0.26526905881E+02  0.23703898915E+02  0.47473699807E+02  0.00000000000E+00 0.  1.
         11    1    1    2    0    0 -0.29692533136E+02  0.76745596830E+02 -0.37018502202E+02  0.90232492274E+02  0.00000000000E+00 0. -1.
</event>
<event>
 7    1  0.6671761E-006  0.1789920E+03  0.7561462E-02  0.1168782E+00
         -1   -1    0    0    0  501 -0.00000000000E+00  0.00000000000E+00  0.67746337828E+02  0.67746337828E+02  0.00000000000E+00 0.  1.
          1   -1    0    0  501    0  0.00000000000E+00 -0.00000000000E+00 -0.51317411199E+03  0.51317411199E+03  0.00000000000E+00 0. -1.
         23    2    1    2    0    0  0.12478408318E+03 -0.10088796737E+02 -0.15101454392E+03  0.23264991714E+03  0.12509092788E+03 0.  0.
          5    1    3    3  502    0  0.84486967116E+02  0.51025122851E+02 -0.11287970087E+03  0.15000303345E+03  0.41800000000E+01 0.  1.
         -5    1    3    3    0  502  0.40297116068E+02 -0.61113919588E+02 -0.38134843042E+02  0.82646883696E+02  0.41800000000E+01 0.  1.
        -11    1    1    2    0    0 -0.58770860836E+02 -0.63831877839E+02 -0.12995820987E+03  0.15626150845E+03  0.00000000000E+00 0. -1.
         11    1    1    2    0    0 -0.66013222347E+02  0.73920674576E+02 -0.16445502038E+03  0.19200902422E+03  0.00000000000E+00 0.  1.
</event>
<event>
 7    1  0.6671761E-006  0.1108842E+03  0.7561462E-02  0.1258941E+00
         -2   -1    0    0    0  501 -0.00000000000E+00  0.00000000000E+00  0.27091233942E+03  0.27091233942E+03  0.00000000000E+00 0.  1.
          2   -1    0    0  501    0  0.00000000000E+00 -0.00000000000E+00 -0.71153122222E+02  0.71153122222E+02  0.00000000000E+00 0. -1.
         23    2    1    2    0    0  0.30516090427E+02  0.66484109914E+02  0.16445529434E+03  0.21921925587E+03  0.12514059958E+03 0.  0.
          5    1    3    3  502    0 -0.71468387368E+01 -0.30060754872E+02  0.78669646434E+02  0.84623353500E+02  0.41800000000E+01 0. -1.
         -5    1    3    3    0  502  0.37662929164E+02  0.96544864786E+02  0.85785647903E+02  0.13459590237E+03  0.41800000000E+01 0. -1.
        -11    1    1    2    0    0  0.12097910860E+02 -0.79743753729E+01  0.47305356127E+02  0.49474708974E+02  0.00000000000E+00 0.  1.
         11    1    1    2    0    0 -0.42614001287E+02 -0.58509734541E+02 -0.12001433264E+02  0.73371496796E+02  0.00000000000E+00 0. -1.
</event>
<event>
 7    1  0.6671761E-006  0.1885831E+03  0.7561462E-02  0.1159745E+00
         -2   -1    0    0    0  501 -0.00000000000E+00  0.00000000000E+00  0.20364588582E+03  0.20364588582E+03  0.00000000000E+00 0.  1.
          2   -1    0    0  501    0  0.00000000000E+00 -0.00000000000E+00 -0.20490788142E+03  0.20490788142E+03  0.00000000000E+00 0. -1.
         23    2    1    2    0    0 -0.93973857178E+02 -0.13598448024E+03  0.50759233814E+02  0.21341812878E+03  0.12509169907E+03 0.  0.
          5    1    3    3  502    0 -0.32949792788E+02 -0.14090370808E+03  0.45871738276E+02  0.15185925249E+03  0.41800000000E+01 0. -1.
         -5    1    3    3    0  502 -0.61024064390E+02  0.49192278430E+01  0.48874955383E+01  0.61558876288E+02  0.41800000000E+01 0. -1.
        -11    1    1    2    0    0  0.89572194955E+02  0.97881385703E+02 -0.27678069231E+01  0.13270872063E+03  0.00000000000E+00 0.  1.
         11    1    1    2    0    0  0.44016622228E+01  0.38103094532E+02 -0.49253422492E+02  0.62426917836E+02  0.00000000000E+00 0. -1.
</event>
<event>
 7    1  0.6671761E-006  0.1252319E+03  0.7561462E-02  0.1234707E+00
          2   -1    0    0  501    0  0.00000000000E+00  0.00000000000E+00  0.37506659239E+03  0.37506659239E+03  0.00000000000E+00 0.  1.
         -2   -1    0    0    0  501 -0.00000000000E+00 -0.00000000000E+00 -0.59873056602E+02  0.59873056602E+02  0.00000000000E+00 0. -1.
         23    2    1    2    0    0 -0.70915188968E+02  0.27042528372E+02  0.72063657284E+02  0.16309558390E+03  0.12508691546E+03 0.  0.
          5    1    3    3  502    0 -0.90549618784E+02 -0.72311331439E+01  0.81676020435E+02  0.12222915962E+03  0.41800000000E+01 0.  1.
         -5    1    3    3    0  502  0.19634429816E+02  0.34273661516E+02 -0.96123631513E+01  0.40866424278E+02  0.41800000000E+01 0.  1.
        -11    1    1    2    0    0  0.80259947818E+02 -0.50317799479E+02  0.17110679103E+03  0.19557881814E+03  0.00000000000E+00 0. -1.
         11    1    1    2    0    0 -0.93447588506E+01  0.23275271107E+02  0.72023087481E+02  0.76265246957E+02  0.00000000000E+00 0.  1.
</event>
<event>
 7    1  0.6671761E-006  0.1727854E+03  0.7561462E-02  0.1174974E+00
         -2   -1    0    0    0  501 -0.00000000000E+00  0.00000000000E+00  0.47301349606E+03  0.47301349606E+03  0.00000000000E+00 0.  1.
          2   -1    0    0  501    0  0.00000000000E+00 -0.00000000000E+00 -0.18983992604E+03  0.18983992604E+03  0.00000000000E+00 0. -1.
         23    2    1    2    0    0 -0.96758210478E+02  0.10525083827E+03  0.41100788518E+03  0.44993033482E+03  0.11432381320E+03 0.  0.
          5    1    3    3  502    0 -0.52826413188E+02 -0.14203452858E+02  0.10462986165E+03  0.11814079885E+03  0.41800000000E+01 0. -1.
         -5    1    3    3    0  502 -0.43931797289E+02  0.11945429113E+03  0.30637802353E+03  0.33178953597E+03  0.41800000000E+01 0.  1.
        -11    1    1    2    0    0  0.99820199479E+02 -0.56865629283E+02 -0.60176640586E+02  0.12968808770E+03  0.00000000000E+00 0. -1.
         11    1    1    2    0    0 -0.30619890019E+01 -0.48385208985E+02 -0.67657674575E+02  0.83234999574E+02  0.00000000000E+00 0.  1.
</event>
<event>
 7    1  0.6671761E-006  0.6506801E+02  0.7561462E-02  0.1377716E+00
         -1   -1    0    0    0  501 -0.00000000000E+00  0.00000000000E+00  0.19964784606E+04  0.19964784606E+04  0.00000000000E+00 0.  1.
          1   -1    0    0  501    0  0.00000000000E+00 -0.00000000000E+00 -0.33014268998E+02  0.33014268998E+02  0.00000000000E+00 0. -1.
         23    2    1    2    0    0 -0.26920813588E+02  0.11349174121E+02  0.19138523531E+04  0.19173373555E+04  0.11179522113E+03 0.  0.
          5    1    3    3  502    0 -0.16354796504E+02 -0.40546490127E+02  0.37418333943E+03  0.37675209507E+03  0.41800000000E+01 0. -1.
         -5    1    3    3    0  502 -0.10566017085E+02  0.51895664248E+02  0.15396690137E+04  0.15405852605E+04  0.41800000000E+01 0.  1.
        -11    1    1    2    0    0  0.15716287114E+02  0.17958790218E+01 -0.28262686343E+02  0.32388366760E+02  0.00000000000E+00 0. -1.
         11    1    1    2    0    0  0.11204526474E+02 -0.13145053143E+02  0.77874524832E+02  0.79767007299E+02  0.00000000000E+00 0.  1.
</event>
<event>
 7    1  0.6671761E-006  0.1541753E+03  0.7561462E-02  0.1195434E+00
         -2   -1    0    0    0  501 -0.00000000000E+00  0.00000000000E+00  0.21369519100E+02  0.21369519100E+02  0.00000000000E+00 0.  1.
          2   -1    0    0  501    0  0.00000000000E+00 -0.00000000000E+00 -0.11300621370E+04  0.11300621370E+04  0.00000000000E+00 0. -1.
         23    2    1    2    0    0 -0.44403471590E+02 -0.10204494364E+03 -0.61581183845E+03  0.63816722193E+03  0.12509334095E+03 0.  0.
          5    1    3    3  502    0  0.40578736738E+02 -0.15112403914E+02 -0.11969060217E+03  0.12735121230E+03  0.41800000000E+01 0.  1.
         -5    1    3    3    0  502 -0.84982208328E+02 -0.86932539722E+02 -0.49612123629E+03  0.51081600962E+03  0.41800000000E+01 0.  1.
        -11    1    1    2    0    0  0.71801906225E+02  0.83477084722E+02 -0.37752272653E+03  0.39325226822E+03  0.00000000000E+00 0.  1.
         11    1    1    2    0    0 -0.27398434635E+02  0.18567858915E+02 -0.11535805293E+03  0.12001216597E+03  0.00000000000E+00 0. -1.
</event>
<event>
 7    1  0.6671761E-006  0.5746167E+02  0.7561462E-02  0.1408804E+00
          4   -1    0    0  501    0  0.00000000000E+00  0.00000000000E+00  0.22603213432E+03  0.22603213432E+03  0.00000000000E+00 0. -1.
         -4   -1    0    0    0  501 -0.00000000000E+00 -0.00000000000E+00 -0.42388623132E+02  0.42388623132E+02  0.00000000000E+00 0.  1.
         23    2    1    2    0    0  0.16470106488E+01 -0.71191885653E+01  0.94063576003E+02  0.15666762821E+03  0.12507355399E+03 0.  0.
          5    1    3    3  502    0  0.27320413042E+02  0.11168768144E+02  0.11486560238E+03  0.11867065922E+03  0.41800000000E+01 0.  1.
         -5    1    3    3    0  502 -0.25673402393E+02 -0.18287956710E+02 -0.20802026372E+02  0.37996968988E+02  0.41800000000E+01 0.  1.
        -11    1    1    2    0    0  0.15697741420E+01 -0.22986299079E+02  0.74407935338E+01  0.24211558080E+02  0.00000000000E+00 0.  1.
         11    1    1    2    0    0 -0.32167847907E+01  0.30105487645E+02  0.82139141651E+02  0.87541571164E+02  0.00000000000E+00 0. -1.
</event>
<event>
 7    1  0.6671761E-006  0.1046171E+03  0.7561462E-02  0.1270876E+00
          2   -1    0    0  501    0  0.00000000000E+00  0.00000000000E+00  0.68265847127E+03  0.68265847127E+03  0.00000000000E+00 0. -1.
         -2   -1    0    0    0  501 -0.00000000000E+00 -0.00000000000E+00 -0.16209069626E+02  0.16209069626E+02  0.00000000000E+00 0.  1.
         23    2    1    2    0    0 -0.34190294723E+01  0.14389659176E+02  0.34891818096E+03  0.36774526495E+03  0.11521254635E+03 0.  0.
          5    1    3    3  502    0 -0.54159377204E+02  0.31020418770E+02  0.18288536987E+03  0.19328744251E+03  0.41800000000E+01 0. -1.
         -5    1    3    3    0  502  0.50740347731E+02 -0.16630759595E+02  0.16603281109E+03  0.17445782244E+03  0.41800000000E+01 0.  1.
        -11    1    1    2    0    0 -0.27134105174E+02 -0.43272756797E+02  0.15281985842E+03  0.16112945190E+03  0.00000000000E+00 0. -1.
         11    1    1    2    0    0  0.30553134646E+02  0.28883097621E+02  0.16471136226E+03  0.16999282404E+03  0.00000000000E+00 0.  1.
</event>
<event>
 7    1  0.6671761E-006  0.1110762E+03  0.7561462E-02  0.1258590E+00
          2   -1    0    0  501    0  0.00000000000E+00  0.00000000000E+00  0.39375565159E+03  0.39375565159E+03  0.00000000000E+00 0. -1.
         -2   -1    0    0    0  501 -0.00000000000E+00 -0.00000000000E+00 -0.43351422617E+02  0.43351422617E+02  0.00000000000E+00 0.  1.
         23    2    1    2    0    0 -0.51464107088E+02  0.14720417360E+02  0.11296177106E+03  0.17684419161E+03  0.12509301091E+03 0.  0.
          5    1    3    3  502    0  0.98974158189E+01  0.52480390840E+02  0.15875026445E+02  0.55871630791E+02  0.41800000000E+01 0.  1.
         -5    1    3    3    0  502 -0.61361522907E+02 -0.37759973480E+02  0.97086744618E+02  0.12097256082E+03  0.41800000000E+01 0.  1.
        -11    1    1    2    0    0  0.56809717611E+02 -0.40703242547E+02  0.11176376139E+03  0.13181515971E+03  0.00000000000E+00 0. -1.
         11    1    1    2    0    0 -0.53456105231E+01  0.25982825187E+02  0.12567869652E+03  0.12844772289E+03  0.00000000000E+00 0.  1.
</event>
<event>
 7    1  0.6671761E-006  0.1372804E+03  0.7561462E-02  0.1217036E+00
         -2   -1    0    0    0  501 -0.00000000000E+00  0.00000000000E+00  0.31263881495E+02  0.31263881495E+02  0.00000000000E+00 0.  1.
          2   -1    0    0  501    0  0.00000000000E+00 -0.00000000000E+00 -0.65326462123E+03  0.65326462123E+03  0.00000000000E+00 0. -1.
         23    2    1    2    0    0  0.86869619735E+02  0.33752450838E+02 -0.33465886689E+03  0.36922815778E+03  0.12508923431E+03 0.  0.
          5    1    3    3  502    0 -0.66550917096E+01 -0.32947637859E+02 -0.37091398523E+02  0.50230283003E+02  0.41800000000E+01 0. -1.
         -5    1    3    3    0  502  0.93524711445E+02  0.66700088697E+02 -0.29756746837E+03  0.31899787478E+03  0.41800000000E+01 0. -1.
        -11    1    1    2    0    0 -0.57530790809E+02  0.22916150427E+02 -0.18078248574E+03  0.19109486909E+03  0.00000000000E+00 0. -1.
         11    1    1    2    0    0 -0.29338828927E+02 -0.56668601266E+02 -0.10655938710E+03  0.12420547585E+03  0.00000000000E+00 0.  1.
</event>
<event>
 7    1  0.6671761E-006  0.1780698E+03  0.7561462E-02  0.1169684E+00
          1   -1    0    0  501    0  0.00000000000E+00  0.00000000000E+00  0.17317542262E+03  0.17317542262E+03  0.00000000000E+00 0. -1.
         -1   -1    0    0    0  501 -0.00000000000E+00 -0.00000000000E+00 -0.22519800352E+03  0.22519800352E+03  0.00000000000E+00 0.  1.
         23    2    1    2    0    0  0.92745767937E+02  0.13404882367E+03  0.38891190016E-02  0.20546974104E+03  0.12508776866E+03 0.  0.
          5    1    3    3  502    0 -0.18418142738E+02  0.23708248378E+02 -0.33569123771E+02  0.45229055858E+02  0.41800000000E+01 0.  1.
         -5    1    3    3    0  502  0.11116391067E+03  0.11034057529E+03  0.33573012890E+02  0.16024068518E+03  0.41800000000E+01 0.  1.
        -11    1    1    2    0    0 -0.63115751693E+02 -0.51571884007E+02 -0.65077712418E+02  0.10429940549E+03  0.00000000000E+00 0.  1.
         11    1    1    2    0    0 -0.29630016244E+02 -0.82476939662E+02  0.13051242396E+02  0.88604279618E+02  0.00000000000E+00 0. -1.
</event>
<event>
 6    1  0.6671761E-006  0.1039302E+03  0.7561462E-02  0.1272242E+00
          2   -1    0    0  501    0  0.00000000000E+00  0.00000000000E+00  0.15388536287E+03  0.15388536287E+03  0.00000000000E+00 0. -1.
         -2   -1    0    0    0  501 -0.00000000000E+00 -0.00000000000E+00 -0.92438179076E+02  0.92438179076E+02  0.00000000000E+00 0.  1.
          5    1    1    2  502    0 -0.35876213057E+02 -0.51512982062E+02  0.49046989620E+02  0.79773238464E+02  0.41800000000E+01 0. -1.
         -5    1    1    2    0  502  0.47166097284E+02  0.32596083568E+02 -0.29142917793E+02  0.64450969384E+02  0.41800000000E+01 0.  1.
        -11    1    1    2    0    0  0.19961790775E+02  0.43393515004E+02  0.40118813866E+02  0.62377796220E+02  0.00000000000E+00 0.  1.
         11    1    1    2    0    0 -0.31251675002E+02 -0.24476616509E+02  0.14242981007E+01  0.39721537876E+02  0.00000000000E+00 0. -1.
</event>
<event>
 7    1  0.6671761E-006  0.7200214E+02  0.7561462E-02  0.1353414E+00
         -1   -1    0    0    0  501 -0.00000000000E+00  0.00000000000E+00  0.18582383885E+02  0.18582383885E+02  0.00000000000E+00 0.  1.
          1   -1    0    0  501    0  0.00000000000E+00 -0.00000000000E+00 -0.71874766813E+03  0.71874766813E+03  0.00000000000E+00 0. -1.
         23    2    1    2    0    0  0.33914323103E+02 -0.74227717057E+00 -0.34209773041E+03  0.36582670080E+03  0.12509030970E+03 0.  0.
          5    1    3    3  502    0 -0.40290440189E+01  0.16228032234E+02  0.36056536437E+01  0.17608389026E+02  0.41800000000E+01 0. -1.
         -5    1    3    3    0  502  0.37943367122E+02 -0.16970309404E+02 -0.34570338406E+03  0.34821831178E+03  0.41800000000E+01 0. -1.
        -11    1    1    2    0    0  0.19777174758E+02  0.19833691884E+02 -0.42957356893E+02  0.51282028883E+02  0.00000000000E+00 0.  1.
         11    1    1    2    0    0 -0.53691497861E+02 -0.19091414713E+02 -0.31511019694E+03  0.32022132233E+03  0.00000000000E+00 0. -1.
</event>
<event>
 7    1  0.6671761E-006  0.1328476E+03  0.7561462E-02  0.1223290E+00
          2   -1    0    0  501    0  0.00000000000E+00  0.00000000000E+00  0.12073685485E+03  0.12073685485E+03  0.00000000000E+00 0. -1.
         -2   -1    0    0    0  501 -0.00000000000E+00 -0.00000000000E+00 -0.38304138238E+03  0.38304138238E+03  0.00000000000E+00 0.  1.
         23    2    1    2    0    0  0.95165162273E+02 -0.19332740496E+02 -0.32303456206E+03  0.35604305247E+03  0.11395246362E+03 0.  0.
          5    1    3    3  502    0  0.11957677219E+02 -0.47786325101E+02 -0.55155703565E+02  0.74068501718E+02  0.41800000000E+01 0. -1.
         -5    1    3    3    0  502  0.83207485054E+02  0.28453584604E+02 -0.26787885849E+03  0.28197455075E+03  0.41800000000E+01 0.  1.
        -11    1    1    2    0    0 -0.96426450999E+02 -0.11726094177E+02  0.64233601389E+02  0.11645392773E+03  0.00000000000E+00 0. -1.
         11    1    1    2    0    0  0.12612887264E+01  0.31058834673E+02 -0.35035668616E+01  0.31281257028E+02  0.00000000000E+00 0.  1.
</event>
<event>
 7    1  0.6671761E-006  0.1328544E+03  0.7561462E-02  0.1223281E+00
         -3   -1    0    0    0  501 -0.00000000000E+00  0.00000000000E+00  0.78950308630E+02  0.78950308630E+02  0.00000000000E+00 0.  1.
          3   -1    0    0  501    0  0.00000000000E+00 -0.00000000000E+00 -0.31219832538E+03  0.31219832538E+03  0.00000000000E+00 0. -1.
         23    2    1    2    0    0  0.53038787608E+00  0.11269304535E+03 -0.10782134560E+03  0.19995584897E+03  0.12512751572E+03 0.  0.
          5    1    3    3  502    0  0.19441254859E+02 -0.12213192062E+02 -0.60747676415E+02  0.65075932884E+02  0.41800000000E+01 0.  1.
         -5    1    3    3    0  502 -0.18910866983E+02  0.12490623741E+03 -0.47073669187E+02  0.13487991609E+03  0.41800000000E+01 0.  1.
        -11    1    1    2    0    0 -0.13945715934E+02 -0.54859804135E+02 -0.11862188007E+03  0.13143527507E+03  0.00000000000E+00 0. -1.
         11    1    1    2    0    0  0.13415328058E+02 -0.57833241211E+02 -0.68047910833E+01  0.59757509968E+02  0.00000000000E+00 0.  1.
</event>
<event>
 7    1  0.6671761E-006  0.8179822E+02  0.7561462E-02  0.1324024E+00
         -1   -1    0    0    0  501 -0.00000000000E+00  0.00000000000E+00  0.18629269591E+02  0.18629269591E+02  0.00000000000E+00 0. -1.
          1   -1    0    0  501    0  0.00000000000E+00 -0.00000000000E+00 -0.66377201372E+03  0.66377201372E+03  0.00000000000E+00 0.  1.
         23    2    1    2    0    0 -0.14264906187E+02 -0.25433557869E+01 -0.43721142108E+03  0.45498482942E+03  0.12508961617E+03 0.  0.
          5    1    3    3  502    0  0.33225731227E+02  0.22405869506E+02 -0.50770579953E+02  0.64815865285E+02  0.41800000000E+01 0. -1.
         -5    1    3    3    0  502 -0.47490637414E+02 -0.24949225293E+02 -0.38644084113E+03  0.39016896414E+03  0.41800000000E+01 0. -1.
        -11    1    1    2    0    0  0.13326974563E+02 -0.32143609847E+02 -0.17866745448E+03  0.18202439176E+03  0.00000000000E+00 0.  1.
         11    1    1    2    0    0  0.93793162414E+00  0.34686965634E+02 -0.29263868565E+02  0.45392062125E+02  0.00000000000E+00 0. -1.
</event>
<event>
 7    1  0.6671761E-006  0.1152706E+03  0.7561462E-02  0.1251109E+00
         -2   -1    0    0    0  501 -0.00000000000E+00  0.00000000000E+00  0.26964495748E+03  0.26964495748E+03  0.00000000000E+00 0.  1.
          2   -1    0    0  501    0  0.00000000000E+00 -0.00000000000E+00 -0.53319579748E+02  0.53319579748E+02  0.00000000000E+00 0. -1.
         23    2    1    2    0    0  0.23375543994E+02  0.50873869722E+02  0.14557265003E+03  0.19993376095E+03  0.12509015011E+03 0.  0.
          5    1    3    3  502    0  0.70816136083E+02  0.51346286260E+02  0.10937097822E+03  0.14011013354E+03  0.41800000000E+01 0. -1.
         -5    1    3    3    0  502 -0.47440592090E+02 -0.47241653843E+00  0.36201671812E+02  0.59823627416E+02  0.41800000000E+01 0. -1.
        -11    1    1    2    0    0 -0.16124476523E+02  0.19098789843E+02  0.37875945559E+02  0.45380059152E+02  0.00000000000E+00 0.  1.
         11    1    1    2    0    0 -0.72510674709E+01 -0.69972659565E+02  0.32876782141E+02  0.77650717125E+02  0.00000000000E+00 0. -1.
</event>
<event>
 7    1  0.6671761E-006  0.9973081E+02  0.7561462E-02  0.1280863E+00
         -2   -1    0    0    0  501 -0.00000000000E+00  0.00000000000E+00  0.45871654630E+03  0.45871654630E+03  0.00000000000E+00 0. -1.
          2   -1    0    0  501    0  0.00000000000E+00 -0.00000000000E+00 -0.29550912845E+02  0.29550912845E+02  0.00000000000E+00 0.  1.
         23    2    1    2    0    0  0.25206408540E+02 -0.12673916947E+02  0.30482692636E+03  0.33070182065E+03  0.12509295723E+03 0.  0.
          5    1    3    3  502    0  0.55412409779E+02  0.32925245318E+02  0.22317507386E+03  0.23233422677E+03  0.41800000000E+01 0. -1.
         -5    1    3    3    0  502 -0.30206001239E+02 -0.45599162265E+02  0.81651852501E+02  0.98367593886E+02  0.41800000000E+01 0. -1.
        -11    1    1    2    0    0  0.26897875977E+02  0.45784774865E+01  0.58941201287E+01  0.27914133343E+02  0.00000000000E+00 0.  1.
         11    1    1    2    0    0 -0.52104284517E+02  0.80954394609E+01  0.11844458697E+03  0.12965150515E+03  0.00000000000E+00 0. -1.
</event>
<event>
 7    1  0.6671761E-006  0.1718883E+03  0.7561462E-02  0.1175893E+00
         -1   -1    0    0    0  501 -0.00000000000E+00  0.00000000000E+00  0.32559969188E+03  0.32559969188E+03  0.00000000000E+00 0. -1.
          1   -1    0    0  501    0  0.00000000000E+00 -0.00000000000E+00 -0.18044801586E+03  0.18044801586E+03  0.00000000000E+00 0.  1.
         23    2    1    2    0    0  0.15040032167E+03  0.48411711014E+02  0.22926092143E+03  0.30523914574E+03  0.12508563257E+03 0.  0.
          5    1    3    3  502    0  0.84569538430E+01  0.18638132056E+02 -0.11717905147E+02  0.23951654137E+02  0.41800000000E+01 0.  1.
         -5    1    3    3    0  502  0.14194336783E+03  0.29773578958E+02  0.24097882657E+03  0.28128749160E+03  0.41800000000E+01 0.  1.
        -11    1    1    2    0    0 -0.13116357908E+03 -0.60886652552E+01 -0.80860177127E+02  0.15420546218E+03  0.00000000000E+00 0.  1.
         11    1    1    2    0    0 -0.19236742594E+02 -0.42323045759E+02 -0.32490682840E+01  0.46603099818E+02  0.00000000000E+00 0. -1.
</event>
<event>
 7    1  0.6671761E-006  0.1590504E+03  0.7561462E-02  0.1189773E+00
          1   -1    0    0  501    0  0.00000000000E+00  0.00000000000E+00  0.31364649997E+03  0.31364649997E+03  0.00000000000E+00 0. -1.
         -1   -1    0    0    0  501 -0.00000000000E+00 -0.00000000000E+00 -0.11466644314E+03  0.11466644314E+03  0.00000000000E+00 0.  1.
         23    2    1    2    0    0 -0.99061009489E+02  0.91771408526E+02  0.17972563218E+02  0.18494587329E+03  0.12508752134E+03 0.  0.
          5    1    3    3  502    0 -0.57012088741E+02  0.18889722026E+01 -0.40138378051E+02  0.69874947378E+02  0.41800000000E+01 0.  1.
         -5    1    3    3    0  502 -0.42048920748E+02  0.89882436323E+02  0.58110941269E+02  0.11507092591E+03  0.41800000000E+01 0.  1.
        -11    1    1    2    0    0  0.33052186830E+02  0.14809623253E+02  0.29464043146E+02  0.46689418861E+02  0.00000000000E+00 0.  1.
         11    1    1    2    0    0  0.66008822659E+02 -0.10658103178E+03  0.15154345047E+03  0.19667765095E+03  0.00000000000E+00 0. -1.
</event>
<event>
 7    1  0.6671761E-006  0.1069211E+03  0.7561462E-02  0.1266380E+00
         -1   -1    0    0    0  501 -0.00000000000E+00  0.00000000000E+00  0.34635616279E+02  0.34635616279E+02  0.00000000000E+00 0.  1.
          1   -1    0    0  501    0  0.00000000000E+00 -0.00000000000E+00 -0.41650113800E+03  0.41650113800E+03  0.00000000000E+00 0. -1.
         23    2    1    2    0    0  0.49044678255E+02 -0.17234472719E+02 -0.20080814585E+03  0.24223039249E+03  0.12509693879E+03 0.  0.
          5    1    3    3  502    0  0.82646899553E+00 -0.58192557240E+02 -0.43969163373E+02  0.73060362009E+02  0.41800000000E+01 0. -1.
         -5    1    3    3    0  502  0.48218209260E+02  0.40958084521E+02 -0.15683898247E+03  0.16917003049E+03  0.41800000000E+01 0. -1.
        -11    1    1    2    0    0  0.15679461997E+02 -0.13266808362E+02 -0.94004255064E+02  0.96221898250E+02  0.00000000000E+00 0. -1.
         11    1    1    2    0    0 -0.64724140252E+02  0.30501281081E+02 -0.87053120811E+02  0.11268446353E+03  0.00000000000E+00 0.  1.
</event>
<event>
 7    1  0.6671761E-006  0.1104146E+03  0.7561462E-02  0.1259804E+00
         -1   -1    0    0    0  501 -0.00000000000E+00  0.00000000000E+00  0.36017635451E+02  0.36017635451E+02  0.00000000000E+00 0.  1.
          1   -1    0    0  501    0  0.00000000000E+00 -0.00000000000E+00 -0.46523148167E+03  0.46523148167E+03  0.00000000000E+00 0. -1.
         23    2    1    2    0    0  0.43848987430E+02  0.13515828331E+02 -0.13360477341E+03  0.18868779503E+03  0.12508971661E+03 0.  0.
          5    1    3    3  502    0 -0.26214354721E+01 -0.46295168778E+02 -0.89643786656E+02  0.10101284801E+03  0.41800000000E+01 0.  1.
         -5    1    3    3    0  502  0.46470422902E+02  0.59810997109E+02 -0.43960986753E+02  0.87674947027E+02  0.41800000000E+01 0.  1.
        -11    1    1    2    0    0  0.16134905237E+02  0.23070988216E+02 -0.12339175545E+03  0.12656275510E+03  0.00000000000E+00 0.  1.
         11    1    1    2    0    0 -0.59983892668E+02 -0.36586816547E+02 -0.17221731735E+03  0.18599856699E+03  0.00000000000E+00 0. -1.
</event>
<event>
 7    1  0.6671761E-006  0.1731673E+03  0.7561462E-02  0.1174585E+00
         -2   -1    0    0    0  501 -0.00000000000E+00  0.00000000000E+00  0.77826316414E+02  0.77826316414E+02  0.00000000000E+00 0.  1.
          2   -1    0    0  501    0  0.00000000000E+00 -0.00000000000E+00 -0.42582902046E+03  0.42582902046E+03  0.00000000000E+00 0. -1.
         23    2    1    2    0    0  0.35303687627E+02  0.13923423996E+03 -0.14768688463E+03  0.24102242764E+03  0.12509144975E+03 0.  0.
          5    1    3    3  502    0  0.76016253328E+02  0.71747857744E+02 -0.51509554374E+02  0.11660588515E+03  0.41800000000E+01 0.  1.
         -5    1    3    3    0  502 -0.40712565700E+02  0.67486382212E+02 -0.96177330255E+02  0.12441654249E+03  0.41800000000E+01 0.  1.
        -11    1    1    2    0    0 -0.58062701332E+02 -0.76349459343E+02 -0.15347646751E+03  0.18098492564E+03  0.00000000000E+00 0. -1.
         11    1    1    2    0    0  0.22759013705E+02 -0.62884780614E+02 -0.46839351901E+02  0.81647983589E+02  0.00000000000E+00 0.  1.
</event>
<event>
 6    1  0.6671761E-006  0.7156146E+02  0.7561462E-02  0.1354862E+00
         -1   -1    0    0    0  501 -0.00000000000E+00  0.00000000000E+00  0.39708014253E+02  0.39708014253E+02  0.00000000000E+00 0.  1.
          1   -1    0    0  501    0  0.00000000000E+00 -0.00000000000E+00 -0.59182529425E+03  0.59182529425E+03  0.00000000000E+00 0. -1.
          5    1    1    2  502    0 -0.15020255777E+02 -0.16844338730E+02 -0.12053223709E+03  0.12269813531E+03  0.41800000000E+01 0. -1.
         -5    1    1    2    0  502 -0.10232386744E+02  0.23952237186E+02  0.28676656652E+02  0.38964527989E+02  0.41800000000E+01 0.  1.
        -11    1    1    2    0    0  0.14486666776E+02 -0.48709887803E+02 -0.27847041700E+03  0.28306940815E+03  0.00000000000E+00 0. -1.
         11    1    1    2    0    0  0.10765975745E+02  0.41601989348E+02 -0.18179128256E+03  0.18680123705E+03  0.00000000000E+00 0.  1.
</event>
<event>
 7    1  0.6671761E-006  0.1137311E+03  0.7561462E-02  0.1253812E+00
         -1   -1    0    0    0  501 -0.00000000000E+00  0.00000000000E+00  0.11606126580E+03  0.11606126580E+03  0.00000000000E+00 0.  1.
          1   -1    0    0  501    0  0.00000000000E+00 -0.00000000000E+00 -0.18111117069E+03  0.18111117069E+03  0.00000000000E+00 0. -1.
         23    2    1    2    0    0 -0.82597495169E+02 -0.47285503559E+02 -0.23842871280E+02  0.15898813462E+03  0.12510187602E+03 0.  0.
          5    1    3    3  502    0  0.12278800683E+02 -0.23802980297E+02  0.35425096799E+02  0.44606733802E+02  0.41800000000E+01 0.  1.
         -5    1    3    3    0  502 -0.94876295852E+02 -0.23482523262E+02 -0.59267968078E+02  0.11438140082E+03  0.41800000000E+01 0.  1.
        -11    1    1    2    0    0  0.35159312874E+01  0.17772361753E+02  0.25023377642E+02  0.30893171474E+02  0.00000000000E+00 0.  1.
         11    1    1    2    0    0  0.79081563882E+02  0.29513141806E+02 -0.66230411260E+02  0.10729113039E+03  0.00000000000E+00 0. -1.
</event>
<event>
 7    1  0.6671761E-006  0.1109879E+03  0.7561462E-02  0.1258751E+00
          3   -1    0    0  501    0  0.00000000000E+00  0.00000000000E+00  0.12461297336E+02  0.12461297336E+02  0.00000000000E+00 0. -1.
         -3   -1    0    0    0  501 -0.00000000000E+00 -0.00000000000E+00 -0.14088336799E+04  0.14088336799E+04  0.00000000000E+00 0.  1.
         23    2    1    2    0    0  0.27616908812E+02 -0.27321978716E+02 -0.11160859455E+04  0.11237452826E+04  0.12508572365E+03 0.  0.
          5    1    3    3  502    0 -0.49094280484E+02 -0.53144968130E+00 -0.38232263936E+03  0.38548489436E+03  0.41800000000E+01 0. -1.
         -5    1    3    3    0  502  0.76711189296E+02 -0.26790529035E+02 -0.73376330614E+03  0.73826038825E+03  0.41800000000E+01 0. -1.
        -11    1    1    2    0    0 -0.57361103813E+02  0.16500039876E+02 -0.23388551055E+03  0.24138139860E+03  0.00000000000E+00 0.  1.
         11    1    1    2    0    0  0.29744195001E+02  0.10821938841E+02 -0.46400926471E+02  0.56168295985E+02  0.00000000000E+00 0. -1.
</event>
<event>
 7    1  0.6671761E-006  0.1464639E+03  0.7561462E-02  0.1204887E+00
          2   -1    0    0  501    0  0.00000000000E+00  0.00000000000E+00  0.12908793346E+04  0.12908793346E+04  0.00000000000E+00 0. -1.
         -2   -1    0    0    0  501 -0.00000000000E+00 -0.00000000000E+00 -0.20368386481E+02  0.20368386481E+02  0.00000000000E+00 0.  1.
         23    2    1    2    0    0 -0.10516433029E+03  0.58288503130E+02  0.70115983948E+03  0.72230858902E+03  0.12508993291E+03 0.  0.
          5    1    3    3  502    0 -0.12800126655E+03  0.63691610225E+02  0.51031740311E+03  0.52998327310E+03  0.41800000000E+01 0.  1.
         -5    1    3    3    0  502  0.22836936262E+02 -0.54031070942E+01  0.19084243637E+03  0.19232531592E+03  0.41800000000E+01 0.  1.
        -11    1    1    2    0    0  0.87053607436E+02 -0.62863379215E+02  0.55524244786E+03  0.56553011496E+03  0.00000000000E+00 0. -1.
         11    1    1    2    0    0  0.18110722856E+02  0.45748760842E+01  0.14108660821E+02  0.23409017145E+02  0.00000000000E+00 0.  1.
</event>
<event>
 6    1  0.6671761E-006  0.1580035E+03  0.7561462E-02  0.1190969E+00
          1   -1    0    0  501    0  0.00000000000E+00  0.00000000000E+00  0.38861131841E+02  0.38861131841E+02  0.00000000000E+00 0. -1.
         -1   -1    0    0    0  501 -0.00000000000E+00 -0.00000000000E+00 -0.69341699909E+03  0.69341699909E+03  0.00000000000E+00 0.  1.
          5    1    1    2  502    0 -0.59617434710E+02  0.42899164977E+02 -0.10136972502E+03  0.12525122925E+03  0.41800000000E+01 0. -1.
         -5    1    1    2    0  502  0.28905713245E+02 -0.11767956508E+03 -0.34842247698E+03  0.36891694886E+03  0.41800000000E+01 0.  1.
        -11    1    1    2    0    0 -0.27091572202E+02  0.52808444986E+02 -0.91476304803E+02  0.10904402545E+03  0.00000000000E+00 0. -1.
         11    1    1    2    0    0  0.57803293667E+02  0.21971955114E+02 -0.11328736045E+03  0.12906592737E+03  0.00000000000E+00 0.  1.
</event>
<event>
 7    1  0.6671761E-006  0.9377883E+02  0.7561462E-02  0.1293950E+00
          2   -1    0    0  501    0  0.00000000000E+00  0.00000000000E+00  0.22838720530E+03  0.22838720530E+03  0.00000000000E+00 0.  1.
         -2   -1    0    0    0  501 -0.00000000000E+00 -0.00000000000E+00 -0.10407402958E+03  0.10407402958E+03  0.00000000000E+00 0. -1.
         23    2    1    2    0    0 -0.23190670479E+02 -0.26486679317E+02 -0.41634268946E+02  0.13645823519E+03  0.12509231080E+03 0.  0.
          5    1    3    3  502    0 -0.31544688383E+01  0.45347767366E+02  0.85888046008E+01  0.46450087655E+02  0.41800000000E+01 0.  1.
         -5    1    3    3    0  502 -0.20036201641E+02 -0.71834446683E+02 -0.50223073547E+02  0.90008147536E+02  0.41800000000E+01 0.  1.
        -11    1    1    2    0    0  0.75262629950E+01 -0.18289747349E+02 -0.34609444713E+01  0.20078287511E+02  0.00000000000E+00 0. -1.
         11    1    1    2    0    0  0.15664407484E+02  0.44776426666E+02  0.16940838914E+03  0.17592471218E+03  0.00000000000E+00 0.  1.
</event>
<event>
 7    1  0.6671761E-006  0.2283186E+03  0.7561462E-02  0.1127829E+00
         -1   -1    0    0    0  501 -0.00000000000E+00  0.00000000000E+00  0.17703294897E+03  0.17703294897E+03  0.00000000000E+00 0.  1.
          1   -1    0    0  501    0  0.00000000000E+00 -0.00000000000E+00 -0.30732937361E+03  0.30732937361E+03  0.00000000000E+00 0. -1.
         23    2    1    2    0    0 -0.67559901709E+02  0.19250493894E+03 -0.34969907182E+02  0.24185283830E+03  0.12508960450E+03 0.  0.
          5    1    3    3  502    0 -0.85761614603E+02  0.71742580046E+02 -0.41850876337E+02  0.11946137694E+03  0.41800000000E+01 0.  1.
         -5    1    3    3    0  502  0.18201712894E+02  0.12076235889E+03  0.68809691545E+01  0.12239146136E+03  0.41800000000E+01 0.  1.
        -11    1    1    2    0    0 -0.16586035399E+02 -0.81960902290E+02 -0.28493782581E+02  0.88343543739E+02  0.00000000000E+00 0.  1.
         11    1    1    2    0    0  0.84145937108E+02 -0.11054403665E+03 -0.66832734876E+02  0.15416594054E+03  0.00000000000E+00 0. -1.
</event>
<event>
 7    1  0.6671761E-006  0.1721958E+03  0.7561462E-02  0.1175577E+00
          1   -1    0    0  501    0  0.00000000000E+00  0.00000000000E+00  0.67297925450E+02  0.67297925450E+02  0.00000000000E+00 0. -1.
         -1   -1    0    0    0  501 -0.00000000000E+00 -0.00000000000E+00 -0.48070106804E+03  0.48070106804E+03  0.00000000000E+00 0.  1.
         23    2    1    2    0    0 -0.13717674952E+03  0.80898576467E+01 -0.27481870289E+03  0.33174520451E+03  0.12508658943E+03 0.  0.
          5    1    3    3  502    0 -0.15954203637E+03  0.22449210718E+00 -0.21924875942E+03  0.27118481276E+03  0.41800000000E+01 0.  1.
         -5    1    3    3    0  502  0.22365286858E+02  0.78653655395E+01 -0.55569943470E+02  0.60560391747E+02  0.41800000000E+01 0.  1.
        -11    1    1    2    0    0  0.29113461603E+02  0.33989944620E+02 -0.16052788966E+02  0.47545788619E+02  0.00000000000E+00 0.  1.
         11    1    1    2    0    0  0.10806328791E+03 -0.42079802267E+02 -0.12253165074E+03  0.16870800036E+03  0.00000000000E+00 0. -1.
</event>
<event>
 7    1  0.6671761E-006  0.1025750E+03  0.7561462E-02  0.1274972E+00
          1   -1    0    0  501    0  0.00000000000E+00  0.00000000000E+00  0.40558621950E+03  0.40558621950E+03  0.00000000000E+00 0.  1.
         -1   -1    0    0    0  501 -0.00000000000E+00 -0.00000000000E+00 -0.31147775067E+02  0.31147775067E+02  0.00000000000E+00 0. -1.
         23    2    1    2    0    0  0.19687228632E+02 -0.23628635820E+02  0.19927962936E+03  0.23728771966E+03  0.12508873578E+03 0.  0.
          5    1    3    3  502    0 -0.40642290637E+02 -0.42408432324E+02  0.13386250348E+03  0.14624265164E+03  0.41800000000E+01 0. -1.
         -5    1    3    3    0  502  0.60329519268E+02  0.18779796503E+02  0.65417125877E+02  0.91045068015E+02  0.41800000000E+01 0. -1.
        -11    1    1    2    0    0 -0.31261648864E+02  0.47237946358E+02  0.65119518995E+02  0.86309130571E+02  0.00000000000E+00 0. -1.
         11    1    1    2    0    0  0.11574420232E+02 -0.23609310538E+02  0.11003929608E+03  0.11313714434E+03  0.00000000000E+00 0.  1.
</event>
<event>
 7    1  0.6671761E-006  0.9900948E+02  0.7561462E-02  0.1282393E+00
         -1   -1    0    0    0  501 -0.00000000000E+00  0.00000000000E+00  0.29735504217E+02  0.29735504217E+02  0.00000000000E+00 0.  1.
          1   -1    0    0  501    0  0.00000000000E+00 -0.00000000000E+00 -0.40718874145E+03  0.40718874145E+03  0.00000000000E+00 0. -1.
         23    2    1    2    0    0  0.16775202157E+02  0.76955775868E+01 -0.19035948346E+03  0.22852891800E+03  0.12509238225E+03 0.  0.
          5    1    3    3  502    0 -0.24473413081E+02  0.50732461433E+02 -0.13787068333E+03  0.14899170552E+03  0.41800000000E+01 0. -1.
         -5    1    3    3    0  502  0.41248615239E+02 -0.43036883846E+02 -0.52488800130E+02  0.79537212482E+02  0.41800000000E+01 0. -1.
        -11    1    1    2    0    0  0.19602871063E+02  0.25749722688E+02 -0.31573478496E+02  0.45212888835E+02  0.00000000000E+00 0.  1.
         11    1    1    2    0    0 -0.36378073221E+02 -0.33445300274E+02 -0.15552027527E+03  0.16318243883E+03  0.00000000000E+00 0. -1.
</event>
<event>
 7    1  0.6671761E-006  0.1088228E+03  0.7561462E-02  0.1262765E+00
         -1   -1    0    0    0  501 -0.00000000000E+00  0.00000000000E+00  0.65354317050E+03  0.65354317050E+03  0.00000000000E+00 0.  1.
          1   -1    0    0  501    0  0.00000000000E+00 -0.00000000000E+00 -0.33053550296E+02  0.33053550296E+02  0.00000000000E+00 0. -1.
         23    2    1    2    0    0  0.88986849930E+01 -0.53373957848E+02  0.53083419924E+03  0.54805145854E+03  0.12508992028E+03 0.  0.
          5    1    3    3  502    0 -0.30841533094E+02 -0.81612564631E+02  0.34421110332E+03  0.35512049633E+03  0.41800000000E+01 0.  1.
         -5    1    3    3    0  502  0.39740218087E+02  0.28238606783E+02  0.18662309592E+03  0.19293096221E+03  0.41800000000E+01 0.  1.
        -11    1    1    2    0    0 -0.35105260203E+02  0.32918191511E+02  0.93420873805E+02  0.10508780276E+03  0.00000000000E+00 0.  1.
         11    1    1    2    0    0  0.26206575210E+02  0.20455766337E+02 -0.37654528414E+01  0.33457459494E+02  0.00000000000E+00 0. -1.
</event>
<event>
 7    1  0.6671761E-006  0.1770662E+03  0.7561462E-02  0.1170673E+00
          1   -1    0    0  501    0  0.00000000000E+00  0.00000000000E+00  0.47211840308E+02  0.47211840308E+02  0.00000000000E+00 0. -1.
         -1   -1    0    0    0  501 -0.00000000000E+00 -0.00000000000E+00 -0.72546846255E+03  0.72546846255E+03  0.00000000000E+00 0.  1.
         23    2    1    2    0    0 -0.12762302285E+03 -0.78278181229E+02 -0.34318693432E+03  0.39476441472E+03  0.12508621677E+03 0.  0.
          5    1    3    3  502    0 -0.29507895681E+02 -0.91114434527E+02 -0.17750900983E+03  0.20174111395E+03  0.41800000000E+01 0.  1.
         -5    1    3    3    0  502 -0.98115127164E+02  0.12836253298E+02 -0.16567792449E+03  0.19302330077E+03  0.41800000000E+01 0.  1.
        -11    1    1    2    0    0  0.12153782484E+03  0.86371614395E+02 -0.33614854374E+03  0.36773270469E+03  0.00000000000E+00 0.  1.
         11    1    1    2    0    0  0.60851980072E+01 -0.80934331661E+01  0.10788558214E+01  0.10183183446E+02  0.00000000000E+00 0. -1.
</event>
<event>
 7    1  0.6671761E-006  0.3078942E+03  0.7561462E-02  0.1081360E+00
         -1   -1    0    0    0  501 -0.00000000000E+00  0.00000000000E+00  0.63551422822E+03  0.63551422822E+03  0.00000000000E+00 0.  1.
          1   -1    0    0  501    0  0.00000000000E+00 -0.00000000000E+00 -0.15215057170E+03  0.15215057170E+03  0.00000000000E+00 0. -1.
         23    2    1    2    0    0  0.18462807881E+03 -0.22702183335E+03  0.24647055836E+03  0.39929443164E+03  0.11428852391E+03 0.  0.
          5    1    3    3  502    0  0.74518819039E+02 -0.25957608175E+02  0.31716292765E+02  0.85148384835E+02  0.41800000000E+01 0. -1.
         -5    1    3    3    0  502  0.11010925977E+03 -0.20106422517E+03  0.21475426560E+03  0.31414604681E+03  0.41800000000E+01 0.  1.
        -11    1    1    2    0    0 -0.94117912358E+02  0.18528675083E+03  0.15248367841E+03  0.25776080703E+03  0.00000000000E+00 0.  1.
         11    1    1    2    0    0 -0.90510166455E+02  0.41735082517E+02  0.84409419755E+02  0.13060956124E+03  0.00000000000E+00 0. -1.
</event>
<event>
 7    1  0.6671761E-006  0.6770433E+02  0.7561462E-02  0.1368078E+00
         -1   -1    0    0    0  501 -0.00000000000E+00  0.00000000000E+00  0.99371802768E+02  0.99371802768E+02  0.00000000000E+00 0.  1.
          1   -1    0    0  501    0  0.00000000000E+00 -0.00000000000E+00 -0.12812473774E+03  0.12812473774E+03  0.00000000000E+00 0. -1.
         23    2    1    2    0    0 -0.38864913703E+02  0.16393752855E+02 -0.12683866911E+02  0.13261928451E+03  0.12509099685E+03 0.  0.
          5    1    3    3  502    0 -0.31884512539E-01  0.11810092999E+02  0.53874214366E+02  0.55311686711E+02  0.41800000000E+01 0.  1.
         -5    1    3    3    0  502 -0.38833029191E+02  0.45836598567E+01 -0.66558081277E+02  0.77307597797E+02  0.41800000000E+01 0.  1.
        -11    1    1    2    0    0 -0.14452822018E+02 -0.25648468087E+02  0.14400942259E+02  0.32773695511E+02  0.00000000000E+00 0.  1.
         11    1    1    2    0    0  0.53317735722E+02  0.92547152318E+01 -0.30470010322E+02  0.62103560490E+02  0.00000000000E+00 0. -1.
</event>
<event>
 7    1  0.6671761E-006  0.1178165E+03  0.7561462E-02  0.1246743E+00
          2   -1    0    0  501    0  0.00000000000E+00  0.00000000000E+00  0.56399978807E+02  0.56399978807E+02  0.00000000000E+00 0. -1.
         -2   -1    0    0    0  501 -0.00000000000E+00 -0.00000000000E+00 -0.34850367675E+03  0.34850367675E+03  0.00000000000E+00 0.  1.
         23    2    1    2    0    0  0.77161012445E+02  0.16589290284E+02 -0.22259459345E+03  0.26725438311E+03  0.12509007102E+03 0.  0.
          5    1    3    3  502    0 -0.20798848642E+02  0.23382049908E+02 -0.12432054103E+03  0.12826683782E+03  0.41800000000E+01 0. -1.
         -5    1    3    3    0  502  0.97959861087E+02 -0.67927596238E+01 -0.98274052422E+02  0.13898754529E+03  0.41800000000E+01 0. -1.
        -11    1    1    2    0    0  0.34758964013E+00  0.20044193635E+02  0.84670528361E+01  0.21761927781E+02  0.00000000000E+00 0.  1.
         11    1    1    2    0    0 -0.77508602085E+02 -0.36633483919E+02 -0.77976157332E+02  0.11588734466E+03  0.00000000000E+00 0. -1.
</event>
<event>
 7    1  0.6671761E-006  0.1016627E+03  0.7561462E-02  0.1276838E+00
         -1   -1    0    0    0  501 -0.00000000000E+00  0.00000000000E+00  0.56784177255E+02  0.56784177255E+02  0.00000000000E+00 0.  1.
          1   -1    0    0  501    0  0.00000000000E+00 -0.00000000000E+00 -0.26842099293E+03  0.26842099293E+03  0.00000000000E+00 0. -1.
         23    2    1    2    0    0 -0.48231717729E+02 -0.34184434606E+02 -0.10558050286E+03  0.17403749800E+03  0.12508770507E+03 0.  0.
          5    1    3    3  502    0  0.29391516001E+01 -0.46427165208E+02  0.92889957897E+01  0.47622244006E+02  0.41800000000E+01 0. -1.
         -5    1    3    3    0  502 -0.51170869329E+02  0.12242730602E+02 -0.11486949865E+03  0.12641525399E+03  0.41800000000E+01 0. -1.
        -11    1    1    2    0    0 -0.24830209731E+02  0.11251202560E+02 -0.11745535827E+02  0.29683101020E+02  0.00000000000E+00 0.  1.
         11    1    1    2    0    0  0.73061927460E+02  0.22933232047E+02 -0.94310776982E+02  0.12148457117E+03  0.00000000000E+00 0. -1.
</event>
<event>
 7    1  0.6671761E-006  0.1268283E+03  0.7561462E-02  0.1232239E+00
          4   -1    0    0  501    0  0.00000000000E+00  0.00000000000E+00  0.41253268541E+03  0.41253268541E+03  0.00000000000E+00 0. -1.
         -4   -1    0    0    0  501 -0.00000000000E+00 -0.00000000000E+00 -0.47894076972E+02  0.47894076972E+02  0.00000000000E+00 0.  1.
         23    2    1    2    0    0  0.75980980696E+02  0.20039211830E+02  0.12820102808E+03  0.19560006531E+03  0.12509677258E+03 0.  0.
          5    1    3    3  502    0  0.15871704057E+02 -0.48562470596E+02  0.22664130438E+02  0.56047834468E+02  0.41800000000E+01 0. -1.
         -5    1    3    3    0  502  0.60109276640E+02  0.68601682426E+02  0.10553689764E+03  0.13955223084E+03  0.41800000000E+01 0. -1.
        -11    1    1    2    0    0 -0.19904395253E+02 -0.45379849978E+02  0.59153305800E+02  0.77166244702E+02  0.00000000000E+00 0.  1.
         11    1    1    2    0    0 -0.56076585443E+02  0.25340638148E+02  0.17728427456E+03  0.18766045237E+03  0.00000000000E+00 0. -1.
</event>
<event>
 7    1  0.6671761E-006  0.7386976E+02  0.7561462E-02  0.1347407E+00
         -1   -1    0    0    0  501 -0.00000000000E+00  0.00000000000E+00  0.56425150013E+03  0.56425150013E+03  0.00000000000E+00 0.  1.
          1   -1    0    0  501    0  0.00000000000E+00 -0.00000000000E+00 -0.13645899802E+03  0.13645899802E+03  0.00000000000E+00 0. -1.
         23    2    1    2    0    0  0.20674508186E+02 -0.36750900125E+02  0.53787652198E+03  0.55383828224E+03  0.12509047135E+03 0.  0.
          5    1    3    3  502    0  0.13818468722E+02  0.14390943917E+02  0.45923417182E+03  0.45968635645E+03  0.41800000000E+01 0.  1.
         -5    1    3    3    0  502  0.68560394642E+01 -0.51141844042E+02  0.78642350165E+02  0.94151925783E+02  0.41800000000E+01 0.  1.
        -11    1    1    2    0    0 -0.18437956790E+02  0.54584002262E+02 -0.30313514064E+02  0.65102078987E+02  0.00000000000E+00 0.  1.
         11    1    1    2    0    0 -0.22365513963E+01 -0.17833102137E+02 -0.79770505811E+02  0.81770136916E+02  0.00000000000E+00 0. -1.
</event>
<event>
 6    1  0.6671761E-006  0.3050286E+03  0.7561462E-02  0.1082754E+00
         -1   -1    0    0    0  501 -0.00000000000E+00  0.00000000000E+00  0.26838826334E+03  0.26838826334E+03  0.00000000000E+00 0.  1.
          1   -1    0    0  501    0  0.00000000000E+00 -0.00000000000E+00 -0.46529040286E+03  0.46529040286E+03  0.00000000000E+00 0. -1.
          5    1    1    2  502    0  0.10368910837E+03  0.25829967730E+02  0.78180663583E+02  0.13247002297E+03  0.41800000000E+01 0. -1.
         -5    1    1    2    0  502 -0.22591978721E+03 -0.17178055954E+03 -0.56892897283E+02  0.28948676145E+03  0.41800000000E+01 0.  1.
        -11    1    1    2    0    0 -0.16300429467E+02  0.45010599599E+02 -0.27053358437E+02  0.54986746401E+02  0.00000000000E+00 0.  1.
         11    1    1    2    0    0  0.13853110831E+03  0.10093999221E+03 -0.19113654738E+03  0.25673513538E+03  0.00000000000E+00 0. -1.
</event>
<event>
 7    1  0.6671761E-006  0.9032693E+02  0.7561462E-02  0.1302062E+00
          1   -1    0    0  501    0  0.00000000000E+00  0.00000000000E+00  0.49369603938E+03  0.49369603938E+03  0.00000000000E+00 0. -1.
         -1   -1    0    0    0  501 -0.00000000000E+00 -0.00000000000E+00 -0.27626548715E+02  0.27626548715E+02  0.00000000000E+00 0.  1.
         23    2    1    2    0    0 -0.50161257439E+02 -0.20969133876E+02  0.24274611971E+03  0.27844285229E+03  0.12509551164E+03 0.  0.
          5    1    3    3  502    0  0.64639575297E+00 -0.46988453290E+02  0.25186620303E+02  0.53480564809E+02  0.41800000000E+01 0.  1.
         -5    1    3    3    0  502 -0.50807653192E+02  0.26019319414E+02  0.21755949941E+03  0.22496228748E+03  0.41800000000E+01 0.  1.
        -11    1    1    2    0    0  0.42253054430E+02 -0.10709525488E+02  0.49243306921E+02  0.65764107394E+02  0.00000000000E+00 0.  1.
         11    1    1    2    0    0  0.79082030082E+01  0.31678659364E+02  0.17408006403E+03  0.17711562841E+03  0.00000000000E+00 0. -1.
</event>
<event>
 7    1  0.6671761E-006  0.1116850E+03  0.7561462E-02  0.1257481E+00
         -1   -1    0    0    0  501 -0.00000000000E+00  0.00000000000E+00  0.64816884386E+03  0.64816884386E+03  0.00000000000E+00 0.  1.
          1   -1    0    0  501    0  0.00000000000E+00 -0.00000000000E+00 -0.29291763706E+02  0.29291763706E+02  0.00000000000E+00 0. -1.
         23    2    1    2    0    0  0.76145859296E+02 -0.23725384322E+02  0.41522986543E+03  0.44093580844E+03  0.12508980884E+03 0.  0.
          5    1    3    3  502    0  0.41192112469E+01  0.37583894065E+02  0.22775415544E+03  0.23090895330E+03  0.41800000000E+01 0.  1.
         -5    1    3    3    0  502  0.72026648049E+02 -0.61309278386E+02  0.18747570998E+03  0.21002685514E+03  0.41800000000E+01 0.  1.
        -11    1    1    2    0    0 -0.28116964562E+02  0.31249662479E+02  0.20000448285E+02  0.46552368714E+02  0.00000000000E+00 0. -1.
         11    1    1    2    0    0 -0.48028894734E+02 -0.75242781579E+01  0.18364676644E+03  0.18997243041E+03  0.00000000000E+00 0.  1.
</event>
<event>
 7    1  0.6671761E-006  0.1342565E+03  0.7561462E-02  0.1221273E+00
         -1   -1    0    0    0  501 -0.00000000000E+00  0.00000000000E+00  0.75807651236E+02  0.75807651236E+02  0.00000000000E+00 0.  1.
          1   -1    0    0  501    0  0.00000000000E+00 -0.00000000000E+00 -0.34810307518E+03  0.34810307518E+03  0.00000000000E+00 0. -1.
         23    2    1    2    0    0 -0.10105660971E+03 -0.48797121168E+02 -0.87332827784E+02  0.18938603508E+03  0.12508577087E+03 0.  0.
          5    1    3    3  502    0  0.89580130069E+01 -0.11340345070E+02  0.24044114329E+02  0.28362673661E+02  0.41800000000E+01 0.  1.
         -5    1    3    3    0  502 -0.11001462272E+03 -0.37456776098E+02 -0.11137694211E+03  0.16102336141E+03  0.41800000000E+01 0.  1.
        -11    1    1    2    0    0  0.59947476737E+02  0.68973531418E+02 -0.15457030475E+03  0.17956343479E+03  0.00000000000E+00 0. -1.
         11    1    1    2    0    0  0.41109132972E+02 -0.20176410250E+02 -0.30392291409E+02  0.54961256548E+02  0.00000000000E+00 0.  1.
</event>
<event>
 7    1  0.6671761E-006  0.2220401E+03  0.7561462E-02  0.1132371E+00
         -1   -1    0    0    0  501 -0.00000000000E+00  0.00000000000E+00  0.53122095431E+03  0.53122095431E+03  0.00000000000E+00 0.  1.
          1   -1    0    0  501    0  0.00000000000E+00 -0.00000000000E+00 -0.13978131091E+03  0.13978131091E+03  0.00000000000E+00 0. -1.
         23    2    1    2    0    0  0.11796362017E+02 -0.21420601388E+03  0.35849488633E+03  0.43610725092E+03  0.12509028836E+03 0.  0.
          5    1    3    3  502    0 -0.92162249878E+01 -0.57760089150E+02  0.18924864941E+02  0.61618094864E+02  0.41800000000E+01 0.  1.
         -5    1    3    3    0  502  0.21012587005E+02 -0.15644592473E+03  0.33957002139E+03  0.37448915605E+03  0.41800000000E+01 0.  1.
        -11    1    1    2    0    0  0.20552023530E+02  0.17717875926E+03  0.52062231185E+01  0.17844271676E+03  0.00000000000E+00 0.  1.
         11    1    1    2    0    0 -0.32348385547E+02  0.37027254612E+02  0.27738533958E+02  0.56452297542E+02  0.00000000000E+00 0. -1.
</event>
<event>
 6    1  0.6671761E-006  0.1606716E+03  0.7561462E-02  0.1187941E+00
          1   -1    0    0  501    0  0.00000000000E+00  0.00000000000E+00  0.52369647454E+03  0.52369647454E+03  0.00000000000E+00 0. -1.
         -1   -1    0    0    0  501 -0.00000000000E+00 -0.00000000000E+00 -0.62968678771E+02  0.62968678771E+02  0.00000000000E+00 0.  1.
          5    1    1    2  502    0 -0.66266511684E+02  0.32594740075E+02  0.56137323194E+02  0.92857628156E+02  0.41800000000E+01 0. -1.
         -5    1    1    2    0  502  0.12864304445E+03 -0.49861856513E+02  0.10326320128E+03  0.17238329026E+03  0.41800000000E+01 0.  1.
        -11    1    1    2    0    0 -0.66356983793E+02 -0.21975054789E+02  0.22344274577E+03  0.23412136376E+03  0.00000000000E+00 0. -1.
         11    1    1    2    0    0  0.39804510237E+01  0.39242171227E+02  0.77884525518E+02  0.87302871134E+02  0.00000000000E+00 0.  1.
</event>
<event>
 7    1  0.6671761E-006  0.9406855E+02  0.7561462E-02  0.1293288E+00
          2   -1    0    0  501    0  0.00000000000E+00  0.00000000000E+00  0.20312890358E+03  0.20312890358E+03  0.00000000000E+00 0. -1.
         -2   -1    0    0    0  501 -0.00000000000E+00 -0.00000000000E+00 -0.11713251035E+03  0.11713251035E+03  0.00000000000E+00 0.  1.
         23    2    1    2    0    0 -0.27782897402E+01 -0.29952551895E+02 -0.69171356558E+02  0.13773318591E+03  0.11524269901E+03 0.  0.
          5    1    3    3  502    0  0.39152100284E+02  0.14702939072E+02 -0.63397174978E+02  0.76064035978E+02  0.41800000000E+01 0. -1.
         -5    1    3    3    0  502 -0.41930390024E+02 -0.44655490967E+02 -0.57741815797E+01  0.61669149937E+02  0.41800000000E+01 0.  1.
        -11    1    1    2    0    0 -0.36823993020E+02  0.25642551609E+02  0.38090891290E+02  0.58859688363E+02  0.00000000000E+00 0.  1.
         11    1    1    2    0    0  0.39602282761E+02  0.43100002855E+01  0.11707685850E+03  0.12366853965E+03  0.00000000000E+00 0. -1.
</event>
<event>
 7    1  0.6671761E-006  0.9660976E+02  0.7561462E-02  0.1287591E+00
          2   -1    0    0  501    0  0.00000000000E+00  0.00000000000E+00  0.42021383106E+02  0.42021383106E+02  0.00000000000E+00 0. -1.
         -2   -1    0    0    0  501 -0.00000000000E+00 -0.00000000000E+00 -0.43666173446E+03  0.43666173446E+03  0.00000000000E+00 0.  1.
         23    2    1    2    0    0  0.41693517055E+02 -0.35625678134E+02 -0.32676742534E+03  0.35071519482E+03  0.11496373038E+03 0.  0.
          5    1    3    3  502    0 -0.13429966405E+02  0.13736538154E+02 -0.46781986635E+01  0.20209265718E+02  0.41800000000E+01 0. -1.
         -5    1    3    3    0  502  0.55123483460E+02 -0.49362216288E+02 -0.32208922668E+03  0.33050592910E+03  0.41800000000E+01 0.  1.
        -11    1    1    2    0    0 -0.91434607533E+00 -0.25745769180E+02 -0.43133581934E+02  0.50241283322E+02  0.00000000000E+00 0.  1.
         11    1    1    2    0    0 -0.40779170980E+02  0.61371447314E+02 -0.24739344074E+02  0.77726639426E+02  0.00000000000E+00 0. -1.
</event>
<event>
 7    1  0.6671761E-006  0.9753583E+02  0.7561462E-02  0.1285565E+00
          1   -1    0    0  501    0  0.00000000000E+00  0.00000000000E+00  0.24122816381E+03  0.24122816381E+03  0.00000000000E+00 0. -1.
         -1   -1    0    0    0  501 -0.00000000000E+00 -0.00000000000E+00 -0.49443095691E+02  0.49443095691E+02  0.00000000000E+00 0.  1.
         23    2    1    2    0    0 -0.79222965349E+01  0.28149750867E+01  0.10006221519E+03  0.16041196336E+03  0.12509542043E+03 0.  0.
          5    1    3    3  502    0  0.66055052044E+01 -0.52078397301E+02  0.87469892694E+02  0.10209920025E+03  0.41800000000E+01 0. -1.
         -5    1    3    3    0  502 -0.14527801739E+02  0.54893372388E+02  0.12592322497E+02  0.58312763108E+02  0.41800000000E+01 0. -1.
        -11    1    1    2    0    0  0.43779530204E+02  0.13869684295E+02  0.23957546449E+02  0.51797484874E+02  0.00000000000E+00 0.  1.
         11    1    1    2    0    0 -0.35857233670E+02 -0.16684659382E+02  0.67765306482E+02  0.78461811270E+02  0.00000000000E+00 0. -1.
</event>
<event>
 7    1  0.6671761E-006  0.1042750E+03  0.7561462E-02  0.1271555E+00
          1   -1    0    0  501    0  0.00000000000E+00  0.00000000000E+00  0.60671983036E+02  0.60671983036E+02  0.00000000000E+00 0. -1.
         -1   -1    0    0    0  501 -0.00000000000E+00 -0.00000000000E+00 -0.38815307839E+03  0.38815307839E+03  0.00000000000E+00 0.  1.
         23    2    1    2    0    0 -0.39747472078E+01  0.69006541287E+02 -0.29517001991E+03  0.32794984692E+03  0.12509220633E+03 0.  0.
          5    1    3    3  502    0  0.42087679262E+02  0.45050611633E+02 -0.56723914385E+02  0.83880899002E+02  0.41800000000E+01 0. -1.
         -5    1    3    3    0  502 -0.46062426470E+02  0.23955929653E+02 -0.23844610552E+03  0.24406894791E+03  0.41800000000E+01 0. -1.
        -11    1    1    2    0    0 -0.25643145721E+02 -0.57383267263E+02  0.14282502841E+02  0.64454636541E+02  0.00000000000E+00 0. -1.
         11    1    1    2    0    0  0.29617892928E+02 -0.11623274024E+02 -0.46593578286E+02  0.56420577966E+02  0.00000000000E+00 0.  1.
</event>
<event>
 7    1  0.6671761E-006  0.1230820E+03  0.7561462E-02  0.1238098E+00
         -2   -1    0    0    0  501 -0.00000000000E+00  0.00000000000E+00  0.17838123760E+03  0.17838123760E+03  0.00000000000E+00 0. -1.
          2   -1    0    0  501    0  0.00000000000E+00 -0.00000000000E+00 -0.91450406380E+02  0.91450406380E+02  0.00000000000E+00 0.  1.
         23    2    1    2    0    0 -0.34440417395E+02 -0.53912916152E+02  0.69669987350E+02  0.15682685183E+03  0.12509200390E+03 0.  0.
          5    1    3    3  502    0  0.25443269072E+02 -0.69482789496E+02  0.57080661428E+02  0.93546204018E+02  0.41800000000E+01 0. -1.
         -5    1    3    3    0  502 -0.59883686467E+02  0.15569873344E+02  0.12589325923E+02  0.63280647816E+02  0.41800000000E+01 0. -1.
        -11    1    1    2    0    0  0.43077129208E+02  0.75422261627E+02  0.55459766726E+01  0.87033984552E+02  0.00000000000E+00 0.  1.
         11    1    1    2    0    0 -0.86367118124E+01 -0.21509345474E+02  0.11714867200E+02  0.25970807596E+02  0.00000000000E+00 0. -1.
</event>
<event>
 7    1  0.6671761E-006  0.1078600E+03  0.7561462E-02  0.1264585E+00
         -2   -1    0    0    0  501 -0.00000000000E+00  0.00000000000E+00  0.13265938609E+03  0.13265938609E+03  0.00000000000E+00 0.  1.
          2   -1    0    0  501    0  0.00000000000E+00 -0.00000000000E+00 -0.12914209267E+03  0.12914209267E+03  0.00000000000E+00 0. -1.
         23    2    1    2    0    0 -0.59618332733E+02  0.40031130771E+02  0.15847459125E+02  0.14511099733E+03  0.12509685271E+03 0.  0.
          5    1    3    3  502    0 -0.82680582308E+02  0.57091640076E+02  0.39151425398E+02  0.10791589581E+03  0.41800000000E+01 0.  1.
         -5    1    3    3    0  502  0.23062249576E+02 -0.17060509305E+02 -0.23303966273E+02  0.37195101523E+02  0.41800000000E+01 0.  1.
        -11    1    1    2    0    0  0.86808467885E+01  0.11034461709E+02  0.29955090508E+02  0.33082078132E+02  0.00000000000E+00 0.  1.
         11    1    1    2    0    0  0.50937485944E+02 -0.51065592480E+02 -0.42285256211E+02  0.83608403301E+02  0.00000000000E+00 0. -1.
</event>
<event>
 7    1  0.6671761E-006  0.1043732E+03  0.7561462E-02  0.1271360E+00
          2   -1    0    0  501    0  0.00000000000E+00  0.00000000000E+00  0.38972634969E+02  0.38972634969E+02  0.00000000000E+00 0. -1.
         -2   -1    0    0    0  501 -0.00000000000E+00 -0.00000000000E+00 -0.36923146628E+03  0.36923146628E+03  0.00000000000E+00 0.  1.
         23    2    1    2    0    0 -0.22748305263E+02  0.38577085037E+02 -0.21418030389E+03  0.25204634640E+03  0.12509388984E+03 0.  0.
          5    1    3    3  502    0 -0.30362693807E+02 -0.27670443502E+02 -0.16225597927E+03  0.16742766147E+03  0.41800000000E+01 0. -1.
         -5    1    3    3    0  502  0.76143885435E+01  0.66247528539E+02 -0.51924324622E+02  0.84618684922E+02  0.41800000000E+01 0. -1.
        -11    1    1    2    0    0 -0.35097973094E+02 -0.15224377104E+02 -0.24778614999E+02  0.45581017264E+02  0.00000000000E+00 0. -1.
         11    1    1    2    0    0  0.57846278358E+02 -0.23352707933E+02 -0.91299912422E+02  0.11057673759E+03  0.00000000000E+00 0.  1.
</event>
<event>
 7    1  0.6671761E-006  0.1412612E+03  0.7561462E-02  0.1211642E+00
          3   -1    0    0  501    0  0.00000000000E+00  0.00000000000E+00  0.10345396048E+04  0.10345396048E+04  0.00000000000E+00 0. -1.
         -3   -1    0    0    0  501 -0.00000000000E+00 -0.00000000000E+00 -0.26314070810E+02  0.26314070810E+02  0.00000000000E+00 0.  1.
         23    2    1    2    0    0 -0.82234320624E+02  0.91310944720E+02  0.47557257167E+03  0.50686975465E+03  0.12508998817E+03 0.  0.
          5    1    3    3  502    0  0.21212990458E+02  0.12328630511E+00  0.17278035404E+03  0.17412791076E+03  0.41800000000E+01 0.  1.
         -5    1    3    3    0  502 -0.10344731108E+03  0.91187658415E+02  0.30279221763E+03  0.33274184389E+03  0.41800000000E+01 0.  1.
        -11    1    1    2    0    0  0.23205668483E+02 -0.28271539844E+02  0.41591771813E+02  0.55386446875E+02  0.00000000000E+00 0.  1.
         11    1    1    2    0    0  0.59028652141E+02 -0.63039404875E+02  0.49106119047E+03  0.49859747405E+03  0.00000000000E+00 0. -1.
</event>
<event>
 7    1  0.6671761E-006  0.1457472E+03  0.7561462E-02  0.1205798E+00
          3   -1    0    0  501    0  0.00000000000E+00  0.00000000000E+00  0.29757836015E+02  0.29757836015E+02  0.00000000000E+00 0. -1.
         -3   -1    0    0    0  501 -0.00000000000E+00 -0.00000000000E+00 -0.87594895956E+03  0.87594895956E+03  0.00000000000E+00 0.  1.
         23    2    1    2    0    0 -0.59110155010E+02 -0.98632034855E+02 -0.53215676139E+03  0.55862423082E+03  0.12509166173E+03 0.  0.
          5    1    3    3  502    0  0.51333793573E+01 -0.85011188731E+02 -0.16618842549E+03  0.18678682759E+03  0.41800000000E+01 0.  1.
         -5    1    3    3    0  502 -0.64243534367E+02 -0.13620846124E+02 -0.36596833590E+03  0.37183740323E+03  0.41800000000E+01 0.  1.
        -11    1    1    2    0    0  0.74541904205E+02  0.50914607701E+02 -0.24966203265E+03  0.26548055165E+03  0.00000000000E+00 0.  1.
         11    1    1    2    0    0 -0.15431749195E+02  0.47717427154E+02 -0.64372329507E+02  0.81602013110E+02  0.00000000000E+00 0. -1.
</event>
<event>
 7    1  0.6671761E-006  0.8227207E+02  0.7561462E-02  0.1322725E+00
         -1   -1    0    0    0  501 -0.00000000000E+00  0.00000000000E+00  0.24213603949E+03  0.24213603949E+03  0.00000000000E+00 0.  1.
          1   -1    0    0  501    0  0.00000000000E+00 -0.00000000000E+00 -0.48474703302E+02  0.48474703302E+02  0.00000000000E+00 0. -1.
         23    2    1    2    0    0  0.12518697275E+02  0.10102080301E+02  0.11794386384E+03  0.17267460005E+03  0.12508793977E+03 0.  0.
          5    1    3    3  502    0  0.24917522457E+02 -0.26985352028E+02  0.12703941899E+03  0.13230864873E+03  0.41800000000E+01 0.  1.
         -5    1    3    3    0  502 -0.12398825182E+02  0.37087432330E+02 -0.90955551525E+01  0.40365951323E+02  0.41800000000E+01 0.  1.
        -11    1    1    2    0    0  0.37407170366E+02 -0.51238279000E+00  0.19669957575E+02  0.42266608119E+02  0.00000000000E+00 0.  1.
         11    1    1    2    0    0 -0.49925867641E+02 -0.95896975114E+01  0.56047514775E+02  0.75669534626E+02  0.00000000000E+00 0. -1.
</event>
<event>
 7    1  0.6671761E-006  0.1749674E+03  0.7561462E-02  0.1172764E+00
          1   -1    0    0  501    0  0.00000000000E+00  0.00000000000E+00  0.13242586622E+03  0.13242586622E+03  0.00000000000E+00 0. -1.
         -1   -1    0    0    0  501 -0.00000000000E+00 -0.00000000000E+00 -0.28220829396E+03  0.28220829396E+03  0.00000000000E+00 0.  1.
         23    2    1    2    0    0 -0.62017060789E+02 -0.14590899142E+03 -0.99968687979E+02  0.22558194572E+03  0.12553057816E+03 0.  0.
          5    1    3    3  502    0 -0.34692618720E+02 -0.13306349346E+03 -0.12519743505E+03  0.18601435758E+03  0.41800000000E+01 0. -1.
         -5    1    3    3    0  502 -0.27324442070E+02 -0.12845497967E+02  0.25228747070E+02  0.39567588139E+02  0.41800000000E+01 0. -1.
        -11    1    1    2    0    0 -0.22639224565E+02  0.20318981778E+02 -0.13616950170E+02  0.33328918995E+02  0.00000000000E+00 0.  1.
         11    1    1    2    0    0  0.84656285355E+02  0.12559000964E+03 -0.36196789592E+02  0.15572329546E+03  0.00000000000E+00 0. -1.
</event>
<event>
 7    1  0.6671761E-006  0.9224247E+02  0.7561462E-02  0.1297510E+00
          1   -1    0    0  501    0  0.00000000000E+00  0.00000000000E+00  0.66465013480E+03  0.66465013480E+03  0.00000000000E+00 0. -1.
         -1   -1    0    0    0  501 -0.00000000000E+00 -0.00000000000E+00 -0.17331803205E+02  0.17331803205E+02  0.00000000000E+00 0.  1.
         23    2    1    2    0    0 -0.59288603051E+01 -0.47949186633E+01  0.27814317407E+03  0.30202705552E+03  0.11746733315E+03 0.  0.
          5    1    3    3  502    0  0.38136037290E+02  0.22446083524E+02  0.45340985925E+02  0.63493790330E+02  0.41800000000E+01 0. -1.
         -5    1    3    3    0  502 -0.44064897595E+02 -0.27241002187E+02  0.23280218814E+03  0.23853326519E+03  0.41800000000E+01 0.  1.
        -11    1    1    2    0    0 -0.37685006254E+02 -0.14491198574E+02  0.13215588390E+03  0.13818586101E+03  0.00000000000E+00 0.  1.
         11    1    1    2    0    0  0.43613866559E+02  0.19286117238E+02  0.23701927363E+03  0.24176902147E+03  0.00000000000E+00 0. -1.
</event>
<event>
 7    1  0.6671761E-006  0.1129671E+03  0.7561462E-02  0.1255172E+00
         -1   -1    0    0    0  501 -0.00000000000E+00  0.00000000000E+00  0.35529681834E+03  0.35529681834E+03  0.00000000000E+00 0.  1.
          1   -1    0    0  501    0  0.00000000000E+00 -0.00000000000E+00 -0.58035834376E+02  0.58035834376E+02  0.00000000000E+00 0. -1.
         23    2    1    2    0    0 -0.45336466249E+02 -0.95992717170E+01  0.27912715947E+03  0.30937105209E+03  0.12510369911E+03 0.  0.
          5    1    3    3  502    0 -0.43368214130E+02  0.49463967951E+02  0.92624215975E+02  0.11368466874E+03  0.41800000000E+01 0. -1.
         -5    1    3    3    0  502 -0.19682521193E+01 -0.59063239668E+02  0.18650294350E+03  0.19568638335E+03  0.41800000000E+01 0. -1.
        -11    1    1    2    0    0  0.48437071734E+02  0.44476481571E+02  0.20462207785E+02  0.68869509062E+02  0.00000000000E+00 0.  1.
         11    1    1    2    0    0 -0.31006054848E+01 -0.34877209854E+02 -0.23283832874E+01  0.35092091563E+02  0.00000000000E+00 0. -1.
</event>
<event>
 7    1  0.6671761E-006  0.1097792E+03  0.7561462E-02  0.1260979E+00
          2   -1    0    0  501    0  0.00000000000E+00  0.00000000000E+00  0.73069383995E+03  0.73069383995E+03  0.00000000000E+00 0. -1.
         -2   -1    0    0    0  501 -0.00000000000E+00 -0.00000000000E+00 -0.21272552990E+02  0.21272552990E+02  0.00000000000E+00 0.  1.
         23    2    1    2    0    0 -0.31243646043E+02  0.86425847245E+01  0.23915338795E+03  0.27183135344E+03  0.12508829704E+03 0.  0.
          5    1    3    3  502    0  0.43273737535E+02 -0.12643947025E+02  0.50430339241E+02  0.67772983354E+02  0.41800000000E+01 0.  1.
         -5    1    3    3    0  502 -0.74517383578E+02  0.21286531749E+02  0.18872304871E+03  0.20405837009E+03  0.41800000000E+01 0.  1.
        -11    1    1    2    0    0  0.48079195754E+02 -0.39033158038E+02  0.31458333738E+03  0.32062107331E+03  0.00000000000E+00 0.  1.
         11    1    1    2    0    0 -0.16835549711E+02  0.30390573314E+02  0.15568456163E+03  0.15951396619E+03  0.00000000000E+00 0. -1.
</event>
<event>
 7    1  0.6671761E-006  0.1340482E+03  0.7561462E-02  0.1221570E+00
          2   -1    0    0  501    0  0.00000000000E+00  0.00000000000E+00  0.60231408291E+02  0.60231408291E+02  0.00000000000E+00 0. -1.
         -2   -1    0    0    0  501 -0.00000000000E+00 -0.00000000000E+00 -0.31840651495E+03  0.31840651495E+03  0.00000000000E+00 0.  1.
         23    2    1    2    0    0  0.52470907153E+02  0.60289053427E+02 -0.10925620764E+03  0.18431426033E+03  0.12508741581E+03 0.  0.
          5    1    3    3  502    0 -0.12158456278E+02  0.79617602596E+02 -0.64253459466E+02  0.10311532454E+03  0.41800000000E+01 0.  1.
         -5    1    3    3    0  502  0.64629363432E+02 -0.19328549169E+02 -0.45002748171E+02  0.81198935790E+02  0.41800000000E+01 0.  1.
        -11    1    1    2    0    0 -0.86666805399E+01  0.23645022149E+02 -0.12095504984E+02  0.27937424090E+02  0.00000000000E+00 0. -1.
         11    1    1    2    0    0 -0.43804226613E+02 -0.83934075576E+02 -0.13682339404E+03  0.16638623882E+03  0.00000000000E+00 0.  1.
</event>
<event>
 7    1  0.6671761E-006  0.1056106E+03  0.7561462E-02  0.1268921E+00
          2   -1    0    0  501    0  0.00000000000E+00  0.00000000000E+00  0.19417165472E+02  0.19417165472E+02  0.00000000000E+00 0. -1.
         -2   -1    0    0    0  501 -0.00000000000E+00 -0.00000000000E+00 -0.91682152307E+03  0.91682152307E+03  0.00000000000E+00 0.  1.
         23    2    1    2    0    0 -0.27647634927E+02  0.69176065604E+02 -0.59669082329E+03  0.61419648506E+03  0.12509062270E+03 0.  0.
          5    1    3    3  502    0 -0.38430200071E+02  0.77698925138E+01 -0.48729843867E+02  0.62684300988E+02  0.41800000000E+01 0.  1.
         -5    1    3    3    0  502  0.10782565143E+02  0.61406173090E+02 -0.54796097943E+03  0.55151218407E+03  0.41800000000E+01 0.  1.
        -11    1    1    2    0    0 -0.26101888857E+02 -0.41039618572E+02 -0.18623652589E+03  0.19248273292E+03  0.00000000000E+00 0.  1.
         11    1    1    2    0    0  0.53749523784E+02 -0.28136447032E+02 -0.11447700842E+03  0.12955947057E+03  0.00000000000E+00 0. -1.
</event>
<event>
 7    1  0.6671761E-006  0.1275144E+03  0.7561462E-02  0.1231191E+00
         -2   -1    0    0    0  501 -0.00000000000E+00  0.00000000000E+00  0.40668457243E+03  0.40668457243E+03  0.00000000000E+00 0.  1.
          2   -1    0    0  501    0  0.00000000000E+00 -0.00000000000E+00 -0.45843701137E+02  0.45843701137E+02  0.00000000000E+00 0. -1.
         23    2    1    2    0    0 -0.10799722318E+02 -0.68948854576E+02  0.26867805219E+03  0.30447577353E+03  0.12508805853E+03 0.  0.
          5    1    3    3  502    0  0.21184759287E+02  0.29777076439E+02  0.98057967379E+02  0.10472967905E+03  0.41800000000E+01 0.  1.
         -5    1    3    3    0  502 -0.31984481604E+02 -0.98725931015E+02  0.17062008482E+03  0.19974609448E+03  0.41800000000E+01 0.  1.
        -11    1    1    2    0    0 -0.33733564407E+02  0.17629224929E+01  0.16894454346E+02  0.37768821149E+02  0.00000000000E+00 0.  1.
         11    1    1    2    0    0  0.44533286725E+02  0.67185932083E+02  0.75268364750E+02  0.11028367889E+03  0.00000000000E+00 0. -1.
</event>
<event>
 7    1  0.6671761E-006  0.1039283E+03  0.7561462E-02  0.1272246E+00
          1   -1    0    0  501    0  0.00000000000E+00  0.00000000000E+00  0.49717295701E+03  0.49717295701E+03  0.00000000000E+00 0.  1.
         -1   -1    0    0    0  501 -0.00000000000E+00 -0.00000000000E+00 -0.36073944665E+02  0.36073944665E+02  0.00000000000E+00 0. -1.
         23    2    1    2    0    0 -0.87782188623E+01 -0.54114959626E+02  0.14853575777E+03  0.20178475710E+03  0.12509488750E+03 0.  0.
          5    1    3    3  502    0  0.41580509583E+02 -0.30156642417E+01  0.11516427212E+03  0.12254923492E+03  0.41800000000E+01 0.  1.
         -5    1    3    3    0  502 -0.50358728446E+02 -0.51099295384E+02  0.33371485654E+02  0.79235522174E+02  0.41800000000E+01 0.  1.
        -11    1    1    2    0    0  0.41512385539E+02  0.17702328186E+02  0.23812776817E+03  0.24236642620E+03  0.00000000000E+00 0.  1.
         11    1    1    2    0    0 -0.32734166677E+02  0.36412631440E+02  0.74435486397E+02  0.89095718369E+02  0.00000000000E+00 0. -1.
</event>
<event>
 7    1  0.6671761E-006  0.9270995E+02  0.7561462E-02  0.1296419E+00
         -1   -1    0    0    0  501 -0.00000000000E+00  0.00000000000E+00  0.22394796708E+03  0.22394796708E+03  0.00000000000E+00 0.  1.
          1   -1    0    0  501    0  0.00000000000E+00 -0.00000000000E+00 -0.55033695002E+02  0.55033695002E+02  0.00000000000E+00 0. -1.
         23    2    1    2    0    0  0.58777339190E+01  0.12231728024E+02  0.14044092835E+03  0.18856346998E+03  0.12509342481E+03 0.  0.
          5    1    3    3  502    0 -0.22776076492E+02 -0.51134460565E+02  0.60804186948E+02  0.82753273458E+02  0.41800000000E+01 0.  1.
         -5    1    3    3    0  502  0.28653810411E+02  0.63366188589E+02  0.79636741399E+02  0.10581019652E+03  0.41800000000E+01 0.  1.
        -11    1    1    2    0    0  0.16276671815E+02 -0.28025792956E+02 -0.17623126495E+02  0.36891051810E+02  0.00000000000E+00 0. -1.
         11    1    1    2    0    0 -0.22154405734E+02  0.15794064932E+02  0.46096470223E+02  0.53527140289E+02  0.00000000000E+00 0.  1.
</event>
<event>
 7    1  0.6671761E-006  0.1196695E+03  0.7561462E-02  0.1243643E+00
          3   -1    0    0  501    0  0.00000000000E+00  0.00000000000E+00  0.14291061236E+02  0.14291061236E+02  0.00000000000E+00 0. -1.
         -3   -1    0    0    0  501 -0.00000000000E+00 -0.00000000000E+00 -0.14055724776E+04  0.14055724776E+04  0.00000000000E+00 0.  1.
         23    2    1    2    0    0 -0.81157049240E+02  0.23227390495E+01 -0.97311657214E+03  0.98447719668E+03  0.12509047152E+03 0.  0.
          5    1    3    3  502    0 -0.50292121315E+02  0.50459690692E+02 -0.27849246873E+03  0.28749087879E+03  0.41800000000E+01 0.  1.
         -5    1    3    3    0  502 -0.30864927925E+02 -0.48136951643E+02 -0.69462410341E+03  0.69698631789E+03  0.41800000000E+01 0.  1.
        -11    1    1    2    0    0  0.87683483177E+02 -0.21585161286E+02 -0.39189287802E+03  0.40216208207E+03  0.00000000000E+00 0.  1.
         11    1    1    2    0    0 -0.65264339367E+01  0.19262422237E+02 -0.26271966242E+02  0.33224260121E+02  0.00000000000E+00 0. -1.
</event>
<event>
 7    1  0.6671761E-006  0.7893588E+02  0.7561462E-02  0.1332099E+00
         -1   -1    0    0    0  501 -0.00000000000E+00  0.00000000000E+00  0.19670970739E+03  0.19670970739E+03  0.00000000000E+00 0.  1.
          1   -1    0    0  501    0  0.00000000000E+00 -0.00000000000E+00 -0.90195754463E+02  0.90195754463E+02  0.00000000000E+00 0. -1.
         23    2    1    2    0    0 -0.34918415387E+02 -0.19139495043E+02  0.12942854716E+03  0.18435080209E+03  0.12509138023E+03 0.  0.
          5    1    3    3  502    0  0.35515045040E+02 -0.26479986686E+02  0.10257071731E+02  0.45663859228E+02  0.41800000000E+01 0. -1.
         -5    1    3    3    0  502 -0.70433460427E+02  0.73404916431E+01  0.11917147543E+03  0.13868694286E+03  0.41800000000E+01 0. -1.
        -11    1    1    2    0    0  0.87804321690E+01  0.12831677912E+02  0.35222034252E+02  0.38501164190E+02  0.00000000000E+00 0.  1.
         11    1    1    2    0    0  0.26137983218E+02  0.63078171310E+01 -0.58136628483E+02  0.64053495572E+02  0.00000000000E+00 0. -1.
</event>
<event>
 7    1  0.6671761E-006  0.1257676E+03  0.7561462E-02  0.1233875E+00
          1   -1    0    0  501    0  0.00000000000E+00  0.00000000000E+00  0.10046168278E+04  0.10046168278E+04  0.00000000000E+00 0. -1.
         -1   -1    0    0    0  501 -0.00000000000E+00 -0.00000000000E+00 -0.17923302117E+02  0.17923302117E+02  0.00000000000E+00 0.  1.
         23    2    1    2    0    0  0.58848933346E+02 -0.45087408623E+02  0.43456145822E+03  0.45824421648E+03  0.12509208444E+03 0.  0.
          5    1    3    3  502    0 -0.21851832898E+02 -0.55338799250E+02  0.24039631492E+03  0.24768477130E+03  0.41800000000E+01 0.  1.
         -5    1    3    3    0  502  0.80700766244E+02  0.10251390627E+02  0.19416514330E+03  0.21055944518E+03  0.41800000000E+01 0.  1.
        -11    1    1    2    0    0  0.16093395080E+02  0.29919447806E+02  0.96800569645E+02  0.10258908814E+03  0.00000000000E+00 0.  1.
         11    1    1    2    0    0 -0.74942328426E+02  0.15167960817E+02  0.45533149786E+03  0.46170682534E+03  0.00000000000E+00 0. -1.
</event>
<event>
 6    1  0.6671761E-006  0.1403281E+03  0.7561462E-02  0.1212888E+00
          2   -1    0    0  501    0  0.00000000000E+00  0.00000000000E+00  0.21480746885E+03  0.21480746885E+03  0.00000000000E+00 0. -1.
         -2   -1    0    0    0  501 -0.00000000000E+00 -0.00000000000E+00 -0.18701369544E+03  0.18701369544E+03  0.00000000000E+00 0.  1.
          5    1    1    2  502    0  0.12964422074E+02  0.16749911470E+02  0.98839197216E+02  0.10116963517E+03  0.41800000000E+01 0. -1.
         -5    1    1    2    0  502 -0.10473828423E+03  0.47379611902E+02 -0.99914777766E+02  0.15236591162E+03  0.41800000000E+01 0.  1.
        -11    1    1    2    0    0  0.55737368232E+01  0.21691876096E+02 -0.28577047626E+01  0.22578097954E+02  0.00000000000E+00 0.  1.
         11    1    1    2    0    0  0.86200125336E+02 -0.85821399468E+02  0.31727058732E+02  0.12570751955E+03  0.00000000000E+00 0. -1.
</event>
<event>
 7    1  0.6671761E-006  0.1122002E+03  0.7561462E-02  0.1256549E+00
          1   -1    0    0  501    0  0.00000000000E+00  0.00000000000E+00  0.43460343073E+02  0.43460343073E+02  0.00000000000E+00 0. -1.
         -1   -1    0    0    0  501 -0.00000000000E+00 -0.00000000000E+00 -0.47154335807E+03  0.47154335807E+03  0.00000000000E+00 0.  1.
         23    2    1    2    0    0 -0.61195921882E+02 -0.31772800203E+02 -0.34430120633E+03  0.37275532488E+03  0.12509500332E+03 0.  0.
          5    1    3    3  502    0 -0.36426329208E+02 -0.61850262939E+02 -0.88767596873E+02  0.11423436935E+03  0.41800000000E+01 0.  1.
         -5    1    3    3    0  502 -0.24769592674E+02  0.30077462736E+02 -0.25553360946E+03  0.25852095553E+03  0.41800000000E+01 0.  1.
        -11    1    1    2    0    0 -0.23565045367E+02  0.11191708011E+02 -0.30087487461E+02  0.39822388088E+02  0.00000000000E+00 0. -1.
         11    1    1    2    0    0  0.84760967249E+02  0.20581092191E+02 -0.53694321210E+02  0.10242598818E+03  0.00000000000E+00 0.  1.
</event>
<event>
 7    1  0.8799721E-006  0.2336696E+03  0.7561462E-02  0.1124083E+00
          1   -1    0    0  501    0  0.00000000000E+00  0.00000000000E+00  0.63774957465E+03  0.63774957465E+03  0.00000000000E+00 0. -1.
         -1   -1    0    0    0  501 -0.00000000000E+00 -0.00000000000E+00 -0.99832431181E+02  0.99832431181E+02  0.00000000000E+00 0.  1.
         23    2    1    2    0    0 -0.11262400256E+03 -0.19726880956E+03  0.25712542939E+03  0.36518548815E+03  0.12509118730E+03 0.  0.
          5    1    3    3  502    0 -0.99905951564E+02 -0.17606614508E+03  0.14187239574E+03  0.24723619410E+03  0.41800000000E+01 0.  1.
         -5    1    3    3    0  502 -0.12718050996E+02 -0.21202664484E+02  0.11525303365E+03  0.11794929405E+03  0.41800000000E+01 0.  1.
        -11    1    1    2    0    0  0.67793808787E+02  0.45785409497E+02  0.62558791469E+02  0.10298498251E+03  0.00000000000E+00 0.  1.
         11    1    1    2    0    0  0.44830193772E+02  0.15148340007E+03  0.21823292262E+03  0.26941153517E+03  0.00000000000E+00 0. -1.
</event>
<event>
 7    1  0.6671761E-006  0.1051266E+03  0.7561462E-02  0.1269870E+00
         -2   -1    0    0    0  501 -0.00000000000E+00  0.00000000000E+00  0.18455204540E+02  0.18455204540E+02  0.00000000000E+00 0.  1.
          2   -1    0    0  501    0  0.00000000000E+00 -0.00000000000E+00 -0.80131924793E+03  0.80131924793E+03  0.00000000000E+00 0. -1.
         23    2    1    2    0    0 -0.10769205851E+02 -0.52334534173E+02 -0.39520639229E+03  0.41796041473E+03  0.12509171240E+03 0.  0.
          5    1    3    3  502    0 -0.51426767941E+02  0.13346915846E+02 -0.22124804457E+03  0.22757640969E+03  0.41800000000E+01 0. -1.
         -5    1    3    3    0  502  0.40657562089E+02 -0.65681450019E+02 -0.17395834772E+03  0.19038400504E+03  0.41800000000E+01 0. -1.
        -11    1    1    2    0    0 -0.85018011382E+01 -0.10710142587E+02 -0.67609128488E+01  0.15254432778E+02  0.00000000000E+00 0.  1.
         11    1    1    2    0    0  0.19271006990E+02  0.63044676760E+02 -0.38089673825E+03  0.38655960496E+03  0.00000000000E+00 0. -1.
</event>
<event>
 7    1  0.6671761E-006  0.1062198E+03  0.7561462E-02  0.1267735E+00
         -1   -1    0    0    0  501 -0.00000000000E+00  0.00000000000E+00  0.13197921110E+03  0.13197921110E+03  0.00000000000E+00 0.  1.
          1   -1    0    0  501    0  0.00000000000E+00 -0.00000000000E+00 -0.11294090006E+03  0.11294090006E+03  0.00000000000E+00 0. -1.
         23    2    1    2    0    0  0.32627332709E+02  0.91691219997E+01  0.53231959161E+02  0.14010316931E+03  0.12508653380E+03 0.  0.
          5    1    3    3  502    0  0.68634028696E+02 -0.31046647189E+02  0.30130213207E+02  0.81239315264E+02  0.41800000000E+01 0. -1.
         -5    1    3    3    0  502 -0.36006695988E+02  0.40215769189E+02  0.23101745954E+02  0.58863854049E+02  0.41800000000E+01 0. -1.
        -11    1    1    2    0    0 -0.55105537421E+02  0.64491674566E+01  0.64082308249E+01  0.55850491830E+02  0.00000000000E+00 0.  1.
         11    1    1    2    0    0  0.22478204713E+02 -0.15618289456E+02 -0.40601878953E+02  0.48966450016E+02  0.00000000000E+00 0. -1.
</event>
<event>
 6    1  0.6671761E-006  0.1268441E+03  0.7561462E-02  0.1232215E+00
          1   -1    0    0  501    0  0.00000000000E+00  0.00000000000E+00  0.58086268133E+02  0.58086268133E+02  0.00000000000E+00 0. -1.
         -1   -1    0    0    0  501 -0.00000000000E+00 -0.00000000000E+00 -0.28174330731E+03  0.28174330731E+03  0.00000000000E+00 0.  1.
          5    1    1    2  502    0 -0.44978626920E+02  0.61450088444E+02 -0.50414787489E+02  0.91423812253E+02  0.41800000000E+01 0. -1.
         -5    1    1    2    0  502  0.49603840018E+02 -0.69740327565E+02 -0.81507917651E+02  0.11825932214E+03  0.41800000000E+01 0.  1.
        -11    1    1    2    0    0 -0.46554033377E+02  0.15758079343E+02 -0.56384156551E+02  0.74798183121E+02  0.00000000000E+00 0.  1.
         11    1    1    2    0    0  0.41928820278E+02 -0.74678402226E+01 -0.35350177488E+02  0.55348257931E+02  0.00000000000E+00 0. -1.
</event>
<event>
 7    1  0.6671761E-006  0.5485300E+02  0.7561462E-02  0.1420795E+00
          1   -1    0    0  501    0  0.00000000000E+00  0.00000000000E+00  0.82419040619E+02  0.82419040619E+02  0.00000000000E+00 0. -1.
         -1   -1    0    0    0  501 -0.00000000000E+00 -0.00000000000E+00 -0.30808802036E+03  0.30808802036E+03  0.00000000000E+00 0.  1.
         23    2    1    2    0    0 -0.34000382620E+02  0.21605246211E+02 -0.25263200002E+03  0.28476841820E+03  0.12508921570E+03 0.  0.
          5    1    3    3  502    0 -0.32013980168E+02 -0.85193214815E+01 -0.32697664876E+01  0.33550522165E+02  0.41800000000E+01 0. -1.
         -5    1    3    3    0  502 -0.19864024526E+01  0.30124567692E+02 -0.24936223353E+03  0.25121789603E+03  0.41800000000E+01 0. -1.
        -11    1    1    2    0    0  0.12622202461E+02 -0.20938361620E+02 -0.33575008434E+02  0.41533314022E+02  0.00000000000E+00 0.  1.
         11    1    1    2    0    0  0.21378180159E+02 -0.66688459093E+00  0.60538028709E+02  0.64205328766E+02  0.00000000000E+00 0. -1.
</event>
<event>
 7    1  0.6671761E-006  0.1116243E+03  0.7561462E-02  0.1257591E+00
         -3   -1    0    0    0  501 -0.00000000000E+00  0.00000000000E+00  0.48887763799E+02  0.48887763799E+02  0.00000000000E+00 0.  1.
          3   -1    0    0  501    0  0.00000000000E+00 -0.00000000000E+00 -0.27407058641E+03  0.27407058641E+03  0.00000000000E+00 0. -1.
         23    2    1    2    0    0 -0.23662605169E+02 -0.38685087125E+02 -0.14223415063E+03  0.19475344595E+03  0.12506756675E+03 0.  0.
          5    1    3    3  502    0 -0.47423441793E+02 -0.71025877419E+02 -0.64265657737E+02  0.10696356978E+03  0.41800000000E+01 0. -1.
         -5    1    3    3    0  502  0.23760836624E+02  0.32340790295E+02 -0.77968492894E+02  0.87789876171E+02  0.41800000000E+01 0. -1.
        -11    1    1    2    0    0  0.86624261332E+01  0.65821482597E+02 -0.51310476126E+02  0.83906317748E+02  0.00000000000E+00 0. -1.
         11    1    1    2    0    0  0.15000179036E+02 -0.27136395473E+02 -0.31638195854E+02  0.44298586515E+02  0.00000000000E+00 0.  1.
</event>
<event>
 7    1  0.6671761E-006  0.1155056E+03  0.7561462E-02  0.1250701E+00
         -2   -1    0    0    0  501 -0.00000000000E+00  0.00000000000E+00  0.40219269528E+02  0.40219269528E+02  0.00000000000E+00 0.  1.
          2   -1    0    0  501    0  0.00000000000E+00 -0.00000000000E+00 -0.51915335615E+03  0.51915335615E+03  0.00000000000E+00 0. -1.
         23    2    1    2    0    0  0.40001150966E+02  0.70679305032E+02 -0.16596086517E+03  0.22312786504E+03  0.12508948457E+03 0.  0.
          5    1    3    3  502    0  0.58353957612E+02  0.32959504162E+02 -0.16800055043E+03  0.18092310695E+03  0.41800000000E+01 0.  1.
         -5    1    3    3    0  502 -0.18352806646E+02  0.37719800870E+02  0.20396852551E+01  0.42204758090E+02  0.41800000000E+01 0.  1.
        -11    1    1    2    0    0 -0.56156350979E+02 -0.76920520772E+01 -0.12249769775E+03  0.13497551398E+03  0.00000000000E+00 0. -1.
         11    1    1    2    0    0  0.16155200013E+02 -0.62987252955E+02 -0.19047552370E+03  0.20126924666E+03  0.00000000000E+00 0.  1.
</event>
<event>
 7    1  0.6671761E-006  0.1483698E+03  0.7561462E-02  0.1202491E+00
          1   -1    0    0  501    0  0.00000000000E+00  0.00000000000E+00  0.11794408340E+04  0.11794408340E+04  0.00000000000E+00 0. -1.
         -1   -1    0    0    0  501 -0.00000000000E+00 -0.00000000000E+00 -0.25681306070E+02  0.25681306070E+02  0.00000000000E+00 0.  1.
         23    2    1    2    0    0  0.31026273839E+02  0.13276957541E+03  0.53308712823E+03  0.56428650800E+03  0.12508791708E+03 0.  0.
          5    1    3    3  502    0  0.18362513525E+02  0.10617138976E+02  0.51310830146E+01  0.22219494951E+02  0.41800000000E+01 0. -1.
         -5    1    3    3    0  502  0.12663760314E+02  0.12215243644E+03  0.52795604522E+03  0.54206701305E+03  0.41800000000E+01 0. -1.
        -11    1    1    2    0    0  0.16809017395E+02 -0.76792520549E+02  0.22415709795E+03  0.23754165706E+03  0.00000000000E+00 0.  1.
         11    1    1    2    0    0 -0.47835291234E+02 -0.55977054865E+02  0.39651530173E+03  0.40329397499E+03  0.00000000000E+00 0. -1.
</event>
<event>
 7    1  0.6671761E-006  0.1563168E+03  0.7561462E-02  0.1192919E+00
          2   -1    0    0  501    0  0.00000000000E+00  0.00000000000E+00  0.22404941559E+03  0.22404941559E+03  0.00000000000E+00 0. -1.
         -2   -1    0    0    0  501 -0.00000000000E+00 -0.00000000000E+00 -0.13932892138E+03  0.13932892138E+03  0.00000000000E+00 0.  1.
         23    2    1    2    0    0 -0.13068153580E+03 -0.49716684625E+02  0.50359190565E+02  0.19424892901E+03  0.12508871180E+03 0.  0.
          5    1    3    3  502    0  0.28158794778E+01  0.11428513561E+02  0.45598281477E+02  0.47278068627E+02  0.41800000000E+01 0. -1.
         -5    1    3    3    0  502 -0.13349741528E+03 -0.61145198186E+02  0.47609090878E+01  0.14697086039E+03  0.41800000000E+01 0. -1.
        -11    1    1    2    0    0  0.69761073361E+02  0.59325554976E+02  0.51572532703E+02  0.10509926241E+03  0.00000000000E+00 0. -1.
         11    1    1    2    0    0  0.60920462440E+02 -0.96088703513E+01 -0.17211229052E+02  0.64030145548E+02  0.00000000000E+00 0.  1.
</event>
<event>
 7    1  0.6671761E-006  0.9597327E+02  0.7561462E-02  0.1288999E+00
         -2   -1    0    0    0  501 -0.00000000000E+00  0.00000000000E+00  0.51420216505E+02  0.51420216505E+02  0.00000000000E+00 0.  1.
          2   -1    0    0  501    0  0.00000000000E+00 -0.00000000000E+00 -0.30091941417E+03  0.30091941417E+03  0.00000000000E+00 0. -1.
         23    2    1    2    0    0  0.45599005737E+02  0.13351880885E+02 -0.86607792953E+02  0.15939229871E+03  0.12508977992E+03 0.  0.
          5    1    3    3  502    0  0.37226741931E+02  0.66545689129E+02 -0.68039312334E+02  0.10227892979E+03  0.41800000000E+01 0.  1.
         -5    1    3    3    0  502  0.83722638064E+01 -0.53193808243E+02 -0.18568480619E+02  0.57113368918E+02  0.41800000000E+01 0.  1.
        -11    1    1    2    0    0 -0.20434170500E+02  0.13717176767E+02  0.13018727533E+01  0.24645712307E+02  0.00000000000E+00 0.  1.
         11    1    1    2    0    0 -0.25164835237E+02 -0.27069057653E+02 -0.16419327747E+03  0.16830161966E+03  0.00000000000E+00 0. -1.
</event>
<event>
 7    1  0.6671761E-006  0.1276269E+03  0.7561462E-02  0.1231020E+00
          3   -1    0    0  501    0  0.00000000000E+00  0.00000000000E+00  0.54067857781E+02  0.54067857781E+02  0.00000000000E+00 0. -1.
         -3   -1    0    0    0  501 -0.00000000000E+00 -0.00000000000E+00 -0.38893397122E+03  0.38893397122E+03  0.00000000000E+00 0.  1.
         23    2    1    2    0    0 -0.68297360875E+02  0.45147490856E+02 -0.26055646793E+03  0.30039942456E+03  0.12508923162E+03 0.  0.
          5    1    3    3  502    0  0.12257052968E+02  0.61391076465E+02 -0.14992342887E+03  0.16252263394E+03  0.41800000000E+01 0.  1.
         -5    1    3    3    0  502 -0.80554413842E+02 -0.16243585609E+02 -0.11063303905E+03  0.13787679063E+03  0.41800000000E+01 0.  1.
        -11    1    1    2    0    0  0.57361697162E+02 -0.65535762883E+02 -0.80557937120E+02  0.11863760682E+03  0.00000000000E+00 0.  1.
         11    1    1    2    0    0  0.10935663712E+02  0.20388272026E+02  0.62482916073E+01  0.23964797622E+02  0.00000000000E+00 0. -1.
</event>
<event>
 7    1  0.6671761E-006  0.2132539E+03  0.7561462E-02  0.1139015E+00
          2   -1    0    0  501    0  0.00000000000E+00  0.00000000000E+00  0.17333582442E+04  0.17333582442E+04  0.00000000000E+00 0. -1.
         -2   -1    0    0    0  501 -0.00000000000E+00 -0.00000000000E+00 -0.29017439489E+02  0.29017439489E+02  0.00000000000E+00 0.  1.
         23    2    1    2    0    0  0.17679791435E+02 -0.19302669640E+03  0.76254300999E+03  0.79667733867E+03  0.12510419387E+03 0.  0.
          5    1    3    3  502    0 -0.37813504873E+02 -0.50869573507E+02  0.11495168269E+03  0.13133520630E+03  0.41800000000E+01 0. -1.
         -5    1    3    3    0  502  0.55493296308E+02 -0.14215712290E+03  0.64759132729E+03  0.66534213237E+03  0.41800000000E+01 0. -1.
        -11    1    1    2    0    0  0.31574703716E+02  0.10265794442E+03  0.39744511574E+03  0.41170163407E+03  0.00000000000E+00 0.  1.
         11    1    1    2    0    0 -0.49254495151E+02  0.90368751979E+02  0.54435267899E+03  0.55399671096E+03  0.00000000000E+00 0. -1.
</event>
<event>
 6    1  0.6671761E-006  0.8183161E+02  0.7561462E-02  0.1323933E+00
         -3   -1    0    0    0  501 -0.00000000000E+00  0.00000000000E+00  0.32684912326E+02  0.32684912326E+02  0.00000000000E+00 0.  1.
          3   -1    0    0  501    0  0.00000000000E+00 -0.00000000000E+00 -0.70785498476E+03  0.70785498476E+03  0.00000000000E+00 0. -1.
          5    1    1    2  502    0  0.10091199219E+02  0.33072574314E+02 -0.33484596878E+03  0.33665252514E+03  0.41800000000E+01 0. -1.
         -5    1    1    2    0  502 -0.70951635525E+01 -0.38062417090E+02  0.11265193535E+02  0.40539683348E+02  0.41800000000E+01 0.  1.
        -11    1    1    2    0    0  0.33453494907E+02  0.30604685756E+02 -0.14149606652E+03  0.14858304060E+03  0.00000000000E+00 0.  1.
         11    1    1    2    0    0 -0.36449530573E+02 -0.25614842979E+02 -0.21009323067E+03  0.21476464800E+03  0.00000000000E+00 0. -1.
</event>
<event>
 7    1  0.6671761E-006  0.1143538E+03  0.7561462E-02  0.1252713E+00
          2   -1    0    0  501    0  0.00000000000E+00  0.00000000000E+00  0.38380061480E+03  0.38380061480E+03  0.00000000000E+00 0. -1.
         -2   -1    0    0    0  501 -0.00000000000E+00 -0.00000000000E+00 -0.47308850479E+02  0.47308850479E+02  0.00000000000E+00 0.  1.
         23    2    1    2    0    0 -0.24326386564E+02 -0.46934342667E+02  0.88941474129E+02  0.16233508688E+03  0.12508992368E+03 0.  0.
          5    1    3    3  502    0 -0.60053658634E+02  0.55606133534E+01  0.10555534002E+02  0.61369813706E+02  0.41800000000E+01 0. -1.
         -5    1    3    3    0  502  0.35727272070E+02 -0.52494956020E+02  0.78385940127E+02  0.10096527317E+03  0.41800000000E+01 0. -1.
        -11    1    1    2    0    0  0.58119587560E+02  0.38726553855E+02  0.16974494061E+03  0.18355102095E+03  0.00000000000E+00 0. -1.
         11    1    1    2    0    0 -0.33793200996E+02  0.82077888116E+01  0.77805349588E+02  0.85223357451E+02  0.00000000000E+00 0.  1.
</event>
<event>
 7    1  0.6671761E-006  0.1049010E+03  0.7561462E-02  0.1270315E+00
          1   -1    0    0  501    0  0.00000000000E+00  0.00000000000E+00  0.27923016352E+02  0.27923016352E+02  0.00000000000E+00 0. -1.
         -1   -1    0    0    0  501 -0.00000000000E+00 -0.00000000000E+00 -0.63890857977E+03  0.63890857977E+03  0.00000000000E+00 0.  1.
         23    2    1    2    0    0 -0.54982421225E+02 -0.40214818385E+01 -0.47798405242E+03  0.49714358185E+03  0.12507496813E+03 0.  0.
          5    1    3    3  502    0  0.52419997314E+01  0.44510956085E+02 -0.80941312018E+02  0.92615723092E+02  0.41800000000E+01 0.  1.
         -5    1    3    3    0  502 -0.60224420956E+02 -0.48532437924E+02 -0.39704274040E+03  0.40452785876E+03  0.41800000000E+01 0.  1.
        -11    1    1    2    0    0 -0.14410739047E+02 -0.86243090972E+01 -0.79238620290E+02  0.80998808959E+02  0.00000000000E+00 0.  1.
         11    1    1    2    0    0  0.69393160271E+02  0.12645790936E+02 -0.53762890709E+02  0.88689205309E+02  0.00000000000E+00 0. -1.
</event>
<event>
 7    1  0.6671761E-006  0.1283948E+03  0.7561462E-02  0.1229857E+00
         -2   -1    0    0    0  501 -0.00000000000E+00  0.00000000000E+00  0.31030938990E+02  0.31030938990E+02  0.00000000000E+00 0. -1.
          2   -1    0    0  501    0  0.00000000000E+00 -0.00000000000E+00 -0.86532801289E+03  0.86532801289E+03  0.00000000000E+00 0.  1.
         23    2    1    2    0    0 -0.53376585830E+02 -0.94949130251E+02 -0.28940955304E+03  0.33356967410E+03  0.12508573395E+03 0.  0.
          5    1    3    3  502    0 -0.23878496941E+01 -0.69521900232E+02 -0.26026794614E+03  0.26943621254E+03  0.41800000000E+01 0. -1.
         -5    1    3    3    0  502 -0.50988736136E+02 -0.25427230020E+02 -0.29141606893E+02  0.64133461559E+02  0.41800000000E+01 0. -1.
        -11    1    1    2    0    0  0.41505252847E+02  0.10594787058E+03 -0.52479816482E+03  0.53699231939E+03  0.00000000000E+00 0.  1.
         11    1    1    2    0    0  0.11871332983E+02 -0.10998740330E+02 -0.20089356050E+02  0.25796958390E+02  0.00000000000E+00 0. -1.
</event>
<event>
 7    1  0.6671761E-006  0.1305510E+03  0.7561462E-02  0.1226640E+00
          2   -1    0    0  501    0  0.00000000000E+00  0.00000000000E+00  0.12202894231E+02  0.12202894231E+02  0.00000000000E+00 0.  1.
         -2   -1    0    0    0  501 -0.00000000000E+00 -0.00000000000E+00 -0.18718007281E+04  0.18718007281E+04  0.00000000000E+00 0. -1.
         23    2    1    2    0    0 -0.84279390206E+02  0.28612736082E+02 -0.13604303136E+04  0.13690653620E+04  0.12509045956E+03 0.  0.
          5    1    3    3  502    0 -0.11110003148E+03  0.38241423418E+02 -0.12236654354E+04  0.12293006930E+04  0.41800000000E+01 0.  1.
         -5    1    3    3    0  502  0.26820641274E+02 -0.96286873355E+01 -0.13676487815E+03  0.13976466905E+03  0.41800000000E+01 0.  1.
        -11    1    1    2    0    0 -0.12512478218E+02  0.30698142737E+01 -0.13321437048E+02  0.18532311131E+02  0.00000000000E+00 0. -1.
         11    1    1    2    0    0  0.96791868424E+02 -0.31682550356E+02 -0.48584608328E+03  0.49640594922E+03  0.00000000000E+00 0.  1.
</event>
